Converted from moscito
21600
    1SOL     ow    1   2.777   6.977   1.466 -0.2059  0.0351 -0.2780
    1SOL     hw    2   2.708   6.925   1.424 -1.0532  0.4174  0.6074
    1SOL     hw    3   2.733   7.056   1.496  1.2752  1.8598 -2.5680
    1SOL     vw    4   2.762   6.980   1.464 -0.1223  0.3259 -0.4633
    2SOL     ow    5   3.838   1.207   6.481 -0.0242 -0.3918  0.1462
    2SOL     hw    6   3.908   1.146   6.503  0.7833  0.7632  0.8935
    2SOL     hw    7   3.881   1.293   6.480 -1.6808  0.5280  1.9572
    2SOL     vw    8   3.853   1.210   6.484 -0.1364 -0.1181  0.4838
    3SOL     ow    9   6.368   3.751   1.574 -0.0089  0.5536 -0.5731
    3SOL     hw   10   6.273   3.757   1.569  0.0598  1.2146 -1.0826
    3SOL     hw   11   6.387   3.658   1.562 -0.6602  0.2323  0.7387
    3SOL     vw   12   6.358   3.739   1.572 -0.0856  0.5983 -0.4672
    4SOL     ow   13   1.558   3.749   6.545 -0.2871 -0.0533 -0.0976
    4SOL     hw   14   1.611   3.669   6.549 -0.2426 -0.1564 -2.0398
    4SOL     hw   15   1.573   3.784   6.457 -2.6868  0.4343 -0.3956
    4SOL     vw   16   1.567   3.743   6.534 -0.5978 -0.0025 -0.3929
    5SOL     ow   17   5.755   4.417   3.764  0.1106  0.0719 -0.4274
    5SOL     hw   18   5.801   4.349   3.812  1.6623  1.6634  0.4909
    5SOL     hw   19   5.739   4.486   3.829 -0.9548  0.8120 -1.4173
    5SOL     vw   20   5.759   4.417   3.779  0.1748  0.3796 -0.4370
    6SOL     ow   21   0.620   1.314   5.165 -0.7224 -0.1378 -0.8648
    6SOL     hw   22   0.686   1.287   5.102  0.7689  0.4097  0.3801
    6SOL     hw   23   0.561   1.371   5.115  0.0398 -0.2309 -1.9077
    6SOL     vw   24   0.621   1.318   5.150 -0.4251 -0.0778 -0.8380
    7SOL     ow   25   5.940   1.917   6.763 -0.0760 -0.4775  0.2048
    7SOL     hw   26   5.855   1.960   6.753 -0.2978 -0.8627  0.3687
    7SOL     hw   27   5.988   1.939   6.683 -0.1884  0.0529  0.2809
    7SOL     vw   28   5.935   1.925   6.751 -0.1199 -0.4584  0.2365
    8SOL     ow   29   3.315   4.253   6.173  0.1471  0.1232  0.4526
    8SOL     hw   30   3.306   4.175   6.226  2.0454 -0.7695 -0.4249
    8SOL     hw   31   3.280   4.229   6.087  1.3800 -0.0432 -0.0280
    8SOL     vw   32   3.309   4.240   6.169  0.5602 -0.0169  0.2735
    9SOL     ow   33   6.598   1.932   6.347 -0.2421 -0.1291 -0.5877
    9SOL     hw   34   6.583   1.972   6.433  1.1816  0.0987 -0.4260
    9SOL     hw   35   6.541   1.855   6.347  0.7925 -0.9859  1.1901
    9SOL     vw   36   6.589   1.927   6.358  0.0825 -0.2121 -0.3321
   10SOL     ow   37   2.932   6.379   1.363 -0.6247  0.2032 -0.5813
   10SOL     hw   38   2.912   6.426   1.282 -4.3077 -0.9531 -0.5127
   10SOL     hw   39   2.957   6.291   1.334 -2.0133 -0.2323 -0.5294
   10SOL     vw   40   2.933   6.373   1.349 -1.2938 -0.0067 -0.5654
   11SOL     ow   41   4.397   2.984   3.764  0.2526 -0.6648  0.4800
   11SOL     hw   42   4.446   3.035   3.829  0.2130 -1.1053  0.8686
   11SOL     hw   43   4.401   2.894   3.797 -0.5368 -0.7596  0.3419
   11SOL     vw   44   4.404   2.979   3.777  0.1438 -0.7354  0.5130
   12SOL     ow   45   4.192   6.490   2.147  0.0171 -0.5863 -0.6220
   12SOL     hw   46   4.183   6.573   2.194 -1.2048  1.0676 -3.5397
   12SOL     hw   47   4.210   6.515   2.056  1.1004 -3.5761 -1.3531
   12SOL     vw   48   4.193   6.504   2.141 -0.0014 -0.7625 -1.1034
   13SOL     ow   49   5.873   2.586   6.590  0.1793  0.5296 -0.5523
   13SOL     hw   50   5.928   2.529   6.644 -2.8084 -2.2233 -0.1062
   13SOL     hw   51   5.835   2.649   6.652  1.3590  1.2708 -0.5582
   13SOL     vw   52   5.875   2.587   6.606 -0.0591  0.2642 -0.4945
   14SOL     ow   53   0.958   3.130   3.766 -0.8067  0.5709  0.0202
   14SOL     hw   54   0.979   3.223   3.756 -2.0379  0.8666  0.0284
   14SOL     hw   55   0.969   3.093   3.679  3.7761 -0.2463  0.6776
   14SOL     vw   56   0.963   3.138   3.754 -0.3645  0.5021  0.1081
   15SOL     ow   57   1.966   1.417   4.051  0.0570 -0.5078  0.7703
   15SOL     hw   58   1.951   1.412   3.956  3.7737 -0.5922  0.0051
   15SOL     hw   59   1.994   1.507   4.067  0.5140 -0.7723  1.5453
   15SOL     vw   60   1.968   1.428   4.040  0.6076 -0.5539  0.7715
   16SOL     ow   61   3.894   2.033   6.648  0.2002 -0.0909 -0.0692
   16SOL     hw   62   3.989   2.027   6.649  0.1403 -1.8204  1.9665
   16SOL     hw   63   3.873   2.093   6.720 -0.2725 -1.8336  1.3133
   16SOL     vw   64   3.904   2.040   6.657  0.1301 -0.5490  0.3815
   17SOL     ow   65   0.815   2.593   4.499 -0.2612 -0.8509  0.5002
   17SOL     hw   66   0.780   2.536   4.568  1.3995 -1.1377  1.1381
   17SOL     hw   67   0.879   2.648   4.544  0.6304 -0.8359 -0.7553
   17SOL     vw   68   0.819   2.592   4.514  0.0755 -0.8869  0.4187
   18SOL     ow   69   4.046   5.298   5.286 -0.3107 -0.9834  0.4109
   18SOL     hw   70   4.006   5.312   5.200 -0.5253  0.0257  0.6552
   18SOL     hw   71   3.987   5.343   5.347  1.0848  0.4361  0.7904
   18SOL     vw   72   4.033   5.306   5.282 -0.1547 -0.6630  0.4933
   19SOL     ow   73   5.244   4.006   6.198 -0.3010  0.0087 -0.0803
   19SOL     hw   74   5.181   3.970   6.134  0.5044  1.2782 -1.6651
   19SOL     hw   75   5.190   4.058   6.257 -1.1304 -1.5571  0.6184
   19SOL     vw   76   5.228   4.008   6.197 -0.3042 -0.0303 -0.1972
   20SOL     ow   77   6.346   0.402   6.303 -0.4861 -0.5687  0.1323
   20SOL     hw   78   6.333   0.496   6.296  0.5588 -0.4694 -0.6844
   20SOL     hw   79   6.432   0.386   6.265 -0.9783 -1.9526 -0.4806
   20SOL     vw   80   6.356   0.412   6.297 -0.4132 -0.7382 -0.0567
   21SOL     ow   81   4.331   2.590   1.452 -0.1342 -0.0823  0.0529
   21SOL     hw   82   4.339   2.594   1.357  0.2369  0.1909  0.0920
   21SOL     hw   83   4.352   2.499   1.474  0.3510 -0.0034 -0.0772
   21SOL     vw   84   4.335   2.578   1.443 -0.0210 -0.0358  0.0408
   22SOL     ow   85   3.452   2.297   2.595 -0.3714  0.3269  0.1561
   22SOL     hw   86   3.373   2.352   2.594  0.2999  1.3302  0.5154
   22SOL     hw   87   3.524   2.360   2.590  0.4036 -0.5906 -0.3337
   22SOL     vw   88   3.451   2.313   2.594 -0.1806  0.3381  0.1389
   23SOL     ow   89   0.772   0.020   5.457 -0.1169  0.3852  0.0134
   23SOL     hw   90   0.838   0.054   5.518  1.7064 -0.7113 -1.2531
   23SOL     hw   91   0.798  -0.071   5.442  0.3166  0.9368 -3.3578
   23SOL     vw   92   0.784   0.012   5.463  0.1809  0.3135 -0.5984
   24SOL     ow   93   3.383   1.110   1.958 -0.6888  0.1200 -0.7862
   24SOL     hw   94   3.325   1.087   2.031  0.0192 -2.7009 -1.0055
   24SOL     hw   95   3.352   1.056   1.885  1.3111 -0.4183 -1.2988
   24SOL     vw   96   3.371   1.100   1.958 -0.3315 -0.3232 -0.8828
   25SOL     ow   97   4.029   4.934   6.434  0.1235  0.1873 -0.0952
   25SOL     hw   98   4.060   5.022   6.414  0.4401 -0.1558 -1.1528
   25SOL     hw   99   4.026   4.890   6.350  1.9361 -1.4601  0.6246
   25SOL     vw  100   4.033   4.940   6.420  0.4044 -0.0753 -0.1395
   26SOL     ow  101   5.977   2.721   4.969 -0.6683  0.0870 -0.5168
   26SOL     hw  102   6.042   2.787   4.944 -0.0153 -0.6097 -0.7087
   26SOL     hw  103   5.923   2.708   4.891  0.6274 -1.2296 -1.2531
   26SOL     vw  104   5.978   2.728   4.956 -0.4110 -0.1786 -0.6390
   27SOL     ow  105   3.349   5.628   1.222 -0.3877  0.2313 -0.1958
   27SOL     hw  106   3.274   5.681   1.192 -0.5395 -0.1592 -0.5183
   27SOL     hw  107   3.309   5.550   1.260 -0.3746  1.8459  3.5943
   27SOL     vw  108   3.334   5.625   1.223 -0.4061  0.3929  0.2617
   28SOL     ow  109   5.425   2.948   2.166 -0.1033 -0.3549  0.2538
   28SOL     hw  110   5.519   2.931   2.172 -0.0849 -1.1486 -1.4524
   28SOL     hw  111   5.388   2.864   2.137 -1.3716 -0.1103  1.1005
   28SOL     vw  112   5.432   2.934   2.163 -0.2685 -0.4274  0.1405
   29SOL     ow  113   1.348   1.195   3.464 -0.1795 -0.1284  0.1643
   29SOL     hw  114   1.382   1.276   3.500 -0.8246 -0.5187  1.7491
   29SOL     hw  115   1.330   1.215   3.372  1.9095  0.7912 -0.0968
   29SOL     vw  116   1.350   1.208   3.457  0.0110 -0.0586  0.3389
   30SOL     ow  117   5.091   1.608   6.675 -0.9275 -0.5586  0.3406
   30SOL     hw  118   5.070   1.619   6.768 -1.7351 -1.2544  0.2600
   30SOL     hw  119   5.154   1.677   6.656 -0.5199 -0.6014  1.4782
   30SOL     vw  120   5.096   1.618   6.685 -0.9804 -0.6561  0.4799
   31SOL     ow  121   3.345   3.363   5.011  0.4426  0.4536 -0.6809
   31SOL     hw  122   3.349   3.337   5.103 -3.4952  0.2666 -0.3940
   31SOL     hw  123   3.321   3.455   5.013 -0.5307  0.2327 -1.4901
   31SOL     vw  124   3.343   3.371   5.024 -0.2054  0.3997 -0.7501
   32SOL     ow  125   3.041   2.262   4.534  0.2552 -0.3301 -0.7087
   32SOL     hw  126   2.951   2.238   4.514  0.4099  1.7324 -4.9805
   32SOL     hw  127   3.035   2.351   4.570  0.5277 -0.0699 -1.2772
   32SOL     vw  128   3.028   2.271   4.536  0.3115 -0.0235 -1.3475
   33SOL     ow  129   2.024   2.307   2.139 -0.5557 -0.2090 -0.5626
   33SOL     hw  130   2.039   2.286   2.231 -3.0505 -2.6094 -0.5824
   33SOL     hw  131   2.077   2.385   2.124 -0.6155  0.7350  3.0956
   33SOL     vw  132   2.033   2.315   2.149 -0.8929 -0.4011 -0.0825
   34SOL     ow  133   2.754   0.493   3.381  0.1624 -0.3572  0.3106
   34SOL     hw  134   2.724   0.437   3.452  0.1143 -1.9728 -0.9367
   34SOL     hw  135   2.675   0.531   3.343 -0.0822 -1.8213 -0.7175
   34SOL     vw  136   2.740   0.491   3.385  0.1239 -0.7636  0.0104
   35SOL     ow  137   1.309   7.016   0.450 -0.5384  0.7151 -0.1226
   35SOL     hw  138   1.371   7.079   0.413  0.6493  0.2212  0.9481
   35SOL     hw  139   1.297   6.951   0.381 -0.4587  1.2219 -0.6202
   35SOL     vw  140   1.316   7.016   0.436 -0.3712  0.7164 -0.0470
   36SOL     ow  141   3.450   3.017   2.747  0.7089  0.8318  0.1371
   36SOL     hw  142   3.438   2.985   2.836 -0.9672 -0.8726 -0.6364
   36SOL     hw  143   3.532   3.067   2.751  1.0721  0.1908  2.4405
   36SOL     vw  144   3.460   3.020   2.759  0.5356  0.5223  0.3388
   37SOL     ow  145   7.077   3.107   6.693 -0.0433 -0.1390  0.1746
   37SOL     hw  146   7.140   3.155   6.746  4.2816 -2.8239 -1.9485
   37SOL     hw  147   7.052   3.168   6.624  1.3567  0.6301  0.3173
   37SOL     vw  148   7.082   3.121   6.691  0.7119 -0.3918 -0.0868
   38SOL     ow  149   4.489   6.677   3.684  0.1951  0.0781  0.3857
   38SOL     hw  150   4.403   6.657   3.648  0.4497 -0.9309  0.3235
   38SOL     hw  151   4.526   6.741   3.623 -0.0480 -0.3522 -0.2186
   38SOL     vw  152   4.482   6.683   3.671  0.1965 -0.1116  0.2978
   39SOL     ow  153   5.486   3.555   0.846 -0.2662  0.8011 -0.0752
   39SOL     hw  154   5.448   3.506   0.773  1.1754  0.5071 -0.6657
   39SOL     hw  155   5.422   3.546   0.917 -0.9775 -0.2158 -0.8094
   39SOL     vw  156   5.472   3.547   0.846 -0.1700  0.6280 -0.2500
   40SOL     ow  157   0.012   2.811   1.830 -0.1977  0.4383 -0.8929
   40SOL     hw  158  -0.023   2.730   1.791  0.8026 -0.5864  0.2527
   40SOL     hw  159   0.086   2.834   1.775  1.2987 -1.0844  0.3664
   40SOL     vw  160   0.017   2.803   1.818  0.1318  0.1022 -0.5756
   41SOL     ow  161   1.971   5.991   2.609 -0.7347  0.7737 -0.5149
   41SOL     hw  162   1.964   6.086   2.602 -1.7521  0.8642  1.2375
   41SOL     hw  163   1.927   5.969   2.691  3.0538 -0.8004  1.3705
   41SOL     vw  164   1.964   6.001   2.619 -0.3691  0.5777 -0.0350
   42SOL     ow  165   0.373   3.353   3.736  0.0302 -0.8398 -0.3325
   42SOL     hw  166   0.319   3.423   3.772  0.4360 -1.9354  2.7117
   42SOL     hw  167   0.327   3.325   3.657 -4.3315 -2.0666  2.2798
   42SOL     vw  168   0.360   3.359   3.730 -0.4917 -1.1463  0.4138
   43SOL     ow  169   1.783   3.299   4.267 -0.1884 -0.9518  0.5203
   43SOL     hw  170   1.831   3.287   4.185 -0.5280  1.3834 -0.1194
   43SOL     hw  171   1.709   3.355   4.242 -1.5127 -1.9417  2.0501
   43SOL     vw  172   1.779   3.305   4.253 -0.4079 -0.7743  0.6378
   44SOL     ow  173   6.659   4.664   4.821  0.0643 -0.4088 -0.3703
   44SOL     hw  174   6.612   4.738   4.782 -1.8124 -0.9630  0.6628
   44SOL     hw  175   6.635   4.668   4.914  2.2206 -0.6840  0.2368
   44SOL     vw  176   6.650   4.674   4.828  0.1013 -0.5186 -0.1535
   45SOL     ow  177   5.020   0.121   7.021 -0.5673  0.2852 -0.1863
   45SOL     hw  178   5.012   0.050   6.957  0.9966 -0.7690  0.7154
   45SOL     hw  179   5.019   0.077   7.106  1.6877  1.1569  0.3727
   45SOL     vw  180   5.019   0.106   7.024 -0.0637  0.2611  0.0064
   46SOL     ow  181   1.477   2.210   0.827 -0.5331  0.8201 -0.5165
   46SOL     hw  182   1.461   2.158   0.748 -3.1173  0.9189 -0.1435
   46SOL     hw  183   1.403   2.191   0.884  1.5626  0.2571  2.2222
   46SOL     vw  184   1.466   2.201   0.824 -0.5975  0.7589 -0.1060
   47SOL     ow  185   5.855   1.937   7.067  0.7583  0.6514 -0.7078
   47SOL     hw  186   5.803   1.872   7.114  0.5993  1.3547  0.1126
   47SOL     hw  187   5.792   2.000   7.034  0.9429  0.5856 -1.1949
   47SOL     vw  188   5.840   1.937   7.069  0.7615  0.7354 -0.6640
   48SOL     ow  189   6.113   6.563   4.905  0.6030  0.6928  0.2481
   48SOL     hw  190   6.080   6.567   4.816  0.0567 -1.0476  0.3347
   48SOL     hw  191   6.038   6.534   4.957  1.7241 -1.5679  0.7194
   48SOL     vw  192   6.099   6.559   4.900  0.6790  0.1650  0.3216
   49SOL     ow  193   0.864   5.629   1.275  0.2176  0.7596  0.8107
   49SOL     hw  194   0.853   5.710   1.224 -0.8840  0.9453  1.3119
   49SOL     hw  195   0.824   5.561   1.221 -1.5107  1.0572  1.6415
   49SOL     vw  196   0.857   5.631   1.261 -0.1558  0.8233  0.9865
   50SOL     ow  197   2.517   7.050   3.760  0.4983 -0.2447  0.0928
   50SOL     hw  198   2.471   7.039   3.843 -0.8087  0.9310 -0.4361
   50SOL     hw  199   2.448   7.071   3.697  1.5914  0.0248 -1.0510
   50SOL     vw  200   2.502   7.051   3.763  0.4700 -0.0541 -0.1280
   51SOL     ow  201   5.846   1.700   2.922 -0.3254  0.3953  0.0641
   51SOL     hw  202   5.902   1.771   2.889 -1.5122  1.0497 -0.5995
   51SOL     hw  203   5.853   1.631   2.857 -0.7972  0.7337 -0.3456
   51SOL     vw  204   5.854   1.700   2.909 -0.5441  0.5263 -0.0775
   52SOL     ow  205   6.226   3.136   2.358 -0.2751  0.2062  0.2926
   52SOL     hw  206   6.160   3.067   2.367  1.0689 -1.3418 -1.1339
   52SOL     hw  207   6.235   3.150   2.264 -0.5507  2.4531  0.5314
   52SOL     vw  208   6.219   3.129   2.347 -0.1342  0.2984  0.1359
   53SOL     ow  209   2.320   2.651   3.950 -0.3041  0.0310 -0.0240
   53SOL     hw  210   2.315   2.556   3.944  0.1214 -0.0139  0.3154
   53SOL     hw  211   2.307   2.670   4.043 -0.2461  0.2947 -0.0696
   53SOL     vw  212   2.318   2.641   3.961 -0.2403  0.0600  0.0149
   54SOL     ow  213   1.681   4.168   4.011 -0.0705  0.4974  0.3549
   54SOL     hw  214   1.659   4.205   3.926 -1.4917  0.7013  0.7869
   54SOL     hw  215   1.621   4.094   4.022 -0.3782  0.8760  1.4421
   54SOL     vw  216   1.670   4.163   4.001 -0.2986  0.5741  0.5555
   55SOL     ow  217   2.943   5.075   1.074 -0.0375  0.0763  0.5506
   55SOL     hw  218   3.023   5.077   1.127 -1.5863  1.8559  3.0576
   55SOL     hw  219   2.940   5.162   1.033 -0.7860  0.1097  0.6676
   55SOL     vw  220   2.954   5.087   1.075 -0.3405  0.3154  0.8969
   56SOL     ow  221   6.395   6.531   2.863  0.2545  0.2186 -1.4077
   56SOL     hw  222   6.461   6.532   2.933 -0.3497  0.9463 -0.8311
   56SOL     hw  223   6.442   6.562   2.785  0.7797 -0.0043 -1.1823
   56SOL     vw  224   6.410   6.535   2.862  0.2441  0.2854 -1.3018
   57SOL     ow  225   5.260   5.837   7.017  0.0736 -0.5674  0.1756
   57SOL     hw  226   5.252   5.913   6.959  3.0612  0.0615  0.4089
   57SOL     hw  227   5.240   5.872   7.105 -0.1056 -0.4502  0.0903
   57SOL     vw  228   5.256   5.852   7.021  0.4439 -0.4692  0.1953
   58SOL     ow  229   6.315   1.328   5.621 -0.1229 -0.1573  0.1791
   58SOL     hw  230   6.272   1.266   5.679 -1.8191 -1.5501 -2.3489
   58SOL     hw  231   6.367   1.273   5.562  0.7229  1.0975 -0.2984
   58SOL     vw  232   6.316   1.313   5.621 -0.2353 -0.1755 -0.2174
   59SOL     ow  233   0.713   7.114   0.059  0.2128 -0.2248  0.6117
   59SOL     hw  234   0.701   7.097   0.153 -0.4177  0.0338  0.5821
   59SOL     hw  235   0.790   7.063   0.035  2.5763  2.4006  2.0522
   59SOL     vw  236   0.722   7.105   0.068  0.4414  0.1559  0.7978
   60SOL     ow  237   4.321   5.815   6.190  0.4515  0.7381  0.3039
   60SOL     hw  238   4.411   5.783   6.198 -0.2097 -0.7200  3.2257
   60SOL     hw  239   4.267   5.736   6.195 -1.0425  1.6463 -0.7361
   60SOL     vw  240   4.326   5.801   6.192  0.1671  0.6654  0.5519
   61SOL     ow  241   5.485   4.205   6.975  0.2339  0.8471  0.3445
   61SOL     hw  242   5.462   4.145   7.045  1.9725  1.2031  1.2800
   61SOL     hw  243   5.546   4.155   6.920 -0.0046  1.0480 -0.1082
   61SOL     vw  244   5.490   4.190   6.977  0.4318  0.9205  0.4082
   62SOL     ow  245   2.258   6.922   2.669  0.1984 -0.4519 -0.3229
   62SOL     hw  246   2.244   6.933   2.575  0.5573  2.6902 -0.0985
   62SOL     hw  247   2.170   6.925   2.707  0.1870  0.8462 -0.4005
   62SOL     vw  248   2.244   6.924   2.661  0.2445  0.1340 -0.3035
   63SOL     ow  249   6.643   0.111   6.481  1.0832 -0.0660 -0.0686
   63SOL     hw  250   6.634   0.016   6.486  1.1033 -0.0727 -0.1756
   63SOL     hw  251   6.724   0.126   6.433  1.2218  0.0037  0.1866
   63SOL     vw  252   6.652   0.101   6.476  1.1041 -0.0577 -0.0494
   64SOL     ow  253   5.115   4.204   7.030  0.6555 -0.1975 -0.1115
   64SOL     hw  254   5.142   4.119   6.995  0.0614 -0.3209 -0.2816
   64SOL     hw  255   5.051   4.236   6.966  2.0579  1.1134 -0.9190
   64SOL     vw  256   5.110   4.197   7.017  0.7620 -0.0410 -0.2406
   65SOL     ow  257   4.301   3.786   1.733  0.7560 -0.7796 -0.7421
   65SOL     hw  258   4.251   3.721   1.683 -0.5110 -0.2294 -0.2441
   65SOL     hw  259   4.388   3.786   1.693  1.8125 -4.9021  1.0215
   65SOL     vw  260   4.306   3.777   1.721  0.7281 -1.2510 -0.4438
   66SOL     ow  261   4.557   6.451   1.065  0.3622  0.0558  0.3689
   66SOL     hw  262   4.620   6.408   1.123  2.7269 -0.2303 -2.2097
   66SOL     hw  263   4.606   6.468   0.984 -2.2491  1.9953 -0.9599
   66SOL     vw  264   4.572   6.447   1.062  0.3300  0.2737 -0.1466
   67SOL     ow  265   3.930   0.287   0.222 -0.7767 -0.3233  0.7018
   67SOL     hw  266   4.014   0.251   0.193 -0.6451  0.4082  0.1584
   67SOL     hw  267   3.884   0.309   0.142 -1.1172  0.1196  1.0145
   67SOL     vw  268   3.935   0.285   0.208 -0.8042 -0.1684  0.6713
   68SOL     ow  269   0.314   2.449   1.191 -0.9182  0.2358 -0.1959
   68SOL     hw  270   0.220   2.437   1.179 -0.6730 -1.5617 -0.5424
   68SOL     hw  271   0.324   2.462   1.285 -1.4084 -0.8383  0.0206
   68SOL     vw  272   0.303   2.449   1.202 -0.9505 -0.1431 -0.2130
   69SOL     ow  273   6.251   1.880   5.559 -0.5193  0.0959  0.2767
   69SOL     hw  274   6.175   1.852   5.508 -0.6978 -0.5034  0.8497
   69SOL     hw  275   6.213   1.922   5.637 -0.2625 -0.0584  0.4857
   69SOL     vw  276   6.236   1.882   5.563 -0.5088 -0.0035  0.3798
   70SOL     ow  277   1.279   5.245   4.613 -0.0396  0.2085  0.4696
   70SOL     hw  278   1.217   5.270   4.545  0.7273 -2.4176 -1.3470
   70SOL     hw  279   1.225   5.223   4.688 -1.2125 -0.3531 -0.5038
   70SOL     vw  280   1.264   5.245   4.614 -0.0932 -0.2122  0.1013
   71SOL     ow  281   6.765   3.101   6.677  0.1148 -0.0951 -0.7044
   71SOL     hw  282   6.759   3.190   6.643 -1.6607 -0.0297 -0.3478
   71SOL     hw  283   6.736   3.046   6.604 -1.6231 -0.1144 -0.0613
   71SOL     vw  284   6.760   3.105   6.663 -0.3490 -0.0889 -0.5727
   72SOL     ow  285   6.576   2.806   5.798  0.1877 -0.3104 -0.6735
   72SOL     hw  286   6.526   2.888   5.789 -0.1178 -0.6238 -2.1791
   72SOL     hw  287   6.646   2.814   5.733 -1.0933 -2.0754 -2.4335
   72SOL     vw  288   6.578   2.818   5.788 -0.0215 -0.5846 -1.1046
   73SOL     ow  289   3.966   6.764   1.348  0.0599  0.1436  0.4077
   73SOL     hw  290   3.889   6.731   1.301  1.1719  0.7493 -1.9889
   73SOL     hw  291   4.039   6.747   1.289  1.6790  0.2824  2.2979
   73SOL     vw  292   3.965   6.758   1.334  0.4202  0.2418  0.3409
   74SOL     ow  293   2.932   2.257   5.521  0.2317  0.5979 -0.0436
   74SOL     hw  294   2.976   2.320   5.578  0.0620  0.8437 -0.1796
   74SOL     hw  295   2.951   2.172   5.560 -0.0997  0.7802  0.5340
   74SOL     vw  296   2.940   2.254   5.534  0.1656  0.6543  0.0148
   75SOL     ow  297   0.108   1.937   1.727  0.4054  0.0145 -0.5583
   75SOL     hw  298   0.033   1.990   1.700  0.3565 -0.2902 -1.0466
   75SOL     hw  299   0.069   1.866   1.779  0.2557 -0.5654 -1.4313
   75SOL     vw  300   0.093   1.934   1.730  0.3792 -0.1022 -0.7379
   76SOL     ow  301   2.337   6.229   0.898  0.3385 -0.3394  0.1275
   76SOL     hw  302   2.250   6.265   0.913  0.5092  0.2353 -0.2061
   76SOL     hw  303   2.335   6.142   0.938 -0.4226 -0.3779  0.0187
   76SOL     vw  304   2.325   6.222   0.905  0.2606 -0.2687  0.0691
   77SOL     ow  305   4.698   6.793   5.856 -0.2214  0.3396  0.2487
   77SOL     hw  306   4.688   6.853   5.782  1.3640 -0.6229 -0.8150
   77SOL     hw  307   4.673   6.845   5.932 -0.0214  1.9804 -0.7475
   77SOL     vw  308   4.693   6.808   5.856  0.0141  0.4292 -0.0234
   78SOL     ow  309   4.195   4.273   1.177 -0.0281 -0.2780 -0.1018
   78SOL     hw  310   4.227   4.255   1.089  0.5460  0.1950  0.0063
   78SOL     hw  311   4.205   4.189   1.223 -0.9308 -0.7049 -0.6528
   78SOL     vw  312   4.201   4.259   1.172 -0.0715 -0.2716 -0.1603
   79SOL     ow  313   4.436   4.760   4.843  0.2800 -0.5439  0.3233
   79SOL     hw  314   4.383   4.729   4.916 -2.0311  0.6299 -0.7192
   79SOL     hw  315   4.446   4.854   4.859 -2.0414  0.1729 -1.7497
   79SOL     vw  316   4.430   4.768   4.854 -0.3312 -0.2947 -0.0877
   80SOL     ow  317   5.476   1.257   3.867  0.3653 -0.0653  0.1420
   80SOL     hw  318   5.492   1.165   3.886 -1.9956 -0.2905  1.4022
   80SOL     hw  319   5.505   1.303   3.946 -1.4864 -0.1146  0.8975
   80SOL     vw  320   5.482   1.251   3.880 -0.1903 -0.1015  0.4081
   81SOL     ow  321   2.612   0.639   7.076 -0.9001 -0.1974  0.2614
   81SOL     hw  322   2.529   0.592   7.071 -1.0870  0.1740 -0.2069
   81SOL     hw  323   2.604   0.710   7.013  0.2582 -0.8942 -0.7233
   81SOL     vw  324   2.600   0.642   7.067 -0.7720 -0.2404  0.0696
   82SOL     ow  325   7.066   6.640   2.996  0.0595  0.0936 -0.1551
   82SOL     hw  326   7.122   6.573   2.957  0.3724 -0.2043  0.7727
   82SOL     hw  327   7.020   6.680   2.922 -2.0772 -2.8265 -0.5809
   82SOL     vw  328   7.067   6.636   2.981 -0.1810 -0.3309 -0.0889
   83SOL     ow  329   4.381   2.992   6.975  0.7254  0.1254 -0.4038
   83SOL     hw  330   4.291   3.022   6.976  0.6251 -0.1095 -1.4996
   83SOL     hw  331   4.421   3.035   7.051 -0.1071  0.8289 -0.3441
   83SOL     vw  332   4.375   3.002   6.985  0.6025  0.1873 -0.5407
   84SOL     ow  333   7.023   5.670   2.424  0.0472  0.2522 -0.2855
   84SOL     hw  334   6.935   5.635   2.409 -0.3404  0.0308  2.1109
   84SOL     hw  335   7.038   5.729   2.351 -2.0974  0.3000 -0.7542
   84SOL     vw  336   7.013   5.673   2.412 -0.2868  0.2294 -0.0311
   85SOL     ow  337   1.413   5.849   6.395  0.6203 -0.3898  0.3816
   85SOL     hw  338   1.490   5.833   6.450  1.0856  1.0235  0.1943
   85SOL     hw  339   1.381   5.934   6.423 -1.0597 -1.0718  0.6244
   85SOL     vw  340   1.419   5.858   6.406  0.4600 -0.2935  0.3886
   86SOL     ow  341   1.442   4.748   6.499 -0.0921  0.2366 -0.4750
   86SOL     hw  342   1.490   4.824   6.531  0.7536 -0.6465  0.4192
   86SOL     hw  343   1.356   4.754   6.540  1.3952 -1.6480  3.4229
   86SOL     vw  344   1.437   4.758   6.508  0.2158 -0.1287  0.1574
   87SOL     ow  345   2.475   6.445   0.759  0.0390 -0.0752 -0.0760
   87SOL     hw  346   2.405   6.496   0.719  0.5511  1.0180  0.3932
   87SOL     hw  347   2.554   6.469   0.710  0.5835  0.8996  1.2149
   87SOL     vw  348   2.476   6.455   0.747  0.1783  0.1974  0.1563
   88SOL     ow  349   3.011   6.494   7.049 -0.1655  0.0576  0.3759
   88SOL     hw  350   2.963   6.461   7.125 -1.9824  3.4753  0.9243
   88SOL     hw  351   2.945   6.502   6.980  0.8099 -0.2056 -0.6205
   88SOL     vw  352   2.996   6.491   7.050 -0.2764  0.4740  0.3166
   89SOL     ow  353   5.178   5.477   2.694 -0.1270  0.0986 -0.5884
   89SOL     hw  354   5.101   5.484   2.751 -0.2459  0.1371 -0.7513
   89SOL     hw  355   5.141   5.468   2.606  0.0545 -0.1218 -0.6416
   89SOL     vw  356   5.163   5.477   2.690 -0.1187  0.0749 -0.6169
   90SOL     ow  357   1.248   3.609   5.801 -0.3992 -0.3836 -0.2716
   90SOL     hw  358   1.331   3.610   5.850 -1.3933 -0.0173  1.4965
   90SOL     hw  359   1.271   3.640   5.714  0.8696  2.7582  1.0251
   90SOL     vw  360   1.262   3.613   5.796 -0.3629  0.0793  0.1330
   91SOL     ow  361   6.546   0.650   7.032 -0.0240  0.3542 -0.2459
   91SOL     hw  362   6.542   0.723   7.093  1.3463  0.7458 -0.5896
   91SOL     hw  363   6.632   0.610   7.048  0.5145  0.6522 -2.0902
   91SOL     vw  364   6.557   0.654   7.042  0.2282  0.4452 -0.5345
   92SOL     ow  365   0.260   1.628   5.692 -0.1340 -0.0705  0.1808
   92SOL     hw  366   0.353   1.606   5.698 -0.2516 -0.8906 -0.7955
   92SOL     hw  367   0.258   1.706   5.638  0.0297  0.4029  0.8382
   92SOL     vw  368   0.272   1.635   5.686 -0.1279 -0.1162  0.1385
   93SOL     ow  369   4.776   4.781   1.198  0.0695  0.0826 -0.0649
   93SOL     hw  370   4.757   4.875   1.196 -0.6276 -0.0577 -1.3666
   93SOL     hw  371   4.769   4.754   1.107 -1.4823 -1.5624  0.4785
   93SOL     vw  372   4.772   4.790   1.186 -0.2275 -0.1531 -0.1649
   94SOL     ow  373   6.804   5.739   2.639  0.5095 -0.3318  0.5033
   94SOL     hw  374   6.747   5.792   2.694 -0.4837 -0.3417 -0.4699
   94SOL     hw  375   6.804   5.785   2.554  1.6722 -0.5266  0.3817
   94SOL     vw  376   6.797   5.752   2.635  0.5319 -0.3588  0.3589
   95SOL     ow  377   0.054   6.845   0.795 -0.3373  0.0229 -0.0577
   95SOL     hw  378   0.036   6.939   0.805 -0.6467  0.4431 -3.4341
   95SOL     hw  379  -0.032   6.804   0.791 -0.2169 -0.2444  0.0543
   95SOL     vw  380   0.040   6.852   0.796 -0.3622  0.0432 -0.4884
   96SOL     ow  381   1.659   0.062   1.591 -0.5749 -0.1453  0.2075
   96SOL     hw  382   1.576   0.020   1.570 -0.5936 -0.2058  0.4035
   96SOL     hw  383   1.666   0.056   1.686  0.0631 -0.9086  0.1177
   96SOL     vw  384   1.649   0.056   1.601 -0.4932 -0.2540  0.2216
   97SOL     ow  385   4.456   2.863   6.692 -0.0468  0.1756 -0.3095
   97SOL     hw  386   4.549   2.867   6.670  0.2942 -3.0773  0.0474
   97SOL     hw  387   4.411   2.891   6.612  1.1879  1.3596 -0.6334
   97SOL     vw  388   4.462   2.867   6.679  0.1609 -0.0973 -0.3052
   98SOL     ow  389   6.159   6.611   5.192 -0.3780 -0.9236 -0.4958
   98SOL     hw  390   6.119   6.698   5.196  1.9485  0.2785  4.7735
   98SOL     hw  391   6.094   6.553   5.233 -0.6605 -1.0368 -1.0986
   98SOL     vw  392   6.145   6.615   5.198 -0.1082 -0.7796  0.1199
   99SOL     ow  393   2.875   2.524   0.234 -0.1885  0.6027  0.0891
   99SOL     hw  394   2.865   2.434   0.205  0.5729  0.3569  0.5609
   99SOL     hw  395   2.787   2.550   0.262 -0.3962 -0.0125  0.0178
   99SOL     vw  396   2.862   2.516   0.234 -0.1156  0.4892  0.1419
  100SOL     ow  397   0.108   4.081   1.424 -0.2138 -0.3683 -0.4483
  100SOL     hw  398   0.044   4.152   1.414  1.8641  1.7337  0.3651
  100SOL     hw  399   0.096   4.051   1.514  0.2877  0.4067 -0.1138
  100SOL     vw  400   0.098   4.086   1.434  0.1265  0.0112 -0.2969
  101SOL     ow  401   1.421   2.756   1.884 -0.0423 -0.3367  0.4582
  101SOL     hw  402   1.390   2.671   1.916  3.1929 -1.8810 -0.1094
  101SOL     hw  403   1.504   2.769   1.930  0.8906  1.1454 -1.5492
  101SOL     vw  404   1.427   2.746   1.895  0.5077 -0.3450  0.1184
  102SOL     ow  405   1.530   6.442   5.555  0.9088  0.5102 -0.0481
  102SOL     hw  406   1.489   6.367   5.600  0.4625  0.2008 -0.9510
  102SOL     hw  407   1.470   6.462   5.483  1.9776  0.5381 -0.9421
  102SOL     vw  408   1.517   6.435   5.552  0.9909  0.4730 -0.2849
  103SOL     ow  409   6.093   6.531   2.369 -0.0998 -0.7557 -0.5166
  103SOL     hw  410   6.169   6.482   2.337 -0.7146 -1.1840 -1.3988
  103SOL     hw  411   6.020   6.469   2.362 -0.5600 -0.3071  0.1647
  103SOL     vw  412   6.093   6.516   2.364 -0.2413 -0.7532 -0.5431
  104SOL     ow  413   6.195   2.008   5.793 -0.0491  0.4685 -0.1332
  104SOL     hw  414   6.214   2.097   5.822 -0.7685  1.1604 -1.6795
  104SOL     hw  415   6.162   1.964   5.871  0.4811  1.4978  0.6948
  104SOL     vw  416   6.194   2.014   5.807 -0.0739  0.6956 -0.2279
  105SOL     ow  417   5.103   5.739   4.782 -0.3276  0.2209 -0.1642
  105SOL     hw  418   5.157   5.741   4.703 -0.5421 -1.0941 -0.3609
  105SOL     hw  419   5.110   5.827   4.818  2.4473 -0.0604  0.1633
  105SOL     vw  420   5.111   5.751   4.776  0.0105  0.0103 -0.1469
  106SOL     ow  421   2.441   3.541   6.375  0.0595  0.4958  0.0636
  106SOL     hw  422   2.433   3.614   6.313 -1.5321  0.5665  0.3195
  106SOL     hw  423   2.534   3.540   6.398  0.1943  2.2099 -0.2420
  106SOL     vw  424   2.452   3.550   6.370 -0.1328  0.7312  0.0572
  107SOL     ow  425   1.122   6.760   3.865 -0.1546 -0.2457  0.1003
  107SOL     hw  426   1.204   6.710   3.869 -1.0246 -2.3132 -3.6845
  107SOL     hw  427   1.142   6.834   3.807 -0.3504  0.8371  1.3517
  107SOL     vw  428   1.136   6.763   3.858 -0.2952 -0.3757 -0.2340
  108SOL     ow  429   3.626   4.660   2.950 -0.4791  0.8472 -0.4610
  108SOL     hw  430   3.688   4.636   3.019  0.5948 -0.9731 -1.9821
  108SOL     hw  431   3.674   4.721   2.894 -1.2833  2.1542  0.1876
  108SOL     vw  432   3.641   4.665   2.952 -0.4436  0.7794 -0.5761
  109SOL     ow  433   4.192   5.157   2.740 -0.1880 -0.5611  0.2668
  109SOL     hw  434   4.159   5.228   2.794 -1.9328 -0.6444 -0.6329
  109SOL     hw  435   4.287   5.160   2.751 -0.2910  1.4042  0.8423
  109SOL     vw  436   4.200   5.167   2.748 -0.4320 -0.3128  0.2240
  110SOL     ow  437   6.903   4.695   4.891 -0.0002  0.3716  0.5175
  110SOL     hw  438   6.811   4.691   4.865  0.2052  0.3916 -0.2574
  110SOL     hw  439   6.945   4.624   4.841  0.4319  0.4611  0.7428
  110SOL     vw  440   6.897   4.685   4.881  0.0839  0.3860  0.4449
  111SOL     ow  441   3.229   6.956   0.618 -0.3711  0.5403 -0.0037
  111SOL     hw  442   3.244   6.871   0.660 -0.1544  1.2520  1.4344
  111SOL     hw  443   3.183   7.007   0.684 -1.0097  1.3729 -1.0596
  111SOL     vw  444   3.225   6.951   0.632 -0.4269  0.7441  0.0467
  112SOL     ow  445   5.877   4.881   2.142  0.4205 -0.2542 -0.3157
  112SOL     hw  446   5.875   4.972   2.112 -0.3707 -0.6552 -1.5436
  112SOL     hw  447   5.937   4.838   2.082 -0.1645 -0.8003 -0.5134
  112SOL     vw  448   5.885   4.888   2.130  0.2389 -0.3793 -0.5038
  113SOL     ow  449   6.270   6.830   5.023 -0.2707  0.1611 -0.0628
  113SOL     hw  450   6.328   6.867   5.090  2.0836  1.5397 -2.6533
  113SOL     hw  451   6.219   6.905   4.991  3.1285  1.1870 -3.9749
  113SOL     vw  452   6.271   6.845   5.028  0.4883  0.4783 -0.9205
  114SOL     ow  453   0.451   1.329   0.083 -0.5401 -0.5646 -0.0131
  114SOL     hw  454   0.494   1.253   0.124  0.2937 -1.4372 -2.3517
  114SOL     hw  455   0.493   1.405   0.125  0.1340 -1.4044  0.8825
  114SOL     vw  456   0.462   1.329   0.094 -0.3412 -0.7905 -0.2035
  115SOL     ow  457   6.368   1.309   0.706 -0.5746  0.1322  0.2840
  115SOL     hw  458   6.334   1.261   0.631 -1.9341  2.5753 -0.7813
  115SOL     hw  459   6.333   1.263   0.782 -0.5097 -1.4371 -0.5859
  115SOL     vw  460   6.359   1.296   0.706 -0.7455  0.2475  0.0287
  116SOL     ow  461   5.741   0.657   0.343 -0.2250  0.5347 -0.3972
  116SOL     hw  462   5.759   0.645   0.436 -0.5633 -0.3197 -0.4311
  116SOL     hw  463   5.645   0.657   0.337 -0.4239 -4.1010 -1.2153
  116SOL     vw  464   5.731   0.656   0.355 -0.2961 -0.1896 -0.5096
  117SOL     ow  465   2.677   2.942   5.946  0.3091 -0.7204  0.7234
  117SOL     hw  466   2.735   3.014   5.970 -0.6769 -0.5282  2.6774
  117SOL     hw  467   2.652   2.962   5.855  0.9055  0.8057  0.8612
  117SOL     vw  468   2.681   2.954   5.937  0.2576 -0.4936  0.9992
  118SOL     ow  469   0.556   3.686   6.932 -0.3058  0.0341 -0.0612
  118SOL     hw  470   0.588   3.729   7.012  0.1751 -0.6073  0.1014
  118SOL     hw  471   0.628   3.628   6.906  0.3089  1.5656 -2.0052
  118SOL     vw  472   0.570   3.684   6.939 -0.1613  0.1515 -0.2961
  119SOL     ow  473   6.687   5.169   1.937  0.2469  0.0679 -0.4406
  119SOL     hw  474   6.739   5.146   2.014 -0.0441  0.0454 -0.2498
  119SOL     hw  475   6.739   5.139   1.863  1.4410  1.7915 -0.3652
  119SOL     vw  476   6.701   5.162   1.938  0.3660  0.2923 -0.4055
  120SOL     ow  477   2.729   3.178   6.574  0.4215  0.5915  0.6979
  120SOL     hw  478   2.818   3.201   6.546  0.2927  1.9869  1.3416
  120SOL     hw  479   2.712   3.093   6.532  1.5109  0.9730 -0.6009
  120SOL     vw  480   2.738   3.170   6.565  0.5482  0.8259  0.6115
  121SOL     ow  481   6.793   0.462   4.472  0.6239  0.5462  0.2565
  121SOL     hw  482   6.773   0.372   4.447 -1.1415  0.6357  1.1506
  121SOL     hw  483   6.888   0.465   4.479  0.6591 -1.6217  1.5241
  121SOL     vw  484   6.803   0.451   4.470  0.3958  0.2720  0.5417
  122SOL     ow  485   4.541   4.480   6.718 -0.0720  0.6229 -0.1607
  122SOL     hw  486   4.599   4.517   6.784 -0.1620  2.7732 -1.1915
  122SOL     hw  487   4.600   4.449   6.649  0.0014 -1.2062  0.6862
  122SOL     vw  488   4.556   4.481   6.718 -0.0741  0.6654 -0.1850
  123SOL     ow  489   4.271   3.615   6.312  0.7378  0.0605  0.3096
  123SOL     hw  490   4.214   3.616   6.235  0.1619  0.6135  0.7253
  123SOL     hw  491   4.268   3.705   6.345  0.4656 -0.3035  1.3302
  123SOL     vw  492   4.263   3.627   6.306  0.6261  0.0854  0.4990
  124SOL     ow  493   6.801   6.466   6.604 -0.1293 -0.6759  0.1365
  124SOL     hw  494   6.847   6.514   6.534 -2.4498  2.1093  0.3429
  124SOL     hw  495   6.723   6.431   6.561 -0.6850 -0.4591  0.9613
  124SOL     vw  496   6.797   6.468   6.589 -0.5088 -0.2797  0.2725
  125SOL     ow  497   6.045   5.467   1.327  0.1098 -0.7636 -0.6515
  125SOL     hw  498   6.078   5.557   1.335 -0.0228 -0.5698 -2.0999
  125SOL     hw  499   6.118   5.413   1.359 -0.0788 -0.1477  0.9469
  125SOL     vw  500   6.059   5.472   1.333  0.0677 -0.6564 -0.6317
  126SOL     ow  501   4.565   4.032   0.386 -0.5005  0.2155 -0.2766
  126SOL     hw  502   4.571   4.126   0.374  1.2010  0.1063 -0.4476
  126SOL     hw  503   4.570   3.996   0.298  0.7533 -0.1080 -0.0816
  126SOL     vw  504   4.566   4.039   0.373 -0.1104  0.1585 -0.2735
  127SOL     ow  505   1.321   0.139   3.037 -0.2332 -0.4165 -0.2329
  127SOL     hw  506   1.294   0.147   2.946 -1.1153  0.0934  0.0673
  127SOL     hw  507   1.268   0.068   3.072 -2.1234  1.3325  0.6661
  127SOL     vw  508   1.311   0.131   3.030 -0.5989 -0.1185 -0.0747
  128SOL     ow  509   6.830   1.757   1.700 -0.4012  0.0557  0.8308
  128SOL     hw  510   6.846   1.696   1.772 -1.9481  0.5534  1.6391
  128SOL     hw  511   6.808   1.839   1.743 -4.0180 -0.2921 -0.0692
  128SOL     vw  512   6.829   1.760   1.715 -1.0824  0.0755  0.8187
  129SOL     ow  513   4.137   7.003   6.829 -0.3959 -0.4071  0.0259
  129SOL     hw  514   4.209   7.038   6.776 -0.1810 -2.0798 -0.8574
  129SOL     hw  515   4.160   7.028   6.919  1.1740 -0.7021 -0.2594
  129SOL     vw  516   4.150   7.011   6.834 -0.1605 -0.6666 -0.1285
  130SOL     ow  517   3.492   6.847   2.243  0.0345 -0.1531 -0.0509
  130SOL     hw  518   3.507   6.775   2.181  0.5787  0.2437 -0.3898
  130SOL     hw  519   3.564   6.908   2.227 -1.4538  1.4321 -1.1335
  130SOL     vw  520   3.503   6.846   2.233 -0.0901  0.1087 -0.2384
  131SOL     ow  521   5.426   5.835   5.072 -0.4944 -0.3115 -0.2371
  131SOL     hw  522   5.389   5.830   5.160 -1.7088 -1.1539 -0.7676
  131SOL     hw  523   5.520   5.817   5.084 -0.5917 -0.1386  0.8989
  131SOL     vw  524   5.434   5.832   5.085 -0.6673 -0.3998 -0.1574
  132SOL     ow  525   2.919   4.416   1.804 -1.0265  0.6725  0.2637
  132SOL     hw  526   2.910   4.321   1.811 -1.3704  0.7624  1.3319
  132SOL     hw  527   2.850   4.443   1.743 -3.5840  0.5890  2.8633
  132SOL     vw  528   2.909   4.407   1.797 -1.4094  0.6735  0.7476
  133SOL     ow  529   4.187   1.504   3.333  0.5201  0.0745  0.2881
  133SOL     hw  530   4.156   1.423   3.372  2.7680 -0.4944  1.0554
  133SOL     hw  531   4.250   1.539   3.396 -1.7175  3.5071  0.9460
  133SOL     vw  532   4.191   1.498   3.346  0.5212  0.4523  0.4761
  134SOL     ow  533   0.747   1.306   3.977 -0.4127 -0.3109  0.5065
  134SOL     hw  534   0.815   1.368   4.001  0.4593 -1.4767  1.1732
  134SOL     hw  535   0.665   1.349   4.003 -0.2168  2.0618 -2.3203
  134SOL     vw  536   0.745   1.320   3.984 -0.2718 -0.1517  0.2215
  135SOL     ow  537   3.589   5.943   3.455 -0.5827 -0.2002 -0.1304
  135SOL     hw  538   3.598   5.954   3.550 -1.2936 -1.6438  0.1343
  135SOL     hw  539   3.667   5.984   3.419 -0.5294  0.7914  1.0450
  135SOL     vw  540   3.601   5.950   3.463 -0.6695 -0.2596  0.0595
  136SOL     ow  541   3.184   3.343   0.040 -0.5528 -0.3701 -0.1997
  136SOL     hw  542   3.196   3.279  -0.031  2.0652 -1.9177  1.4498
  136SOL     hw  543   3.107   3.393   0.015 -0.9463 -2.2023 -3.0954
  136SOL     vw  544   3.175   3.341   0.028 -0.2592 -0.8161 -0.3641
  137SOL     ow  545   3.528   4.461   0.912 -0.6109 -0.1236 -0.0474
  137SOL     hw  546   3.533   4.520   0.837  0.4129  0.2044  0.2625
  137SOL     hw  547   3.564   4.511   0.985  0.0722 -1.0503  0.2678
  137SOL     vw  548   3.533   4.475   0.912 -0.3856 -0.2027  0.0351
  138SOL     ow  549   0.022   3.177   3.571 -0.2176 -0.0920 -0.1918
  138SOL     hw  550   0.017   3.089   3.533 -0.1305 -1.6224  3.0208
  138SOL     hw  551   0.115   3.199   3.566  0.2102 -1.3860  1.3236
  138SOL     vw  552   0.034   3.168   3.565 -0.1495 -0.4646  0.4319
  139SOL     ow  553   6.934   3.408   3.587 -0.3332 -0.3365  0.1980
  139SOL     hw  554   6.943   3.503   3.581 -1.9279 -0.1816 -0.1819
  139SOL     hw  555   6.875   3.393   3.661  0.3102 -1.0667  0.5801
  139SOL     vw  556   6.927   3.419   3.596 -0.4585 -0.4123  0.1985
  140SOL     ow  557   2.964   0.397   6.502  0.2458  0.6366  0.1205
  140SOL     hw  558   2.894   0.364   6.559  0.8871  0.2964  0.7384
  140SOL     hw  559   3.043   0.355   6.536  1.3583  3.7459  1.8382
  140SOL     vw  560   2.965   0.387   6.514  0.4771  1.0019  0.4289
  141SOL     ow  561   0.806   6.504   4.438 -0.0258 -0.1260 -0.2629
  141SOL     hw  562   0.864   6.575   4.467 -0.9405  0.0515  1.2585
  141SOL     hw  563   0.722   6.524   4.479 -0.9113 -0.9164 -1.6155
  141SOL     vw  564   0.803   6.516   4.447 -0.2634 -0.2067 -0.2408
  142SOL     ow  565   0.570   5.864   5.362  0.2392 -0.2465 -0.2453
  142SOL     hw  566   0.618   5.904   5.435  0.8101 -1.4287  0.0510
  142SOL     hw  567   0.532   5.939   5.315  1.2597  0.6482  0.2880
  142SOL     vw  568   0.572   5.879   5.365  0.4492 -0.2842 -0.1359
  143SOL     ow  569   1.259   6.546   6.989 -0.5817  0.0029  0.2937
  143SOL     hw  570   1.243   6.530   6.896  1.9044 -0.0356 -0.1973
  143SOL     hw  571   1.316   6.623   6.991  0.3169 -0.6551  1.6975
  143SOL     vw  572   1.264   6.554   6.977 -0.1352 -0.0892  0.4141
  144SOL     ow  573   0.173   2.690   5.231 -0.4308  0.5988 -0.8114
  144SOL     hw  574   0.093   2.638   5.240 -1.2623  1.9314 -0.2415
  144SOL     hw  575   0.143   2.781   5.236  1.1823  1.1240 -0.0651
  144SOL     vw  576   0.158   2.695   5.233 -0.3277  0.8440 -0.6380
  145SOL     ow  577   6.299   6.363   2.267 -0.3034  1.2138  0.1521
  145SOL     hw  578   6.364   6.390   2.332  0.5697 -1.3544  0.4478
  145SOL     hw  579   6.346   6.364   2.184 -0.0257  0.0072  0.2715
  145SOL     vw  580   6.314   6.367   2.264 -0.1516  0.7157  0.2067
  146SOL     ow  581   2.283   6.796   0.088 -0.3183  0.4703 -0.2690
  146SOL     hw  582   2.248   6.818   0.174  0.8324 -1.1193  0.6506
  146SOL     hw  583   2.264   6.703   0.077 -0.1707  0.5758 -1.6107
  146SOL     vw  584   2.276   6.787   0.098 -0.1469  0.2747 -0.3247
  147SOL     ow  585   1.992   6.776   1.946 -0.0810  0.3156 -0.7393
  147SOL     hw  586   1.908   6.801   1.909  0.2096  1.1096 -0.8898
  147SOL     hw  587   1.987   6.803   2.038  0.7502  2.3326 -1.2260
  147SOL     vw  588   1.980   6.783   1.953  0.0669  0.6864 -0.8234
  148SOL     ow  589   6.957   1.551   3.365  0.2545 -0.5290 -0.2752
  148SOL     hw  590   7.012   1.623   3.337  1.1473 -0.9760  0.2931
  148SOL     hw  591   7.016   1.491   3.410 -1.1821  0.4947  3.3082
  148SOL     vw  592   6.972   1.552   3.367  0.1826 -0.4529  0.2726
  149SOL     ow  593   0.353   1.755   4.495 -0.3591  0.3735 -0.1279
  149SOL     hw  594   0.376   1.661   4.493 -0.2671  0.3655  0.8982
  149SOL     hw  595   0.438   1.799   4.505 -0.4803  0.5270  0.2081
  149SOL     vw  596   0.367   1.748   4.496 -0.3629  0.3927  0.0517
  150SOL     ow  597   1.671   3.809   6.808  0.1293 -0.0694 -0.1092
  150SOL     hw  598   1.713   3.890   6.834 -2.4235  1.3943 -0.2652
  150SOL     hw  599   1.720   3.741   6.854  0.4384  1.7829  2.4946
  150SOL     vw  600   1.683   3.810   6.817 -0.1668  0.3681  0.2139
  151SOL     ow  601   3.458   5.903   1.309  0.1591  0.1698  0.0296
  151SOL     hw  602   3.382   5.941   1.266 -0.5837  1.5040  2.3395
  151SOL     hw  603   3.472   5.958   1.386  2.8886 -0.6236  0.2078
  151SOL     vw  604   3.450   5.916   1.313  0.4213  0.2413  0.3578
  152SOL     ow  605   3.229   2.114   2.539  0.2552 -0.0287  0.6129
  152SOL     hw  606   3.176   2.144   2.466 -2.1610 -0.4808  2.0612
  152SOL     hw  607   3.168   2.107   2.612  2.2183 -1.1737  2.2725
  152SOL     vw  608   3.214   2.117   2.539  0.1954 -0.2395  1.0231
  153SOL     ow  609   6.244   1.521   5.397  0.0204  0.3229  0.4475
  153SOL     hw  610   6.292   1.597   5.365 -0.9442  2.3557  3.3923
  153SOL     hw  611   6.157   1.554   5.419 -0.9229 -1.9826  0.5539
  153SOL     vw  612   6.239   1.535   5.396 -0.2313  0.2869  0.8502
  154SOL     ow  613   4.528   2.200   4.083  0.1153  0.4627  0.7402
  154SOL     hw  614   4.544   2.254   4.161 -0.2801  1.0388  0.4340
  154SOL     hw  615   4.610   2.155   4.067  0.9473  2.0879  0.1729
  154SOL     vw  616   4.541   2.201   4.091  0.1726  0.7530  0.6251
  155SOL     ow  617   0.929   5.201   1.231 -0.3466  0.2702 -0.7455
  155SOL     hw  618   0.897   5.179   1.318 -0.2169  0.8515 -0.5453
  155SOL     hw  619   0.989   5.130   1.208 -1.1265 -0.3917 -0.7738
  155SOL     vw  620   0.933   5.189   1.239 -0.4323  0.2596 -0.7228
  156SOL     ow  621   1.529   2.771   0.841  0.8053 -0.2979  0.3804
  156SOL     hw  622   1.617   2.734   0.847  0.3407 -1.8473 -1.4569
  156SOL     hw  623   1.484   2.738   0.919  1.5842 -0.2520  0.8580
  156SOL     vw  624   1.534   2.761   0.852  0.8467 -0.4963  0.2010
  157SOL     ow  625   1.052   4.683   7.141 -0.2891 -0.4225  0.5957
  157SOL     hw  626   1.068   4.734   7.062 -0.6821  0.2323  0.9359
  157SOL     hw  627   1.065   4.592   7.113  0.3042 -0.1574 -0.0393
  157SOL     vw  628   1.056   4.678   7.127 -0.2627 -0.3011  0.5569
  158SOL     ow  629   5.774   2.405   5.288 -0.0975 -0.1345  0.4196
  158SOL     hw  630   5.743   2.326   5.245 -0.9016  0.7894 -0.7495
  158SOL     hw  631   5.845   2.436   5.232  0.5992 -0.3146  1.1811
  158SOL     vw  632   5.779   2.399   5.275 -0.1118 -0.0364  0.3657
  159SOL     ow  633   4.513   5.531   0.091 -0.3897  0.3897 -0.1069
  159SOL     hw  634   4.595   5.555   0.133 -0.2716  2.3017 -1.3154
  159SOL     hw  635   4.446   5.545   0.158  0.2117 -1.1473  0.8706
  159SOL     vw  636   4.515   5.536   0.105 -0.2947  0.4392 -0.1374
  160SOL     ow  637   3.617   4.040   3.580  0.9690 -0.5951  0.4004
  160SOL     hw  638   3.527   4.007   3.575  0.1887  1.5320 -2.6598
  160SOL     hw  639   3.608   4.126   3.622  1.5307 -0.3044 -0.0616
  160SOL     vw  640   3.604   4.047   3.585  0.9401 -0.2759 -0.0644
  161SOL     ow  641   6.972   6.577   4.796  0.1732  0.4545  0.2765
  161SOL     hw  642   6.956   6.663   4.758  2.5740  1.0162  0.3754
  161SOL     hw  643   6.927   6.516   4.738 -1.7333  1.7451  0.3118
  161SOL     vw  644   6.964   6.580   4.784  0.2382  0.6988  0.2942
  162SOL     ow  645   1.212   2.843   6.434 -0.7858  0.2557 -0.3211
  162SOL     hw  646   1.137   2.888   6.472  1.3907  3.2818  0.7614
  162SOL     hw  647   1.287   2.899   6.454  1.7586 -2.3513 -1.7162
  162SOL     vw  648   1.212   2.856   6.442 -0.1629  0.3111 -0.3624
  163SOL     ow  649   1.347   4.526   3.549 -0.1122  0.7398  0.5167
  163SOL     hw  650   1.319   4.438   3.524 -1.7366  0.9644  1.4538
  163SOL     hw  651   1.401   4.556   3.475 -1.0896 -0.3155 -0.6636
  163SOL     vw  652   1.351   4.518   3.536 -0.4554  0.6304  0.4845
  164SOL     ow  653   7.026   2.293   6.906  0.1791  0.1726  0.3666
  164SOL     hw  654   7.066   2.221   6.857  0.1475 -0.2733  0.9897
  164SOL     hw  655   6.943   2.310   6.861 -1.1257 -2.0134  1.8003
  164SOL     vw  656   7.020   2.286   6.893  0.0031 -0.1746  0.6378
  165SOL     ow  657   3.352   4.953   0.063  0.0512 -0.1533 -0.4154
  165SOL     hw  658   3.320   4.927   0.149  0.2376  3.3281  0.8749
  165SOL     hw  659   3.439   4.913   0.056  0.3649  0.1339  1.3946
  165SOL     vw  660   3.359   4.944   0.074  0.1171  0.3436 -0.0064
  166SOL     ow  661   5.471   5.516   3.710  0.2163 -0.0702  0.3383
  166SOL     hw  662   5.454   5.424   3.688 -0.8775  0.6704 -2.4075
  166SOL     hw  663   5.567   5.522   3.714  0.2922 -1.6614  2.5845
  166SOL     vw  664   5.481   5.505   3.707  0.0818 -0.1824  0.2724
  167SOL     ow  665   6.873   3.975   0.839 -0.0476  0.1135 -0.0168
  167SOL     hw  666   6.956   3.932   0.818 -0.7243 -0.5045 -1.6494
  167SOL     hw  667   6.892   4.068   0.834  0.3335 -0.0214 -1.3940
  167SOL     vw  668   6.886   3.981   0.836 -0.0865  0.0142 -0.4139
  168SOL     ow  669   3.599   4.235   5.541 -0.1373 -0.4147 -0.2278
  168SOL     hw  670   3.554   4.166   5.492 -0.0497  0.6808 -1.9509
  168SOL     hw  671   3.543   4.312   5.531 -0.8450 -0.4322  2.6642
  168SOL     vw  672   3.586   4.236   5.533 -0.2192 -0.2720 -0.0734
  169SOL     ow  673   1.803   2.206   1.926  0.7161  0.3109  0.2097
  169SOL     hw  674   1.794   2.129   1.870  0.7582  1.9601 -2.1908
  169SOL     hw  675   1.714   2.237   1.938  0.7311  0.1072  0.8841
  169SOL     vw  676   1.790   2.200   1.920  0.7237  0.5015 -0.0180
  170SOL     ow  677   0.369   6.100   6.094 -0.4665  0.0943  0.4133
  170SOL     hw  678   0.331   6.142   6.171  0.4549 -0.5207  1.2223
  170SOL     hw  679   0.424   6.031   6.130  0.6530  0.3492 -0.7756
  170SOL     vw  680   0.371   6.096   6.109 -0.1972  0.0467  0.3631
  171SOL     ow  681   1.803   2.789   2.996 -0.4192 -0.3273 -0.5936
  171SOL     hw  682   1.760   2.826   3.073  1.2893  0.7613 -0.1072
  171SOL     hw  683   1.841   2.707   3.028  1.2822  0.6799  0.0958
  171SOL     vw  684   1.803   2.783   3.010  0.0307 -0.0509 -0.4385
  172SOL     ow  685   4.252   4.821   0.674 -0.8565 -0.0099  0.8185
  172SOL     hw  686   4.229   4.876   0.749 -2.0024 -1.0587  1.2600
  172SOL     hw  687   4.272   4.884   0.604  0.5666  0.9850  2.0715
  172SOL     vw  688   4.252   4.837   0.675 -0.8199 -0.0169  1.0421
  173SOL     ow  689   5.310   3.754   5.754  1.0323  0.3255 -0.3660
  173SOL     hw  690   5.228   3.801   5.738  1.2234  1.4133  1.4802
  173SOL     hw  691   5.372   3.789   5.690  0.4468  0.6225 -0.7709
  173SOL     vw  692   5.307   3.765   5.744  0.9804  0.5082 -0.1757
  174SOL     ow  693   1.594   5.224   5.407  0.6090 -0.0383  0.7572
  174SOL     hw  694   1.596   5.255   5.498 -1.2257 -1.6116  1.4125
  174SOL     hw  695   1.530   5.153   5.408  0.4781 -0.0389 -1.8060
  174SOL     vw  696   1.586   5.219   5.419  0.3496 -0.2458  0.5052
  175SOL     ow  697   1.937   2.273   1.121 -0.9582  0.3281  0.6351
  175SOL     hw  698   1.978   2.194   1.085 -0.3040  1.0257 -0.2009
  175SOL     hw  699   1.938   2.260   1.216 -1.1764 -0.8131  0.4885
  175SOL     vw  700   1.943   2.261   1.129 -0.9006  0.2697  0.5054
  176SOL     ow  701   2.772   2.374   1.441  0.1576 -0.6001  0.4814
  176SOL     hw  702   2.847   2.423   1.408 -0.1363 -0.3364  0.2031
  176SOL     hw  703   2.748   2.316   1.369  0.2898 -0.9147  0.6862
  176SOL     vw  704   2.779   2.373   1.427  0.1364 -0.6068  0.4717
  177SOL     ow  705   7.052   0.427   4.468 -0.3376  0.1259  0.1628
  177SOL     hw  706   7.075   0.335   4.482  2.4379  0.5968 -0.7914
  177SOL     hw  707   7.054   0.438   4.373 -3.8474  0.5116 -0.0017
  177SOL     vw  708   7.055   0.416   4.457 -0.4344  0.2389  0.0150
  178SOL     ow  709   6.977   1.008   4.042 -0.3792  0.8330 -0.4198
  178SOL     hw  710   7.051   1.052   4.002  0.8139  0.5395  1.3297
  178SOL     hw  711   6.994   0.915   4.028 -0.7185  0.7846 -0.5109
  178SOL     vw  712   6.989   1.001   4.035 -0.2668  0.7879 -0.2007
  179SOL     ow  713   1.974   6.838   4.201 -0.5367  0.5558 -0.5732
  179SOL     hw  714   2.053   6.890   4.185  1.9987 -2.7660  0.1753
  179SOL     hw  715   1.966   6.836   4.297 -0.0147 -1.1369 -0.5443
  179SOL     vw  716   1.983   6.845   4.212 -0.1333 -0.1061 -0.4709
  180SOL     ow  717   2.936   3.822   5.569  0.3250  0.1296  0.3520
  180SOL     hw  718   2.904   3.826   5.479  0.9567 -0.7911  0.0705
  180SOL     hw  719   3.028   3.798   5.561  0.8847  1.8358  1.1878
  180SOL     vw  720   2.944   3.819   5.556  0.4822  0.2332  0.4256
  181SOL     ow  721   3.426   0.420   6.109  0.3602 -0.0560 -0.0676
  181SOL     hw  722   3.433   0.467   6.026  2.1141 -1.5419 -0.8282
  181SOL     hw  723   3.332   0.415   6.125  0.0548  2.2453 -0.7540
  181SOL     vw  724   3.414   0.425   6.100  0.5513  0.0516 -0.2587
  182SOL     ow  725   0.137   6.197   1.498  0.3572 -0.8254 -0.6003
  182SOL     hw  726   0.207   6.259   1.519  0.7360 -1.4927  0.1501
  182SOL     hw  727   0.167   6.152   1.419  0.3274 -0.4334 -0.8367
  182SOL     vw  728   0.150   6.199   1.490  0.4032 -0.8616 -0.5325
  183SOL     ow  729   3.150   6.836   0.847 -0.3193  0.6433  0.0507
  183SOL     hw  730   3.066   6.814   0.807 -0.4751  1.0213  0.1670
  183SOL     hw  731   3.135   6.829   0.941  0.4255 -1.6492  0.0644
  183SOL     vw  732   3.137   6.832   0.854 -0.2415  0.3908  0.0679
  184SOL     ow  733   0.420   1.066   0.750 -0.6951  0.2290  0.1848
  184SOL     hw  734   0.332   1.102   0.765 -1.4527 -0.9328 -1.1858
  184SOL     hw  735   0.444   1.027   0.833 -1.0054  1.4749  0.8957
  184SOL     vw  736   0.411   1.066   0.763 -0.8360  0.2401  0.0978
  185SOL     ow  737   1.271   4.944   4.545  0.4130  0.5267 -0.7741
  185SOL     hw  738   1.292   5.001   4.619  0.7674 -1.2761  0.5820
  185SOL     hw  739   1.345   4.954   4.486 -0.1798  2.4922 -1.2479
  185SOL     vw  740   1.284   4.953   4.547  0.3815  0.5481 -0.6578
  186SOL     ow  741   3.512   6.025   1.530 -0.1794  0.1680 -0.2069
  186SOL     hw  742   3.432   6.066   1.563 -0.9598 -0.4343 -1.3050
  186SOL     hw  743   3.580   6.053   1.592 -1.2750  0.4692  0.9090
  186SOL     vw  744   3.510   6.034   1.543 -0.4269  0.1283 -0.2045
  187SOL     ow  745   2.617   2.515   1.724  0.3135  0.4144  0.6268
  187SOL     hw  746   2.563   2.481   1.796 -0.1566 -0.6439 -0.2030
  187SOL     hw  747   2.557   2.567   1.672  1.4034  4.3069  2.8975
  187SOL     vw  748   2.602   2.517   1.727  0.3953  0.7885  0.8169
  188SOL     ow  749   0.503   0.306   3.445 -0.4969 -0.2187  0.0042
  188SOL     hw  750   0.588   0.349   3.456  0.9528 -2.7359 -0.5836
  188SOL     hw  751   0.441   0.378   3.438  1.4510  1.7229  1.2681
  188SOL     vw  752   0.506   0.321   3.446 -0.0486 -0.2947  0.0935
  189SOL     ow  753   2.743   4.082   3.684  0.8175 -0.4139 -0.1347
  189SOL     hw  754   2.744   3.998   3.637 -1.7843  0.1620 -1.3790
  189SOL     hw  755   2.656   4.088   3.721  0.5661  2.1865 -0.9486
  189SOL     vw  756   2.732   4.072   3.682  0.4411  0.0052 -0.4063
  190SOL     ow  757   5.026   1.655   6.932 -0.1327  0.1670  0.3873
  190SOL     hw  758   5.072   1.737   6.952 -2.0176  2.0448 -2.1296
  190SOL     hw  759   4.981   1.632   7.013 -1.8969  3.3953  0.5139
  190SOL     vw  760   5.026   1.663   6.945 -0.6142  0.8407  0.0718
  191SOL     ow  761   2.436   4.251   3.369  0.4095 -0.4298 -0.4627
  191SOL     hw  762   2.359   4.281   3.322  0.5171  0.9725  0.1985
  191SOL     hw  763   2.434   4.155   3.361 -0.3570 -0.3017 -2.0304
  191SOL     vw  764   2.426   4.242   3.362  0.3226 -0.2279 -0.5823
  192SOL     ow  765   6.829   2.254   3.284 -0.3185 -0.0920 -0.0251
  192SOL     hw  766   6.859   2.319   3.221 -1.4739 -0.2397 -0.7722
  192SOL     hw  767   6.885   2.178   3.269  1.0321  0.6966  0.8505
  192SOL     vw  768   6.840   2.252   3.274 -0.2925 -0.0073 -0.0082
  193SOL     ow  769   4.287   1.724   2.826 -0.5228  0.2621 -0.3290
  193SOL     hw  770   4.362   1.756   2.877  0.6476 -0.3754 -1.5863
  193SOL     hw  771   4.247   1.804   2.792 -1.0610  0.6728  1.1709
  193SOL     vw  772   4.292   1.739   2.828 -0.4394  0.2322 -0.2970
  194SOL     ow  773   6.708   0.679   1.397 -0.1949  0.1167 -0.2328
  194SOL     hw  774   6.738   0.737   1.326 -0.0539 -0.5591 -0.7391
  194SOL     hw  775   6.713   0.733   1.476  2.4730  0.0236 -0.2594
  194SOL     vw  776   6.713   0.694   1.398  0.1755  0.0153 -0.3031
  195SOL     ow  777   1.264   6.972   6.086 -0.5185  0.0830 -0.5908
  195SOL     hw  778   1.356   6.949   6.087 -0.9479 -1.7888  0.4919
  195SOL     hw  779   1.258   7.051   6.140  0.5493  0.7512 -1.4305
  195SOL     vw  780   1.275   6.979   6.094 -0.4343 -0.0758 -0.5586
  196SOL     ow  781   5.184   3.137   7.099  0.2432  0.0901 -0.0107
  196SOL     hw  782   5.241   3.201   7.140  1.5999 -1.1542  0.1408
  196SOL     hw  783   5.107   3.187   7.071  0.2492  1.3610  2.0548
  196SOL     vw  784   5.181   3.152   7.101  0.4227  0.0936  0.2820
  197SOL     ow  785   6.423   2.493   3.730  0.3523  0.3516  0.2967
  197SOL     hw  786   6.359   2.444   3.782  0.9226 -2.2308 -1.2700
  197SOL     hw  787   6.373   2.566   3.694 -0.2979  1.6431  3.5220
  197SOL     vw  788   6.408   2.496   3.732  0.3417  0.1813  0.5155
  198SOL     ow  789   4.970   1.545   5.625  0.5188  0.2208  0.2971
  198SOL     hw  790   5.062   1.550   5.601 -0.0070  3.0098 -1.7179
  198SOL     hw  791   4.954   1.625   5.675 -0.4873 -1.0822  2.1753
  198SOL     vw  792   4.980   1.556   5.629  0.3166  0.4169  0.2789
  199SOL     ow  793   3.320   3.065   4.903 -0.2606 -0.7818 -0.1946
  199SOL     hw  794   3.280   2.993   4.953  1.9258 -2.2280 -0.3581
  199SOL     hw  795   3.414   3.047   4.907  0.2892  1.4973 -1.2040
  199SOL     vw  796   3.327   3.053   4.910  0.1005 -0.6720 -0.3490
  200SOL     ow  797   4.090   1.285   3.454 -0.3058 -0.3403  0.3226
  200SOL     hw  798   4.072   1.255   3.365  0.4040 -3.8739  1.2291
  200SOL     hw  799   4.012   1.336   3.478 -0.2092  1.3203 -2.4622
  200SOL     vw  800   4.077   1.288   3.446 -0.1993 -0.5874  0.0749
  201SOL     ow  801   3.292   2.657   4.858  0.4586 -0.3355  0.2635
  201SOL     hw  802   3.385   2.642   4.842  0.5826  1.0592 -0.5156
  201SOL     hw  803   3.251   2.645   4.772  0.0584 -0.0004  0.4059
  201SOL     vw  804   3.299   2.653   4.845  0.4222 -0.1073  0.1795
  202SOL     ow  805   2.380   1.738   6.575 -0.1227  0.0092 -0.2006
  202SOL     hw  806   2.430   1.784   6.508 -0.9223 -0.5175 -1.1804
  202SOL     hw  807   2.368   1.802   6.645  1.9199  0.1449  0.0796
  202SOL     vw  808   2.385   1.753   6.576  0.0414 -0.0423 -0.2928
  203SOL     ow  809   6.285   3.862   3.687  0.4850  0.1861  0.2626
  203SOL     hw  810   6.270   3.882   3.779  0.5430 -0.5465  0.4331
  203SOL     hw  811   6.287   3.948   3.644 -2.2146  0.4395  0.5033
  203SOL     vw  812   6.283   3.876   3.693  0.1366  0.1229  0.3170
  204SOL     ow  813   5.104   1.882   3.292  0.6207  0.0374  0.0895
  204SOL     hw  814   5.097   1.946   3.363 -1.3825  0.6279 -0.5702
  204SOL     hw  815   5.123   1.935   3.215  1.1240 -0.4161 -0.0992
  204SOL     vw  816   5.105   1.897   3.291  0.4227  0.0555 -0.0224
  205SOL     ow  817   3.004   6.411   4.092 -0.3669 -0.3791 -0.0214
  205SOL     hw  818   3.007   6.335   4.034 -0.9439 -0.4873  0.0840
  205SOL     hw  819   2.970   6.377   4.175  1.4497 -0.4430  0.7451
  205SOL     vw  820   3.000   6.397   4.095 -0.2033 -0.4020  0.0937
  206SOL     ow  821   1.920   3.543   5.445  0.2324  0.2934  0.0734
  206SOL     hw  822   1.903   3.451   5.463  1.9221 -0.3366 -1.2365
  206SOL     hw  823   2.016   3.550   5.445  0.1441  1.9551 -0.2845
  206SOL     vw  824   1.931   3.532   5.447  0.4437  0.4296 -0.1464
  207SOL     ow  825   2.217   3.617   1.109  0.8520 -0.4876  0.3604
  207SOL     hw  826   2.281   3.599   1.041  0.1084 -1.0854 -0.1910
  207SOL     hw  827   2.162   3.686   1.072 -2.4598 -3.8621 -1.6924
  207SOL     vw  828   2.218   3.624   1.095  0.3170 -1.0116  0.0167
  208SOL     ow  829   1.212   6.499   4.882  0.6977 -1.1990 -1.2481
  208SOL     hw  830   1.290   6.449   4.859  2.2086  0.1732  0.5114
  208SOL     hw  831   1.238   6.591   4.872 -0.4452 -0.6864  0.0483
  208SOL     vw  832   1.225   6.505   4.878  0.7463 -0.9503 -0.8450
  209SOL     ow  833   2.450   0.026   3.290 -0.3113 -0.4688 -0.3640
  209SOL     hw  834   2.507  -0.001   3.362 -0.3417 -0.3039 -0.2758
  209SOL     hw  835   2.364   0.036   3.330 -0.3190 -0.3327 -0.4141
  209SOL     vw  836   2.446   0.024   3.305 -0.3163 -0.4291 -0.3591
  210SOL     ow  837   0.936   4.296   4.054 -0.2587  0.2073 -0.6433
  210SOL     hw  838   0.854   4.339   4.080  0.1714  0.0038  1.2377
  210SOL     hw  839   1.000   4.367   4.051  0.2191 -0.0737  1.4064
  210SOL     vw  840   0.933   4.311   4.057 -0.1389  0.1431 -0.1247
  211SOL     ow  841   6.526   3.886   2.604  0.1510  0.1099  0.0942
  211SOL     hw  842   6.506   3.958   2.543  1.3197  2.2183  2.0647
  211SOL     hw  843   6.440   3.857   2.635 -0.3512  0.5185 -0.8520
  211SOL     vw  844   6.512   3.892   2.600  0.2391  0.4420  0.2294
  212SOL     ow  845   2.167   1.121   5.721  0.5626  0.0473 -0.0153
  212SOL     hw  846   2.107   1.058   5.681  1.8536 -0.2232 -1.6004
  212SOL     hw  847   2.111   1.173   5.778 -1.5866  1.0596 -2.8206
  212SOL     vw  848   2.151   1.119   5.723  0.4493  0.1452 -0.5946
  213SOL     ow  849   0.189   6.676   3.038 -0.4887  0.2597  0.2669
  213SOL     hw  850   0.261   6.644   3.092  0.0200  1.4334  0.3215
  213SOL     hw  851   0.187   6.617   2.963 -0.0722 -0.3454  0.7262
  213SOL     vw  852   0.199   6.664   3.035 -0.3666  0.3345  0.3347
  214SOL     ow  853   5.975   4.600   3.304 -0.1157 -0.0371  0.0536
  214SOL     hw  854   5.891   4.597   3.258 -0.5555  0.1626  0.8335
  214SOL     hw  855   6.040   4.584   3.235 -0.7347  0.6598 -0.7121
  214SOL     vw  856   5.972   4.597   3.289 -0.2553  0.0813  0.0556
  215SOL     ow  857   5.940   3.827   4.642  0.0176 -0.5616 -0.4236
  215SOL     hw  858   5.851   3.863   4.639 -0.6783 -1.8341  1.9373
  215SOL     hw  859   5.945   3.784   4.728  1.9369 -3.0346 -1.6508
  215SOL     vw  860   5.929   3.826   4.653  0.1791 -1.0557 -0.2742
  216SOL     ow  861   4.304   0.886   2.168  0.1195 -0.0896  0.4779
  216SOL     hw  862   4.349   0.892   2.084 -3.7551 -2.1695 -2.0384
  216SOL     hw  863   4.360   0.830   2.221  3.6281  2.7986  0.1974
  216SOL     vw  864   4.317   0.880   2.164  0.0713  0.0170  0.1090
  217SOL     ow  865   2.781   0.111   0.336  0.6546  0.3202 -0.0355
  217SOL     hw  866   2.688   0.092   0.346  0.4336  0.1927 -1.9655
  217SOL     hw  867   2.824   0.026   0.343  0.4164  0.1031 -1.0741
  217SOL     vw  868   2.775   0.098   0.338  0.5940  0.2748 -0.4272
  218SOL     ow  869   5.452   6.229   1.264  0.4715  0.6613 -0.0334
  218SOL     hw  870   5.360   6.229   1.237  1.2422  0.9984 -3.0002
  218SOL     hw  871   5.475   6.321   1.272  0.7655  0.6050 -0.2174
  218SOL     vw  872   5.443   6.241   1.261  0.6120  0.6981 -0.4492
  219SOL     ow  873   1.870   4.734   5.153 -0.4978  0.8360 -0.2819
  219SOL     hw  874   1.855   4.814   5.102 -0.3534  0.7030 -0.5356
  219SOL     hw  875   1.964   4.732   5.168 -0.4533  0.5122 -0.6076
  219SOL     vw  876   1.880   4.745   5.148 -0.4729  0.7756 -0.3583
  220SOL     ow  877   1.120   2.509   0.459 -0.4456 -0.6254 -0.3186
  220SOL     hw  878   1.114   2.564   0.382  3.2533 -0.5043 -0.7214
  220SOL     hw  879   1.075   2.428   0.435  1.4243 -0.9751 -3.1078
  220SOL     vw  880   1.113   2.505   0.446  0.2891 -0.6557 -0.7397
  221SOL     ow  881   4.273   4.821   6.498 -0.5878 -0.3776  0.1084
  221SOL     hw  882   4.350   4.820   6.555  0.0918 -0.9542 -0.7961
  221SOL     hw  883   4.308   4.810   6.410 -1.7240 -0.8284 -0.3055
  221SOL     vw  884   4.288   4.820   6.494 -0.6483 -0.5131 -0.0656
  222SOL     ow  885   5.311   2.008   2.422  0.1038  0.0639  0.9033
  222SOL     hw  886   5.231   1.974   2.462  0.9732  0.2427  2.9232
  222SOL     hw  887   5.372   1.934   2.422  0.3736  0.2793  0.5913
  222SOL     vw  888   5.309   1.994   2.427  0.2542  0.1159  1.1287
  223SOL     ow  889   0.849   6.804   2.534 -0.6760  0.2321 -0.4552
  223SOL     hw  890   0.777   6.769   2.588  0.3074 -1.0837  0.0625
  223SOL     hw  891   0.847   6.750   2.455 -1.2674  1.2824 -1.1866
  223SOL     vw  892   0.839   6.792   2.530 -0.6243  0.1969 -0.4834
  224SOL     ow  893   6.781   4.955   5.030 -0.3901 -0.0366 -0.4546
  224SOL     hw  894   6.756   5.035   4.983 -0.1489  0.2360 -0.1326
  224SOL     hw  895   6.725   4.956   5.108  0.2437  0.2975  0.0032
  224SOL     vw  896   6.770   4.966   5.034 -0.2747  0.0434 -0.3517
  225SOL     ow  897   4.118   0.490   3.377 -0.4476 -0.1768 -0.3384
  225SOL     hw  898   4.035   0.533   3.397 -0.1515 -0.1020  0.7804
  225SOL     hw  899   4.139   0.440   3.456 -0.4908 -1.9313 -1.3665
  225SOL     vw  900   4.110   0.489   3.390 -0.4144 -0.3984 -0.3266
  226SOL     ow  901   5.404   3.562   5.091  0.1906  0.3522 -0.1373
  226SOL     hw  902   5.500   3.559   5.096  0.3619 -2.4748 -2.6426
  226SOL     hw  903   5.385   3.597   5.004 -1.0661  0.2795  0.0860
  226SOL     vw  904   5.414   3.566   5.080  0.0474 -0.0304 -0.4382
  227SOL     ow  905   2.892   1.226   4.453  0.2150 -0.4354  0.2931
  227SOL     hw  906   2.884   1.307   4.403 -1.8666 -0.0076  1.2334
  227SOL     hw  907   2.899   1.158   4.386  0.0370  0.3319 -0.5331
  227SOL     vw  908   2.892   1.228   4.437 -0.0831 -0.2776  0.3080
  228SOL     ow  909   0.147   5.521   4.422  0.2207 -0.1562  0.1292
  228SOL     hw  910   0.099   5.603   4.429  0.0582 -0.2206 -0.1874
  228SOL     hw  911   0.168   5.497   4.512  1.6804  1.0490  0.1464
  228SOL     vw  912   0.144   5.529   4.435  0.3918 -0.0055  0.0894
  229SOL     ow  913   2.810   1.686   2.670 -0.3234 -0.1791 -0.1990
  229SOL     hw  914   2.779   1.691   2.760 -0.4997  0.6906 -0.3049
  229SOL     hw  915   2.754   1.746   2.622  1.1373  1.0078 -0.4991
  229SOL     vw  916   2.799   1.694   2.676 -0.1539  0.0922 -0.2526
  230SOL     ow  917   1.684   5.944   2.513  0.3490 -0.3480  0.2949
  230SOL     hw  918   1.684   6.018   2.574 -0.6392  0.8715 -1.1139
  230SOL     hw  919   1.609   5.891   2.538 -0.7029  0.7284 -0.4825
  230SOL     vw  920   1.674   5.947   2.524  0.0799 -0.0453  0.0066
  231SOL     ow  921   3.089   3.913   4.097  0.5022 -0.1442  0.1795
  231SOL     hw  922   3.019   3.870   4.147  0.6240  0.8642  1.2439
  231SOL     hw  923   3.044   3.951   4.022  0.0291 -0.1369  0.4611
  231SOL     vw  924   3.074   3.912   4.094  0.4560 -0.0103  0.3572
  232SOL     ow  925   1.478   6.736   1.731 -0.1837 -1.0562 -0.2198
  232SOL     hw  926   1.416   6.757   1.661  0.9390 -0.3817 -1.0559
  232SOL     hw  927   1.514   6.651   1.707  2.2730  0.3701 -2.0989
  232SOL     vw  928   1.474   6.728   1.719  0.2885 -0.7792 -0.5781
  233SOL     ow  929   3.364   0.107   2.107  0.1179  0.5805  0.2032
  233SOL     hw  930   3.406   0.022   2.117  0.6828  0.8583  0.1900
  233SOL     hw  931   3.287   0.089   2.053 -0.8121 -0.2509  1.7334
  233SOL     vw  932   3.359   0.094   2.102  0.0697  0.5075  0.4034
  234SOL     ow  933   1.277   2.895   5.662 -0.2871 -0.9629 -0.1288
  234SOL     hw  934   1.314   2.950   5.594 -0.2709  0.0543  0.6845
  234SOL     hw  935   1.195   2.862   5.626 -1.4316  1.4045  0.1866
  234SOL     vw  936   1.271   2.898   5.648 -0.4361 -0.5164  0.0200
  235SOL     ow  937   1.065   4.794   4.448  0.0246  0.1405  0.1277
  235SOL     hw  938   1.110   4.825   4.370 -1.5827 -1.3450 -1.4779
  235SOL     hw  939   0.972   4.798   4.426 -0.8983  3.7821  3.5699
  235SOL     vw  940   1.059   4.799   4.435 -0.3092  0.4251  0.3700
  236SOL     ow  941   4.102   6.706   5.214 -0.2211  0.1034 -0.1844
  236SOL     hw  942   4.107   6.772   5.144  1.4891 -0.8927 -1.0811
  236SOL     hw  943   4.072   6.755   5.290  1.0261  1.9782 -0.8006
  236SOL     vw  944   4.099   6.722   5.215  0.1693  0.2191 -0.3839
  237SOL     ow  945   0.359   1.282   1.809  0.2743 -0.7243  0.7462
  237SOL     hw  946   0.273   1.319   1.787  0.5988  0.5370  1.5138
  237SOL     hw  947   0.422   1.340   1.767  0.7791 -1.6081  0.2393
  237SOL     vw  948   0.356   1.294   1.801  0.3837 -0.6744  0.7806
  238SOL     ow  949   3.152   1.565   3.896 -0.8086  0.1646  0.5165
  238SOL     hw  950   3.142   1.614   3.978  0.4595 -0.5267  1.1319
  238SOL     hw  951   3.095   1.489   3.906  1.2858 -1.3603  2.0106
  238SOL     vw  952   3.143   1.562   3.908 -0.3650 -0.1278  0.7948
  239SOL     ow  953   1.264   2.129   3.727 -0.1703  0.0471 -0.3237
  239SOL     hw  954   1.232   2.141   3.816  0.9666  0.4726  0.0522
  239SOL     hw  955   1.300   2.215   3.703  1.2225 -0.5539 -0.4731
  239SOL     vw  956   1.265   2.142   3.735  0.1634  0.0240 -0.2937
  240SOL     ow  957   1.995   0.579   4.182 -0.2673  0.2682 -0.2533
  240SOL     hw  958   1.959   0.536   4.104  1.3039 -1.9437  0.1309
  240SOL     hw  959   1.918   0.607   4.232 -1.3155  0.8089 -2.0606
  240SOL     vw  960   1.980   0.577   4.178 -0.1983  0.0477 -0.4413
  241SOL     ow  961   4.150   1.481   2.839 -0.7202 -0.3197  0.1073
  241SOL     hw  962   4.085   1.538   2.880 -0.5566  0.0377 -0.1226
  241SOL     hw  963   4.100   1.408   2.805 -1.2105  0.6562 -1.3534
  241SOL     vw  964   4.135   1.479   2.840 -0.7629 -0.1439 -0.1158
  242SOL     ow  965   2.290   5.825   3.679  0.4829  0.1768  0.2142
  242SOL     hw  966   2.206   5.782   3.663 -0.0498  1.1823  0.1721
  242SOL     hw  967   2.272   5.886   3.751  0.9115  1.1169 -0.4586
  242SOL     vw  968   2.277   5.828   3.686  0.4692  0.4334  0.1197
  243SOL     ow  969   4.885   2.431   4.275 -0.3984  0.0274  0.0187
  243SOL     hw  970   4.906   2.350   4.322 -0.3180 -0.1911 -0.3940
  243SOL     hw  971   4.791   2.426   4.260 -0.4538  0.1801  0.3101
  243SOL     vw  972   4.876   2.420   4.279 -0.3951  0.0187  0.0026
  244SOL     ow  973   5.660   0.094   1.589  0.1505 -0.1735 -0.3566
  244SOL     hw  974   5.676   0.010   1.632  1.9183  0.7476  0.9183
  244SOL     hw  975   5.568   0.092   1.564 -0.3611 -1.6609  1.5098
  244SOL     vw  976   5.650   0.083   1.591  0.3161 -0.2482  0.0579
  245SOL     ow  977   2.812   4.555   6.412  0.5296  0.2851  0.0831
  245SOL     hw  978   2.843   4.467   6.432  0.1820  0.3833  1.1705
  245SOL     hw  979   2.887   4.612   6.427  0.4217  0.2962  0.6053
  245SOL     vw  980   2.826   4.551   6.417  0.4697  0.2995  0.2954
  246SOL     ow  981   2.983   3.519   6.858  0.5922  0.1224 -0.0246
  246SOL     hw  982   2.971   3.559   6.945  0.6271 -1.0982  0.5574
  246SOL     hw  983   2.987   3.594   6.798 -3.3376  0.9870  0.5082
  246SOL     vw  984   2.982   3.534   6.862  0.0783  0.0755  0.1223
  247SOL     ow  985   4.676   5.479   3.383 -0.2138  0.5963  0.0574
  247SOL     hw  986   4.746   5.448   3.440  2.2098  1.1405 -2.4161
  247SOL     hw  987   4.717   5.544   3.326 -1.5046 -1.9294 -4.2952
  247SOL     vw  988   4.691   5.483   3.383 -0.0641  0.3347 -0.8432
  248SOL     ow  989   3.947   1.620   4.438 -1.2405 -0.6130  0.6024
  248SOL     hw  990   3.969   1.710   4.462  0.2717 -1.0404  0.9499
  248SOL     hw  991   4.026   1.570   4.457 -1.4490 -1.7344 -1.1675
  248SOL     vw  992   3.960   1.625   4.443 -1.0685 -0.8173  0.4146
  249SOL     ow  993   5.246   1.001   2.950 -0.0703  0.9149  0.2087
  249SOL     hw  994   5.239   0.941   3.025 -0.5279  1.4668  0.6119
  249SOL     hw  995   5.339   1.023   2.946  0.4324 -1.1357 -0.9936
  249SOL     vw  996   5.258   0.996   2.960 -0.0644  0.7172  0.1032
  250SOL     ow  997   1.595   1.372   7.104  0.0041  0.5974 -0.1935
  250SOL     hw  998   1.659   1.309   7.138 -0.5639  0.8530  1.4812
  250SOL     hw  999   1.623   1.456   7.143 -2.8454  0.2992  3.0000
  250SOL     vw 1000   1.607   1.375   7.114 -0.4467  0.5918  0.4489
  251SOL     ow 1001   4.943   1.120   2.970 -0.1966 -0.2272  0.4123
  251SOL     hw 1002   4.863   1.167   2.997  1.0369  0.8675  2.4586
  251SOL     hw 1003   5.001   1.128   3.045  2.1326 -0.3835 -1.2800
  251SOL     vw 1004   4.940   1.127   2.984  0.2735 -0.1034  0.4591
  252SOL     ow 1005   4.609   1.842   1.358 -0.2134  0.1697  0.0070
  252SOL     hw 1006   4.660   1.777   1.310  1.4368  0.6776  0.9839
  252SOL     hw 1007   4.674   1.897   1.401 -1.5711  1.9539 -0.0930
  252SOL     vw 1008   4.624   1.841   1.357 -0.1748  0.4721  0.1227
  253SOL     ow 1009   2.276   6.670   1.877 -0.1200  0.2509  0.1522
  253SOL     hw 1010   2.365   6.644   1.854  0.9797  2.4130  1.6978
  253SOL     hw 1011   2.284   6.759   1.910 -2.7984  0.3311  0.8192
  253SOL     vw 1012   2.289   6.678   1.878 -0.3282  0.5467  0.4441
  254SOL     ow 1013   1.686   3.090   3.771 -0.1622 -0.3256  0.6951
  254SOL     hw 1014   1.738   3.147   3.714 -3.3241  0.0430 -2.1562
  254SOL     hw 1015   1.721   3.002   3.756 -0.8383 -0.2299 -1.9374
  254SOL     vw 1016   1.697   3.086   3.761 -0.6685 -0.2644 -0.0285
  255SOL     ow 1017   5.921   4.553   3.596 -0.0600  0.6899  0.0304
  255SOL     hw 1018   5.945   4.519   3.510 -2.4274  1.2301 -0.9389
  255SOL     hw 1019   5.855   4.491   3.628  0.1464  0.9883  1.0540
  255SOL     vw 1020   5.915   4.540   3.589 -0.3452  0.8006  0.0376
  256SOL     ow 1021   1.544   4.569   3.772 -0.0838  0.6239 -0.6000
  256SOL     hw 1022   1.570   4.492   3.722 -0.1967 -0.5922  1.1338
  256SOL     hw 1023   1.623   4.625   3.772 -0.2539  0.9433 -2.5414
  256SOL     vw 1024   1.558   4.566   3.765 -0.1211  0.5054 -0.6275
  257SOL     ow 1025   2.691   0.379   0.640 -0.0523  0.3578 -0.3378
  257SOL     hw 1026   2.681   0.470   0.669 -1.7020 -0.1305  0.7514
  257SOL     hw 1027   2.720   0.332   0.718  4.4297  0.4320 -1.6885
  257SOL     vw 1028   2.693   0.385   0.654  0.3214  0.3032 -0.3724
  258SOL     ow 1029   3.901   4.905   2.031 -0.4483 -0.1474  0.0408
  258SOL     hw 1030   3.811   4.905   2.063 -0.9349 -0.9622 -1.2541
  258SOL     hw 1031   3.947   4.843   2.088  0.4746  3.4322  3.6113
  258SOL     vw 1032   3.896   4.897   2.042 -0.3908  0.2174  0.3411
  259SOL     ow 1033   0.633   2.488   4.277 -0.8216 -0.1375  0.6358
  259SOL     hw 1034   0.609   2.424   4.210 -0.4776  0.3404  0.0380
  259SOL     hw 1035   0.559   2.549   4.280  0.1697  1.2516 -1.1013
  259SOL     vw 1036   0.620   2.488   4.268 -0.6454  0.1087  0.3278
  260SOL     ow 1037   3.848   5.375   1.276 -0.0770 -0.4206  0.0666
  260SOL     hw 1038   3.840   5.451   1.334 -0.7885 -0.2787 -0.2036
  260SOL     hw 1039   3.931   5.334   1.301  0.0288  0.1112  0.6121
  260SOL     vw 1040   3.858   5.380   1.287 -0.1571 -0.3316  0.1030
  261SOL     ow 1041   3.738   4.814   3.535  0.4047  0.4004 -0.1191
  261SOL     hw 1042   3.780   4.753   3.475  0.0402  1.6047 -1.6563
  261SOL     hw 1043   3.706   4.759   3.607  1.4381 -0.9863 -0.6843
  261SOL     vw 1044   3.739   4.799   3.537  0.4929  0.3765 -0.3966
  262SOL     ow 1045   6.564   4.647   5.091  0.5089  0.9803 -0.0443
  262SOL     hw 1046   6.645   4.643   5.142  1.8478 -0.3596 -2.1203
  262SOL     hw 1047   6.499   4.605   5.147  1.8645 -0.2404  0.6934
  262SOL     vw 1048   6.566   4.641   5.105  0.8645  0.6425 -0.2205
  263SOL     ow 1049   4.209   6.306   2.452  0.2964  0.3100 -0.4426
  263SOL     hw 1050   4.179   6.393   2.425  2.9124  1.7471  0.8563
  263SOL     hw 1051   4.217   6.256   2.371 -1.1594  1.2810 -1.2226
  263SOL     vw 1052   4.206   6.311   2.438  0.4494  0.6275 -0.3741
  264SOL     ow 1053   2.133   6.748   3.979  0.1305  1.0520  0.5380
  264SOL     hw 1054   2.187   6.778   3.906 -0.8948  2.6583  0.3895
  264SOL     hw 1055   2.195   6.718   4.045  1.0787 -0.5799 -1.0179
  264SOL     vw 1056   2.148   6.748   3.978  0.1204  1.0486  0.3132
  265SOL     ow 1057   3.440   5.879   3.133  0.0901  0.2684  0.1075
  265SOL     hw 1058   3.449   5.838   3.047  1.1997 -0.1905  0.4111
  265SOL     hw 1059   3.378   5.951   3.120  0.7411  0.6240 -1.2227
  265SOL     vw 1060   3.433   5.883   3.120  0.3223  0.2549 -0.0279
  266SOL     ow 1061   1.960   5.797   4.136 -0.5735 -0.1141  0.3224
  266SOL     hw 1062   1.886   5.840   4.093  0.1958 -0.1587 -1.1220
  266SOL     hw 1063   1.968   5.713   4.092 -1.4559 -1.3918  2.4698
  266SOL     vw 1064   1.952   5.792   4.125 -0.5884 -0.2885  0.4153
  267SOL     ow 1065   2.764   6.178   4.248  0.0886  0.0230 -0.5463
  267SOL     hw 1066   2.773   6.112   4.317 -0.6650 -1.4482 -1.7924
  267SOL     hw 1067   2.671   6.178   4.227  0.0685  1.5584 -0.5448
  267SOL     vw 1068   2.753   6.169   4.254 -0.0136  0.0315 -0.7102
  268SOL     ow 1069   0.514   1.648   1.505  0.0499 -0.1225 -0.6253
  268SOL     hw 1070   0.483   1.733   1.536 -1.9870 -0.2335 -2.1279
  268SOL     hw 1071   0.609   1.651   1.516 -0.1480  1.5856  1.1252
  268SOL     vw 1072   0.522   1.659   1.511 -0.2449  0.0882 -0.5926
  269SOL     ow 1073   1.289   1.196   2.150 -0.5713 -0.0111 -0.0591
  269SOL     hw 1074   1.358   1.259   2.128 -1.0494  0.3928 -0.4194
  269SOL     hw 1075   1.300   1.125   2.087  0.3497 -0.6050  0.7222
  269SOL     vw 1076   1.300   1.195   2.139 -0.5128 -0.0362 -0.0035
  270SOL     ow 1077   6.104   0.260   6.394 -0.4763  0.0809  0.3848
  270SOL     hw 1078   6.048   0.248   6.317 -1.9484  0.3042  1.3821
  270SOL     hw 1079   6.055   0.220   6.466  0.7994  0.0146  1.2603
  270SOL     vw 1080   6.091   0.253   6.393 -0.5023  0.1016  0.6318
  271SOL     ow 1081   6.187   4.629   1.726 -0.0613 -0.3648  0.2839
  271SOL     hw 1082   6.157   4.644   1.636  1.4734  1.1989 -0.0305
  271SOL     hw 1083   6.106   4.622   1.777 -1.1274  3.8976 -0.4449
  271SOL     vw 1084   6.172   4.630   1.721  0.0005  0.4039  0.1463
  272SOL     ow 1085   3.759   5.090   3.695 -0.6083  0.7043 -0.7696
  272SOL     hw 1086   3.700   5.164   3.690 -1.5889 -0.0874 -1.2541
  272SOL     hw 1087   3.703   5.016   3.719  0.1765 -0.0672 -1.2609
  272SOL     vw 1088   3.744   5.090   3.698 -0.6343  0.4981 -0.8985
  273SOL     ow 1089   3.699   3.632   6.720 -0.5928 -0.0052  0.7862
  273SOL     hw 1090   3.750   3.653   6.798 -0.9336 -0.8988  1.2666
  273SOL     hw 1091   3.663   3.715   6.691 -0.2237  0.3790  1.4177
  273SOL     vw 1092   3.701   3.645   6.727 -0.5891 -0.0724  0.9329
  274SOL     ow 1093   3.511   6.302   6.438  0.0512  0.0865 -0.1426
  274SOL     hw 1094   3.426   6.328   6.403  0.6893 -1.3383 -2.9658
  274SOL     hw 1095   3.545   6.237   6.377  2.3385 -0.8865  1.9607
  274SOL     vw 1096   3.505   6.297   6.425  0.4370 -0.2301 -0.2379
  275SOL     ow 1097   4.777   3.717   5.146  0.0795  0.3313  0.0394
  275SOL     hw 1098   4.699   3.772   5.139  0.1986  0.7056  1.4519
  275SOL     hw 1099   4.821   3.746   5.226  1.2702 -0.3954 -0.3157
  275SOL     vw 1100   4.773   3.728   5.156  0.2522  0.2848  0.1791
  276SOL     ow 1101   1.765   5.000   7.143 -0.1198 -0.4281  0.2586
  276SOL     hw 1102   1.824   4.945   7.092  0.6489 -0.9401  1.6530
  276SOL     hw 1103   1.804   5.087   7.141  0.7943 -0.7968  1.2983
  276SOL     vw 1104   1.778   5.004   7.136  0.1022 -0.5443  0.5798
  277SOL     ow 1105   2.268   4.674   4.520  0.3152 -0.3070 -0.7610
  277SOL     hw 1106   2.350   4.677   4.569 -0.8489  2.7164  1.2439
  277SOL     hw 1107   2.263   4.583   4.489  3.8580 -0.8875 -0.1074
  277SOL     vw 1108   2.279   4.662   4.522  0.6291  0.0153 -0.4106
  278SOL     ow 1109   5.630   1.345   4.070  0.2209 -0.0262 -0.2232
  278SOL     hw 1110   5.602   1.271   4.125  2.0750 -1.5926 -1.2406
  278SOL     hw 1111   5.725   1.343   4.076  0.3600  1.2356 -1.6617
  278SOL     vw 1112   5.639   1.335   4.078  0.4838 -0.0665 -0.5472
  279SOL     ow 1113   2.995   4.720   3.459 -0.4513  0.1121  0.6449
  279SOL     hw 1114   3.007   4.769   3.541 -2.8942 -1.2962  1.9713
  279SOL     hw 1115   2.905   4.741   3.432 -0.2075 -0.6727 -0.8360
  279SOL     vw 1116   2.985   4.729   3.466 -0.7415 -0.1776  0.6247
  280SOL     ow 1117   6.690   2.681   2.458  0.9636 -0.9869 -0.1947
  280SOL     hw 1118   6.763   2.687   2.519  0.5262 -1.1751  0.3579
  280SOL     hw 1119   6.690   2.590   2.428  1.8588 -0.6358 -1.3537
  280SOL     vw 1120   6.700   2.670   2.462  1.0240 -0.9652 -0.2747
  281SOL     ow 1121   2.074   4.761   0.050  0.0288 -0.8474 -0.4395
  281SOL     hw 1122   2.062   4.673   0.014 -3.2311 -0.5469 -0.3864
  281SOL     hw 1123   2.048   4.820  -0.020  1.7385  0.1170 -0.3207
  281SOL     vw 1124   2.069   4.757   0.036 -0.1757 -0.6804 -0.4168
  282SOL     ow 1125   6.960   4.081   3.369 -0.4691  0.1276  0.1501
  282SOL     hw 1126   6.986   4.174   3.369  0.2857 -0.0510 -1.4852
  282SOL     hw 1127   7.038   4.034   3.399  0.1500 -0.1593 -1.7478
  282SOL     vw 1128   6.974   4.087   3.373 -0.2880  0.0660 -0.3159
  283SOL     ow 1129   6.791   4.790   3.333  0.4491 -0.6725 -0.1244
  283SOL     hw 1130   6.766   4.824   3.419 -1.1813 -1.7040 -0.1385
  283SOL     hw 1131   6.836   4.707   3.352  3.7439  0.9778 -0.1244
  283SOL     vw 1132   6.794   4.783   3.347  0.6688 -0.5910 -0.1264
  284SOL     ow 1133   3.092   5.377   4.244  0.1533 -0.0688  0.0516
  284SOL     hw 1134   3.110   5.363   4.337  0.2133  0.2195  0.0834
  284SOL     hw 1135   3.179   5.378   4.203  0.1585  0.3211  0.0661
  284SOL     vw 1136   3.106   5.375   4.251  0.1619  0.0207  0.0577
  285SOL     ow 1137   4.726   2.778   1.217  0.0331  0.1042  0.4480
  285SOL     hw 1138   4.669   2.842   1.174 -0.3050 -0.7314 -0.3917
  285SOL     hw 1139   4.672   2.699   1.225 -0.3568  0.5972  3.6579
  285SOL     vw 1140   4.712   2.776   1.212 -0.0629  0.0589  0.7608
  286SOL     ow 1141   4.314   2.725   3.839 -0.3402 -0.4051 -0.7916
  286SOL     hw 1142   4.315   2.699   3.747 -2.0756 -0.0687 -0.9319
  286SOL     hw 1143   4.224   2.711   3.868 -0.1645  0.8154  0.4739
  286SOL     vw 1144   4.302   2.720   3.831 -0.5460 -0.1997 -0.6430
  287SOL     ow 1145   3.317   0.170   4.627  0.0898 -0.3451 -0.2414
  287SOL     hw 1146   3.397   0.206   4.587  2.0107  0.1386  3.5058
  287SOL     hw 1147   3.297   0.092   4.576  4.1842 -1.5766 -0.3250
  287SOL     vw 1148   3.325   0.165   4.615  0.8836 -0.4438  0.2420
  288SOL     ow 1149   4.628   2.003   6.762 -0.1903  0.1198  0.1413
  288SOL     hw 1150   4.614   1.989   6.856 -1.6831 -1.0419 -0.2000
  288SOL     hw 1151   4.612   2.096   6.749 -0.9905  0.1029  0.9036
  288SOL     vw 1152   4.624   2.013   6.773 -0.4928 -0.0358  0.1967
  289SOL     ow 1153   1.812   4.391   1.093 -0.2721 -0.0349  0.7700
  289SOL     hw 1154   1.902   4.421   1.083 -0.4431  0.0170 -0.9981
  289SOL     hw 1155   1.804   4.319   1.031 -1.3413 -0.3078  1.1998
  289SOL     vw 1156   1.823   4.385   1.084 -0.4357 -0.0641  0.5933
  290SOL     ow 1157   2.287   4.956   0.752  0.5685 -0.1018  0.2142
  290SOL     hw 1158   2.310   4.936   0.662 -0.5007  2.0119 -0.5790
  290SOL     hw 1159   2.194   4.935   0.759  0.3642  0.8285  0.4637
  290SOL     vw 1160   2.278   4.950   0.741  0.4004  0.2999  0.1425
  291SOL     ow 1161   5.838   6.669   5.401  0.1998 -1.0818 -0.6731
  291SOL     hw 1162   5.746   6.647   5.387  0.1465 -0.7245 -0.8845
  291SOL     hw 1163   5.868   6.705   5.317  0.4542 -0.9267 -0.5182
  291SOL     vw 1164   5.830   6.671   5.388  0.2263 -1.0142 -0.6804
  292SOL     ow 1165   6.993   2.199   4.676 -0.0268  0.0688  0.4891
  292SOL     hw 1166   6.973   2.161   4.591  0.8046  0.2004  0.2265
  292SOL     hw 1167   7.074   2.248   4.662 -0.2602  0.6775  1.1872
  292SOL     vw 1168   7.001   2.201   4.663  0.0520  0.1664  0.5465
  293SOL     ow 1169   6.222   1.643   5.687 -0.3272 -0.5525  0.3695
  293SOL     hw 1170   6.247   1.724   5.643 -0.2563 -0.3521  0.7759
  293SOL     hw 1171   6.292   1.626   5.750 -0.1914 -1.0905  0.0775
  293SOL     vw 1172   6.234   1.651   5.690 -0.2999 -0.5970  0.3846
  294SOL     ow 1173   5.552   2.378   5.945  0.4008 -0.2850 -0.6185
  294SOL     hw 1174   5.530   2.466   5.914 -0.4315  0.0003  0.7239
  294SOL     hw 1175   5.474   2.349   5.993  1.7882 -0.4821  1.6556
  294SOL     vw 1176   5.539   2.385   5.947  0.4740 -0.2732 -0.1414
  295SOL     ow 1177   0.708   0.092   6.918  0.2410  0.0499  0.4432
  295SOL     hw 1178   0.686   0.030   6.848  0.1798 -1.4793  1.7742
  295SOL     hw 1179   0.804   0.095   6.917  0.2306  0.2955  0.0728
  295SOL     vw 1180   0.718   0.084   6.908  0.2316 -0.1195  0.5701
  296SOL     ow 1181   6.731   3.857   5.694 -0.1535  0.1708 -0.4072
  296SOL     hw 1182   6.719   3.842   5.601 -0.0289  1.4651 -0.6611
  296SOL     hw 1183   6.656   3.911   5.720  0.4683  0.8996 -0.0618
  296SOL     vw 1184   6.719   3.862   5.685 -0.0551  0.4376 -0.3951
  297SOL     ow 1185   5.991   1.300   5.042 -0.3861  0.2022  0.2584
  297SOL     hw 1186   5.898   1.307   5.024 -0.4091 -0.5413  0.0460
  297SOL     hw 1187   6.024   1.240   4.975  0.5276  1.5979 -0.5923
  297SOL     vw 1188   5.983   1.293   5.031 -0.2687  0.2882  0.1180
  298SOL     ow 1189   2.071   2.564   6.762  0.3145  0.5352 -0.7859
  298SOL     hw 1190   2.036   2.525   6.842  0.7957 -0.0605 -0.8584
  298SOL     hw 1191   2.165   2.574   6.779  0.7599 -1.2460 -1.8977
  298SOL     vw 1192   2.079   2.560   6.775  0.4368  0.2217 -0.9420
  299SOL     ow 1193   0.627   1.868   4.538 -0.5528  0.0681  0.0852
  299SOL     hw 1194   0.650   1.940   4.479 -1.8822  0.0245 -0.5266
  299SOL     hw 1195   0.583   1.911   4.612  0.6066  0.0693  0.7913
  299SOL     vw 1196   0.624   1.883   4.540 -0.5752  0.0625  0.0975
  300SOL     ow 1197   4.148   4.961   5.236  0.0798 -0.9927  0.0571
  300SOL     hw 1198   4.067   4.928   5.198 -0.6878  0.9709 -0.0829
  300SOL     hw 1199   4.208   4.967   5.162 -0.3624 -0.3360 -0.2546
  300SOL     vw 1200   4.146   4.957   5.221 -0.0799 -0.6468 -0.0024
  301SOL     ow 1201   5.138   5.720   5.873 -0.3460  0.2067 -0.7151
  301SOL     hw 1202   5.138   5.816   5.866 -1.5391  0.2854  0.1785
  301SOL     hw 1203   5.047   5.697   5.888 -0.3582 -1.2244 -2.5978
  301SOL     vw 1204   5.126   5.730   5.874 -0.5047  0.0279 -0.8459
  302SOL     ow 1205   4.502   5.379   6.935  0.0890 -0.7251  0.4531
  302SOL     hw 1206   4.559   5.381   6.858  1.3772  3.7164  1.2275
  302SOL     hw 1207   4.414   5.389   6.900  0.6101  0.6526 -0.5534
  302SOL     vw 1208   4.498   5.381   6.920  0.3278  0.0424  0.4225
  303SOL     ow 1209   6.574   0.128   0.068  0.2196 -0.8451  0.6099
  303SOL     hw 1210   6.492   0.166   0.099  0.8215  0.3354  0.8038
  303SOL     hw 1211   6.547   0.052   0.017 -1.0632  0.0706 -0.1339
  303SOL     vw 1212   6.559   0.123   0.065  0.1297 -0.5685  0.5373
  304SOL     ow 1213   7.121   3.833   1.471 -0.1917 -0.1731 -0.6976
  304SOL     hw 1214   7.069   3.759   1.440 -0.9107  0.0464 -0.0520
  304SOL     hw 1215   7.099   3.841   1.564  0.7923  0.1079 -0.4760
  304SOL     vw 1216   7.111   3.825   1.479 -0.1567 -0.1070 -0.5831
  305SOL     ow 1217   5.068   4.405   5.638 -0.9591  0.6483  0.5356
  305SOL     hw 1218   5.128   4.472   5.670 -0.5215  0.9178 -0.7788
  305SOL     hw 1219   5.126   4.336   5.604 -1.3037  1.3726 -1.7131
  305SOL     vw 1220   5.084   4.405   5.638 -0.9470  0.7794  0.0653
  306SOL     ow 1221   5.800   1.298   4.593  0.4142 -1.1882 -0.5023
  306SOL     hw 1222   5.721   1.347   4.614  0.9987 -0.0853 -0.8159
  306SOL     hw 1223   5.783   1.210   4.626 -0.3797 -0.6050  0.7040
  306SOL     vw 1224   5.787   1.293   4.600  0.3867 -0.9658 -0.3843
  307SOL     ow 1225   1.211   1.370   2.400 -0.1973 -0.1068 -0.0071
  307SOL     hw 1226   1.278   1.439   2.405 -1.2450  0.9987 -0.6051
  307SOL     hw 1227   1.146   1.394   2.466  0.7126 -2.0566  1.7118
  307SOL     vw 1228   1.211   1.382   2.409 -0.2155 -0.2182  0.1407
  308SOL     ow 1229   3.241   4.134   6.438  0.1577 -0.5283  0.5104
  308SOL     hw 1230   3.150   4.108   6.456  0.3606 -2.6875 -1.0673
  308SOL     hw 1231   3.288   4.116   6.519 -0.5189 -1.1824  0.7728
  308SOL     vw 1232   3.235   4.128   6.451  0.0952 -0.8996  0.3369
  309SOL     ow 1233   6.594   2.818   6.144 -0.3567 -0.0909  0.5269
  309SOL     hw 1234   6.613   2.876   6.217 -1.0150  1.4471 -0.4486
  309SOL     hw 1235   6.514   2.772   6.170  0.2177 -0.6398  1.3518
  309SOL     vw 1236   6.586   2.820   6.157 -0.3676  0.0395  0.5071
  310SOL     ow 1237   1.714   6.067   6.442  0.6368  0.1988 -0.3233
  310SOL     hw 1238   1.673   5.981   6.444  1.9167 -0.4748 -1.4565
  310SOL     hw 1239   1.651   6.122   6.394 -0.1347 -0.1067  0.3123
  310SOL     vw 1240   1.700   6.063   6.436  0.7039  0.0699 -0.3889
  311SOL     ow 1241   0.221   5.179   5.962 -0.0922 -0.1853 -0.3158
  311SOL     hw 1242   0.154   5.248   5.969 -0.8986 -0.6760 -2.4102
  311SOL     hw 1243   0.302   5.227   5.944 -0.1320  0.3397  0.8211
  311SOL     vw 1244   0.223   5.195   5.960 -0.2039 -0.1807 -0.4420
  312SOL     ow 1245   2.960   1.816   3.324  0.0535 -0.4734  0.2230
  312SOL     hw 1246   2.935   1.772   3.243 -1.6175  2.5848 -1.0646
  312SOL     hw 1247   3.052   1.837   3.313 -0.9279  3.2897 -2.8032
  312SOL     vw 1248   2.969   1.813   3.312 -0.2965  0.4266 -0.3462
  313SOL     ow 1249   1.144   0.742   0.449 -0.0581 -0.4017 -0.1595
  313SOL     hw 1250   1.071   0.740   0.388  0.4642  2.5403 -1.0248
  313SOL     hw 1251   1.116   0.803   0.517  1.4070  0.4671 -0.3002
  313SOL     vw 1252   1.131   0.749   0.450  0.2041  0.1011 -0.2922
  314SOL     ow 1253   0.299   5.082   6.229  0.0515 -0.0622  0.1543
  314SOL     hw 1254   0.368   5.144   6.206  0.1702  0.1518  1.0297
  314SOL     hw 1255   0.337   5.027   6.297 -0.2642 -0.6909 -0.1712
  314SOL     vw 1256   0.313   5.083   6.235  0.0256 -0.1168  0.2270
  315SOL     ow 1257   2.192   2.469   4.791 -0.3897  0.2507  0.2135
  315SOL     hw 1258   2.262   2.530   4.767  0.6632 -0.2108  1.9346
  315SOL     hw 1259   2.219   2.434   4.876 -0.5705 -3.1758 -1.0093
  315SOL     vw 1260   2.205   2.473   4.799 -0.2748 -0.2624  0.2794
  316SOL     ow 1261   1.726   1.316   3.738 -0.0654  0.0160 -0.8862
  316SOL     hw 1262   1.662   1.263   3.786  0.3729 -0.4547 -0.8227
  316SOL     hw 1263   1.693   1.406   3.747 -1.4152 -0.3313 -1.9203
  316SOL     vw 1264   1.713   1.321   3.746 -0.1857 -0.0920 -1.0142
  317SOL     ow 1265   0.829   6.810   2.091  0.1491  0.6028  0.4539
  317SOL     hw 1266   0.753   6.829   2.146  0.3101  2.7253  0.0251
  317SOL     hw 1267   0.878   6.743   2.140 -1.8169 -0.6209  0.8625
  317SOL     vw 1268   0.825   6.804   2.105 -0.0890  0.7212  0.4512
  318SOL     ow 1269   3.170   0.121   4.875  0.3197  0.8588  0.1328
  318SOL     hw 1270   3.085   0.132   4.832 -1.1747  0.1363  2.7057
  318SOL     hw 1271   3.199   0.034   4.846  0.6016  1.4243 -1.3707
  318SOL     vw 1272   3.162   0.111   4.865  0.1597  0.8381  0.2739
  319SOL     ow 1273   0.930   1.716   4.508 -0.1554 -0.2471  0.0756
  319SOL     hw 1274   1.010   1.671   4.537 -1.5102 -3.4873 -0.8300
  319SOL     hw 1275   0.956   1.764   4.430  0.9962 -0.8626  0.0631
  319SOL     vw 1276   0.944   1.716   4.502 -0.1822 -0.7558 -0.0453
  320SOL     ow 1277   1.334   5.547   4.552  0.0313  0.9160 -0.3322
  320SOL     hw 1278   1.266   5.580   4.494  0.4797 -0.2398 -1.5535
  320SOL     hw 1279   1.378   5.626   4.585  0.3270  1.5995 -2.2556
  320SOL     vw 1280   1.331   5.562   4.549  0.1295  0.8538 -0.7470
  321SOL     ow 1281   5.677   0.496   2.970  0.2615 -0.3372 -0.2387
  321SOL     hw 1282   5.667   0.591   2.964 -0.6570 -0.4455 -0.5907
  321SOL     hw 1283   5.756   0.484   3.022  1.0937  0.6256 -1.2208
  321SOL     vw 1284   5.686   0.507   2.976  0.2503 -0.2244 -0.4148
  322SOL     ow 1285   2.017   4.647   6.046 -0.2674 -0.1035  0.2314
  322SOL     hw 1286   2.077   4.721   6.055  1.7029 -1.7833  1.8607
  322SOL     hw 1287   2.068   4.582   5.998 -1.1748 -1.2076  0.7504
  322SOL     vw 1288   2.032   4.649   6.041 -0.1272 -0.4709  0.5147
  323SOL     ow 1289   2.511   2.954   3.490 -0.3439  0.4720 -0.4223
  323SOL     hw 1290   2.418   2.974   3.507 -0.2185  0.8145 -0.1236
  323SOL     hw 1291   2.558   3.006   3.555  0.1369  1.4784 -1.5484
  323SOL     vw 1292   2.505   2.964   3.501 -0.2639  0.6500 -0.5314
  324SOL     ow 1293   6.949   1.903   1.466 -0.3559 -0.1161 -0.5660
  324SOL     hw 1294   7.028   1.852   1.447 -1.2643 -0.8236 -2.6487
  324SOL     hw 1295   6.983   1.989   1.492  1.1062 -0.4492 -1.2569
  324SOL     vw 1296   6.964   1.908   1.467 -0.2828 -0.2534 -0.9319
  325SOL     ow 1297   0.193   3.916   2.315  0.3723 -0.3079 -0.1570
  325SOL     hw 1298   0.147   3.847   2.267 -2.0676 -1.6359  3.6308
  325SOL     hw 1299   0.248   3.869   2.378  3.7224  1.3377 -1.5819
  325SOL     vw 1300   0.195   3.901   2.317  0.4924 -0.2658  0.1547
  326SOL     ow 1301   5.260   5.211   2.719  0.7286  0.2659  0.7764
  326SOL     hw 1302   5.226   5.136   2.767 -2.7770  1.4725  0.4802
  326SOL     hw 1303   5.296   5.174   2.638 -0.9865 -1.1254  0.6071
  326SOL     vw 1304   5.261   5.197   2.715  0.0398  0.2413  0.7150
  327SOL     ow 1305   1.399   2.863   1.559  0.3457  0.3109  0.0485
  327SOL     hw 1306   1.351   2.879   1.477 -3.9795  1.3824  2.4991
  327SOL     hw 1307   1.478   2.917   1.551  0.4894 -0.1691 -3.5936
  327SOL     vw 1308   1.403   2.872   1.547 -0.2060  0.3889 -0.1087
  328SOL     ow 1309   3.922   4.091   5.560 -0.0350  0.3454 -0.6693
  328SOL     hw 1310   3.985   4.155   5.594  0.7329  0.4290 -2.1836
  328SOL     hw 1311   3.909   4.029   5.633 -0.0235  1.6373  0.4617
  328SOL     vw 1312   3.929   4.091   5.574  0.0677  0.5269 -0.7200
  329SOL     ow 1313   6.600   1.216   0.579  0.2808  0.3339 -0.5903
  329SOL     hw 1314   6.666   1.247   0.517  0.3471 -1.6467 -1.6032
  329SOL     hw 1315   6.536   1.169   0.525  1.6988 -3.7637  0.9012
  329SOL     vw 1316   6.600   1.214   0.564  0.4768 -0.4680 -0.5271
  330SOL     ow 1317   6.664   3.970   0.983  0.3027 -0.7492 -0.2057
  330SOL     hw 1318   6.741   3.960   0.927  0.3980  0.3057 -0.2788
  330SOL     hw 1319   6.622   4.049   0.952  0.8142  0.3496  1.7441
  330SOL     vw 1320   6.669   3.979   0.971  0.3824 -0.4650  0.0419
  331SOL     ow 1321   7.021   7.013   1.414 -0.0178 -0.2564  0.9019
  331SOL     hw 1322   6.938   6.983   1.450 -0.4206  0.7893  0.8775
  331SOL     hw 1323   6.996   7.063   1.336  0.6702 -0.3458  0.6202
  331SOL     vw 1324   7.007   7.016   1.408  0.0198 -0.1302  0.8615
  332SOL     ow 1325   1.829   1.254   1.221 -0.1336 -0.3713  0.3151
  332SOL     hw 1326   1.826   1.224   1.130 -3.4331  2.1424 -0.5802
  332SOL     hw 1327   1.868   1.341   1.217  1.4329 -0.9450  1.6648
  332SOL     vw 1328   1.834   1.261   1.209 -0.3622 -0.1154  0.3752
  333SOL     ow 1329   3.242   3.061   1.506  0.1603  0.3560  0.5411
  333SOL     hw 1330   3.175   3.104   1.452 -1.2021 -0.7034  1.3218
  333SOL     hw 1331   3.261   2.980   1.460 -1.7222 -1.0304  2.0143
  333SOL     vw 1332   3.236   3.056   1.493 -0.2679  0.0334  0.8385
  334SOL     ow 1333   5.156   3.118   3.792  0.1411  0.0294  1.0845
  334SOL     hw 1334   5.074   3.161   3.771  0.8156  0.3563 -1.1070
  334SOL     hw 1335   5.169   3.054   3.722  2.5096  1.1180  0.4114
  334SOL     vw 1336   5.147   3.115   3.780  0.5426  0.2162  0.7066
  335SOL     ow 1337   6.205   6.221   5.785  0.4279 -0.6521  0.1871
  335SOL     hw 1338   6.151   6.143   5.773 -0.2242 -0.2972  0.7400
  335SOL     hw 1339   6.264   6.221   5.710 -0.5729 -0.8669 -0.6204
  335SOL     vw 1340   6.206   6.211   5.773  0.2096 -0.6335  0.1535
  336SOL     ow 1341   0.502   2.912   0.482 -0.6165  0.0415  0.1907
  336SOL     hw 1342   0.562   2.915   0.557 -1.6169  3.1673  1.0293
  336SOL     hw 1343   0.430   2.856   0.511 -1.3918  1.8480  2.0492
  336SOL     vw 1344   0.500   2.905   0.496 -0.8507  0.6922  0.5465
  337SOL     ow 1345   2.743   5.914   0.320 -0.3854 -0.2650  0.1179
  337SOL     hw 1346   2.693   5.994   0.338 -0.6553 -0.1697 -1.0303
  337SOL     hw 1347   2.795   5.901   0.400  1.1365  2.1420 -0.3888
  337SOL     vw 1348   2.743   5.923   0.333 -0.2203  0.0651 -0.1004
  338SOL     ow 1349   1.165   2.149   7.136 -0.1974 -0.1915  0.2774
  338SOL     hw 1350   1.195   2.161   7.046 -1.0737  0.2642  0.0334
  338SOL     hw 1351   1.245   2.145   7.187  0.3038  1.4232 -0.2970
  338SOL     vw 1352   1.180   2.150   7.131 -0.2469  0.0817  0.1698
  339SOL     ow 1353   1.836   4.252   4.915  0.2989 -0.4424  0.5696
  339SOL     hw 1354   1.746   4.243   4.883  0.5335 -0.7957 -0.0111
  339SOL     hw 1355   1.863   4.162   4.933  0.7747 -0.4072  0.0620
  339SOL     vw 1356   1.828   4.239   4.913  0.3926 -0.4845  0.4261
  340SOL     ow 1357   3.309   4.971   6.905 -0.0121  0.7301  0.2833
  340SOL     hw 1358   3.384   4.969   6.845 -0.5708  0.4290 -0.4087
  340SOL     hw 1359   3.235   4.940   6.853 -0.9071  2.2705  0.5677
  340SOL     vw 1360   3.309   4.967   6.890 -0.2038  0.8934  0.2296
  341SOL     ow 1361   3.349   4.512   4.578  0.0068  0.3085  0.2165
  341SOL     hw 1362   3.440   4.541   4.575  0.0783  0.1002  0.3712
  341SOL     hw 1363   3.344   4.455   4.656 -0.1040 -0.1830 -0.1432
  341SOL     vw 1364   3.361   4.508   4.588  0.0015  0.2162  0.1893
  342SOL     ow 1365   4.563   5.305   5.686 -0.2222 -0.0419 -0.2985
  342SOL     hw 1366   4.525   5.347   5.763 -0.3644 -1.6155  0.5343
  342SOL     hw 1367   4.508   5.333   5.613  0.0217  1.6203  0.1157
  342SOL     vw 1368   4.551   5.314   5.686 -0.2086 -0.0303 -0.1342
  343SOL     ow 1369   3.262   1.642   5.723 -0.0221 -0.2473 -0.7214
  343SOL     hw 1370   3.171   1.615   5.709 -0.5445  0.8567  0.3810
  343SOL     hw 1371   3.263   1.734   5.697  0.9500 -0.4125 -1.3253
  343SOL     vw 1372   3.250   1.651   5.718  0.0372 -0.1236 -0.6557
  344SOL     ow 1373   5.018   4.098   4.270  0.0900  0.4696 -0.8224
  344SOL     hw 1374   5.010   4.171   4.332  1.5107  0.4419 -0.5776
  344SOL     hw 1375   4.932   4.055   4.273 -0.4410  1.5193 -0.2119
  344SOL     vw 1376   5.005   4.102   4.279  0.2074  0.6046 -0.7095
  345SOL     ow 1377   0.518   5.621   5.179 -0.1529  0.4741  0.1828
  345SOL     hw 1378   0.534   5.533   5.147 -0.3670  0.5953 -0.2667
  345SOL     hw 1379   0.439   5.613   5.234  1.2735 -0.0913  2.2704
  345SOL     vw 1380   0.510   5.608   5.182  0.0070  0.4153  0.3989
  346SOL     ow 1381   0.454   6.694   5.678 -0.1207  0.0713  0.7309
  346SOL     hw 1382   0.504   6.729   5.605 -0.2806  1.5805  1.2947
  346SOL     hw 1383   0.367   6.678   5.642  0.9111 -3.5962 -0.5343
  346SOL     vw 1384   0.449   6.696   5.664 -0.0057 -0.2134  0.6382
  347SOL     ow 1385   3.087   5.333   6.148 -0.2224 -0.0341  0.8549
  347SOL     hw 1386   3.069   5.260   6.089  1.2120 -0.5747  1.0576
  347SOL     hw 1387   3.107   5.292   6.232  1.6691  0.4867  0.7108
  347SOL     vw 1388   3.087   5.318   6.152  0.2164 -0.0367  0.8626
  348SOL     ow 1389   4.235   1.584   2.576  0.1136 -0.0604 -0.4500
  348SOL     hw 1390   4.149   1.558   2.542 -1.5282  1.5625  2.1350
  348SOL     hw 1391   4.268   1.647   2.513 -0.3385 -1.0255 -1.7036
  348SOL     vw 1392   4.228   1.589   2.563 -0.1628  0.0264 -0.2743
  349SOL     ow 1393   5.051   4.486   7.077 -0.0776  0.0153 -0.7819
  349SOL     hw 1394   5.029   4.567   7.032  2.7170  1.1578 -0.2779
  349SOL     hw 1395   5.012   4.496   7.164 -0.1262  0.5933 -0.8676
  349SOL     vw 1396   5.043   4.498   7.083  0.2847  0.2425 -0.7269
  350SOL     ow 1397   0.938   2.334   2.780 -0.2965  0.4140  0.2558
  350SOL     hw 1398   0.854   2.312   2.820 -1.3615 -0.5093 -2.2726
  350SOL     hw 1399   1.000   2.276   2.823 -1.3324 -0.3714  0.7458
  350SOL     vw 1400   0.935   2.323   2.791 -0.5736  0.1886 -0.0132
  351SOL     ow 1401   6.527   6.678   0.807 -0.2435 -0.6576  0.3842
  351SOL     hw 1402   6.554   6.589   0.788  2.2294  0.3783 -1.4221
  351SOL     hw 1403   6.597   6.714   0.861  1.4192  1.5803 -2.9572
  351SOL     vw 1404   6.539   6.671   0.811  0.3021 -0.2258 -0.2950
  352SOL     ow 1405   2.753   2.629   4.023  0.1342  0.5250 -0.2329
  352SOL     hw 1406   2.824   2.616   3.960 -0.4272 -1.1311 -0.5852
  352SOL     hw 1407   2.724   2.719   4.009  1.6515  0.9840 -0.6036
  352SOL     vw 1408   2.759   2.639   4.013  0.2604  0.3670 -0.3283
  353SOL     ow 1409   5.517   5.423   6.095  0.4124 -0.0679  0.1633
  353SOL     hw 1410   5.564   5.480   6.156  2.2790 -0.1436 -1.1052
  353SOL     hw 1411   5.557   5.337   6.107  0.8009 -0.0902 -1.1045
  353SOL     vw 1412   5.529   5.420   6.104  0.7102 -0.0811 -0.1714
  354SOL     ow 1413   1.643   4.931   5.625 -0.0574  0.5239 -0.4168
  354SOL     hw 1414   1.653   4.878   5.704  1.1577 -0.5083 -1.2214
  354SOL     hw 1415   1.592   5.007   5.653  1.2517  0.7340  1.6177
  354SOL     vw 1416   1.638   4.934   5.639  0.2756  0.4153 -0.2546
  355SOL     ow 1417   4.097   2.149   3.662 -0.6050  0.4766 -0.6021
  355SOL     hw 1418   4.100   2.166   3.568 -1.4044 -1.2762 -0.9881
  355SOL     hw 1419   4.005   2.159   3.686 -0.4789  0.4835 -0.1039
  355SOL     vw 1420   4.086   2.152   3.653 -0.6938  0.2463 -0.5873
  356SOL     ow 1421   0.501   3.711   6.652  0.2220 -0.3696  0.0808
  356SOL     hw 1422   0.481   3.669   6.569 -1.1265 -0.0146  0.1996
  356SOL     hw 1423   0.586   3.753   6.638  1.6169 -3.0446 -0.0368
  356SOL     vw 1424   0.510   3.711   6.639  0.2281 -0.6756  0.0808
  357SOL     ow 1425   1.917   6.923   4.974 -0.1619  0.5087  0.7429
  357SOL     hw 1426   1.953   6.835   4.987 -0.6451  0.3956  1.3705
  357SOL     hw 1427   1.988   6.982   4.998  0.2240  0.2917  0.1472
  357SOL     vw 1428   1.931   6.919   4.979 -0.1748  0.4649  0.7470
  358SOL     ow 1429   2.600   4.117   4.827 -0.4632 -0.5340  0.8078
  358SOL     hw 1430   2.623   4.195   4.776 -0.5369 -1.1806 -0.2526
  358SOL     hw 1431   2.624   4.139   4.917  1.3534 -0.0164  0.2433
  358SOL     vw 1432   2.606   4.130   4.832 -0.2332 -0.5510  0.5932
  359SOL     ow 1433   4.064   4.945   1.717 -0.5991  0.8357 -0.1987
  359SOL     hw 1434   4.115   4.877   1.762 -1.0289  0.2422 -0.5876
  359SOL     hw 1435   4.115   5.025   1.728  0.6167  0.1873 -0.9073
  359SOL     vw 1436   4.078   4.946   1.724 -0.4954  0.6721 -0.3435
  360SOL     ow 1437   1.295   6.772   2.110  0.7260  0.0955 -0.3603
  360SOL     hw 1438   1.214   6.754   2.063 -0.4290 -0.0601  1.6194
  360SOL     hw 1439   1.301   6.704   2.176  1.2771  1.4071  1.0007
  360SOL     vw 1440   1.285   6.761   2.112  0.6463  0.2482  0.0805
  361SOL     ow 1441   6.794   2.379   5.733  0.0938  0.1638 -0.0039
  361SOL     hw 1442   6.811   2.381   5.639  0.2226  2.4155  0.0114
  361SOL     hw 1443   6.865   2.326   5.770  0.3624 -0.2522 -1.0944
  361SOL     vw 1444   6.806   2.372   5.726  0.1462  0.4061 -0.1457
  362SOL     ow 1445   0.038   6.420   1.660 -0.1698  0.2282  0.2850
  362SOL     hw 1446   0.047   6.488   1.593  2.9052  0.2095  0.5195
  362SOL     hw 1447   0.024   6.468   1.742 -2.5064  0.3055 -0.0966
  362SOL     vw 1448   0.038   6.435   1.662 -0.0722  0.2358  0.2655
  363SOL     ow 1449   5.194   2.834   4.872  0.2142  0.5583  0.3108
  363SOL     hw 1450   5.192   2.825   4.776 -0.9275  2.2843  0.1264
  363SOL     hw 1451   5.272   2.885   4.890  1.5264 -1.4062  0.5318
  363SOL     vw 1452   5.204   2.840   4.861  0.2365  0.5269  0.3154
  364SOL     ow 1453   5.500   5.126   6.084 -0.6107 -0.1965 -0.0686
  364SOL     hw 1454   5.559   5.097   6.014 -1.0708  0.6458 -0.8385
  364SOL     hw 1455   5.415   5.138   6.040 -1.4474 -1.6158  1.0618
  364SOL     vw 1456   5.496   5.124   6.069 -0.7818 -0.2728 -0.0210
  365SOL     ow 1457   4.938   1.839   3.049  0.0425 -0.1194  0.3727
  365SOL     hw 1458   4.898   1.898   2.985 -0.8993 -1.5124 -0.3632
  365SOL     hw 1459   5.024   1.817   3.011  0.3680  0.6905  0.6160
  365SOL     vw 1460   4.944   1.844   3.035 -0.0389 -0.1964  0.3078
  366SOL     ow 1461   1.407   4.441   1.772  0.5106  0.3100  0.2644
  366SOL     hw 1462   1.474   4.484   1.826  1.2127  1.3211 -1.3556
  366SOL     hw 1463   1.455   4.374   1.723 -0.3162 -1.3749  1.6169
  366SOL     vw 1464   1.422   4.438   1.773  0.4942  0.2208  0.2291
  367SOL     ow 1465   1.727   4.874   5.317 -0.5862 -0.4368  0.1442
  367SOL     hw 1466   1.790   4.820   5.269  0.5975  0.5366  0.5372
  367SOL     hw 1467   1.774   4.956   5.334 -1.7485  0.0811  1.0128
  367SOL     vw 1468   1.742   4.878   5.313 -0.5834 -0.2403  0.3107
  368SOL     ow 1469   0.574   5.330   4.629 -0.9425 -0.0950  0.0297
  368SOL     hw 1470   0.655   5.378   4.608 -0.8338 -0.5462 -0.6256
  368SOL     hw 1471   0.577   5.317   4.723 -0.7650  0.8114  0.1645
  368SOL     vw 1472   0.585   5.335   4.638 -0.9047 -0.0348 -0.0391
  369SOL     ow 1473   1.227   5.291   3.733 -0.1580  0.6296 -0.4338
  369SOL     hw 1474   1.265   5.271   3.818 -0.4186 -1.2007 -0.7115
  369SOL     hw 1475   1.301   5.319   3.679  0.2834  0.1901 -0.0667
  369SOL     vw 1476   1.242   5.292   3.737 -0.1341  0.3300 -0.4220
  370SOL     ow 1477   2.254   1.295   1.976  0.0215  0.2697  0.8675
  370SOL     hw 1478   2.200   1.261   2.048  0.5359 -1.2715  0.5531
  370SOL     hw 1479   2.195   1.351   1.927 -0.2836  1.5852  2.6172
  370SOL     vw 1480   2.239   1.298   1.979  0.0492  0.2400  1.0569
  371SOL     ow 1481   5.211   1.812   1.696 -0.6592  0.1334  0.3235
  371SOL     hw 1482   5.184   1.746   1.632  1.4854 -0.0455 -0.4913
  371SOL     hw 1483   5.232   1.890   1.643  1.9622 -0.2807  0.5945
  371SOL     vw 1484   5.210   1.814   1.680 -0.0305  0.0552  0.2518
  372SOL     ow 1485   5.929   5.375   4.439 -0.3073  0.2051  0.2985
  372SOL     hw 1486   5.872   5.438   4.394  2.4485  3.1735  0.5494
  372SOL     hw 1487   6.009   5.374   4.387  1.4367  0.5838  2.7891
  372SOL     vw 1488   5.932   5.383   4.426  0.2866  0.6468  0.6604
  373SOL     ow 1489   0.843   2.179   0.147 -0.5152  0.3364  0.0415
  373SOL     hw 1490   0.757   2.197   0.111 -1.1395 -1.0491  0.7575
  373SOL     hw 1491   0.827   2.114   0.216  1.0239  0.4970  0.5847
  373SOL     vw 1492   0.830   2.173   0.151 -0.3945  0.1749  0.2076
  374SOL     ow 1493   5.129   0.830   1.984  0.5864  0.2869  0.2038
  374SOL     hw 1494   5.034   0.818   1.976  0.5840 -1.0246  1.6986
  374SOL     hw 1495   5.155   0.868   1.900 -0.7295 -2.8121 -1.8132
  374SOL     vw 1496   5.120   0.833   1.972  0.4120 -0.2950  0.1349
  375SOL     ow 1497   5.893   0.291   1.661  0.1898  0.5905 -0.5421
  375SOL     hw 1498   5.923   0.346   1.733 -0.0151  0.6070 -0.4702
  375SOL     hw 1499   5.974   0.254   1.624  0.3613  1.2204 -0.8206
  375SOL     vw 1500   5.908   0.293   1.665  0.1857  0.6758 -0.5693
  376SOL     ow 1501   3.671   2.262   1.302 -0.0742  0.6257 -0.1719
  376SOL     hw 1502   3.653   2.356   1.302 -3.8007  0.0845  1.4329
  376SOL     hw 1503   3.653   2.235   1.392  1.6628 -1.5826 -0.4114
  376SOL     vw 1504   3.666   2.271   1.314 -0.3366  0.2629  0.0082
  377SOL     ow 1505   1.602   1.314   0.560  0.8044 -0.2966  0.3693
  377SOL     hw 1506   1.598   1.271   0.645  0.6730 -2.3281 -0.6167
  377SOL     hw 1507   1.645   1.251   0.502  1.5309  1.3073 -0.9329
  377SOL     vw 1508   1.607   1.300   0.564  0.8830 -0.3530  0.0674
  378SOL     ow 1509   5.258   6.452   0.657 -0.2431  0.1312 -0.1393
  378SOL     hw 1510   5.233   6.472   0.567 -1.4365  0.5724  0.2733
  378SOL     hw 1511   5.180   6.411   0.695  0.7266 -1.4394  0.2747
  378SOL     vw 1512   5.244   6.449   0.650 -0.2723 -0.0179 -0.0302
  379SOL     ow 1513   0.902   6.958   2.790 -0.0354  0.2452  0.1701
  379SOL     hw 1514   0.909   6.869   2.823 -2.2911 -0.2959 -0.6635
  379SOL     hw 1515   0.870   7.009   2.864 -0.6666 -0.0428  0.0958
  379SOL     vw 1516   0.899   6.953   2.804 -0.4163  0.1354  0.0503
  380SOL     ow 1517   6.701   0.534   3.058  0.4245 -0.2491 -0.3428
  380SOL     hw 1518   6.653   0.453   3.077  1.2514 -0.7561 -0.3736
  380SOL     hw 1519   6.632   0.600   3.046 -0.2571 -0.9071 -0.1591
  380SOL     vw 1520   6.685   0.532   3.059  0.4435 -0.4027 -0.3226
  381SOL     ow 1521   2.760   3.773   3.993 -0.7668 -0.1855  0.4397
  381SOL     hw 1522   2.755   3.867   4.008 -1.3534  0.1795 -1.7216
  381SOL     hw 1523   2.728   3.734   4.075 -3.0318  1.5340  0.4788
  381SOL     vw 1524   2.755   3.780   4.006 -1.1430  0.0895  0.1597
  382SOL     ow 1525   1.550   4.520   5.148 -0.7804 -0.0357 -0.2521
  382SOL     hw 1526   1.561   4.604   5.103 -1.0774  0.5544  0.7397
  382SOL     hw 1527   1.537   4.457   5.078 -1.9575  0.9662 -0.9837
  382SOL     vw 1528   1.549   4.523   5.133 -0.9748  0.1745 -0.2174
  383SOL     ow 1529   4.500   0.562   6.742 -0.0650  0.1697  0.4060
  383SOL     hw 1530   4.449   0.592   6.817 -0.8296 -1.3988  0.5604
  383SOL     hw 1531   4.447   0.583   6.666 -2.5956 -4.0486  0.6741
  383SOL     vw 1532   4.487   0.569   6.742 -0.4995 -0.5938  0.4618
  384SOL     ow 1533   4.243   3.156   3.580 -0.1714  0.0125 -0.8949
  384SOL     hw 1534   4.231   3.108   3.498 -2.8890 -2.9209  0.9818
  384SOL     hw 1535   4.305   3.103   3.629 -0.7102  0.1918 -0.0084
  384SOL     vw 1536   4.250   3.142   3.575 -0.6011 -0.3508 -0.5304
  385SOL     ow 1537   6.871   2.392   5.444 -0.6172 -0.1702 -0.1544
  385SOL     hw 1538   6.813   2.424   5.374  0.4497 -0.1095 -1.0412
  385SOL     hw 1539   6.919   2.469   5.472  1.1261 -0.7029 -1.4903
  385SOL     vw 1540   6.869   2.406   5.438 -0.2465 -0.2325 -0.4475
  386SOL     ow 1541   2.589   4.459   3.107  0.5295  0.4418 -0.1640
  386SOL     hw 1542   2.512   4.507   3.076  0.4350  1.0737  0.9834
  386SOL     hw 1543   2.597   4.484   3.199 -0.2621 -2.7385  0.8929
  386SOL     vw 1544   2.580   4.469   3.115  0.4127  0.1056  0.1270
  387SOL     ow 1545   1.277   3.715   4.771 -0.1159 -0.0589 -0.1727
  387SOL     hw 1546   1.316   3.747   4.690 -1.6501  2.2365 -0.0854
  387SOL     hw 1547   1.250   3.794   4.818 -0.1493 -1.3657  2.1349
  387SOL     vw 1548   1.278   3.729   4.766 -0.3228  0.0715  0.1433
  388SOL     ow 1549   2.810   0.745   2.720 -0.5064  0.5682  0.8048
  388SOL     hw 1550   2.717   0.768   2.730 -0.3294  1.1574  1.1218
  388SOL     hw 1551   2.832   0.774   2.631 -1.1168 -1.3317 -0.0164
  388SOL     vw 1552   2.800   0.752   2.709 -0.5634  0.3953  0.7384
  389SOL     ow 1553   0.591   1.564   0.107  0.1853 -0.2071 -0.1506
  389SOL     hw 1554   0.568   1.657   0.101 -0.5307 -0.2120  1.9543
  389SOL     hw 1555   0.668   1.556   0.051  2.0295  2.2924  1.7712
  389SOL     vw 1556   0.598   1.575   0.099  0.3341  0.1220  0.3807
  390SOL     ow 1557   1.635   7.119   4.491 -0.0768  0.4645  0.0784
  390SOL     hw 1558   1.718   7.072   4.486  0.1582  0.7613  0.9315
  390SOL     hw 1559   1.571   7.059   4.452  0.2204 -0.5828  1.1234
  390SOL     vw 1560   1.637   7.105   4.485 -0.0066  0.3657  0.3288
  391SOL     ow 1561   6.478   2.813   0.900  0.0888  0.1954 -0.1631
  391SOL     hw 1562   6.449   2.836   0.812 -1.4015  0.7692  0.4385
  391SOL     hw 1563   6.482   2.717   0.900 -1.2070  0.1289 -0.4755
  391SOL     vw 1564   6.475   2.803   0.888 -0.2789  0.2623 -0.1250
  392SOL     ow 1565   0.755   3.507   5.826  0.0909  0.4183 -0.0489
  392SOL     hw 1566   0.835   3.482   5.779  1.8297  2.8289  1.3804
  392SOL     hw 1567   0.739   3.435   5.886  1.6968  0.2278  0.2003
  392SOL     vw 1568   0.764   3.494   5.828  0.5322  0.7113  0.1726
  393SOL     ow 1569   2.068   1.252   3.778  0.4231 -0.1051  0.0872
  393SOL     hw 1570   2.055   1.334   3.731  0.6623  0.2410  0.6240
  393SOL     hw 1571   2.059   1.184   3.711  2.6932  0.4503 -0.8477
  393SOL     vw 1572   2.065   1.254   3.763  0.7542  0.0138  0.0347
  394SOL     ow 1573   0.774   4.982   6.282 -1.5047 -0.1708  0.0192
  394SOL     hw 1574   0.702   4.938   6.238 -1.0945  0.1356 -1.0029
  394SOL     hw 1575   0.844   4.917   6.285 -0.8552  0.4137 -1.6075
  394SOL     vw 1576   0.774   4.968   6.277 -1.3649 -0.0532 -0.3304
  395SOL     ow 1577   1.764   2.317   0.902  0.1417 -0.4624 -0.0620
  395SOL     hw 1578   1.787   2.281   0.988 -0.5233  3.0194  1.7376
  395SOL     hw 1579   1.669   2.302   0.894  0.1561 -0.5415 -0.0913
  395SOL     vw 1580   1.754   2.310   0.912  0.0558 -0.0136  0.1716
  396SOL     ow 1581   4.625   0.121   0.512  0.6811 -0.0621 -0.5576
  396SOL     hw 1582   4.586   0.205   0.490  0.1456 -0.1465  0.0513
  396SOL     hw 1583   4.695   0.109   0.447  0.3734  0.5702 -1.0114
  396SOL     vw 1584   4.629   0.130   0.501  0.5698  0.0102 -0.5372
  397SOL     ow 1585   1.949   5.900   6.418  0.4683  0.7760 -0.8033
  397SOL     hw 1586   1.925   5.877   6.507 -3.0964  1.1236 -1.5082
  397SOL     hw 1587   2.016   5.837   6.393 -0.4768 -1.1259  1.2134
  397SOL     vw 1588   1.955   5.889   6.426 -0.1267  0.5713 -0.6304
  398SOL     ow 1589   2.285   2.050   1.109  0.1093 -0.2804  0.3016
  398SOL     hw 1590   2.374   2.055   1.076 -0.2921  0.5449 -0.6829
  398SOL     hw 1591   2.272   1.956   1.126  1.7769 -0.2291  2.2843
  398SOL     vw 1592   2.295   2.038   1.107  0.2763 -0.1646  0.4333
  399SOL     ow 1593   1.438   6.338   2.764  0.1848  0.3358 -0.3098
  399SOL     hw 1594   1.435   6.379   2.851 -0.3891  1.2262 -0.7276
  399SOL     hw 1595   1.434   6.412   2.703 -0.2822 -0.3251 -1.1011
  399SOL     vw 1596   1.437   6.353   2.768  0.0475  0.3662 -0.4693
  400SOL     ow 1597   2.252   6.698   4.223 -0.1965 -0.1633  0.1094
  400SOL     hw 1598   2.339   6.702   4.262 -0.6858 -3.6015  1.9366
  400SOL     hw 1599   2.193   6.718   4.296 -1.0085  0.0711 -0.6039
  400SOL     vw 1600   2.256   6.701   4.238 -0.3681 -0.5860  0.2563
  401SOL     ow 1601   6.478   3.062   5.801  0.0774  0.0191 -0.3635
  401SOL     hw 1602   6.429   3.104   5.731 -0.0794  0.6587  0.1246
  401SOL     hw 1603   6.410   3.029   5.861  0.2013 -0.8024 -0.6673
  401SOL     vw 1604   6.462   3.063   5.800  0.0732 -0.0050 -0.3390
  402SOL     ow 1605   0.147   4.176   2.153  0.0800  0.0824 -0.2202
  402SOL     hw 1606   0.119   4.145   2.067 -0.4896 -0.0409 -0.0007
  402SOL     hw 1607   0.098   4.257   2.166 -0.0142 -0.0179  0.0761
  402SOL     vw 1608   0.137   4.182   2.143 -0.0076  0.0527 -0.1522
  403SOL     ow 1609   1.560   5.746   0.364  0.0966 -0.7697  0.1044
  403SOL     hw 1610   1.645   5.789   0.358 -0.5535  0.3992 -1.7345
  403SOL     hw 1611   1.537   5.727   0.273 -2.4576  0.7233  0.3502
  403SOL     vw 1612   1.568   5.749   0.351 -0.3261 -0.4187 -0.1058
  404SOL     ow 1613   3.486   0.210   2.384  0.5193 -0.0194 -0.1608
  404SOL     hw 1614   3.565   0.158   2.398  1.3641  1.7985  2.4500
  404SOL     hw 1615   3.515   0.301   2.388 -1.5729  0.7012 -0.1694
  404SOL     vw 1616   3.500   0.215   2.386  0.3546  0.3155  0.1824
  405SOL     ow 1617   6.784   6.676   1.739  0.8826 -0.5712 -0.6277
  405SOL     hw 1618   6.838   6.751   1.764 -0.0602  0.8572 -2.5712
  405SOL     hw 1619   6.805   6.661   1.647 -0.7855 -1.0345 -0.9687
  405SOL     vw 1620   6.794   6.684   1.730  0.5381 -0.4439 -0.9291
  406SOL     ow 1621   6.773   2.887   1.097  0.9224  0.4576 -0.9061
  406SOL     hw 1622   6.858   2.910   1.059  1.4602  1.0811  0.5978
  406SOL     hw 1623   6.759   2.953   1.165  0.5320 -1.1986  0.7002
  406SOL     vw 1624   6.783   2.899   1.101  0.9415  0.3213 -0.4958
  407SOL     ow 1625   0.833   7.051   3.032  0.2237 -0.2023  1.0199
  407SOL     hw 1626   0.840   7.134   3.079  1.5854  0.2198  0.1275
  407SOL     hw 1627   0.861   6.985   3.096  2.0536  0.3606  0.8355
  407SOL     vw 1628   0.837   7.054   3.047  0.6448 -0.0724  0.8777
  408SOL     ow 1629   0.417   5.602   4.415 -0.2326  0.1204 -0.5783
  408SOL     hw 1630   0.327   5.593   4.448  0.2014  0.0216  0.6312
  408SOL     hw 1631   0.409   5.660   4.339 -1.6067 -1.6340 -1.8716
  408SOL     vw 1632   0.404   5.609   4.409 -0.3567 -0.1242 -0.5894
  409SOL     ow 1633   4.575   6.959   6.632  0.3988  0.0509  0.0954
  409SOL     hw 1634   4.547   6.960   6.540 -2.1916 -3.2587  0.6412
  409SOL     hw 1635   4.560   7.048   6.663 -3.1595  0.2055 -1.5864
  409SOL     vw 1636   4.569   6.971   6.624 -0.4125 -0.3650 -0.0546
  410SOL     ow 1637   6.103   3.306   2.578 -0.4395  0.4422  0.3437
  410SOL     hw 1638   6.029   3.251   2.552  0.5859 -0.3001 -1.1565
  410SOL     hw 1639   6.135   3.267   2.659 -1.8550  0.9669  1.1826
  410SOL     vw 1640   6.098   3.294   2.585 -0.4911  0.4133  0.2565
  411SOL     ow 1641   5.911   3.037   0.390  0.8183 -0.3936  0.0384
  411SOL     hw 1642   5.880   2.982   0.318 -0.8884  0.1847  0.2953
  411SOL     hw 1643   5.998   3.066   0.362  0.8452 -1.4713 -1.0634
  411SOL     vw 1644   5.919   3.034   0.377  0.5968 -0.4596 -0.0731
  412SOL     ow 1645   4.401   4.129   7.140 -0.1653 -0.3487 -0.1510
  412SOL     hw 1646   4.332   4.190   7.164  0.6600  0.3894  0.3986
  412SOL     hw 1647   4.370   4.044   7.174  0.2261  0.3707  2.2198
  412SOL     vw 1648   4.388   4.126   7.148 -0.0048 -0.1562  0.2343
  413SOL     ow 1649   6.625   6.959   2.026  0.6274 -0.4007  0.6184
  413SOL     hw 1650   6.535   6.944   1.998 -0.1807  1.5382  1.9369
  413SOL     hw 1651   6.658   6.872   2.051 -0.4738 -1.2957 -0.8933
  413SOL     vw 1652   6.618   6.946   2.025  0.3755 -0.2630  0.5928
  414SOL     ow 1653   5.139   1.851   4.801  0.6230 -1.1137  0.3184
  414SOL     hw 1654   5.207   1.854   4.869  2.1707  1.1154 -1.2015
  414SOL     hw 1655   5.186   1.865   4.719 -1.4999 -1.0739 -0.9532
  414SOL     vw 1656   5.154   1.853   4.799  0.5472 -0.8143 -0.0496
  415SOL     ow 1657   3.323   5.653   2.673 -0.5932  0.5605 -0.6061
  415SOL     hw 1658   3.352   5.649   2.764 -1.1042 -1.3642 -0.4858
  415SOL     hw 1659   3.389   5.707   2.629 -0.9603  2.5245  1.0983
  415SOL     vw 1660   3.335   5.660   2.679 -0.7092  0.5658 -0.3653
  416SOL     ow 1661   3.192   2.010   4.429 -0.1175 -0.3731  0.4471
  416SOL     hw 1662   3.187   1.921   4.396 -2.9565 -0.5980  1.2244
  416SOL     hw 1663   3.226   2.061   4.356  0.5226 -1.9015 -0.3604
  416SOL     vw 1664   3.196   2.005   4.415 -0.4076 -0.6044  0.4432
  417SOL     ow 1665   5.417   0.217   4.183 -0.3312  0.2007  0.3752
  417SOL     hw 1666   5.354   0.257   4.123 -1.0220 -3.0943 -1.3516
  417SOL     hw 1667   5.390   0.126   4.189  2.1690 -0.5365  2.5354
  417SOL     vw 1668   5.405   0.210   4.176 -0.0925 -0.3313  0.4325
  418SOL     ow 1669   4.243   0.554   1.187 -0.1164  0.8617  0.2141
  418SOL     hw 1670   4.292   0.600   1.119 -0.4429  2.5212  1.0545
  418SOL     hw 1671   4.296   0.478   1.207  1.9919  2.4043  0.8418
  418SOL     vw 1672   4.256   0.550   1.181  0.1185  1.2842  0.4078
  419SOL     ow 1673   4.629   1.234   3.897  0.0595  0.6767  1.0128
  419SOL     hw 1674   4.574   1.275   3.830 -2.3565 -0.9168  1.8509
  419SOL     hw 1675   4.710   1.212   3.851 -1.8373 -1.2432 -1.7902
  419SOL     vw 1676   4.632   1.236   3.882 -0.5095  0.2131  0.7538
  420SOL     ow 1677   6.416   5.514   2.211 -0.1848  0.4761 -0.4089
  420SOL     hw 1678   6.391   5.455   2.283  2.2000 -0.0871  0.0633
  420SOL     hw 1679   6.402   5.602   2.245 -1.6479  0.2236 -0.2902
  420SOL     vw 1680   6.411   5.518   2.225 -0.0632  0.3686 -0.3309
  421SOL     ow 1681   5.922   5.751   4.150  0.1630 -0.9635 -0.5394
  421SOL     hw 1682   5.965   5.837   4.153 -2.1714  0.2703  1.2784
  421SOL     hw 1683   5.958   5.709   4.072  4.7853 -0.2770  0.9184
  421SOL     vw 1684   5.932   5.757   4.140  0.4647 -0.7102 -0.1073
  422SOL     ow 1685   6.795   1.770   6.170 -0.3116  0.3719 -0.0588
  422SOL     hw 1686   6.735   1.712   6.122  1.5493 -1.7946  0.0739
  422SOL     hw 1687   6.882   1.738   6.148  0.7088  0.6283  3.1189
  422SOL     vw 1688   6.798   1.758   6.160  0.0684  0.1199  0.3777
  423SOL     ow 1689   3.380   3.394   0.946 -0.2398  0.3286 -0.4238
  423SOL     hw 1690   3.432   3.390   0.866  0.1190  2.7435 -0.4047
  423SOL     hw 1691   3.330   3.475   0.937 -1.2743 -0.0993  1.1645
  423SOL     vw 1692   3.381   3.404   0.934 -0.3289  0.5908 -0.2117
  424SOL     ow 1693   4.348   3.443   3.453 -1.0166 -0.0183  0.3088
  424SOL     hw 1694   4.351   3.435   3.358 -4.4401  0.1741  0.0501
  424SOL     hw 1695   4.371   3.534   3.471 -0.5963  0.0088 -0.3433
  424SOL     vw 1696   4.351   3.454   3.443 -1.4129  0.0107  0.1886
  425SOL     ow 1697   1.838   4.448   3.160 -0.1940 -0.4661 -0.0501
  425SOL     hw 1698   1.913   4.389   3.165 -0.8163 -1.4837 -1.7519
  425SOL     hw 1699   1.771   4.408   3.216 -0.1780 -0.6969 -0.1956
  425SOL     vw 1700   1.839   4.435   3.168 -0.2741 -0.6311 -0.2940
  426SOL     ow 1701   5.483   3.340   2.674 -0.1914  0.3084  0.7627
  426SOL     hw 1702   5.423   3.300   2.611 -0.4343 -1.2278  1.9429
  426SOL     hw 1703   5.457   3.432   2.676 -0.7909  0.2047 -0.6617
  426SOL     vw 1704   5.472   3.347   2.666 -0.3026  0.0919  0.7305
  427SOL     ow 1705   1.217   2.097   1.936  1.0615  0.3061  0.2219
  427SOL     hw 1706   1.242   2.044   1.860 -1.1345  1.1057 -1.1530
  427SOL     hw 1707   1.176   2.034   1.996  0.8483 -0.0015 -0.2361
  427SOL     vw 1708   1.214   2.081   1.934  0.7436  0.3711 -0.0198
  428SOL     ow 1709   0.682   4.403   3.106 -0.0751  0.0040  0.5780
  428SOL     hw 1710   0.750   4.367   3.050  1.6273  1.1645  1.7771
  428SOL     hw 1711   0.622   4.447   3.046  1.4697  0.8714 -0.3904
  428SOL     vw 1712   0.683   4.404   3.091  0.3534  0.2713  0.6083
  429SOL     ow 1713   5.409   0.675   6.014  0.3646  0.2836  0.2420
  429SOL     hw 1714   5.407   0.732   5.937 -1.2262  0.3964  0.3295
  429SOL     hw 1715   5.377   0.730   6.085  2.3613  0.3553  1.1446
  429SOL     vw 1716   5.405   0.690   6.013  0.4182  0.3079  0.3729
  430SOL     ow 1717   3.947   6.579   0.320 -0.5671 -0.4270 -0.4145
  430SOL     hw 1718   3.883   6.643   0.348 -1.0086 -1.0840  0.1082
  430SOL     hw 1719   3.897   6.498   0.308 -0.4316 -0.2131 -3.1830
  430SOL     vw 1720   3.932   6.576   0.322 -0.6075 -0.4857 -0.7108
  431SOL     ow 1721   0.164   4.562   3.981 -1.0988 -0.2330 -0.0445
  431SOL     hw 1722   0.165   4.512   4.063 -1.1540 -0.0114  0.0924
  431SOL     hw 1723   0.257   4.570   3.958 -1.0521  0.1475  0.2695
  431SOL     vw 1724   0.177   4.556   3.989 -1.0999 -0.1535  0.0151
  432SOL     ow 1725   1.251   6.234   4.586  0.2726  0.2123 -0.5838
  432SOL     hw 1726   1.335   6.189   4.577 -0.0821 -0.1691 -2.4268
  432SOL     hw 1727   1.236   6.238   4.680  2.6401  0.8485 -0.1556
  432SOL     vw 1728   1.260   6.229   4.597  0.5382  0.2458 -0.7703
  433SOL     ow 1729   6.480   6.303   5.839 -0.2068  0.2183  0.3061
  433SOL     hw 1730   6.539   6.379   5.846  0.1781  0.4099 -2.9956
  433SOL     hw 1731   6.539   6.228   5.831 -0.4435  0.1285 -0.7028
  433SOL     vw 1732   6.496   6.303   5.839 -0.1872  0.2317 -0.2625
  434SOL     ow 1733   5.654   5.643   4.160  0.3003 -0.1067  0.2436
  434SOL     hw 1734   5.573   5.655   4.111  1.1651  0.9534 -1.0151
  434SOL     hw 1735   5.709   5.590   4.101  1.0650  0.5017  0.3946
  434SOL     vw 1736   5.651   5.637   4.145  0.5155  0.1135  0.0975
  435SOL     ow 1737   6.567   0.507   1.626 -0.2559  0.2192  1.0031
  435SOL     hw 1738   6.527   0.588   1.658 -2.2977 -0.9924  1.6752
  435SOL     hw 1739   6.539   0.440   1.688 -3.0472 -1.9658 -2.2346
  435SOL     vw 1740   6.558   0.509   1.639 -0.8938 -0.2289  0.6646
  436SOL     ow 1741   4.996   7.072   2.520 -0.4746 -0.1934  0.0136
  436SOL     hw 1742   4.927   7.008   2.505 -0.7068 -0.2324  1.1596
  436SOL     hw 1743   5.068   7.043   2.464 -1.1069 -0.5681 -0.6366
  436SOL     vw 1744   4.996   7.060   2.510 -0.5889 -0.2482  0.0789
  437SOL     ow 1745   7.133   3.666   2.288  0.0520  0.0292  0.2183
  437SOL     hw 1746   7.080   3.611   2.230  2.2249 -0.1280 -1.7346
  437SOL     hw 1747   7.133   3.619   2.372 -1.1840 -0.9978 -0.3183
  437SOL     vw 1748   7.126   3.652   2.291  0.1756 -0.1271 -0.1101
  438SOL     ow 1749   3.201   0.558   2.373  0.1155  0.0079  0.2859
  438SOL     hw 1750   3.193   0.653   2.384  0.2167 -0.3014  5.0370
  438SOL     hw 1751   3.110   0.527   2.373  0.1275 -0.0251  0.4331
  438SOL     vw 1752   3.188   0.567   2.374  0.1303 -0.0373  0.9322
  439SOL     ow 1753   6.679   6.659   2.015  0.6760  0.1886  0.0602
  439SOL     hw 1754   6.762   6.629   2.052  0.7325  0.2567 -0.0107
  439SOL     hw 1755   6.613   6.600   2.052  1.0571 -1.6665 -1.9986
  439SOL     vw 1756   6.681   6.648   2.024  0.7341 -0.0472 -0.2209
  440SOL     ow 1757   3.244   5.892   2.045  0.2161  0.3309 -0.0167
  440SOL     hw 1758   3.150   5.880   2.056  0.0375 -0.1432 -1.7624
  440SOL     hw 1759   3.260   5.876   1.952  1.9829  0.7054  0.1783
  440SOL     vw 1760   3.234   5.888   2.034  0.4256  0.3173 -0.2213
  441SOL     ow 1761   3.715   1.237   0.360 -0.0941  0.5471 -0.2716
  441SOL     hw 1762   3.691   1.219   0.451 -4.1699 -0.5982 -1.3542
  441SOL     hw 1763   3.779   1.169   0.339  1.6736  1.4137  1.8848
  441SOL     vw 1764   3.720   1.225   0.369 -0.3985  0.5103 -0.1299
  442SOL     ow 1765   6.414   6.534   5.049  0.5459  0.0790  0.4221
  442SOL     hw 1766   6.494   6.534   5.102  0.7265 -0.5505  0.1553
  442SOL     hw 1767   6.443   6.508   4.962  0.1719  0.6369  0.1225
  442SOL     vw 1768   6.429   6.531   5.045  0.5205  0.0699  0.3476
  443SOL     ow 1769   4.080   5.941   2.024  0.3948  0.6306  0.3069
  443SOL     hw 1770   4.064   5.847   2.028  0.9038  0.4078 -1.6583
  443SOL     hw 1771   3.993   5.981   2.025  0.1737  0.1376  1.0276
  443SOL     vw 1772   4.067   5.934   2.025  0.4330  0.5362  0.1427
  444SOL     ow 1773   2.843   1.475   2.238 -0.9900 -0.0180  0.0039
  444SOL     hw 1774   2.796   1.485   2.155  0.1935  0.7362 -0.6186
  444SOL     hw 1775   2.826   1.557   2.285 -0.9833 -0.0948  0.1408
  444SOL     vw 1776   2.835   1.487   2.233 -0.8330  0.0713 -0.0601
  445SOL     ow 1777   5.726   6.982   6.516  0.2159  0.5394 -0.3113
  445SOL     hw 1778   5.682   7.030   6.446 -0.3243 -1.0264 -1.0921
  445SOL     hw 1779   5.766   7.050   6.570  0.0728  1.8281 -1.7465
  445SOL     vw 1780   5.726   6.998   6.514  0.1259  0.5028 -0.6037
  446SOL     ow 1781   4.520   3.664   4.827  0.5652 -0.2344 -0.1511
  446SOL     hw 1782   4.591   3.660   4.763 -1.7542 -0.8393 -2.8491
  446SOL     hw 1783   4.513   3.757   4.849  0.7417  0.1511 -1.6356
  446SOL     vw 1784   4.528   3.676   4.822  0.2828 -0.2633 -0.7029
  447SOL     ow 1785   0.557   3.536   3.896 -0.1677  0.2774 -0.0461
  447SOL     hw 1786   0.645   3.571   3.887  0.0433 -0.0130  0.8481
  447SOL     hw 1787   0.531   3.556   3.986 -0.0999 -1.6929  0.4526
  447SOL     vw 1788   0.565   3.543   3.906 -0.1309 -0.0210  0.1378
  448SOL     ow 1789   2.644   0.226   2.151  0.1561  0.4335 -0.1087
  448SOL     hw 1790   2.725   0.232   2.101 -0.2098  0.4792 -0.7022
  448SOL     hw 1791   2.576   0.206   2.086 -0.0567 -1.3971  0.6082
  448SOL     vw 1792   2.646   0.224   2.136  0.0798  0.1980 -0.0925
  449SOL     ow 1793   3.694   4.483   2.738 -0.5709  0.1273  0.7532
  449SOL     hw 1794   3.688   4.468   2.644  1.3820 -1.8145  0.8431
  449SOL     hw 1795   3.787   4.497   2.754 -0.6516 -1.0589  2.5396
  449SOL     vw 1796   3.705   4.482   2.728 -0.3240 -0.2856  1.0008
  450SOL     ow 1797   2.425   3.275   5.139  0.8428  0.3996  0.1223
  450SOL     hw 1798   2.513   3.258   5.172  0.7058  0.1993  0.3912
  450SOL     hw 1799   2.370   3.277   5.218  0.8073  1.8661  0.0872
  450SOL     vw 1800   2.429   3.273   5.154  0.8200  0.5667  0.1531
  451SOL     ow 1801   2.447   1.371   4.727  0.5258 -0.5234  0.0512
  451SOL     hw 1802   2.424   1.292   4.776 -0.7127 -0.8573 -1.0411
  451SOL     hw 1803   2.474   1.434   4.794  0.9635 -1.6728  0.9774
  451SOL     vw 1804   2.448   1.369   4.742  0.4203 -0.7191  0.0291
  452SOL     ow 1805   6.451   5.933   3.262  0.0123 -0.4735  0.0658
  452SOL     hw 1806   6.524   5.898   3.211 -0.3268  0.0470 -0.8041
  452SOL     hw 1807   6.379   5.939   3.200 -0.4154  0.1689  0.6034
  452SOL     vw 1808   6.451   5.929   3.247 -0.0889 -0.3200  0.0219
  453SOL     ow 1809   6.234   6.642   0.727  0.0375 -0.0640  0.1058
  453SOL     hw 1810   6.276   6.591   0.658 -1.9517 -2.5017  0.5906
  453SOL     hw 1811   6.178   6.704   0.681 -0.9721 -1.4067 -0.5371
  453SOL     vw 1812   6.232   6.644   0.712 -0.3581 -0.5629  0.0849
  454SOL     ow 1813   5.782   0.695   4.963 -0.2417  0.3534  0.1549
  454SOL     hw 1814   5.829   0.748   5.026 -0.1102 -0.9597  1.1952
  454SOL     hw 1815   5.801   0.735   4.878  1.1777  0.9694  0.7473
  454SOL     vw 1816   5.790   0.707   4.960 -0.0374  0.2614  0.3703
  455SOL     ow 1817   1.901   0.540   0.814 -0.4883 -0.0087  0.8448
  455SOL     hw 1818   1.900   0.448   0.788  0.9070  0.5269 -1.3408
  455SOL     hw 1819   1.969   0.545   0.881 -0.3336 -0.5367  0.7355
  455SOL     vw 1820   1.910   0.529   0.819 -0.2838 -0.0077  0.5420
  456SOL     ow 1821   1.536   3.312   2.255  0.2345  0.1332  1.0678
  456SOL     hw 1822   1.606   3.373   2.278  1.5778 -0.9880  0.1114
  456SOL     hw 1823   1.529   3.254   2.330  0.7313 -0.0886  0.9474
  456SOL     vw 1824   1.544   3.312   2.268  0.4773 -0.0439  0.9258
  457SOL     ow 1825   2.169   6.418   3.158 -0.2473  0.2809  0.3137
  457SOL     hw 1826   2.137   6.507   3.167 -1.0828 -0.1916  2.7093
  457SOL     hw 1827   2.128   6.370   3.230 -1.3872 -2.5393 -2.0065
  457SOL     vw 1828   2.160   6.423   3.169 -0.5080 -0.1535  0.3237
  458SOL     ow 1829   0.007   3.387   3.351  0.0778  0.1716  0.5292
  458SOL     hw 1830   0.041   3.475   3.335 -2.8544  1.1558 -1.0424
  458SOL     hw 1831  -0.005   3.350   3.264 -1.3894 -0.6295  1.0398
  458SOL     vw 1832   0.010   3.394   3.337 -0.5027  0.1957  0.3891
  459SOL     ow 1833   3.242   6.723   7.045  1.0842  0.0371 -0.1978
  459SOL     hw 1834   3.206   6.811   7.036  1.4349  0.0476 -1.8178
  459SOL     hw 1835   3.333   6.737   7.075  0.9643  0.1813  0.1071
  459SOL     vw 1836   3.250   6.736   7.048  1.1147  0.0575 -0.3712
  460SOL     ow 1837   5.319   4.283   1.414 -0.4471  0.1587 -0.1003
  460SOL     hw 1838   5.289   4.365   1.455 -0.6999 -0.3455  0.7445
  460SOL     hw 1839   5.414   4.288   1.419 -0.4685  0.2655  0.2219
  460SOL     vw 1840   5.327   4.295   1.420 -0.4833  0.1063  0.0536
  461SOL     ow 1841   2.814   4.321   5.910  0.6277  0.0788  0.6812
  461SOL     hw 1842   2.719   4.329   5.900  0.3188 -4.0984 -2.1994
  461SOL     hw 1843   2.826   4.251   5.974  1.7721  0.1830  0.6095
  461SOL     vw 1844   2.803   4.313   5.917  0.7380 -0.4582  0.2916
  462SOL     ow 1845   2.101   6.786   1.203 -0.2825  0.6854  0.2617
  462SOL     hw 1846   2.051   6.705   1.214  0.3416  0.1962 -0.4602
  462SOL     hw 1847   2.055   6.833   1.134 -0.0180  0.4452 -0.0808
  462SOL     vw 1848   2.089   6.781   1.196 -0.1652  0.5889  0.1213
  463SOL     ow 1849   6.639   2.257   3.628 -0.3668 -0.3433 -0.1394
  463SOL     hw 1850   6.675   2.175   3.663  0.2422  0.6298  1.6361
  463SOL     hw 1851   6.702   2.284   3.561  1.5030  0.5000  1.8120
  463SOL     vw 1852   6.652   2.250   3.624 -0.0398 -0.1038  0.3521
  464SOL     ow 1853   6.729   5.736   1.024  0.0070  0.0896  0.0239
  464SOL     hw 1854   6.671   5.805   0.992 -1.6022 -0.7800  0.9226
  464SOL     hw 1855   6.803   5.737   0.963 -0.8889  1.3042 -1.1178
  464SOL     vw 1856   6.731   5.745   1.012 -0.3235  0.1352 -0.0082
  465SOL     ow 1857   3.983   5.895   7.067  0.5712 -0.6062 -0.5603
  465SOL     hw 1858   4.067   5.864   7.101  0.1529 -0.4234  0.7062
  465SOL     hw 1859   3.935   5.815   7.045  1.1998 -0.7010 -1.6396
  465SOL     vw 1860   3.988   5.881   7.069  0.5989 -0.5944 -0.5355
  466SOL     ow 1861   0.445   6.951   6.957 -0.2515  0.9835 -0.4645
  466SOL     hw 1862   0.387   6.951   7.032  0.6375  0.6387  0.2426
  466SOL     hw 1863   0.486   6.865   6.958 -1.4218  0.3505 -2.3208
  466SOL     vw 1864   0.443   6.940   6.967 -0.2886  0.8545 -0.6161
  467SOL     ow 1865   3.540   2.305   2.852  0.5979 -0.3752  0.1629
  467SOL     hw 1866   3.519   2.347   2.769 -0.8755 -0.4029  0.5107
  467SOL     hw 1867   3.460   2.309   2.903  1.2809 -0.9808  1.3363
  467SOL     vw 1868   3.527   2.311   2.848  0.4938 -0.4586  0.3636
  468SOL     ow 1869   1.248   0.838   4.994  0.1387  0.5830 -0.3550
  468SOL     hw 1870   1.204   0.801   4.918  0.9924  0.5092 -0.8332
  468SOL     hw 1871   1.205   0.922   5.009 -1.0235 -0.0577  0.0098
  468SOL     vw 1872   1.237   0.844   4.986  0.0980  0.4887 -0.3695
  469SOL     ow 1873   0.025   1.790   1.350  0.4249  0.2180  0.7720
  469SOL     hw 1874   0.087   1.861   1.370  0.4990  0.1401  0.8180
  469SOL     hw 1875   0.019   1.790   1.255  0.7979 -0.0334  0.7466
  469SOL     vw 1876   0.032   1.800   1.340  0.4839  0.1746  0.7747
  470SOL     ow 1877   6.862   2.635   1.200  0.2548  0.3044 -0.5358
  470SOL     hw 1878   6.831   2.716   1.159 -1.6529 -0.5019 -0.7807
  470SOL     hw 1879   6.841   2.566   1.138 -0.8312 -0.7110  0.8767
  470SOL     vw 1880   6.855   2.637   1.187 -0.1402  0.0640 -0.3818
  471SOL     ow 1881   1.894   0.252   6.614  0.1951  0.2569  0.4418
  471SOL     hw 1882   1.910   0.278   6.524 -2.8978  0.9542 -0.0163
  471SOL     hw 1883   1.942   0.316   6.667 -0.7448  2.0128 -0.7286
  471SOL     vw 1884   1.903   0.264   6.609 -0.3370  0.5806  0.2267
  472SOL     ow 1885   6.248   6.473   5.990  0.1430 -0.3919 -0.2944
  472SOL     hw 1886   6.300   6.552   5.983 -1.4096  1.0507  2.6348
  472SOL     hw 1887   6.158   6.504   6.002 -0.8303 -2.6723 -1.1171
  472SOL     vw 1888   6.243   6.487   5.991 -0.1903 -0.5023 -0.0165
  473SOL     ow 1889   6.263   3.899   3.968 -0.6154  0.7506  0.4485
  473SOL     hw 1890   6.179   3.863   3.996 -1.0688  1.4474  0.0220
  473SOL     hw 1891   6.324   3.825   3.975 -0.9913  0.5458  1.9107
  473SOL     vw 1892   6.259   3.884   3.972 -0.7248  0.8154  0.5852
  474SOL     ow 1893   4.134   1.672   7.050 -0.2175 -0.3408 -0.3060
  474SOL     hw 1894   4.149   1.619   6.971  0.7071  0.8340 -0.9612
  474SOL     hw 1895   4.143   1.762   7.019 -0.4418  0.1592  1.0482
  474SOL     vw 1896   4.137   1.677   7.035 -0.1249 -0.1199 -0.2141
  475SOL     ow 1897   3.109   3.087   5.175 -0.3550  0.2895 -0.0489
  475SOL     hw 1898   3.192   3.132   5.186  1.7665 -3.8139  4.2485
  475SOL     hw 1899   3.055   3.119   5.247 -1.0172 -0.0193 -0.3978
  475SOL     vw 1900   3.113   3.097   5.186 -0.1625 -0.2927  0.4723
  476SOL     ow 1901   0.994   6.346   4.422 -0.7395  0.0800  0.0141
  476SOL     hw 1902   0.911   6.392   4.434 -0.4112  0.9417 -0.8526
  476SOL     hw 1903   0.968   6.256   4.401 -1.5536  0.7135 -1.9276
  476SOL     vw 1904   0.979   6.340   4.420 -0.8036  0.2773 -0.3562
  477SOL     ow 1905   5.174   0.632   2.223 -0.8801  0.3029 -0.0565
  477SOL     hw 1906   5.080   0.636   2.241 -1.2464 -1.6633 -1.2608
  477SOL     hw 1907   5.182   0.570   2.151  0.9955  3.4969 -2.8916
  477SOL     vw 1908   5.163   0.625   2.216 -0.6809  0.4649 -0.5895
  478SOL     ow 1909   0.063   6.218   1.835  0.2489  0.2403 -0.5981
  478SOL     hw 1910   0.062   6.309   1.864 -2.6436  1.1091 -2.9910
  478SOL     hw 1911   0.039   6.168   1.913 -0.1742  1.7169  0.2594
  478SOL     vw 1912   0.060   6.223   1.849 -0.1885  0.5498 -0.8007
  479SOL     ow 1913   5.968   2.505   5.133 -0.1491  0.5243  0.1511
  479SOL     hw 1914   5.979   2.586   5.084  0.7519 -0.7598 -1.9165
  479SOL     hw 1915   5.938   2.441   5.068 -1.9743 -0.5855  1.9349
  479SOL     vw 1916   5.965   2.507   5.118 -0.2711  0.2085  0.1137
  480SOL     ow 1917   2.656   1.323   2.341 -0.1706 -0.4060  0.1789
  480SOL     hw 1918   2.741   1.364   2.325 -0.5565 -0.3947 -2.1297
  480SOL     hw 1919   2.672   1.229   2.335 -0.4482 -0.3868 -1.2340
  480SOL     vw 1920   2.669   1.316   2.338 -0.2580 -0.4020 -0.3121
  481SOL     ow 1921   5.176   1.767   1.267 -0.4229  0.1142 -0.1270
  481SOL     hw 1922   5.094   1.800   1.231 -1.7569  1.3899  3.6316
  481SOL     hw 1923   5.235   1.843   1.266 -0.6482  0.3135  0.7560
  481SOL     vw 1924   5.173   1.781   1.262 -0.6289  0.3088  0.4855
  482SOL     ow 1925   3.001   2.507   4.630  0.0484 -0.7662 -0.7998
  482SOL     hw 1926   2.928   2.569   4.634 -0.4043 -1.3639  1.7079
  482SOL     hw 1927   3.077   2.561   4.609 -0.5093  0.5035  0.3237
  482SOL     vw 1928   3.001   2.522   4.627 -0.0849 -0.6776 -0.3207
  483SOL     ow 1929   4.894   1.710   4.683  0.3146 -0.1309  0.5433
  483SOL     hw 1930   4.887   1.770   4.609  0.2628 -0.8611 -0.0523
  483SOL     hw 1931   4.923   1.627   4.645 -1.8798 -1.1740  0.9705
  483SOL     vw 1932   4.897   1.707   4.668  0.0181 -0.3649  0.5214
  484SOL     ow 1933   3.126   0.790   0.874 -0.6539  0.0311 -0.8122
  484SOL     hw 1934   3.052   0.848   0.895  1.8515  3.4512 -0.5168
  484SOL     hw 1935   3.109   0.761   0.785 -1.6320  2.0438 -1.3435
  484SOL     vw 1936   3.114   0.794   0.865 -0.4524  0.7479 -0.8433
  485SOL     ow 1937   5.389   3.773   6.019 -0.3425 -0.0405  0.4551
  485SOL     hw 1938   5.343   3.826   6.084 -1.2828  1.0540 -1.0250
  485SOL     hw 1939   5.479   3.803   6.022 -1.0901  2.8937 -1.3633
  485SOL     vw 1940   5.395   3.784   6.028 -0.5653  0.4911  0.0200
  486SOL     ow 1941   6.618   2.144   5.640  0.0803 -0.1143  0.1394
  486SOL     hw 1942   6.651   2.082   5.705 -1.4359 -0.8508  0.2657
  486SOL     hw 1943   6.634   2.230   5.678 -1.0353 -0.5366  1.6557
  486SOL     vw 1944   6.624   2.147   5.654 -0.2668 -0.2671  0.3562
  487SOL     ow 1945   0.171   6.098   3.994  0.5212 -0.2379 -0.0946
  487SOL     hw 1946   0.120   6.019   3.975  0.2476  0.0827 -0.7252
  487SOL     hw 1947   0.138   6.129   4.078 -0.9341  0.4308 -0.8659
  487SOL     vw 1948   0.160   6.092   4.002  0.2931 -0.1073 -0.2794
  488SOL     ow 1949   1.285   5.874   4.030 -0.8221  0.4492 -0.0037
  488SOL     hw 1950   1.316   5.949   3.979 -2.3540  0.3185 -1.2038
  488SOL     hw 1951   1.203   5.849   3.988  0.4107 -2.9508 -0.7167
  488SOL     vw 1952   1.278   5.881   4.017 -0.8616 -0.0165 -0.2561
  489SOL     ow 1953   0.280   2.107   2.575 -0.1767  0.1240  0.1826
  489SOL     hw 1954   0.333   2.029   2.593 -0.5157 -0.1500  0.0065
  489SOL     hw 1955   0.307   2.135   2.488  2.2266  2.0652  1.4291
  489SOL     vw 1956   0.291   2.100   2.566  0.0957  0.3440  0.3238
  490SOL     ow 1957   2.736   3.380   6.769  0.5612 -0.1175  0.1151
  490SOL     hw 1958   2.750   3.438   6.694  0.7696  1.2876  1.2069
  490SOL     hw 1959   2.820   3.382   6.816  0.1769 -0.3431  0.8201
  490SOL     vw 1960   2.749   3.388   6.765  0.5381  0.0380  0.3524
  491SOL     ow 1961   4.898   0.665   2.235  0.5829  0.3924  0.8225
  491SOL     hw 1962   4.849   0.736   2.276  0.7715 -0.1618  2.0476
  491SOL     hw 1963   4.849   0.645   2.155 -0.5724  0.6068  1.4504
  491SOL     vw 1964   4.885   0.671   2.230  0.4551  0.3476  1.0670
  492SOL     ow 1965   5.548   4.425   3.220 -0.1691 -0.0281  0.1990
  492SOL     hw 1966   5.478   4.417   3.286 -1.8505 -1.8695 -1.6802
  492SOL     hw 1967   5.521   4.500   3.167 -0.5862 -0.5705 -0.3615
  492SOL     vw 1968   5.535   4.434   3.222 -0.4456 -0.3424 -0.1229
  493SOL     ow 1969   0.078   0.584   1.979 -0.7088 -0.1377 -1.0667
  493SOL     hw 1970  -0.010   0.614   1.958 -0.3263  0.8175 -1.3621
  493SOL     hw 1971   0.104   0.530   1.904 -0.8896 -0.0825 -1.1685
  493SOL     vw 1972   0.070   0.580   1.966 -0.6822 -0.0044 -1.1191
  494SOL     ow 1973   3.064   4.607   1.669  0.0381 -0.2989  0.8265
  494SOL     hw 1974   3.070   4.703   1.668  2.2151 -0.3740 -0.9036
  494SOL     hw 1975   2.988   4.587   1.614 -0.1600  0.4262  0.8286
  494SOL     vw 1976   3.055   4.617   1.662  0.2992 -0.2131  0.5984
  495SOL     ow 1977   0.625   5.245   2.983 -0.7214  0.5405 -0.4001
  495SOL     hw 1978   0.552   5.255   3.045  1.7278  2.4383  2.4404
  495SOL     hw 1979   0.623   5.326   2.931  1.0151  2.0918  1.7718
  495SOL     vw 1980   0.615   5.257   2.984 -0.1692  0.9954  0.2612
  496SOL     ow 1981   4.493   0.096   2.996 -0.3086  0.0380  0.1288
  496SOL     hw 1982   4.429   0.089   2.925 -1.5291 -0.8029  1.2796
  496SOL     hw 1983   4.441   0.098   3.076  0.8794  3.5655  0.9969
  496SOL     vw 1984   4.478   0.095   2.997 -0.3128  0.3924  0.3952
  497SOL     ow 1985   6.089   4.549   6.452 -0.1546  0.2497 -0.9189
  497SOL     hw 1986   6.059   4.527   6.364 -3.8627 -1.1783  0.5048
  497SOL     hw 1987   6.079   4.644   6.458  1.0930  0.5056 -2.2612
  497SOL     vw 1988   6.084   4.559   6.441 -0.4790  0.0951 -0.9081
  498SOL     ow 1989   2.834   4.940   1.321  0.3272 -0.5638 -0.1901
  498SOL     hw 1990   2.910   4.948   1.379  0.3808  0.4641 -0.3831
  498SOL     hw 1991   2.760   4.930   1.380  0.2390  1.5764  0.1505
  498SOL     vw 1992   2.834   4.940   1.336  0.3227 -0.1459 -0.1706
  499SOL     ow 1993   4.792   4.087   3.118 -0.5796 -0.3254  0.2403
  499SOL     hw 1994   4.710   4.130   3.095  0.0274  0.5065 -0.4612
  499SOL     hw 1995   4.822   4.135   3.195 -0.3656 -0.1024  0.0199
  499SOL     vw 1996   4.785   4.099   3.125 -0.4714 -0.1860  0.1186
  500SOL     ow 1997   2.601   4.195   2.929 -0.4749 -0.2772  0.1950
  500SOL     hw 1998   2.641   4.122   2.881  0.9936  0.4834  0.1875
  500SOL     hw 1999   2.507   4.178   2.925 -0.8361  1.1595 -5.4313
  500SOL     vw 2000   2.594   4.183   2.922 -0.3288  0.0129 -0.5484
  501SOL     ow 2001   1.022   0.728   1.502  0.3879 -0.7633  0.3484
  501SOL     hw 2002   1.011   0.769   1.588  3.2902  0.2088  0.3701
  501SOL     hw 2003   0.972   0.785   1.443  0.0858 -0.2169  1.1047
  501SOL     vw 2004   1.014   0.741   1.505  0.7311 -0.5630  0.4511
  502SOL     ow 2005   4.970   5.465   2.872 -0.6014  0.0855  0.2060
  502SOL     hw 2006   4.910   5.538   2.860 -0.5739 -0.0608 -0.9660
  502SOL     hw 2007   4.916   5.387   2.862 -0.2231 -0.0472 -0.9313
  502SOL     vw 2008   4.955   5.464   2.869 -0.5481  0.0484 -0.0986
  503SOL     ow 2009   5.488   6.535   1.254 -0.2314  0.0562 -0.5205
  503SOL     hw 2010   5.541   6.572   1.184  0.0143  0.0025 -0.3616
  503SOL     hw 2011   5.442   6.610   1.291  0.4583  0.2467 -0.0312
  503SOL     vw 2012   5.489   6.550   1.249 -0.1082  0.0741 -0.4350
  504SOL     ow 2013   2.341   5.168   0.915 -0.6198  0.4323  0.3665
  504SOL     hw 2014   2.422   5.201   0.876  1.1016 -0.9522  2.4641
  504SOL     hw 2015   2.312   5.098   0.856 -0.6476  1.3412 -0.7179
  504SOL     vw 2016   2.348   5.163   0.902 -0.3964  0.3693  0.5002
  505SOL     ow 2017   4.770   5.133   5.833  0.3961  0.0918  0.1236
  505SOL     hw 2018   4.863   5.111   5.826  0.2417 -0.3489 -0.7278
  505SOL     hw 2019   4.742   5.096   5.916  0.0411 -3.4940 -1.4265
  505SOL     vw 2020   4.779   5.126   5.843  0.3288 -0.4396 -0.1936
  506SOL     ow 2021   6.434   2.934   2.330  0.2306  0.1618 -0.5908
  506SOL     hw 2022   6.369   3.000   2.356 -1.1143  0.1492 -3.5106
  506SOL     hw 2023   6.470   2.967   2.248  2.0756 -1.1067 -0.3415
  506SOL     vw 2024   6.430   2.947   2.322  0.2964 -0.0073 -0.9431
  507SOL     ow 2025   5.429   0.974   5.073  0.5257 -0.1594  0.2763
  507SOL     hw 2026   5.479   0.952   5.153  3.1192 -0.2117 -1.2423
  507SOL     hw 2027   5.462   1.060   5.048  0.0679 -0.3407 -0.9807
  507SOL     vw 2028   5.440   0.982   5.081  0.8075 -0.1903 -0.0901
  508SOL     ow 2029   3.036   2.275   6.391 -0.2957  0.3968 -0.9298
  508SOL     hw 2030   2.978   2.200   6.375 -0.7505  0.5126  0.1278
  508SOL     hw 2031   3.118   2.235   6.421 -1.5682  0.3460  2.8815
  508SOL     vw 2032   3.040   2.260   6.393 -0.5238  0.4053 -0.2873
  509SOL     ow 2033   4.830   1.959   3.336 -0.0309  0.0342 -0.0934
  509SOL     hw 2034   4.884   1.986   3.410  0.0175  0.6408 -0.3491
  509SOL     hw 2035   4.793   2.040   3.302 -0.4086 -0.2879 -0.4616
  509SOL     vw 2036   4.832   1.973   3.342 -0.0744  0.0717 -0.1757
  510SOL     ow 2037   6.243   3.554   3.794 -0.1713 -0.3053 -0.0301
  510SOL     hw 2038   6.242   3.461   3.775 -1.5190 -0.5939  1.2682
  510SOL     hw 2039   6.253   3.559   3.889  2.0358  0.9515 -0.2537
  510SOL     vw 2040   6.245   3.543   3.804 -0.0575 -0.1774  0.1116
  511SOL     ow 2041   5.514   1.907   3.762 -0.4949  0.2048 -0.2390
  511SOL     hw 2042   5.532   1.857   3.842 -0.0901 -1.2863 -1.2237
  511SOL     hw 2043   5.597   1.909   3.716 -0.7465  0.9822 -0.6802
  511SOL     vw 2044   5.527   1.901   3.766 -0.4749  0.1106 -0.4271
  512SOL     ow 2045   6.161   5.540   6.467 -0.9310 -0.6114  0.2887
  512SOL     hw 2046   6.147   5.477   6.396 -1.2415 -0.2596  0.0330
  512SOL     hw 2047   6.203   5.615   6.425 -2.2032  0.1070  0.2157
  512SOL     vw 2048   6.164   5.542   6.452 -1.1399 -0.4702  0.2453
  513SOL     ow 2049   0.459   4.510   1.357  0.2136 -0.0243 -0.4301
  513SOL     hw 2050   0.523   4.476   1.420 -0.4077 -0.3060  0.0624
  513SOL     hw 2051   0.510   4.566   1.299  0.7600  0.4542  0.4867
  513SOL     vw 2052   0.474   4.513   1.358  0.2037  0.0019 -0.2441
  514SOL     ow 2053   2.559   6.896   1.218 -0.1048 -0.2296 -0.0365
  514SOL     hw 2054   2.581   6.989   1.214  1.0360 -0.3795  1.6762
  514SOL     hw 2055   2.624   6.854   1.163 -3.5553  0.2492 -5.1276
  514SOL     vw 2056   2.570   6.903   1.210 -0.4095 -0.1864 -0.4823
  515SOL     ow 2057   0.968   6.070   4.401 -0.0451  0.0367  0.0482
  515SOL     hw 2058   0.975   6.040   4.492 -0.4932  0.5640  0.2605
  515SOL     hw 2059   1.036   6.021   4.354  2.6926  2.3826  1.3181
  515SOL     vw 2060   0.978   6.059   4.407  0.2570  0.4158  0.2437
  516SOL     ow 2061   6.248   2.057   2.346 -0.6160  0.0642 -0.4784
  516SOL     hw 2062   6.173   2.108   2.315 -0.2392  0.8141 -0.1852
  516SOL     hw 2063   6.219   2.018   2.428 -0.5698  0.6493 -0.1809
  516SOL     vw 2064   6.234   2.059   2.353 -0.5600  0.2402 -0.4004
  517SOL     ow 2065   6.109   2.502   3.303 -0.0061 -0.2796 -0.3489
  517SOL     hw 2066   6.174   2.567   3.333 -1.5042 -0.1005  2.9319
  517SOL     hw 2067   6.159   2.421   3.295  1.5380  0.7927 -2.7966
  517SOL     vw 2068   6.124   2.500   3.306 -0.0002 -0.1144 -0.2389
  518SOL     ow 2069   0.524   3.542   5.648 -0.7270 -0.3905 -0.6380
  518SOL     hw 2070   0.462   3.542   5.721  0.4802  3.3623  0.5908
  518SOL     hw 2071   0.607   3.519   5.689 -0.6533 -2.1076 -1.6639
  518SOL     vw 2072   0.527   3.539   5.663 -0.5580 -0.1221 -0.6113
  519SOL     ow 2073   2.567   4.516   3.379 -0.1270 -0.1941 -1.2222
  519SOL     hw 2074   2.615   4.585   3.423 -0.6590  0.2660 -1.3489
  519SOL     hw 2075   2.486   4.558   3.348  0.1614 -0.5261 -2.5087
  519SOL     vw 2076   2.562   4.531   3.381 -0.1591 -0.1771 -1.4086
  520SOL     ow 2077   2.542   1.558   0.342 -0.0657 -0.1559 -0.5817
  520SOL     hw 2078   2.549   1.554   0.438  0.4359 -1.6446 -0.6533
  520SOL     hw 2079   2.580   1.475   0.312 -3.2151 -1.2772 -1.8962
  520SOL     vw 2080   2.548   1.546   0.351 -0.4151 -0.5002 -0.7646
  521SOL     ow 2081   5.862   5.270   4.677  0.3278  0.4882  0.2625
  521SOL     hw 2082   5.948   5.237   4.702  1.5943  3.1143 -0.2607
  521SOL     hw 2083   5.878   5.320   4.596 -1.6056  1.4025  0.3830
  521SOL     vw 2084   5.875   5.272   4.669  0.2398  0.9551  0.2096
  522SOL     ow 2085   0.131   6.110   2.997 -0.4506 -0.3345  1.0922
  522SOL     hw 2086   0.047   6.109   3.043 -1.1769  0.7628 -0.1444
  522SOL     hw 2087   0.108   6.100   2.905  0.5730  2.2249  0.4894
  522SOL     vw 2088   0.117   6.108   2.991 -0.4113  0.1478  0.8497
  523SOL     ow 2089   6.845   2.819   5.972  0.7271  0.0987  1.1516
  523SOL     hw 2090   6.897   2.822   5.891  1.9843  1.6439  1.9757
  523SOL     hw 2091   6.846   2.908   6.005 -1.5276 -0.0616  1.8448
  523SOL     vw 2092   6.852   2.831   5.965  0.5956  0.2815  1.3521
  524SOL     ow 2093   3.548   6.612   2.481 -0.2782 -0.1838  0.3822
  524SOL     hw 2094   3.585   6.524   2.489  1.4020  0.3463 -0.9142
  524SOL     hw 2095   3.578   6.657   2.561  0.1067 -0.3783  0.3528
  524SOL     vw 2096   3.557   6.606   2.493 -0.0058 -0.1395  0.2072
  525SOL     ow 2097   1.231   3.943   0.095  0.4884 -0.0571  0.5106
  525SOL     hw 2098   1.163   3.984   0.041  2.1415 -1.6320 -3.1359
  525SOL     hw 2099   1.309   3.994   0.078  1.4107 -1.5413  0.0692
  525SOL     vw 2100   1.232   3.955   0.086  0.8281 -0.4606 -0.0288
  526SOL     ow 2101   5.647   4.079   1.809 -0.1878  0.4356  0.5055
  526SOL     hw 2102   5.654   4.070   1.714  3.4141  2.1637  0.4183
  526SOL     hw 2103   5.665   3.992   1.843 -1.0251 -0.0947 -0.3564
  526SOL     vw 2104   5.650   4.067   1.801  0.1767  0.5934  0.3803
  527SOL     ow 2105   6.872   4.500   0.064  0.2789  0.2942  0.4029
  527SOL     hw 2106   6.804   4.492  -0.004 -1.3137  0.2815  1.9363
  527SOL     hw 2107   6.881   4.412   0.099 -1.3728  0.8481  2.4295
  527SOL     vw 2108   6.864   4.488   0.059 -0.1495  0.3660  0.8726
  528SOL     ow 2109   6.936   5.065   3.250  0.1388  0.2082  0.2898
  528SOL     hw 2110   6.863   5.125   3.256  0.2128  0.2727  0.5619
  528SOL     hw 2111   7.014   5.121   3.250  0.1609  0.2403 -1.5235
  528SOL     vw 2112   6.937   5.080   3.251  0.1512  0.2208  0.0865
  529SOL     ow 2113   7.107   6.015   2.802  0.2339  0.3842 -0.8641
  529SOL     hw 2114   7.076   6.080   2.739 -0.4911  0.4766 -0.4207
  529SOL     hw 2115   7.048   6.024   2.877  1.8537  1.1744  0.3897
  529SOL     vw 2116   7.096   6.025   2.803  0.3519  0.5007 -0.6404
  530SOL     ow 2117   4.538   0.617   5.473 -0.2026 -0.4984 -0.0584
  530SOL     hw 2118   4.513   0.614   5.566  1.0466  3.3241  0.5882
  530SOL     hw 2119   4.629   0.587   5.472  1.2895  3.3613  0.8768
  530SOL     vw 2120   4.547   0.613   5.485  0.1593  0.5152  0.1502
  531SOL     ow 2121   6.677   2.567   5.938 -0.4673  0.4784  0.5894
  531SOL     hw 2122   6.589   2.531   5.950 -0.0131 -0.6212  0.7522
  531SOL     hw 2123   6.705   2.534   5.852 -0.4426  1.3344  0.2593
  531SOL     vw 2124   6.669   2.558   5.928 -0.4044  0.4463  0.5672
  532SOL     ow 2125   5.613   6.732   0.049 -0.1351 -0.3573  0.1892
  532SOL     hw 2126   5.523   6.762   0.066  0.3743  0.5168  1.5416
  532SOL     hw 2127   5.602   6.648   0.004 -1.6147  0.7977 -1.7734
  532SOL     vw 2128   5.599   6.725   0.046 -0.2632 -0.0896  0.1088
  533SOL     ow 2129   2.404   0.037   6.444 -0.1799  0.3319 -0.1868
  533SOL     hw 2130   2.493   0.066   6.428 -0.1162  0.6347  0.6422
  533SOL     hw 2131   2.371   0.097   6.511 -0.5950 -0.5057  0.3805
  533SOL     vw 2132   2.411   0.049   6.451 -0.2263  0.2613 -0.0026
  534SOL     ow 2133   6.714   5.467   0.167  0.3834 -0.2854 -0.1889
  534SOL     hw 2134   6.691   5.557   0.189  0.8693 -0.1681 -0.1428
  534SOL     hw 2135   6.809   5.470   0.151  0.1966 -0.5321 -1.4377
  534SOL     vw 2136   6.724   5.479   0.167  0.4232 -0.3026 -0.3476
  535SOL     ow 2137   2.076   5.341   2.848 -0.7464  0.1229  0.0919
  535SOL     hw 2138   2.060   5.428   2.811  0.9357  0.6789  0.5746
  535SOL     hw 2139   2.128   5.296   2.781  2.3777  1.1597  1.6113
  535SOL     vw 2140   2.081   5.346   2.834 -0.1123  0.3331  0.3562
  536SOL     ow 2141   5.481   0.585   4.263  0.7359  0.1643 -0.0836
  536SOL     hw 2142   5.509   0.656   4.321 -1.1992 -0.4663  1.7760
  536SOL     hw 2143   5.386   0.583   4.273  0.1696  0.4334 -3.8746
  536SOL     vw 2144   5.472   0.594   4.272  0.4060  0.1166 -0.3383
  537SOL     ow 2145   5.742   6.823   4.059  0.6105  0.1212 -0.7434
  537SOL     hw 2146   5.653   6.839   4.091  0.5256  1.9160 -1.7107
  537SOL     hw 2147   5.749   6.728   4.052 -0.9355 -0.0875  0.1591
  537SOL     vw 2148   5.731   6.813   4.062  0.3953  0.3304 -0.7520
  538SOL     ow 2149   1.336   5.551   6.436 -0.0111 -0.0605  0.2631
  538SOL     hw 2150   1.397   5.477   6.438  0.0058 -0.1977 -1.9307
  538SOL     hw 2151   1.280   5.539   6.512  0.0190 -2.3284  0.0007
  538SOL     vw 2152   1.337   5.539   6.446 -0.0049 -0.3777 -0.0608
  539SOL     ow 2153   6.823   7.002   5.389  0.5082  0.1346  0.2451
  539SOL     hw 2154   6.918   6.994   5.399  0.3334  0.8369  3.4934
  539SOL     hw 2155   6.787   6.948   5.459 -1.5121  0.2395 -0.6477
  539SOL     vw 2156   6.831   6.993   5.399  0.2186  0.2410  0.5560
  540SOL     ow 2157   2.046   5.081   5.980  0.8290 -0.2478 -0.3742
  540SOL     hw 2158   2.094   5.052   6.057  0.7003 -1.1084 -0.6105
  540SOL     hw 2159   1.983   5.145   6.014  0.3235 -1.0972  0.3430
  540SOL     vw 2160   2.044   5.086   5.995  0.7453 -0.4735 -0.3109
  541SOL     ow 2161   5.883   3.751   0.427 -0.1996 -0.9536 -0.0252
  541SOL     hw 2162   5.862   3.714   0.342  0.9274  1.7438 -1.6425
  541SOL     hw 2163   5.970   3.716   0.448  1.1958  1.1286 -1.8962
  541SOL     vw 2164   5.892   3.742   0.419  0.1333 -0.3232 -0.4855
  542SOL     ow 2165   0.659   2.737   2.804  0.1385 -0.2722 -0.1494
  542SOL     hw 2166   0.716   2.721   2.729  1.0812  1.0662  0.2369
  542SOL     hw 2167   0.573   2.755   2.765  0.4356 -0.3559 -0.8655
  542SOL     vw 2168   0.655   2.737   2.789  0.3021 -0.1067 -0.1928
  543SOL     ow 2169   5.554   3.328   2.984 -0.3038 -0.2864  0.2029
  543SOL     hw 2170   5.518   3.276   3.056 -0.5382  0.4786  0.6471
  543SOL     hw 2171   5.526   3.418   3.002 -1.7139 -0.2832 -1.6878
  543SOL     vw 2172   5.546   3.333   2.996 -0.5207 -0.1850  0.0120
  544SOL     ow 2173   7.059   1.726   6.113  0.2722 -0.2672 -0.1018
  544SOL     hw 2174   7.109   1.786   6.057 -1.5177  1.0709 -0.3656
  544SOL     hw 2175   7.112   1.716   6.192  0.5557  1.8667  0.0318
  544SOL     vw 2176   7.072   1.733   6.116  0.0734  0.1909 -0.1190
  545SOL     ow 2177   3.829   2.087   5.876 -0.2648 -0.0094  0.2373
  545SOL     hw 2178   3.803   2.115   5.788  1.6266 -3.0393 -1.4739
  545SOL     hw 2179   3.746   2.074   5.922 -1.3134  1.5098 -1.0861
  545SOL     vw 2180   3.815   2.089   5.870 -0.1538 -0.2086 -0.1631
  546SOL     ow 2181   1.097   3.855   1.825  0.0454 -0.6959  0.6226
  546SOL     hw 2182   1.097   3.867   1.920  1.5050 -2.2826  0.8677
  546SOL     hw 2183   1.175   3.802   1.807 -0.8200 -1.4241 -1.3202
  546SOL     vw 2184   1.107   3.849   1.835  0.1238 -1.0012  0.3985
  547SOL     ow 2185   6.804   5.581   1.231  0.2791 -0.0547 -0.7343
  547SOL     hw 2186   6.887   5.611   1.268 -0.9402  1.8877  0.5385
  547SOL     hw 2187   6.783   5.645   1.164  0.2769 -1.1272 -1.8004
  547SOL     vw 2188   6.812   5.593   1.227  0.1180  0.0601 -0.7070
  548SOL     ow 2189   5.277   4.227   4.238 -0.0743  0.2008  0.0626
  548SOL     hw 2190   5.363   4.260   4.214 -0.2551  0.4198 -0.3147
  548SOL     hw 2191   5.216   4.292   4.203 -0.3234  1.3052  2.3727
  548SOL     vw 2192   5.280   4.240   4.230 -0.1307  0.3755  0.3173
  549SOL     ow 2193   6.336   6.932   5.329 -0.1691 -0.0376 -0.7085
  549SOL     hw 2194   6.374   7.017   5.350 -0.0406  0.2902 -2.1479
  549SOL     hw 2195   6.245   6.952   5.306  0.2254 -0.0459 -2.4346
  549SOL     vw 2196   6.329   6.946   5.328 -0.1001  0.0048 -1.1258
  550SOL     ow 2197   6.223   5.355   0.280  0.5162  0.8321  0.7981
  550SOL     hw 2198   6.246   5.264   0.303 -2.9928  0.1898  2.3165
  550SOL     hw 2199   6.185   5.348   0.192  1.8603  1.1817  0.1624
  550SOL     vw 2200   6.221   5.342   0.271  0.2308  0.7935  0.9146
  551SOL     ow 2201   2.113   6.177   3.000  0.1179  0.2466  0.2736
  551SOL     hw 2202   2.135   6.115   3.070  0.4504  1.3791  1.2134
  551SOL     hw 2203   2.023   6.202   3.018  0.8023  2.0449  1.5536
  551SOL     vw 2204   2.104   6.172   3.012  0.2521  0.6332  0.5665
  552SOL     ow 2205   5.686   5.123   1.316 -0.3570  0.1067 -0.5521
  552SOL     hw 2206   5.686   5.028   1.306  0.1646  0.0799 -0.3693
  552SOL     hw 2207   5.626   5.140   1.389 -0.0788 -0.1256 -0.2655
  552SOL     vw 2208   5.678   5.113   1.325 -0.2515  0.0725 -0.4902
  553SOL     ow 2209   1.090   6.447   1.427  0.3716  0.3011 -0.9283
  553SOL     hw 2210   1.116   6.440   1.519  1.1840 -2.7239 -1.2996
  553SOL     hw 2211   1.029   6.375   1.413  0.4770  0.5223 -2.8289
  553SOL     vw 2212   1.085   6.437   1.437  0.4927 -0.0687 -1.2281
  554SOL     ow 2213   4.658   5.376   6.708 -0.5917  0.4113 -0.1118
  554SOL     hw 2214   4.734   5.417   6.749  1.1663 -0.0980 -2.6157
  554SOL     hw 2215   4.613   5.447   6.663 -1.7724  0.7363  1.4727
  554SOL     vw 2216   4.662   5.391   6.708 -0.5157  0.3870 -0.2332
  555SOL     ow 2217   3.699   0.987   6.680 -0.0896  0.0611 -0.0789
  555SOL     hw 2218   3.747   0.963   6.759  1.4290  0.2630 -0.9129
  555SOL     hw 2219   3.615   0.942   6.688 -0.0951  0.3402  1.7933
  555SOL     vw 2220   3.694   0.978   6.692  0.1100  0.1246  0.0582
  556SOL     ow 2221   7.117   4.407   0.171  0.7686  0.3329  0.1610
  556SOL     hw 2222   7.101   4.365   0.256 -1.7411 -1.7263 -1.1804
  556SOL     hw 2223   7.187   4.354   0.132  0.8350  0.3013  0.3205
  556SOL     vw 2224   7.124   4.394   0.177  0.4461  0.0572  0.0051
  557SOL     ow 2225   0.999   4.460   5.457  0.3476  0.7834 -0.1372
  557SOL     hw 2226   1.081   4.468   5.506 -0.3108 -0.5743  1.2783
  557SOL     hw 2227   0.945   4.533   5.488 -1.2291 -1.6793  3.7355
  557SOL     vw 2228   1.002   4.471   5.467  0.0527  0.2792  0.5605
  558SOL     ow 2229   0.665   1.180   4.558  0.2873 -0.1945  0.0330
  558SOL     hw 2230   0.734   1.233   4.518 -0.9650  1.0489 -0.5632
  558SOL     hw 2231   0.632   1.233   4.631  0.2312 -0.9606  0.5860
  558SOL     vw 2232   0.669   1.194   4.562  0.1147 -0.1315  0.0274
  559SOL     ow 2233   6.602   0.058   2.183  0.0499  0.0573  0.5341
  559SOL     hw 2234   6.609   0.003   2.105 -2.5153  1.1522 -0.5772
  559SOL     hw 2235   6.555   0.003   2.247 -1.5329  0.5172 -0.1911
  559SOL     vw 2236   6.597   0.043   2.181 -0.4973  0.2624  0.2917
  560SOL     ow 2237   1.815   1.697   5.438  0.4419 -0.0799 -0.3350
  560SOL     hw 2238   1.807   1.622   5.497  0.9389 -2.3260 -2.9068
  560SOL     hw 2239   1.774   1.668   5.356  0.7818  2.4260 -1.4921
  560SOL     vw 2240   1.809   1.683   5.435  0.5523 -0.0456 -0.8268
  561SOL     ow 2241   5.907   2.263   4.940  0.0104  0.3081 -0.5675
  561SOL     hw 2242   5.946   2.178   4.920  1.2947  1.0158 -1.1953
  561SOL     hw 2243   5.824   2.263   4.893 -0.7597 -1.2045  0.7262
  561SOL     vw 2244   5.902   2.252   4.931  0.0782  0.2018 -0.4797
  562SOL     ow 2245   2.938   0.407   3.168  0.1784  0.4108  0.2983
  562SOL     hw 2246   2.881   0.429   3.241  0.6832 -0.0153  0.8336
  562SOL     hw 2247   2.999   0.342   3.204 -0.9230 -1.4593 -1.0894
  562SOL     vw 2248   2.939   0.401   3.182  0.0997  0.1078  0.1860
  563SOL     ow 2249   0.686   0.531   6.453  0.0780 -0.1806  0.1602
  563SOL     hw 2250   0.624   0.562   6.387 -1.1111 -0.4707  1.1046
  563SOL     hw 2251   0.759   0.497   6.402 -1.9529 -2.9266 -1.1825
  563SOL     vw 2252   0.687   0.531   6.437 -0.3468 -0.5812  0.1075
  564SOL     ow 2253   1.694   0.654   0.618 -0.5304  0.5983  0.6617
  564SOL     hw 2254   1.599   0.664   0.606 -0.5561 -0.6922 -0.4828
  564SOL     hw 2255   1.720   0.593   0.550  0.5755 -1.7755  3.0319
  564SOL     vw 2256   1.685   0.647   0.607 -0.3879  0.1148  0.8234
  565SOL     ow 2257   0.833   3.937   2.968  0.0349 -0.1660  0.6183
  565SOL     hw 2258   0.924   3.944   2.998 -0.3128  0.9691  1.4707
  565SOL     hw 2259   0.804   3.852   2.999  0.9910 -0.8137 -0.2087
  565SOL     vw 2260   0.841   3.927   2.976  0.1152 -0.1016  0.6216
  566SOL     ow 2261   0.636   3.461   0.529  0.0084 -0.0008  0.0127
  566SOL     hw 2262   0.728   3.441   0.547  0.2827  1.1602 -0.0212
  566SOL     hw 2263   0.638   3.547   0.486 -1.0244 -0.4327 -0.9309
  566SOL     vw 2264   0.648   3.470   0.526 -0.0917  0.0954 -0.1162
  567SOL     ow 2265   3.947   0.502   2.090  0.2365  0.3852 -0.0583
  567SOL     hw 2266   3.965   0.534   2.002  0.7937  1.6053  0.4718
  567SOL     hw 2267   3.967   0.408   2.086  1.8751  0.7287 -0.8190
  567SOL     vw 2268   3.952   0.494   2.078  0.5262  0.5915 -0.0887
  568SOL     ow 2269   6.686   5.275   1.323 -0.2932 -0.3022  0.0780
  568SOL     hw 2270   6.601   5.242   1.349 -0.3455 -1.3689 -1.3423
  568SOL     hw 2271   6.749   5.218   1.368 -0.3393 -0.1309  0.3599
  568SOL     vw 2272   6.683   5.263   1.332 -0.3061 -0.4203 -0.0722
  569SOL     ow 2273   6.465   5.903   4.939  0.4541  0.0429 -0.2570
  569SOL     hw 2274   6.536   5.904   4.875  1.4336 -0.8413  0.7755
  569SOL     hw 2275   6.460   5.994   4.971  1.8947 -0.0920  0.4482
  569SOL     vw 2276   6.473   5.915   4.935  0.7734 -0.0916 -0.0279
  570SOL     ow 2277   6.094   0.224   0.347 -0.6325  0.9083  0.2854
  570SOL     hw 2278   6.140   0.194   0.425 -1.9999  2.3437  1.7190
  570SOL     hw 2279   6.001   0.216   0.369 -1.1558 -1.0844 -2.1920
  570SOL     vw 2280   6.088   0.219   0.360 -0.8817  0.8348  0.1477
  571SOL     ow 2281   6.661   0.023   0.342 -1.1463  0.2610 -0.0634
  571SOL     hw 2282   6.718   0.017   0.419 -0.0689 -0.6905 -0.8863
  571SOL     hw 2283   6.631  -0.066   0.328 -1.1939  0.3934 -0.8327
  571SOL     vw 2284   6.665   0.011   0.350 -1.0107  0.1528 -0.2734
  572SOL     ow 2285   5.540   2.540   5.510  0.0670  1.5218 -0.4338
  572SOL     hw 2286   5.557   2.572   5.599  0.4323  0.6685 -0.1840
  572SOL     hw 2287   5.446   2.550   5.499  0.0718  1.9883 -0.0922
  572SOL     vw 2288   5.530   2.545   5.520  0.1159  1.4707 -0.3557
  573SOL     ow 2289   3.879   1.195   5.115  0.0883  0.2909 -0.8783
  573SOL     hw 2290   3.881   1.118   5.172 -0.8075  1.3285  0.6021
  573SOL     hw 2291   3.803   1.245   5.143 -0.0721  1.1274 -2.6435
  573SOL     vw 2292   3.870   1.191   5.126 -0.0510  0.5382 -0.9160
  574SOL     ow 2293   4.415   1.219   6.246 -0.5667  0.6446 -0.3808
  574SOL     hw 2294   4.420   1.233   6.340 -0.0243 -1.2252 -0.0830
  574SOL     hw 2295   4.390   1.304   6.210 -1.9437  1.1129  1.5356
  574SOL     vw 2296   4.413   1.232   6.254 -0.6769  0.4598 -0.0887
  575SOL     ow 2297   5.797   4.776   1.077  0.0960  0.4525 -0.2083
  575SOL     hw 2298   5.701   4.770   1.070  0.0883  0.0942  0.2010
  575SOL     hw 2299   5.813   4.800   1.168  0.3854  0.8717 -0.3657
  575SOL     vw 2300   5.786   4.778   1.088  0.1333  0.4604 -0.1750
  576SOL     ow 2301   2.367   3.523   0.352 -0.2290 -0.1605  0.6717
  576SOL     hw 2302   2.436   3.459   0.370  1.0283  0.8407 -0.3558
  576SOL     hw 2303   2.369   3.582   0.427  1.9479  1.4254 -0.5192
  576SOL     vw 2304   2.376   3.522   0.364  0.2241  0.1810  0.3790
  577SOL     ow 2305   2.772   0.244   1.387  0.2168 -0.0268  0.0522
  577SOL     hw 2306   2.791   0.247   1.293  2.0505  0.0626  0.3800
  577SOL     hw 2307   2.701   0.306   1.400 -0.4552 -0.4655 -1.3482
  577SOL     vw 2308   2.765   0.252   1.376  0.3700 -0.0729 -0.0893
  578SOL     ow 2309   5.009   1.562   4.904  0.1030  0.1476  0.4065
  578SOL     hw 2310   4.970   1.482   4.939  2.1677 -0.7105  0.8724
  578SOL     hw 2311   5.066   1.532   4.833 -0.1863  1.3817 -0.3945
  578SOL     vw 2312   5.011   1.547   4.899  0.3374  0.1972  0.3624
  579SOL     ow 2313   1.418   4.676   2.765 -0.1756  0.1528  0.1319
  579SOL     hw 2314   1.431   4.748   2.703 -0.9451  1.2427  1.1809
  579SOL     hw 2315   1.439   4.597   2.715 -3.5364  0.6940 -2.4354
  579SOL     vw 2316   1.423   4.675   2.750 -0.7205  0.3684 -0.0684
  580SOL     ow 2317   0.245   4.347   1.229  0.1834 -0.0517 -0.1795
  580SOL     hw 2318   0.162   4.309   1.201  0.3094  1.2739 -2.5518
  580SOL     hw 2319   0.308   4.275   1.220  0.0761  0.0974 -2.8222
  580SOL     vw 2320   0.242   4.332   1.224  0.1859  0.1428 -0.8412
  581SOL     ow 2321   6.942   2.252   1.350 -0.0722 -0.0534  0.1552
  581SOL     hw 2322   6.886   2.220   1.420 -0.5457 -3.1702 -1.5133
  581SOL     hw 2323   6.904   2.218   1.270  2.5509  0.2069 -1.3265
  581SOL     vw 2324   6.930   2.244   1.349  0.2112 -0.4302 -0.2604
  582SOL     ow 2325   5.942   1.866   0.652 -0.3357 -0.6964  0.1789
  582SOL     hw 2326   5.906   1.792   0.702 -2.3079  0.3046  0.3439
  582SOL     hw 2327   5.865   1.918   0.627  0.9964  1.5500  0.4592
  582SOL     vw 2328   5.927   1.863   0.655 -0.4201 -0.2680  0.2377
  583SOL     ow 2329   0.759   6.139   5.677  0.3310 -0.0801  0.0943
  583SOL     hw 2330   0.853   6.150   5.666  0.1161 -0.0677 -2.1047
  583SOL     hw 2331   0.720   6.196   5.611 -1.2384 -0.1101  0.9404
  583SOL     vw 2332   0.766   6.148   5.667  0.0956 -0.0825 -0.0844
  584SOL     ow 2333   3.568   2.779   3.719 -0.5867 -0.8203  1.1947
  584SOL     hw 2334   3.595   2.703   3.772  3.5686 -0.8747 -0.6017
  584SOL     hw 2335   3.539   2.741   3.636  1.1780 -0.5463  0.4150
  584SOL     vw 2336   3.568   2.764   3.715  0.1943 -0.7914  0.8548
  585SOL     ow 2337   2.110   1.170   4.074 -0.2833 -0.3780 -0.0857
  585SOL     hw 2338   2.054   1.245   4.092 -0.4292 -0.5734  0.2913
  585SOL     hw 2339   2.057   1.094   4.097  0.7018 -0.5228  1.9249
  585SOL     vw 2340   2.096   1.170   4.079 -0.1725 -0.4229  0.2294
  586SOL     ow 2341   6.345   3.933   4.227 -0.7178  0.0359  0.3617
  586SOL     hw 2342   6.302   3.961   4.146 -0.2733 -0.3002  0.0017
  586SOL     hw 2343   6.432   3.905   4.199 -0.8907 -1.0090  0.8041
  586SOL     vw 2344   6.350   3.933   4.213 -0.6821 -0.1464  0.3726
  587SOL     ow 2345   6.644   7.120   6.035 -0.2375 -0.0144 -0.2900
  587SOL     hw 2346   6.597   7.124   5.952  2.0051  1.8538 -1.5674
  587SOL     hw 2347   6.589   7.170   6.096 -0.8576  0.4383 -1.2039
  587SOL     vw 2348   6.630   7.127   6.032 -0.0234  0.2916 -0.5794
  588SOL     ow 2349   6.200   1.125   0.521  0.1753 -0.0237  0.1966
  588SOL     hw 2350   6.169   1.106   0.609 -1.3705 -0.1067 -0.3469
  588SOL     hw 2351   6.254   1.049   0.498 -0.6617 -0.7258  0.4978
  588SOL     vw 2352   6.203   1.112   0.529 -0.1392 -0.1273  0.1647
  589SOL     ow 2353   2.909   5.195   4.027 -0.4461 -0.5446  0.2428
  589SOL     hw 2354   2.915   5.102   4.048 -2.4935 -0.7506  0.1188
  589SOL     hw 2355   2.883   5.197   3.935  2.0943  0.2494 -0.5568
  589SOL     vw 2356   2.907   5.183   4.017 -0.3810 -0.4671  0.1211
  590SOL     ow 2357   0.820   0.466   6.676  0.0259  0.5580  0.5938
  590SOL     hw 2358   0.891   0.413   6.641 -1.2460 -1.2971  0.7219
  590SOL     hw 2359   0.853   0.556   6.672  1.3023  0.0754 -2.0076
  590SOL     vw 2360   0.833   0.471   6.671  0.0265  0.2496  0.2673
  591SOL     ow 2361   0.291   5.113   4.586 -0.0903  0.6251 -0.2656
  591SOL     hw 2362   0.277   5.111   4.681  0.9536 -0.1883 -0.1160
  591SOL     hw 2363   0.277   5.022   4.558 -0.2414  0.8323 -0.8692
  591SOL     vw 2364   0.287   5.101   4.595  0.0275  0.5450 -0.3257
  592SOL     ow 2365   3.627   6.112   6.848  0.5554  0.6851  0.0066
  592SOL     hw 2366   3.670   6.035   6.810  1.9126  1.2345  0.3850
  592SOL     hw 2367   3.550   6.126   6.792  0.6524 -0.5419 -0.4700
  592SOL     vw 2368   3.623   6.104   6.835  0.7472  0.5958 -0.0067
  593SOL     ow 2369   3.515   6.006   5.087  0.4429 -0.7004 -0.2255
  593SOL     hw 2370   3.439   5.951   5.069 -0.5634 -0.3960  2.5547
  593SOL     hw 2371   3.488   6.094   5.063 -0.2840 -0.5404  1.0709
  593SOL     vw 2372   3.502   6.010   5.082  0.2141 -0.6392  0.3126
  594SOL     ow 2373   0.028   1.120   6.886 -0.1546 -0.5288 -0.0430
  594SOL     hw 2374  -0.059   1.161   6.889 -0.0042 -0.2588  1.2954
  594SOL     hw 2375   0.012   1.028   6.906 -0.2741 -0.7848 -1.2153
  594SOL     vw 2376   0.014   1.114   6.889 -0.1505 -0.5270 -0.0212
  595SOL     ow 2377   6.907   4.934   4.259  0.2692  0.0762  0.3250
  595SOL     hw 2378   6.961   5.012   4.275  0.3746  0.3105 -1.0131
  595SOL     hw 2379   6.820   4.968   4.238  0.0404 -0.2214  0.7742
  595SOL     vw 2380   6.903   4.949   4.258  0.2530  0.0679  0.2077
  596SOL     ow 2381   4.243   0.092   3.135 -0.4799  0.1052  0.2951
  596SOL     hw 2382   4.206   0.040   3.063 -1.2364  1.9285 -0.7203
  596SOL     hw 2383   4.243   0.033   3.210 -3.9179 -0.5888 -0.0578
  596SOL     vw 2384   4.238   0.078   3.135 -1.0333  0.2542  0.1146
  597SOL     ow 2385   6.391   0.196   6.512  0.0274 -0.2610 -0.3728
  597SOL     hw 2386   6.480   0.162   6.521  0.0309  0.3254  3.4430
  597SOL     hw 2387   6.339   0.144   6.574 -1.8452  0.7658 -1.0032
  597SOL     vw 2388   6.396   0.185   6.521 -0.2193 -0.0481  0.0472
  598SOL     ow 2389   1.832   5.845   0.387 -0.2175 -0.1483 -0.2282
  598SOL     hw 2390   1.853   5.816   0.298  0.0045  0.2558 -0.3104
  598SOL     hw 2391   1.842   5.940   0.384 -0.6879 -0.0851  0.1033
  598SOL     vw 2392   1.836   5.853   0.375 -0.2502 -0.0865 -0.1954
  599SOL     ow 2393   4.174   1.390   5.737 -0.5895  0.3089  0.0845
  599SOL     hw 2394   4.170   1.396   5.833 -0.6436  0.6129  0.0660
  599SOL     hw 2395   4.169   1.296   5.719  1.1654  0.1167  0.4480
  599SOL     vw 2396   4.173   1.379   5.748 -0.3650  0.3237  0.1299
  600SOL     ow 2397   5.279   1.806   3.615  0.1742 -0.4332  0.0778
  600SOL     hw 2398   5.237   1.734   3.663 -1.9808 -0.5592 -1.8448
  600SOL     hw 2399   5.283   1.775   3.525  0.6169  1.2711 -0.5164
  600SOL     vw 2400   5.274   1.792   3.609 -0.0520 -0.2250 -0.2542
  601SOL     ow 2401   5.990   2.326   4.495  0.3785  0.5259 -0.4478
  601SOL     hw 2402   5.919   2.309   4.557  0.1290  0.5651 -0.7226
  601SOL     hw 2403   5.946   2.359   4.417  0.4670 -1.4644 -1.4035
  601SOL     vw 2404   5.975   2.328   4.493  0.3572  0.2685 -0.6101
  602SOL     ow 2405   6.056   5.592   0.396  0.4502 -0.0711  1.5185
  602SOL     hw 2406   6.035   5.626   0.309  2.8549 -0.5288  0.6650
  602SOL     hw 2407   5.971   5.581   0.440 -0.8474 -0.1537 -0.8753
  602SOL     vw 2408   6.042   5.595   0.391  0.5960 -0.1423  1.0901
  603SOL     ow 2409   0.984   3.759   1.575  0.0220  0.3123  0.2351
  603SOL     hw 2410   1.013   3.671   1.600 -0.0083 -0.0143 -0.8308
  603SOL     hw 2411   0.930   3.745   1.498 -1.4055  1.1209  1.0617
  603SOL     vw 2412   0.981   3.745   1.568 -0.1704  0.3759  0.2036
  604SOL     ow 2413   4.557   2.519   2.498 -0.3471 -0.1683 -0.4794
  604SOL     hw 2414   4.646   2.549   2.477  0.3815 -0.8471  1.4200
  604SOL     hw 2415   4.556   2.428   2.470  0.7074 -1.1499  2.3171
  604SOL     vw 2416   4.569   2.511   2.492 -0.1116 -0.3874  0.1402
  605SOL     ow 2417   4.950   6.028   4.777  0.0193 -0.6615 -0.5174
  605SOL     hw 2418   4.914   6.063   4.859 -1.0875  0.7232 -1.5578
  605SOL     hw 2419   4.992   6.103   4.735  2.2977 -1.7697 -0.3797
  605SOL     vw 2420   4.951   6.043   4.782  0.1736 -0.6251 -0.6363
  606SOL     ow 2421   6.428   4.015   6.771  0.0681 -0.2942  0.7765
  606SOL     hw 2422   6.490   4.088   6.782 -0.1698 -0.1859  1.4301
  606SOL     hw 2423   6.404   3.990   6.861 -1.3183  0.0759  0.5298
  606SOL     vw 2424   6.433   4.022   6.785 -0.1462 -0.2310  0.8302
  607SOL     ow 2425   2.604   6.813   3.687 -0.3922 -0.0998  0.3339
  607SOL     hw 2426   2.534   6.766   3.641 -2.6072 -0.3005  3.5661
  607SOL     hw 2427   2.568   6.900   3.703 -0.5135 -0.5479  3.0273
  607SOL     vw 2428   2.590   6.818   3.683 -0.7005 -0.1853  1.1157
  608SOL     ow 2429   6.828   2.419   3.481 -0.0586 -0.0574  0.2243
  608SOL     hw 2430   6.894   2.382   3.541 -0.1289  0.1722  0.4426
  608SOL     hw 2431   6.818   2.352   3.413 -0.4977 -0.6338  0.8494
  608SOL     vw 2432   6.836   2.405   3.480 -0.1259 -0.1031  0.3357
  609SOL     ow 2433   3.618   3.359   6.490  0.0128 -0.0262 -0.3619
  609SOL     hw 2434   3.681   3.312   6.544  0.3719 -1.1310 -1.6967
  609SOL     hw 2435   3.541   3.302   6.486 -0.0394  0.0806 -0.9583
  609SOL     vw 2436   3.616   3.346   6.497  0.0533 -0.1578 -0.6168
  610SOL     ow 2437   5.383   1.414   3.627  0.4720 -0.0963 -0.2596
  610SOL     hw 2438   5.461   1.469   3.620 -0.8355  2.1817  1.6432
  610SOL     hw 2439   5.319   1.457   3.570  0.0497 -0.9338 -0.4381
  610SOL     vw 2440   5.385   1.427   3.618  0.2439  0.0938 -0.0321
  611SOL     ow 2441   2.525   2.468   4.059  0.2695  0.1623 -0.8751
  611SOL     hw 2442   2.453   2.499   4.114  0.6592  0.1159 -0.3317
  611SOL     hw 2443   2.510   2.374   4.050  1.8562 -0.4564  1.7407
  611SOL     vw 2444   2.514   2.460   4.065  0.5302  0.0746 -0.4582
  612SOL     ow 2445   5.320   5.914   3.107 -0.2604  0.3302  0.2899
  612SOL     hw 2446   5.365   5.941   3.188 -0.9567  1.7738  0.2184
  612SOL     hw 2447   5.240   5.872   3.137 -0.9866  1.7192  0.3668
  612SOL     vw 2448   5.316   5.912   3.122 -0.4478  0.7041  0.2906
  613SOL     ow 2449   5.894   0.326   2.778 -0.8074 -0.6046 -0.0082
  613SOL     hw 2450   5.942   0.374   2.845 -1.4950  3.1777 -1.9376
  613SOL     hw 2451   5.955   0.320   2.704 -1.1789 -1.5656 -0.2465
  613SOL     vw 2452   5.908   0.332   2.777 -0.9470 -0.2324 -0.2942
  614SOL     ow 2453   1.390   6.498   0.120 -0.5014  0.5452 -0.0129
  614SOL     hw 2454   1.476   6.520   0.083 -0.9930  2.3188 -0.1743
  614SOL     hw 2455   1.409   6.476   0.212  0.4664 -1.9720 -0.7220
  614SOL     vw 2456   1.404   6.498   0.127 -0.4385  0.4470 -0.1278
  615SOL     ow 2457   0.564   4.103   6.002  0.3678  0.8826 -0.0232
  615SOL     hw 2458   0.484   4.100   5.949  0.0864 -0.3766  0.4327
  615SOL     hw 2459   0.534   4.105   6.092  0.7948 -1.4096  0.2344
  615SOL     vw 2460   0.550   4.103   6.007  0.3870  0.4141  0.0708
  616SOL     ow 2461   5.504   5.853   2.876 -0.5568 -0.0312 -0.3413
  616SOL     hw 2462   5.593   5.833   2.847 -1.2821 -0.0390 -2.8214
  616SOL     hw 2463   5.451   5.784   2.837 -1.6189 -0.4541  1.7092
  616SOL     vw 2464   5.509   5.841   2.867 -0.7923 -0.0880 -0.3982
  617SOL     ow 2465   3.395   0.603   3.562  0.0839  0.6110 -0.3893
  617SOL     hw 2466   3.372   0.605   3.469 -0.4662 -0.4387 -0.2923
  617SOL     hw 2467   3.491   0.597   3.562  0.1140  1.0049 -0.8784
  617SOL     vw 2468   3.405   0.603   3.550  0.0153  0.5245 -0.4411
  618SOL     ow 2469   0.283   3.267   3.496 -0.2939  0.5017 -1.1365
  618SOL     hw 2470   0.321   3.179   3.486  1.4982  1.1711 -0.5681
  618SOL     hw 2471   0.264   3.294   3.406  2.8683  1.0558 -1.7491
  618SOL     vw 2472   0.285   3.259   3.483  0.3598  0.6630 -1.1423
  619SOL     ow 2473   5.177   4.725   6.841  0.5187 -0.2991  0.4619
  619SOL     hw 2474   5.226   4.685   6.769  2.1860 -1.2302  2.0346
  619SOL     hw 2475   5.225   4.805   6.861 -0.0894  0.0899  0.3853
  619SOL     vw 2476   5.190   4.730   6.834  0.6583 -0.3705  0.6590
  620SOL     ow 2477   4.075   2.653   2.034  1.0947  0.3307  0.4280
  620SOL     hw 2478   4.083   2.568   1.990  3.1068 -0.0591  1.4358
  620SOL     hw 2479   4.163   2.689   2.034  0.2464  2.5824 -0.1873
  620SOL     vw 2480   4.087   2.647   2.029  1.2481  0.5765  0.4798
  621SOL     ow 2481   6.943   2.245   2.046  0.5730  0.6083 -0.5059
  621SOL     hw 2482   6.980   2.172   1.997  1.6186 -0.9725  2.4353
  621SOL     hw 2483   7.007   2.316   2.035  1.0481  0.1216 -0.9521
  621SOL     vw 2484   6.956   2.245   2.038  0.7737  0.3355 -0.1767
  622SOL     ow 2485   2.031   2.055   1.002  0.2818  0.3989 -0.7768
  622SOL     hw 2486   1.996   1.983   1.055 -0.8559  3.2889  2.8588
  622SOL     hw 2487   2.120   2.069   1.036 -0.1369  1.7275 -0.1312
  622SOL     vw 2488   2.038   2.047   1.014  0.0765  0.9553 -0.2119
  623SOL     ow 2489   1.874   4.750   3.081  0.1513  0.1211  0.5126
  623SOL     hw 2490   1.892   4.656   3.087 -1.1223 -0.1719  0.0253
  623SOL     hw 2491   1.901   4.785   3.165  1.0982 -0.5905  0.5259
  623SOL     vw 2492   1.880   4.742   3.093  0.1082 -0.0114  0.4501
  624SOL     ow 2493   4.154   3.115   4.558  0.1616  0.2249  0.2125
  624SOL     hw 2494   4.152   3.083   4.648  0.0010 -0.4241 -0.0169
  624SOL     hw 2495   4.241   3.154   4.548  0.1477  0.3802  0.6720
  624SOL     vw 2496   4.165   3.116   4.568  0.1383  0.1597  0.2429
  625SOL     ow 2497   4.563   5.633   0.759 -0.2587 -0.2597 -0.4732
  625SOL     hw 2498   4.515   5.717   0.757  0.7779  0.3363 -1.3926
  625SOL     hw 2499   4.501   5.570   0.724 -1.4598 -0.1304  1.2684
  625SOL     vw 2500   4.548   5.636   0.754 -0.2804 -0.1640 -0.3647
  626SOL     ow 2501   6.677   4.115   3.252  0.1151 -0.3732 -0.1377
  626SOL     hw 2502   6.587   4.130   3.225  0.7852  2.5561 -1.1008
  626SOL     hw 2503   6.730   4.160   3.186  2.2717 -1.2796  0.8623
  626SOL     vw 2504   6.672   4.123   3.240  0.4880 -0.1063 -0.1327
  627SOL     ow 2505   4.343   1.990   1.350  0.7303 -0.2598 -0.0884
  627SOL     hw 2506   4.314   2.002   1.440  0.5609 -1.6253  0.0553
  627SOL     hw 2507   4.349   2.079   1.315 -2.5904  0.1907  0.1813
  627SOL     vw 2508   4.340   2.003   1.357  0.2697 -0.3804 -0.0338
  628SOL     ow 2509   5.963   1.984   4.947 -0.4730  0.1954 -0.6012
  628SOL     hw 2510   5.872   1.964   4.971 -0.5393  1.3610  0.2141
  628SOL     hw 2511   6.016   1.926   5.002 -0.7100  0.2285 -0.3364
  628SOL     vw 2512   5.958   1.974   4.957 -0.5131  0.3536 -0.4585
  629SOL     ow 2513   6.910   3.179   6.951 -0.3366 -0.9556 -0.2083
  629SOL     hw 2514   7.000   3.187   6.981 -0.3346  1.2759 -0.6443
  629SOL     hw 2515   6.859   3.229   7.015 -1.3185 -2.3365  0.1342
  629SOL     vw 2516   6.915   3.187   6.963 -0.4659 -0.8433 -0.2205
  630SOL     ow 2517   0.554   3.192   3.896 -0.2898 -0.2000  0.5750
  630SOL     hw 2518   0.516   3.113   3.857 -0.9558 -0.0267  0.8767
  630SOL     hw 2519   0.522   3.193   3.985 -0.6864  0.6808  0.4270
  630SOL     vw 2520   0.545   3.182   3.902 -0.4300 -0.0609  0.5951
  631SOL     ow 2521   0.603   2.954   6.583  0.4575  0.2553  0.0444
  631SOL     hw 2522   0.593   2.959   6.678  3.2240  0.7449  0.4114
  631SOL     hw 2523   0.607   3.046   6.556  2.1998  0.1430 -0.1566
  631SOL     vw 2524   0.602   2.967   6.592  1.0524  0.3051  0.0663
  632SOL     ow 2525   3.014   5.204   4.774 -0.4655 -0.4247  0.1367
  632SOL     hw 2526   3.044   5.137   4.714  2.0734  0.7917 -0.0584
  632SOL     hw 2527   3.055   5.285   4.744 -3.3086  1.2919  0.4130
  632SOL     vw 2528   3.023   5.206   4.762 -0.5057 -0.0377  0.1473
  633SOL     ow 2529   3.898   4.031   0.944 -0.0341  0.3245 -0.3588
  633SOL     hw 2530   3.910   3.970   0.871 -0.3359 -1.3128  0.9146
  633SOL     hw 2531   3.919   3.980   1.022 -1.1888  1.5851  0.8228
  633SOL     vw 2532   3.902   4.016   0.944 -0.2263  0.2749 -0.0349
  634SOL     ow 2533   2.635   5.949   5.178  0.3993  0.2055  0.0312
  634SOL     hw 2534   2.714   5.956   5.232  0.2085  0.2639  0.3068
  634SOL     hw 2535   2.569   6.002   5.224  1.4665  4.3128 -2.6657
  634SOL     vw 2536   2.636   5.957   5.191  0.5149  0.7551 -0.2882
  635SOL     ow 2537   0.089   4.167   5.295 -0.5322  0.0104  0.2097
  635SOL     hw 2538   0.100   4.072   5.290 -0.8554 -0.0373  0.3251
  635SOL     hw 2539   0.020   4.179   5.361 -0.5645  0.3183  0.1203
  635SOL     vw 2540   0.081   4.156   5.303 -0.5791  0.0448  0.2134
  636SOL     ow 2541   3.185   0.444   3.037  0.0845 -0.2619 -0.2494
  636SOL     hw 2542   3.218   0.379   3.099 -1.8790 -1.0213  0.0855
  636SOL     hw 2543   3.224   0.420   2.953  2.9930  0.9416  0.6385
  636SOL     vw 2544   3.194   0.432   3.034  0.2091 -0.2033 -0.0880
  637SOL     ow 2545   0.040   4.812   3.833  0.4017  0.0902  0.5285
  637SOL     hw 2546  -0.023   4.866   3.786  0.7983 -0.5677 -0.8060
  637SOL     hw 2547   0.126   4.846   3.805  0.6430 -0.4330  0.6249
  637SOL     vw 2548   0.043   4.823   3.823  0.4859 -0.0656  0.3653
  638SOL     ow 2549   2.983   6.308   4.343 -0.1456  0.1243  0.4190
  638SOL     hw 2550   2.959   6.342   4.429 -0.1828 -3.0622  1.8338
  638SOL     hw 2551   2.909   6.251   4.319  1.3357 -1.7064 -0.0465
  638SOL     vw 2552   2.970   6.305   4.351  0.0449 -0.5374  0.5443
  639SOL     ow 2553   6.024   2.170   0.564 -0.1297 -0.5532 -0.3796
  639SOL     hw 2554   6.079   2.248   0.578 -0.9924  0.0311 -0.1516
  639SOL     hw 2555   5.972   2.192   0.487  0.2964 -1.3054 -0.8904
  639SOL     vw 2556   6.025   2.183   0.556 -0.1872 -0.5753 -0.4169
  640SOL     ow 2557   0.576   1.968   1.693  0.7074 -0.0612  0.1146
  640SOL     hw 2558   0.652   1.925   1.653  1.2188 -0.5584  1.5661
  640SOL     hw 2559   0.573   2.054   1.651  2.0216 -0.0694 -0.0494
  640SOL     vw 2560   0.585   1.974   1.682  0.9483 -0.1279  0.2844
  641SOL     ow 2561   0.363   4.654   6.681  0.0099 -0.6146  0.1900
  641SOL     hw 2562   0.338   4.584   6.620  1.3153  0.3226 -1.5432
  641SOL     hw 2563   0.438   4.619   6.728 -1.2348 -1.4863  1.6002
  641SOL     vw 2564   0.369   4.640   6.679  0.0179 -0.6058  0.1476
  642SOL     ow 2565   1.905   2.310   6.867 -0.4573  0.2066 -0.3820
  642SOL     hw 2566   1.851   2.236   6.895  0.7463  0.3520  2.7857
  642SOL     hw 2567   1.881   2.324   6.775 -2.5706 -2.4482 -0.3746
  642SOL     vw 2568   1.895   2.302   6.858 -0.5773 -0.1246  0.0370
  643SOL     ow 2569   6.154   4.697   1.473  0.2557  0.1950 -0.2745
  643SOL     hw 2570   6.164   4.612   1.430 -0.5422 -0.1001  0.1046
  643SOL     hw 2571   6.243   4.730   1.482  0.5474 -0.4357 -0.7506
  643SOL     vw 2572   6.167   4.690   1.468  0.1891  0.0730 -0.2873
  644SOL     ow 2573   1.870   6.881   3.862 -0.1107 -0.1243  0.6476
  644SOL     hw 2574   1.785   6.897   3.903  0.1503 -1.2080  1.6442
  644SOL     hw 2575   1.852   6.881   3.768 -0.5940  3.2340  0.6165
  644SOL     vw 2576   1.856   6.883   3.855 -0.1400  0.1757  0.7750
  645SOL     ow 2577   3.573   2.902   2.487  0.7154 -0.3082  0.3688
  645SOL     hw 2578   3.653   2.906   2.541  0.5490 -1.2433  0.7032
  645SOL     hw 2579   3.578   2.816   2.444 -0.9873 -1.1825  1.8042
  645SOL     vw 2580   3.584   2.891   2.488  0.4689 -0.5471  0.6022
  646SOL     ow 2581   2.107   4.396   1.004  0.7560 -0.1593  1.1392
  646SOL     hw 2582   2.154   4.326   1.050 -2.3959 -3.3103  0.1109
  646SOL     hw 2583   2.084   4.357   0.919 -1.8209  1.8328  0.8067
  646SOL     vw 2584   2.110   4.381   0.999  0.0001 -0.3121  0.9597
  647SOL     ow 2585   2.531   3.066   3.217  0.1555  0.0009  0.5162
  647SOL     hw 2586   2.602   3.111   3.170  1.2623 -1.8022  0.3599
  647SOL     hw 2587   2.491   3.134   3.271  0.1443  1.7076 -1.5155
  647SOL     vw 2588   2.535   3.081   3.218  0.3000 -0.0118  0.2276
  648SOL     ow 2589   2.698   2.844   3.307  0.3628  0.0942 -0.1327
  648SOL     hw 2590   2.735   2.848   3.219 -0.4935 -4.5712 -0.9598
  648SOL     hw 2591   2.774   2.829   3.364  0.5564 -2.7664 -0.9759
  648SOL     vw 2592   2.713   2.843   3.303  0.2754 -0.8987 -0.3531
  649SOL     ow 2593   2.565   6.109   0.404 -0.2923 -0.0258 -0.5391
  649SOL     hw 2594   2.515   6.034   0.437 -1.4219  0.5053 -0.9677
  649SOL     hw 2595   2.501   6.158   0.351  0.8859  0.3195 -1.6834
  649SOL     vw 2596   2.550   6.106   0.401 -0.2859  0.0899 -0.7466
  650SOL     ow 2597   5.942   6.847   2.433 -0.6590  0.0586  0.4550
  650SOL     hw 2598   5.879   6.883   2.495 -0.8282  0.8036 -0.1318
  650SOL     hw 2599   5.981   6.924   2.390 -1.0808 -0.4392 -0.8846
  650SOL     vw 2600   5.939   6.862   2.435 -0.7370  0.0911  0.2007
  651SOL     ow 2601   3.698   6.380   2.484 -0.0980  0.3128 -0.3717
  651SOL     hw 2602   3.788   6.411   2.500 -0.5428  0.1284  3.7267
  651SOL     hw 2603   3.705   6.285   2.489 -0.1485  0.0826 -3.3179
  651SOL     vw 2604   3.711   6.371   2.487 -0.1633  0.2580 -0.2197
  652SOL     ow 2605   4.884   2.865   3.428  0.0237 -0.2758 -0.5044
  652SOL     hw 2606   4.921   2.807   3.494 -1.8798 -1.3148 -0.2851
  652SOL     hw 2607   4.790   2.848   3.430 -0.1463 -0.2867 -3.4253
  652SOL     vw 2608   4.876   2.855   3.437 -0.2501 -0.4145 -0.8609
  653SOL     ow 2609   2.692   6.231   6.001 -0.0973  0.5817 -0.0308
  653SOL     hw 2610   2.749   6.164   6.038 -0.3623  1.5291  2.2711
  653SOL     hw 2611   2.728   6.314   6.033 -0.4205  1.4797 -1.8978
  653SOL     vw 2612   2.704   6.233   6.010 -0.1749  0.8252  0.0267
  654SOL     ow 2613   2.479   7.037   3.061 -0.7518 -0.9507 -0.4990
  654SOL     hw 2614   2.445   6.948   3.063 -2.2172 -0.4218  0.7797
  654SOL     hw 2615   2.463   7.071   3.150 -0.8802  0.7935 -1.1401
  654SOL     vw 2616   2.472   7.030   3.073 -0.9621 -0.6509 -0.4148
  655SOL     ow 2617   1.800   4.687   1.776 -0.2819 -0.1684  0.5042
  655SOL     hw 2618   1.843   4.601   1.777 -1.0120 -0.8058 -3.7192
  655SOL     hw 2619   1.747   4.687   1.856  3.4932 -1.3693  3.3365
  655SOL     vw 2620   1.798   4.675   1.787  0.1199 -0.4106  0.3206
  656SOL     ow 2621   4.933   4.137   5.726  0.0385 -0.1535  0.2231
  656SOL     hw 2622   4.919   4.069   5.792  0.6342 -0.4503  0.0492
  656SOL     hw 2623   4.948   4.089   5.645 -2.3950  0.2025 -0.5244
  656SOL     vw 2624   4.933   4.122   5.724 -0.2041 -0.1457  0.1013
  657SOL     ow 2625   5.793   2.482   3.232  0.2176  0.0395 -0.5497
  657SOL     hw 2626   5.769   2.400   3.189 -1.8817  0.2532  0.0781
  657SOL     hw 2627   5.778   2.550   3.167 -0.9928  0.1688 -0.1701
  657SOL     vw 2628   5.788   2.480   3.218 -0.2191  0.0846 -0.4168
  658SOL     ow 2629   0.652   3.337   3.632 -0.5186  0.4239  0.3657
  658SOL     hw 2630   0.681   3.423   3.602  0.8860  0.0591  0.6349
  658SOL     hw 2631   0.639   3.287   3.551 -1.9220  1.0482  0.1822
  658SOL     vw 2632   0.654   3.342   3.617 -0.5184  0.4582  0.3769
  659SOL     ow 2633   3.941   4.825   5.114 -0.1204 -0.8342 -0.5029
  659SOL     hw 2634   3.889   4.789   5.186  1.2728 -1.0334  0.4603
  659SOL     hw 2635   3.888   4.811   5.036 -1.3777 -1.2574  0.3934
  659SOL     vw 2636   3.927   4.819   5.114 -0.1026 -0.9162 -0.2575
  660SOL     ow 2637   3.856   5.535   0.596  0.0404 -0.3366 -0.3395
  660SOL     hw 2638   3.852   5.509   0.504 -2.4947 -0.1669 -0.3382
  660SOL     hw 2639   3.943   5.508   0.624  0.8721 -0.4097 -2.7675
  660SOL     vw 2640   3.867   5.528   0.588 -0.1843 -0.3240 -0.6596
  661SOL     ow 2641   4.544   3.498   0.847 -1.0310  0.4861 -0.2649
  661SOL     hw 2642   4.621   3.441   0.848 -1.2616  0.0774 -1.8635
  661SOL     hw 2643   4.560   3.562   0.916 -0.6675 -1.3768  1.4883
  661SOL     vw 2644   4.556   3.499   0.856 -1.0135  0.1863 -0.2445
  662SOL     ow 2645   1.436   0.376   2.914  1.4575  0.5930 -0.3033
  662SOL     hw 2646   1.413   0.466   2.891  1.4861  0.9811  1.0840
  662SOL     hw 2647   1.379   0.322   2.860  0.4371  1.4824 -0.1426
  662SOL     vw 2648   1.425   0.380   2.904  1.3267  0.7615 -0.0991
  663SOL     ow 2649   2.644   2.502   4.320  0.0495  0.1654 -0.0806
  663SOL     hw 2650   2.595   2.579   4.348 -1.3216  0.1167 -2.1459
  663SOL     hw 2651   2.675   2.463   4.401 -1.8724  1.1751  1.2262
  663SOL     vw 2652   2.642   2.507   4.334 -0.3849  0.2922 -0.1807
  664SOL     ow 2653   6.579   1.181   0.902  0.2461  0.3602 -0.1844
  664SOL     hw 2654   6.524   1.105   0.921  1.0359 -0.7495 -1.9673
  664SOL     hw 2655   6.647   1.179   0.969  0.6236 -0.9329 -0.5697
  664SOL     vw 2656   6.581   1.171   0.913  0.4003  0.0432 -0.4705
  665SOL     ow 2657   0.842   2.380   1.274  0.4959  0.0887  0.3421
  665SOL     hw 2658   0.936   2.363   1.263  0.7061  1.6132 -0.6987
  665SOL     hw 2659   0.836   2.476   1.278 -1.0187  0.0180  0.3356
  665SOL     vw 2660   0.854   2.391   1.273  0.3238  0.2806  0.2040
  666SOL     ow 2661   6.245   1.984   0.620  0.0973  0.1939  0.3575
  666SOL     hw 2662   6.325   1.955   0.664  0.4717  2.1515  1.0900
  666SOL     hw 2663   6.275   2.023   0.538 -0.1716  0.2084  0.2652
  666SOL     vw 2664   6.259   1.986   0.615  0.1111  0.4542  0.4419
  667SOL     ow 2665   3.395   6.161   1.963  0.5199  0.3021 -0.1576
  667SOL     hw 2666   3.490   6.177   1.964  0.9357 -1.8581  1.0865
  667SOL     hw 2667   3.360   6.232   1.909  3.1615 -0.3958 -3.1243
  667SOL     vw 2668   3.403   6.173   1.956  0.9232 -0.0749 -0.3849
  668SOL     ow 2669   2.625   0.618   0.215  0.2321 -0.2798 -0.8492
  668SOL     hw 2670   2.563   0.688   0.194  0.8326 -0.0675 -2.0087
  668SOL     hw 2671   2.668   0.648   0.295 -1.3490 -0.5848  0.1635
  668SOL     vw 2672   2.622   0.631   0.223  0.1028 -0.2920 -0.8686
  669SOL     ow 2673   6.788   3.179   5.490  0.2118  0.4810 -0.2508
  669SOL     hw 2674   6.724   3.109   5.479  0.7899 -0.0225 -0.5164
  669SOL     hw 2675   6.870   3.140   5.460  0.4093  1.5130 -1.0926
  669SOL     vw 2676   6.791   3.164   5.484  0.3142  0.5507 -0.3967
  670SOL     ow 2677   0.020   6.239   3.745 -0.3770  0.7261  0.3129
  670SOL     hw 2678  -0.006   6.150   3.722  2.0853  0.0631 -0.2074
  670SOL     hw 2679   0.026   6.285   3.661  2.3143  0.1538  0.1119
  670SOL     vw 2680   0.018   6.233   3.730  0.3030  0.5631  0.2178
  671SOL     ow 2681   0.407   2.910   5.807 -0.1001  0.1322 -0.3548
  671SOL     hw 2682   0.486   2.882   5.853  0.2007  0.8041 -0.4561
  671SOL     hw 2683   0.359   2.829   5.791 -1.0671 -0.0275  2.6319
  671SOL     vw 2684   0.411   2.896   5.811 -0.1880  0.1998  0.0257
  672SOL     ow 2685   0.930   1.043   3.853 -0.5133  0.7630  0.5321
  672SOL     hw 2686   0.960   0.959   3.888 -1.5693 -1.2888 -2.9661
  672SOL     hw 2687   1.010   1.095   3.843  0.4294 -0.5590  0.9655
  672SOL     vw 2688   0.945   1.039   3.856 -0.5282  0.3179  0.1277
  673SOL     ow 2689   1.012   6.412   5.026 -0.0913 -0.6227 -0.1358
  673SOL     hw 2690   1.089   6.445   4.980  0.2133 -1.9664 -0.6356
  673SOL     hw 2691   0.942   6.412   4.960 -0.1245 -0.8245 -0.1023
  673SOL     vw 2692   1.013   6.416   5.011 -0.0554 -0.8268 -0.1972
  674SOL     ow 2693   6.561   0.141   6.224 -0.3598 -0.1936 -0.1065
  674SOL     hw 2694   6.561   0.118   6.317  0.7985  1.0718  0.2326
  674SOL     hw 2695   6.577   0.235   6.222  1.3078 -0.4513 -1.6252
  674SOL     vw 2696   6.563   0.150   6.236  0.0129 -0.0607 -0.2623
  675SOL     ow 2697   6.588   0.415   6.183  0.0201 -0.1470  0.3422
  675SOL     hw 2698   6.539   0.459   6.114 -0.5491 -1.3761 -0.0633
  675SOL     hw 2699   6.592   0.480   6.254 -0.4475  0.6912 -0.3762
  675SOL     vw 2700   6.582   0.430   6.183 -0.1168 -0.1986  0.1941
  676SOL     ow 2701   4.618   0.587   2.154 -0.3764 -0.3561 -0.1256
  676SOL     hw 2702   4.601   0.662   2.211 -3.0230 -1.2860  0.4783
  676SOL     hw 2703   4.587   0.614   2.068 -1.3948 -0.7233  0.1069
  676SOL     vw 2704   4.612   0.600   2.150 -0.8597 -0.5273 -0.0154
  677SOL     ow 2705   6.063   1.048   0.280  0.3008 -0.1498  0.3619
  677SOL     hw 2706   6.140   1.046   0.224 -0.5218 -1.2915 -0.8127
  677SOL     hw 2707   6.089   1.098   0.357  2.1584 -0.4189 -0.0611
  677SOL     vw 2708   6.076   1.054   0.282  0.4373 -0.3360  0.1511
  678SOL     ow 2709   1.804   4.473   5.178  0.2944 -0.7602  0.3514
  678SOL     hw 2710   1.710   4.490   5.173  0.2078 -0.9781  1.0937
  678SOL     hw 2711   1.844   4.560   5.167  0.0266 -0.7013 -0.2188
  678SOL     vw 2712   1.797   4.487   5.176  0.2477 -0.7813  0.3741
  679SOL     ow 2713   4.419   6.126   6.281 -0.3928 -0.5874  0.6648
  679SOL     hw 2714   4.470   6.124   6.362 -0.0550 -0.3681  0.4582
  679SOL     hw 2715   4.482   6.149   6.213 -0.3587 -2.2790  0.0877
  679SOL     vw 2716   4.434   6.129   6.283 -0.3438 -0.7818  0.5615
  680SOL     ow 2717   3.405   6.119   6.692 -0.3722 -0.5371  0.9026
  680SOL     hw 2718   3.334   6.119   6.756 -1.3748  1.4107 -0.1634
  680SOL     hw 2719   3.376   6.176   6.622  1.4601 -1.1970 -0.4896
  680SOL     vw 2720   3.392   6.126   6.692 -0.2627 -0.3672  0.5784
  681SOL     ow 2721   5.882   0.886   0.162 -0.1655 -0.0056 -0.1070
  681SOL     hw 2722   5.849   0.933   0.086 -3.4607  0.0897  1.1828
  681SOL     hw 2723   5.948   0.944   0.200 -0.7744  1.4096 -1.1476
  681SOL     vw 2724   5.886   0.900   0.157 -0.6804  0.1937 -0.0741
  682SOL     ow 2725   4.668   4.592   1.444 -0.0424  0.1731 -0.2119
  682SOL     hw 2726   4.687   4.581   1.537 -0.2255  1.1046 -0.0501
  682SOL     hw 2727   4.586   4.545   1.431  1.0516 -1.7839 -0.3872
  682SOL     vw 2728   4.660   4.585   1.454  0.0780  0.0377 -0.2137
  683SOL     ow 2729   4.943   2.841   4.718  0.1471 -0.3366  0.7037
  683SOL     hw 2730   4.884   2.770   4.691 -0.0257 -0.9185  2.4378
  683SOL     hw 2731   4.895   2.921   4.698  0.8157 -0.5861 -2.3673
  683SOL     vw 2732   4.929   2.842   4.712  0.2129 -0.4463  0.5271
  684SOL     ow 2733   2.357   0.784   5.141  0.1120 -0.6390 -0.3618
  684SOL     hw 2734   2.359   0.823   5.054  1.9091  0.9254  0.3259
  684SOL     hw 2735   2.438   0.733   5.148  1.9303  2.1999  1.5665
  684SOL     vw 2736   2.368   0.783   5.131  0.5890 -0.0580 -0.0167
  685SOL     ow 2737   0.432   5.336   4.359  0.6698  0.0317 -0.6569
  685SOL     hw 2738   0.450   5.430   4.363  1.1235 -0.0363 -1.0457
  685SOL     hw 2739   0.448   5.313   4.268  0.1853 -0.3534 -0.6486
  685SOL     vw 2740   0.436   5.346   4.347  0.6657 -0.0279 -0.7069
  686SOL     ow 2741   2.311   5.375   3.045 -0.2190  0.2660 -0.2193
  686SOL     hw 2742   2.345   5.465   3.048  2.1741 -0.5733  0.1018
  686SOL     hw 2743   2.387   5.322   3.022 -1.4416 -1.7642  0.1946
  686SOL     vw 2744   2.326   5.380   3.042 -0.0646 -0.1128 -0.1224
  687SOL     ow 2745   3.501   4.349   7.108  0.3343  0.6789  0.0773
  687SOL     hw 2746   3.593   4.374   7.092  0.7182 -0.2281  0.7683
  687SOL     hw 2747   3.462   4.344   7.021  2.1269 -3.2995 -0.7157
  687SOL     vw 2748   3.508   4.351   7.094  0.6216  0.0343  0.0639
  688SOL     ow 2749   2.910   3.749   3.736  0.5730 -0.0616  0.0860
  688SOL     hw 2750   3.000   3.718   3.736  0.4594 -0.3909 -0.2984
  688SOL     hw 2751   2.884   3.749   3.644  0.8885  2.1199 -0.0447
  688SOL     vw 2752   2.918   3.745   3.724  0.5996  0.1827  0.0181
  689SOL     ow 2753   1.179   5.627   4.188  0.2622  0.5928 -0.2944
  689SOL     hw 2754   1.110   5.608   4.251  1.5355 -0.6501  0.8080
  689SOL     hw 2755   1.161   5.569   4.114  0.5070 -0.2689  0.3024
  689SOL     vw 2756   1.168   5.617   4.187  0.4625  0.3152 -0.0701
  690SOL     ow 2757   2.792   4.972   5.027 -0.0103  0.0794  0.0693
  690SOL     hw 2758   2.861   4.953   5.090 -0.4804 -0.8318  0.3202
  690SOL     hw 2759   2.779   4.891   4.979  0.7654  0.9276 -1.6668
  690SOL     vw 2760   2.799   4.959   5.029  0.0300  0.0708 -0.1266
  691SOL     ow 2761   5.786   1.741   1.976 -0.1782  0.4226  0.4912
  691SOL     hw 2762   5.857   1.774   1.921 -0.4677  0.1626 -0.0511
  691SOL     hw 2763   5.801   1.647   1.980 -1.7771  0.0240 -1.5568
  691SOL     vw 2764   5.797   1.733   1.969 -0.4275  0.3358  0.1494
  692SOL     ow 2765   5.416   0.744   3.686 -0.8582 -0.0303  0.3681
  692SOL     hw 2766   5.383   0.764   3.774 -1.6440  0.2298  0.0302
  692SOL     hw 2767   5.343   0.766   3.628  0.4075  2.0507 -0.5605
  692SOL     vw 2768   5.402   0.750   3.690 -0.7949  0.2785  0.2011
  693SOL     ow 2769   6.741   3.329   4.957 -0.6013  0.2455  0.2039
  693SOL     hw 2770   6.786   3.299   4.878  0.3687 -2.0439  1.5353
  693SOL     hw 2771   6.752   3.424   4.956 -1.0545  0.3760 -2.6249
  693SOL     vw 2772   6.748   3.337   4.946 -0.5331 -0.0393  0.0062
  694SOL     ow 2773   4.250   6.968   4.301 -0.3413 -0.0631  0.2714
  694SOL     hw 2774   4.212   6.935   4.383 -1.0585  0.4164  0.1477
  694SOL     hw 2775   4.207   6.915   4.233 -0.3862  0.1121  0.1623
  694SOL     vw 2776   4.239   6.956   4.303 -0.4418  0.0231  0.2406
  695SOL     ow 2777   2.486   1.038   5.697 -0.6677 -0.3618  0.2217
  695SOL     hw 2778   2.504   1.059   5.606 -0.6327  0.7799  0.4813
  695SOL     hw 2779   2.571   1.042   5.740 -0.5750 -1.5743  0.1944
  695SOL     vw 2780   2.500   1.041   5.691 -0.6509 -0.3711  0.2522
  696SOL     ow 2781   5.196   1.268   0.183 -0.2385  0.0378 -0.0837
  696SOL     hw 2782   5.142   1.346   0.165 -0.5071  0.2714  1.5948
  696SOL     hw 2783   5.152   1.198   0.135 -1.8576  0.3041  0.9388
  696SOL     vw 2784   5.183   1.269   0.174 -0.4876  0.1038  0.2727
  697SOL     ow 2785   5.353   1.513   1.741 -0.3999  0.2140  0.3030
  697SOL     hw 2786   5.300   1.541   1.816  0.8134  0.9390  0.9150
  697SOL     hw 2787   5.367   1.419   1.757 -0.8025  0.1940  0.5697
  697SOL     vw 2788   5.348   1.504   1.753 -0.2930  0.3070  0.4190
  698SOL     ow 2789   5.046   2.643   4.102 -0.1592 -0.4116  0.1771
  698SOL     hw 2790   5.125   2.672   4.055  0.0048 -2.0122 -0.6212
  698SOL     hw 2791   4.996   2.723   4.117  2.4685  0.9897  2.4470
  698SOL     vw 2792   5.050   2.658   4.098  0.2091 -0.4379  0.3710
  699SOL     ow 2793   1.460   4.805   5.486 -0.5018 -0.2318  0.3451
  699SOL     hw 2794   1.407   4.728   5.463 -2.8463  1.6019 -0.9154
  699SOL     hw 2795   1.401   4.879   5.472  2.2034  1.9597 -0.3970
  699SOL     vw 2796   1.445   4.805   5.481 -0.4542  0.2992  0.0811
  700SOL     ow 2797   4.509   6.965   4.138 -0.2179  0.5087 -0.5002
  700SOL     hw 2798   4.498   7.038   4.078 -3.2722  2.0946  1.7251
  700SOL     hw 2799   4.466   6.891   4.095 -0.3141  0.9855 -1.2254
  700SOL     vw 2800   4.502   6.965   4.124 -0.6335  0.7808 -0.3021
  701SOL     ow 2801   6.595   4.935   5.246 -0.1229  0.1697  0.4604
  701SOL     hw 2802   6.519   4.993   5.238 -1.0335 -0.6728  2.3317
  701SOL     hw 2803   6.566   4.852   5.209 -0.1100 -0.1353  1.1178
  701SOL     vw 2804   6.581   4.932   5.240 -0.2413  0.0184  0.7939
  702SOL     ow 2805   0.872   2.646   1.312 -0.3927  0.2265  0.0819
  702SOL     hw 2806   0.812   2.710   1.350  1.2501  1.9851 -0.0931
  702SOL     hw 2807   0.938   2.700   1.267  1.4421 -1.5656  0.4906
  702SOL     vw 2808   0.873   2.662   1.311  0.0661  0.2221  0.1127
  703SOL     ow 2809   3.413   4.706   3.096  0.1601 -0.0486  0.1143
  703SOL     hw 2810   3.486   4.705   3.035 -0.2768  1.1633 -0.4780
  703SOL     hw 2811   3.343   4.752   3.049  0.1713  1.9596  1.8935
  703SOL     vw 2812   3.413   4.712   3.082  0.1040  0.3762  0.2710
  704SOL     ow 2813   0.628   5.790   2.018 -0.5476  0.2578  0.2656
  704SOL     hw 2814   0.644   5.722   2.084  0.5344 -1.3966 -1.5776
  704SOL     hw 2815   0.533   5.790   2.007 -1.0884  2.3274  3.4523
  704SOL     vw 2816   0.618   5.781   2.025 -0.4762  0.3126  0.4427
  705SOL     ow 2817   6.878   7.102   5.114 -0.3157 -0.0748 -0.1316
  705SOL     hw 2818   6.844   7.125   5.027 -0.1784  3.0619  0.5114
  705SOL     hw 2819   6.972   7.118   5.107 -0.0144 -1.6371  0.1158
  705SOL     vw 2820   6.886   7.107   5.101 -0.2577  0.1330 -0.0141
  706SOL     ow 2821   4.781   4.927   6.866 -0.2064  0.5419  0.0221
  706SOL     hw 2822   4.836   4.875   6.924 -0.4860 -2.0398 -1.8483
  706SOL     hw 2823   4.692   4.911   6.898 -0.2618  0.1537 -0.3159
  706SOL     vw 2824   4.776   4.918   6.878 -0.2508  0.1500 -0.2694
  707SOL     ow 2825   3.296   4.353   1.012 -0.8396 -0.1938 -0.3294
  707SOL     hw 2826   3.260   4.421   1.070 -2.1039 -0.8484 -0.3131
  707SOL     hw 2827   3.383   4.386   0.988 -1.8984  2.0953 -1.3834
  707SOL     vw 2828   3.303   4.367   1.017 -1.1461  0.0219 -0.4663
  708SOL     ow 2829   5.073   6.516   6.339  0.0193 -0.2016  0.5272
  708SOL     hw 2830   5.093   6.606   6.312 -1.3892  0.4108  1.3935
  708SOL     hw 2831   5.085   6.517   6.434  1.8710 -1.4830  0.3623
  708SOL     vw 2832   5.078   6.528   6.348  0.0777 -0.2902  0.6196
  709SOL     ow 2833   2.571   2.755   3.780 -0.0316 -0.3396 -0.2024
  709SOL     hw 2834   2.608   2.673   3.748 -1.5896 -1.1754  0.0382
  709SOL     hw 2835   2.644   2.817   3.777  0.7546 -1.2728 -2.0017
  709SOL     vw 2836   2.585   2.752   3.776 -0.1334 -0.5730 -0.4081
  710SOL     ow 2837   1.175   4.124   4.116 -0.0035 -0.0402  0.4943
  710SOL     hw 2838   1.239   4.064   4.078 -1.3034 -1.9565  1.1694
  710SOL     hw 2839   1.221   4.165   4.190  1.7622  1.9175 -1.5349
  710SOL     vw 2840   1.190   4.122   4.121  0.0579 -0.0348  0.3157
  711SOL     ow 2841   3.436   4.476   3.247 -0.4000 -0.5827 -0.3446
  711SOL     hw 2842   3.428   4.423   3.168 -2.8560  0.9112 -1.2057
  711SOL     hw 2843   3.415   4.416   3.318 -4.0822 -0.7653 -1.3600
  711SOL     vw 2844   3.432   4.461   3.246 -1.2099 -0.4096 -0.5924
  712SOL     ow 2845   7.117   6.701   3.282 -0.3289 -0.1049  0.3800
  712SOL     hw 2846   7.186   6.676   3.344  1.1670  1.3094 -0.6211
  712SOL     hw 2847   7.079   6.781   3.319 -3.4309 -2.2458  2.3255
  712SOL     vw 2848   7.121   6.708   3.295 -0.5408 -0.2005  0.5047
  713SOL     ow 2849   6.236   6.003   2.403 -0.7654  0.1877  0.5168
  713SOL     hw 2850   6.271   6.080   2.447  0.6157  0.1023 -0.3800
  713SOL     hw 2851   6.259   5.930   2.460  0.2390  0.1753  0.1213
  713SOL     vw 2852   6.244   6.003   2.416 -0.4504  0.1745  0.3464
  714SOL     ow 2853   3.294   6.412   7.045  0.1970  0.2905  0.7575
  714SOL     hw 2854   3.272   6.319   7.052  0.1078  0.3769  1.9498
  714SOL     hw 2855   3.378   6.421   7.090  0.9501  0.5635 -0.6395
  714SOL     vw 2856   3.302   6.401   7.052  0.2846  0.3381  0.7303
  715SOL     ow 2857   2.063   0.706   5.072  0.3976 -0.3965  0.0687
  715SOL     hw 2858   1.983   0.656   5.090 -0.0247  0.6768  1.3534
  715SOL     hw 2859   2.047   0.748   4.988  0.1419 -1.1889 -0.2923
  715SOL     vw 2860   2.050   0.705   5.064  0.3080 -0.3594  0.1905
  716SOL     ow 2861   1.529   3.459   3.018  0.4532  0.0452  0.2810
  716SOL     hw 2862   1.612   3.439   2.975  0.7674  0.4977  0.6641
  716SOL     hw 2863   1.471   3.388   2.992  0.9690 -0.2935  0.0305
  716SOL     vw 2864   1.532   3.447   3.009  0.5627  0.0601  0.2986
  717SOL     ow 2865   0.943   0.156   3.191 -0.4296 -0.5341 -0.2795
  717SOL     hw 2866   1.007   0.087   3.209 -0.2390 -0.4446 -0.6152
  717SOL     hw 2867   0.990   0.220   3.138 -0.8510 -0.5713 -0.7122
  717SOL     vw 2868   0.958   0.155   3.186 -0.4600 -0.5272 -0.3810
  718SOL     ow 2869   7.036   4.790   0.337 -0.4474 -0.3703  0.6936
  718SOL     hw 2870   7.123   4.806   0.374 -0.0178 -1.3926  0.1611
  718SOL     hw 2871   6.994   4.731   0.400 -0.8018  0.2191  1.0108
  718SOL     vw 2872   7.042   4.784   0.351 -0.4373 -0.4275  0.6652
  719SOL     ow 2873   6.344   0.219   0.129 -0.2575 -0.4804  0.2877
  719SOL     hw 2874   6.309   0.184   0.047 -0.2515  1.7674 -0.7544
  719SOL     hw 2875   6.285   0.186   0.197 -4.8388  3.1911 -1.3683
  719SOL     vw 2876   6.331   0.210   0.127 -0.8614  0.3006 -0.0683
  720SOL     ow 2877   4.186   1.553   2.058 -1.0856  0.1412  0.5678
  720SOL     hw 2878   4.144   1.582   1.978  0.9918 -0.2724 -0.7482
  720SOL     hw 2879   4.175   1.625   2.119 -2.4392  0.5862 -0.1633
  720SOL     vw 2880   4.179   1.566   2.056 -0.9899  0.1453  0.2978
  721SOL     ow 2881   2.090   3.549   2.162 -0.0068  0.0262 -0.1334
  721SOL     hw 2882   2.167   3.606   2.163  0.5390 -0.6885 -0.6569
  721SOL     hw 2883   2.126   3.460   2.158 -0.8538 -0.2647 -3.1858
  721SOL     vw 2884   2.105   3.545   2.162 -0.0465 -0.1065 -0.6052
  722SOL     ow 2885   3.729   2.615   0.891 -0.3136  0.6098  0.1977
  722SOL     hw 2886   3.771   2.619   0.976 -0.8591  0.3957  0.4796
  722SOL     hw 2887   3.670   2.690   0.889 -1.2878 -0.1346  0.5441
  722SOL     vw 2888   3.727   2.625   0.902 -0.5141  0.4833  0.2806
  723SOL     ow 2889   4.333   3.275   0.710  0.6675 -0.0022  0.2781
  723SOL     hw 2890   4.339   3.248   0.802 -2.3183 -1.7754  0.1139
  723SOL     hw 2891   4.371   3.202   0.662 -4.0576 -2.6981  0.0003
  723SOL     vw 2892   4.339   3.261   0.716 -0.3500 -0.5919  0.2198
  724SOL     ow 2893   5.450   2.639   1.530  0.0204 -0.0077  0.0703
  724SOL     hw 2894   5.512   2.680   1.591  0.1598  0.2154 -0.2168
  724SOL     hw 2895   5.403   2.575   1.583  0.1332  0.1905  0.4172
  724SOL     vw 2896   5.452   2.636   1.545  0.0539  0.0478  0.0782
  725SOL     ow 2897   1.124   4.646   3.401  0.2797  0.1401 -0.0055
  725SOL     hw 2898   1.137   4.687   3.315  0.6364  3.4411  1.4700
  725SOL     hw 2899   1.209   4.607   3.422  0.0618 -1.0945 -1.2862
  725SOL     vw 2900   1.137   4.647   3.392  0.2980  0.4127  0.0203
  726SOL     ow 2901   6.690   2.196   5.330 -0.2299 -0.1804 -0.2752
  726SOL     hw 2902   6.782   2.209   5.355 -0.4405 -0.8203  0.9207
  726SOL     hw 2903   6.652   2.284   5.332 -0.2526 -0.1724  1.8949
  726SOL     vw 2904   6.697   2.209   5.334 -0.2611 -0.2638  0.1688
  727SOL     ow 2905   4.872   1.295   4.099 -0.2272  0.1560 -0.3172
  727SOL     hw 2906   4.959   1.274   4.133 -0.4240 -0.6097 -0.2611
  727SOL     hw 2907   4.842   1.368   4.153 -0.3374 -0.7341  0.8734
  727SOL     vw 2908   4.880   1.301   4.111 -0.2675 -0.0624 -0.1526
  728SOL     ow 2909   3.301   6.503   3.996  0.0324 -0.0997  0.3631
  728SOL     hw 2910   3.360   6.567   3.956  2.6679 -2.2009  0.5679
  728SOL     hw 2911   3.327   6.419   3.957 -1.8929 -1.3360  1.5718
  728SOL     vw 2912   3.312   6.500   3.986  0.1260 -0.5403  0.5496
  729SOL     ow 2913   1.858   2.407   7.124  0.1220 -0.7527  0.9470
  729SOL     hw 2914   1.895   2.493   7.106  0.1462 -0.7651  0.9375
  729SOL     hw 2915   1.890   2.351   7.053 -1.4369 -0.3406 -0.1258
  729SOL     vw 2916   1.867   2.411   7.112 -0.0806 -0.6999  0.8042
  730SOL     ow 2917   3.302   7.017   4.785 -0.2405  0.0459 -0.5649
  730SOL     hw 2918   3.359   7.030   4.710 -1.0175  2.3901 -0.8249
  730SOL     hw 2919   3.216   7.000   4.747 -0.2385 -0.8534 -0.1843
  730SOL     vw 2920   3.298   7.017   4.770 -0.3427  0.2365 -0.5491
  731SOL     ow 2921   0.478   1.367   1.374 -0.0531  0.0939  0.2278
  731SOL     hw 2922   0.487   1.321   1.290 -4.0150  0.2158 -0.4751
  731SOL     hw 2923   0.541   1.324   1.432  1.5651 -1.2115 -2.3068
  731SOL     vw 2924   0.488   1.355   1.370 -0.3623 -0.0622 -0.1993
  732SOL     ow 2925   5.713   1.817   4.968  0.3798 -0.2412  0.4725
  732SOL     hw 2926   5.640   1.757   4.951 -0.7802  0.9787  0.9528
  732SOL     hw 2927   5.747   1.790   5.053 -0.5319  0.1221  0.9727
  732SOL     vw 2928   5.708   1.806   4.977  0.1068 -0.0322  0.6020
  733SOL     ow 2929   6.487   1.611   5.545 -0.3890 -0.0250 -0.3701
  733SOL     hw 2930   6.577   1.593   5.572 -0.5186 -2.8264 -1.4836
  733SOL     hw 2931   6.496   1.647   5.456 -0.3332  1.3432  0.1682
  733SOL     vw 2932   6.500   1.614   5.537 -0.3984 -0.2140 -0.4461
  734SOL     ow 2933   0.946   2.619   5.328  0.1523  0.2124  0.4427
  734SOL     hw 2934   0.973   2.707   5.356  3.0398 -0.9797  1.7028
  734SOL     hw 2935   0.911   2.578   5.407 -0.2525 -0.1472  0.0869
  734SOL     vw 2936   0.945   2.625   5.342  0.4798  0.0075  0.5620
  735SOL     ow 2937   4.035   2.627   1.588  0.0475  0.5850  0.5364
  735SOL     hw 2938   3.958   2.645   1.533  0.3743 -0.4698 -0.3008
  735SOL     hw 2939   4.037   2.532   1.597  1.3962  0.5758  0.3250
  735SOL     vw 2940   4.025   2.617   1.582  0.2685  0.4445  0.3982
  736SOL     ow 2941   6.622   1.104   6.841  0.7660  0.0519  0.6438
  736SOL     hw 2942   6.570   1.105   6.761  2.6838 -1.5592 -0.7269
  736SOL     hw 2943   6.629   1.196   6.866 -2.8723  0.3287  1.1122
  736SOL     vw 2944   6.616   1.116   6.834  0.5391 -0.1241  0.5248
  737SOL     ow 2945   3.820   1.477   4.184 -0.0616  0.2178  0.1398
  737SOL     hw 2946   3.835   1.397   4.134  2.0874  0.2100  0.7015
  737SOL     hw 2947   3.845   1.548   4.126 -0.6432  0.4226  0.1245
  737SOL     vw 2948   3.825   1.475   4.170  0.1451  0.2437  0.2120
  738SOL     ow 2949   0.584   2.317   1.183 -0.2815  0.7284 -0.0110
  738SOL     hw 2950   0.561   2.243   1.239 -1.8831  1.0309 -0.2302
  738SOL     hw 2951   0.671   2.344   1.214  0.5550 -1.4943 -0.2305
  738SOL     vw 2952   0.593   2.311   1.195 -0.3825  0.4749 -0.0689
  739SOL     ow 2953   3.088   0.702   3.169  0.6658 -0.3464  0.3089
  739SOL     hw 2954   3.030   0.722   3.242  0.7905 -1.6448  0.7835
  739SOL     hw 2955   3.155   0.771   3.172  0.1782  0.1029  0.8818
  739SOL     vw 2956   3.089   0.714   3.179  0.6180 -0.4584  0.4469
  740SOL     ow 2957   4.844   0.556   6.872 -0.5989 -0.5359 -0.3387
  740SOL     hw 2958   4.898   0.478   6.881 -1.9014 -1.4460  0.0017
  740SOL     hw 2959   4.866   0.609   6.948  0.8438 -0.1888 -0.9619
  740SOL     vw 2960   4.854   0.553   6.883 -0.5805 -0.6102 -0.3757
  741SOL     ow 2961   5.676   5.098   6.352 -0.1566 -0.3737 -0.9176
  741SOL     hw 2962   5.749   5.155   6.327 -1.2084  0.1929 -2.9832
  741SOL     hw 2963   5.641   5.137   6.432  0.3624  0.7619 -1.2135
  741SOL     vw 2964   5.681   5.111   6.359 -0.2267 -0.1493 -1.2290
  742SOL     ow 2965   0.847   0.110   5.226 -0.7665 -0.2266 -0.4075
  742SOL     hw 2966   0.800   0.095   5.308 -0.2530  0.9212  0.1151
  742SOL     hw 2967   0.839   0.204   5.210  0.2255 -0.2281 -0.9901
  742SOL     vw 2968   0.840   0.120   5.235 -0.5679 -0.0754 -0.4151
  743SOL     ow 2969   5.183   1.203   0.898  0.0623 -0.4094 -1.1090
  743SOL     hw 2970   5.141   1.119   0.918  0.8380 -0.2072  1.8586
  743SOL     hw 2971   5.136   1.266   0.953 -0.0037  1.0052 -2.7101
  743SOL     vw 2972   5.171   1.200   0.908  0.1559 -0.1961 -0.9287
  744SOL     ow 2973   5.387   3.120   1.293 -0.0840  0.3691 -0.6460
  744SOL     hw 2974   5.415   3.042   1.244 -0.3650 -0.0588 -0.1396
  744SOL     hw 2975   5.334   3.170   1.231 -2.7234 -1.4765 -0.0720
  744SOL     vw 2976   5.384   3.116   1.278 -0.4690  0.0691 -0.5034
  745SOL     ow 2977   0.031   0.410   3.687 -0.3511 -0.9733 -0.7829
  745SOL     hw 2978  -0.030   0.483   3.680 -1.5082 -1.8777 -0.4550
  745SOL     hw 2979  -0.022   0.332   3.672  0.5968 -1.8344  0.0928
  745SOL     vw 2980   0.016   0.409   3.684 -0.3787 -1.2063 -0.6242
  746SOL     ow 2981   7.052   2.511   1.400  0.0327  0.8545  0.3677
  746SOL     hw 2982   7.104   2.552   1.331 -1.0341  1.3445 -0.1611
  746SOL     hw 2983   7.049   2.418   1.376  0.8166  0.7789  0.5202
  746SOL     vw 2984   7.058   2.504   1.388 -0.0045  0.9092  0.3182
  747SOL     ow 2985   5.891   5.230   1.190 -0.7277 -0.1262 -0.0389
  747SOL     hw 2986   5.884   5.230   1.095  1.5965 -0.2205 -0.2666
  747SOL     hw 2987   5.828   5.164   1.219 -2.5596  0.9604 -1.3641
  747SOL     vw 2988   5.882   5.221   1.181 -0.6626  0.0045 -0.2438
  748SOL     ow 2989   1.141   4.427   5.223 -0.5580  0.1143 -0.1435
  748SOL     hw 2990   1.205   4.493   5.249  0.3628 -0.7728 -0.0924
  748SOL     hw 2991   1.146   4.425   5.127  2.0247 -2.2877 -0.0953
  748SOL     vw 2992   1.150   4.436   5.214 -0.0957 -0.3197 -0.1302
  749SOL     ow 2993   2.266   0.923   5.904 -0.1371 -0.2836 -0.4533
  749SOL     hw 2994   2.309   0.842   5.929 -1.8446 -0.3040  3.0118
  749SOL     hw 2995   2.173   0.907   5.920 -0.5971  2.1513 -0.2960
  749SOL     vw 2996   2.259   0.910   5.909 -0.4230  0.0349  0.0248
  750SOL     ow 2997   6.585   4.388   4.821 -1.0628  0.5690  1.1668
  750SOL     hw 2998   6.651   4.330   4.785 -0.3529  2.5766 -1.0031
  750SOL     hw 2999   6.624   4.475   4.817 -2.0592  1.2914  4.3405
  750SOL     vw 3000   6.599   4.392   4.815 -1.1005  0.9294  1.2991
  751SOL     ow 3001   5.292   0.858   3.902 -0.1609 -0.0155  0.2606
  751SOL     hw 3002   5.214   0.803   3.909 -0.2868 -0.2764 -2.3852
  751SOL     hw 3003   5.309   0.887   3.992 -1.1695 -2.8328  1.4650
  751SOL     vw 3004   5.284   0.855   3.915 -0.3102 -0.4216  0.0706
  752SOL     ow 3005   1.694   0.985   4.677  0.2372 -0.1025 -0.0430
  752SOL     hw 3006   1.786   0.970   4.656  0.4143  1.5326 -0.5735
  752SOL     hw 3007   1.663   0.901   4.712  2.0580 -0.5282  0.6373
  752SOL     vw 3008   1.702   0.972   4.679  0.5007  0.0571 -0.0231
  753SOL     ow 3009   3.034   6.641   1.814  0.3323 -0.0176  0.0858
  753SOL     hw 3010   3.026   6.579   1.885  0.8309  0.9001  0.9673
  753SOL     hw 3011   3.099   6.705   1.844 -1.7576  2.2242  0.2062
  753SOL     vw 3012   3.041   6.641   1.827  0.1223  0.3994  0.2180
  754SOL     ow 3013   3.004   1.514   2.476  0.1728  0.6714  0.2303
  754SOL     hw 3014   2.963   1.483   2.395 -0.3357  0.2736  0.6396
  754SOL     hw 3015   3.092   1.542   2.448 -0.4671  1.8519 -0.7113
  754SOL     vw 3016   3.010   1.513   2.461  0.0213  0.7746  0.1601
  755SOL     ow 3017   3.546   4.429   6.279  0.0003  0.4563 -0.6181
  755SOL     hw 3018   3.507   4.503   6.326 -0.5619 -0.2581  0.0596
  755SOL     hw 3019   3.638   4.454   6.267 -0.1351  1.1697 -0.2113
  755SOL     vw 3020   3.553   4.442   6.283 -0.0918  0.4561 -0.4749
  756SOL     ow 3021   6.690   3.424   0.175 -1.2055 -0.2987 -0.1256
  756SOL     hw 3022   6.738   3.357   0.225 -2.1304 -0.6933  0.2618
  756SOL     hw 3023   6.744   3.439   0.097  1.6671  2.2415  2.1179
  756SOL     vw 3024   6.703   3.417   0.171 -0.9484 -0.0157  0.2215
  757SOL     ow 3025   3.915   0.563   4.547  0.4421 -0.2542 -0.2269
  757SOL     hw 3026   3.961   0.518   4.618  0.5318 -1.1984 -0.8677
  757SOL     hw 3027   3.868   0.494   4.501 -0.7690  0.5444 -0.2401
  757SOL     vw 3028   3.915   0.548   4.551  0.2942 -0.2734 -0.3133
  758SOL     ow 3029   4.087   0.315   3.128 -0.7704  0.2472 -0.0831
  758SOL     hw 3030   4.144   0.238   3.124 -0.7975  0.0435  2.0151
  758SOL     hw 3031   3.999   0.280   3.115 -1.0514 -0.5748  3.0699
  758SOL     vw 3032   4.083   0.300   3.126 -0.8109  0.1119  0.6098
  759SOL     ow 3033   6.151   2.815   6.331 -0.2087 -0.1610 -0.1809
  759SOL     hw 3034   6.148   2.832   6.425 -0.8509 -0.5775 -0.1226
  759SOL     hw 3035   6.182   2.897   6.293  1.9026 -0.5631  0.5475
  759SOL     vw 3036   6.155   2.828   6.339 -0.0148 -0.2691 -0.0770
  760SOL     ow 3037   3.789   0.806   2.094 -0.3657  0.1639  0.3066
  760SOL     hw 3038   3.714   0.765   2.050  0.1047 -0.2556 -0.1138
  760SOL     hw 3039   3.751   0.846   2.172 -0.8368 -1.1198  0.7635
  760SOL     vw 3040   3.774   0.806   2.098 -0.3657 -0.0608  0.3115
  761SOL     ow 3041   4.388   6.239   0.935  0.3458 -0.2579  0.5788
  761SOL     hw 3042   4.324   6.190   0.883  1.0216 -0.8787  0.3143
  761SOL     hw 3043   4.463   6.180   0.943  2.2029  1.5562 -1.8264
  761SOL     vw 3044   4.389   6.225   0.929  0.6800 -0.1006  0.2266
  762SOL     ow 3045   7.111   3.068   1.885  0.3517 -0.0477  0.0726
  762SOL     hw 3046   7.119   3.107   1.798 -1.5396 -1.0147 -0.6024
  762SOL     hw 3047   7.112   2.973   1.869  0.9882 -0.2539  1.2328
  762SOL     vw 3048   7.112   3.060   1.871  0.1864 -0.2027  0.1367
  763SOL     ow 3049   4.354   5.412   3.363  0.1243 -0.9630 -0.2630
  763SOL     hw 3050   4.283   5.416   3.299 -1.3204  2.3217  1.3106
  763SOL     hw 3051   4.313   5.378   3.443  0.4358  0.2422  0.4461
  763SOL     vw 3052   4.339   5.408   3.365 -0.0253 -0.3707  0.0380
  764SOL     ow 3053   7.124   3.946   1.179 -0.8016 -0.0714 -0.3668
  764SOL     hw 3054   7.140   3.976   1.090 -0.4350  0.5533 -0.0985
  764SOL     hw 3055   7.029   3.936   1.184 -0.9705  1.3512 -0.3831
  764SOL     vw 3056   7.113   3.949   1.168 -0.7756  0.1987 -0.3336
  765SOL     ow 3057   0.003   0.910   3.000  0.1095  0.5268  0.2722
  765SOL     hw 3058  -0.042   0.907   3.085 -0.2197  1.0035  0.1226
  765SOL     hw 3059  -0.068   0.920   2.937  0.3783  0.5169 -0.0304
  765SOL     vw 3060  -0.013   0.911   3.003  0.1015  0.5884  0.2126
  766SOL     ow 3061   3.903   1.491   5.264 -0.0443 -0.6698 -0.0972
  766SOL     hw 3062   3.816   1.492   5.224 -0.2114  0.5063  0.2440
  766SOL     hw 3063   3.957   1.546   5.207  0.6931 -1.9921 -0.7205
  766SOL     vw 3064   3.899   1.499   5.251  0.0310 -0.6891 -0.1345
  767SOL     ow 3065   4.581   1.334   0.637  0.0561  0.3506  0.7246
  767SOL     hw 3066   4.650   1.324   0.702 -1.0669 -3.1680  1.6085
  767SOL     hw 3067   4.626   1.362   0.557  2.0891  0.6174  1.9175
  767SOL     vw 3068   4.596   1.337   0.635  0.1760 -0.0784  0.9986
  768SOL     ow 3069   0.446   1.740   3.262 -0.0660  0.7644  0.6888
  768SOL     hw 3070   0.471   1.793   3.187  0.4933  2.5605  2.0659
  768SOL     hw 3071   0.365   1.780   3.294 -0.5047 -0.2147  0.8341
  768SOL     vw 3072   0.439   1.752   3.257 -0.0501  0.8722  0.8898
  769SOL     ow 3073   2.846   2.442   6.539 -0.5148  0.2727  0.6059
  769SOL     hw 3074   2.868   2.456   6.631 -1.4616 -1.3241  1.1235
  769SOL     hw 3075   2.765   2.490   6.526 -1.9752 -1.7796  1.4740
  769SOL     vw 3076   2.838   2.450   6.549 -0.8324 -0.2086  0.7887
  770SOL     ow 3077   5.517   0.424   6.177 -0.8132  0.4447  0.0404
  770SOL     hw 3078   5.564   0.342   6.159 -3.1568 -0.7190 -1.1285
  770SOL     hw 3079   5.455   0.401   6.247 -3.1040  0.5081 -1.8626
  770SOL     vw 3080   5.515   0.410   6.184 -1.4246  0.2996 -0.3645
  771SOL     ow 3081   2.921   3.447   0.035  0.3499  0.0813  1.2456
  771SOL     hw 3082   2.867   3.373   0.008 -1.7203  1.3449  1.7239
  771SOL     hw 3083   2.884   3.475   0.119  1.1193  1.6108  1.1216
  771SOL     vw 3084   2.909   3.441   0.042  0.1783  0.4499  1.2922
  772SOL     ow 3085   2.314   3.416   3.025  0.3434 -0.1293 -0.7642
  772SOL     hw 3086   2.388   3.396   3.082 -0.0838  2.1952  0.7575
  772SOL     hw 3087   2.353   3.440   2.942  1.3751  1.3216  0.0943
  772SOL     vw 3088   2.329   3.417   3.022  0.4232  0.3688 -0.4501
  773SOL     ow 3089   0.369   6.436   2.795  0.4864  0.7139  0.1903
  773SOL     hw 3090   0.421   6.511   2.823  2.5324 -0.7649  0.5555
  773SOL     hw 3091   0.411   6.406   2.714  0.3698 -0.6580  0.6145
  773SOL     vw 3092   0.381   6.442   2.788  0.7409  0.3378  0.2944
  774SOL     ow 3093   1.756   3.500   2.116 -0.0541 -0.8272  0.0167
  774SOL     hw 3094   1.754   3.565   2.187  1.2457  0.5588 -1.1399
  774SOL     hw 3095   1.689   3.529   2.055 -0.1885 -1.1894 -0.0099
  774SOL     vw 3096   1.747   3.512   2.118  0.0997 -0.6921 -0.1394
  775SOL     ow 3097   4.359   2.619   1.966  0.1732  0.3512  0.0650
  775SOL     hw 3098   4.418   2.600   2.039 -0.5420  2.2556  1.2266
  775SOL     hw 3099   4.330   2.533   1.936  1.1314 -0.5237  1.4847
  775SOL     vw 3100   4.363   2.605   1.972  0.2055  0.4871  0.4055
  776SOL     ow 3101   1.686   0.625   2.186 -0.2393 -0.5197  0.3333
  776SOL     hw 3102   1.740   0.556   2.149  1.9821  0.8953  0.7728
  776SOL     hw 3103   1.610   0.630   2.127  0.4057 -2.0913 -0.7110
  776SOL     vw 3104   1.683   0.617   2.173  0.1389 -0.5403  0.2536
  777SOL     ow 3105   3.060   3.283   0.806 -0.2550  0.0331  0.3226
  777SOL     hw 3106   2.982   3.277   0.752  0.3472 -0.6662 -0.5067
  777SOL     hw 3107   3.114   3.350   0.765  0.3085 -0.6656 -0.0992
  777SOL     vw 3108   3.057   3.291   0.794 -0.1011 -0.1514  0.1575
  778SOL     ow 3109   3.381   2.047   5.164 -0.0163 -0.0996  0.6259
  778SOL     hw 3110   3.463   2.060   5.213  1.3912  0.4821 -1.7051
  778SOL     hw 3111   3.396   1.967   5.113 -0.4749  0.5149 -0.5281
  778SOL     vw 3112   3.394   2.038   5.163  0.1088  0.0582  0.1662
  779SOL     ow 3113   1.740   6.928   3.366 -0.0201  1.3752  0.2108
  779SOL     hw 3114   1.688   6.945   3.444  2.1335 -0.7645  2.2851
  779SOL     hw 3115   1.800   7.003   3.361 -0.4470  1.7302  0.3486
  779SOL     vw 3116   1.741   6.940   3.375  0.2077  1.1401  0.5026
  780SOL     ow 3117   2.607   3.983   4.547 -0.2327  0.1373 -0.5762
  780SOL     hw 3118   2.577   4.053   4.490  0.8074 -0.4950 -1.9399
  780SOL     hw 3119   2.685   3.949   4.505 -1.1776 -2.4257 -0.4497
  780SOL     vw 3120   2.613   3.987   4.534 -0.2199 -0.2842 -0.7396
  781SOL     ow 3121   2.547   0.406   0.369 -0.0757 -0.4247 -0.8775
  781SOL     hw 3122   2.627   0.353   0.375 -0.8174 -1.3747  1.5253
  781SOL     hw 3123   2.569   0.474   0.304  1.6400 -2.3656 -2.4645
  781SOL     vw 3124   2.561   0.408   0.361  0.0529 -0.8061 -0.7698
  782SOL     ow 3125   3.396   5.199   6.087  0.2544 -0.3358  0.3167
  782SOL     hw 3126   3.384   5.138   6.160  1.0081 -1.0893 -0.1617
  782SOL     hw 3127   3.309   5.208   6.049  0.1077 -1.0597  0.4561
  782SOL     vw 3128   3.383   5.192   6.092  0.3346 -0.5305  0.2720
  783SOL     ow 3129   6.145   1.543   5.109 -0.1054  0.8055 -0.1933
  783SOL     hw 3130   6.227   1.557   5.063  0.0428  1.1895  0.1779
  783SOL     hw 3131   6.078   1.584   5.055  0.1665  1.9115  0.2946
  783SOL     vw 3132   6.147   1.550   5.096 -0.0501  1.0021 -0.0801
  784SOL     ow 3133   0.232   1.005   2.824  0.2544 -0.0965  0.0433
  784SOL     hw 3134   0.189   0.963   2.750 -1.2275  0.0380  0.7872
  784SOL     hw 3135   0.269   1.085   2.787  0.2747 -0.4500 -0.7218
  784SOL     vw 3136   0.231   1.010   2.809  0.0615 -0.1254  0.0404
  785SOL     ow 3137   6.194   4.098   4.962 -0.0961  0.0682 -0.0738
  785SOL     hw 3138   6.188   4.085   4.868  0.2403  0.6283 -0.1830
  785SOL     hw 3139   6.123   4.046   4.999  1.2400 -2.1437 -0.4359
  785SOL     vw 3140   6.184   4.090   4.954  0.1245 -0.1497 -0.1361
  786SOL     ow 3141   6.077   2.038   4.446  0.0339 -0.3336  0.2594
  786SOL     hw 3142   6.160   1.995   4.429  0.0863 -0.1952  0.1621
  786SOL     hw 3143   6.011   1.969   4.437  0.1361 -0.4388  0.3170
  786SOL     vw 3144   6.079   2.023   4.443  0.0544 -0.3294  0.2539
  787SOL     ow 3145   2.197   4.859   5.793  0.1178  0.5482 -0.8642
  787SOL     hw 3146   2.274   4.857   5.736 -0.0489 -0.1233 -1.0801
  787SOL     hw 3147   2.217   4.794   5.861  1.1005  2.5917  0.9153
  787SOL     vw 3148   2.210   4.850   5.795  0.2255  0.7291 -0.6580
  788SOL     ow 3149   5.220   1.595   1.520  0.4126  0.6563 -0.6038
  788SOL     hw 3150   5.293   1.567   1.576 -0.7207  2.1663  1.8170
  788SOL     hw 3151   5.147   1.538   1.546  0.2440  0.3425 -1.7235
  788SOL     vw 3152   5.220   1.584   1.531  0.2410  0.8141 -0.4323
  789SOL     ow 3153   6.744   4.060   6.870  0.3014  0.2702 -0.1638
  789SOL     hw 3154   6.751   4.099   6.957  2.5077 -0.6505  0.1416
  789SOL     hw 3155   6.708   3.973   6.886 -0.1312  0.4304 -0.2723
  789SOL     vw 3156   6.740   4.053   6.883  0.5355  0.1700 -0.1378
  790SOL     ow 3157   0.648   2.549   1.071  0.1321 -1.0011  0.8691
  790SOL     hw 3158   0.661   2.639   1.102  2.5402 -1.7663  2.3127
  790SOL     hw 3159   0.702   2.544   0.992 -3.0339 -0.1704 -1.5664
  790SOL     vw 3160   0.657   2.560   1.064  0.0321 -0.9923  0.7383
  791SOL     ow 3161   0.342   6.174   3.748  0.2964  0.1972 -0.2699
  791SOL     hw 3162   0.308   6.160   3.660  1.5396  0.2537 -0.7871
  791SOL     hw 3163   0.388   6.093   3.770  0.2496  0.2940  0.2083
  791SOL     vw 3164   0.344   6.161   3.739  0.4542  0.2177 -0.2751
  792SOL     ow 3165   6.446   5.295   2.004 -0.8651 -0.1910  0.3151
  792SOL     hw 3166   6.497   5.228   1.959 -0.2351  0.9925 -0.7750
  792SOL     hw 3167   6.355   5.273   1.985 -0.6791 -0.9509  0.2960
  792SOL     vw 3168   6.441   5.283   1.996 -0.7577 -0.1349  0.1688
  793SOL     ow 3169   0.754   2.777   4.223 -0.3444 -0.2366 -0.3701
  793SOL     hw 3170   0.732   2.866   4.249 -4.8346 -0.5870 -2.1068
  793SOL     hw 3171   0.733   2.773   4.129  2.0692 -2.5377 -0.9226
  793SOL     vw 3172   0.748   2.788   4.214 -0.6184 -0.5863 -0.6721
  794SOL     ow 3173   3.122   3.270   1.062  0.0624  0.2995 -0.4324
  794SOL     hw 3174   3.082   3.191   1.098  2.0588 -0.4566  0.2558
  794SOL     hw 3175   3.092   3.273   0.971 -0.4966 -0.9150 -0.3045
  794SOL     vw 3176   3.113   3.260   1.055  0.2519  0.0396 -0.3247
  795SOL     ow 3177   1.679   0.691   6.500 -0.5438  1.2882 -0.1523
  795SOL     hw 3178   1.669   0.639   6.420  1.6661  2.5549 -1.3517
  795SOL     hw 3179   1.592   0.729   6.514 -1.1579  0.5107 -1.5529
  795SOL     vw 3180   1.666   0.689   6.491 -0.3332  1.3527 -0.4954
  796SOL     ow 3181   0.776   2.704   5.065 -0.1953 -0.0534  0.0248
  796SOL     hw 3182   0.681   2.711   5.074 -0.3820 -0.7636 -1.1817
  796SOL     hw 3183   0.795   2.748   4.982  0.6655  0.9109  0.7042
  796SOL     vw 3184   0.766   2.711   5.056 -0.1063 -0.0199 -0.0446
  797SOL     ow 3185   0.439   4.104   2.217 -0.5667 -0.3535  0.3008
  797SOL     hw 3186   0.502   4.155   2.269  0.5122 -2.2794  0.9690
  797SOL     hw 3187   0.462   4.124   2.126 -0.7064  0.9576  0.5326
  797SOL     vw 3188   0.450   4.114   2.212 -0.4428 -0.4346  0.4196
  798SOL     ow 3189   2.231   2.349   1.110  0.4041 -0.2927  0.5141
  798SOL     hw 3190   2.313   2.395   1.092  0.0268  1.6552  3.1932
  798SOL     hw 3191   2.257   2.258   1.125  1.7889 -0.0963 -0.4882
  798SOL     vw 3192   2.245   2.343   1.110  0.5373 -0.0098  0.7354
  799SOL     ow 3193   6.409   5.120   5.227 -0.3541 -0.1327  0.1727
  799SOL     hw 3194   6.329   5.127   5.174  0.0616 -2.0870 -0.7998
  799SOL     hw 3195   6.378   5.101   5.315 -0.9920 -1.1508 -0.2491
  799SOL     vw 3196   6.394   5.118   5.231 -0.3834 -0.5245 -0.0114
  800SOL     ow 3197   3.997   0.506   0.446 -0.2339 -0.7055 -0.2914
  800SOL     hw 3198   3.928   0.563   0.481 -0.4646  1.1450 -3.3767
  800SOL     hw 3199   4.075   0.528   0.496 -1.1435 -0.4193  1.0461
  800SOL     vw 3200   3.998   0.516   0.457 -0.3843 -0.4236 -0.5220
  801SOL     ow 3201   0.004   5.089   2.490 -0.0660 -0.0289  0.2460
  801SOL     hw 3202  -0.033   5.130   2.569 -1.3779  0.0613 -0.3961
  801SOL     hw 3203   0.099   5.099   2.501 -0.2283  0.2199  1.6845
  801SOL     vw 3204   0.012   5.096   2.502 -0.2605  0.0157  0.3511
  802SOL     ow 3205   0.853   4.024   6.084  0.4822  0.0839  0.1832
  802SOL     hw 3206   0.930   3.973   6.060  0.3826 -1.1383  2.2232
  802SOL     hw 3207   0.879   4.068   6.166 -0.8059  0.0325  0.6327
  802SOL     vw 3208   0.867   4.023   6.092  0.2991 -0.0842  0.5116
  803SOL     ow 3209   5.600   5.110   4.727  0.0216  0.4684  0.5627
  803SOL     hw 3210   5.506   5.096   4.737 -0.3272 -1.3940 -3.3157
  803SOL     hw 3211   5.640   5.031   4.765 -0.3854 -0.7263 -1.3348
  803SOL     vw 3212   5.593   5.097   4.733 -0.0780  0.0653 -0.1993
  804SOL     ow 3213   1.259   7.039   2.103 -1.3544  0.2370  0.5548
  804SOL     hw 3214   1.186   7.014   2.161 -0.2457  0.7402  2.2514
  804SOL     hw 3215   1.271   7.132   2.119  0.9217 -0.2225  1.8498
  804SOL     vw 3216   1.251   7.048   2.113 -0.9079  0.2429  0.9495
  805SOL     ow 3217   1.883   4.946   5.787 -0.2757 -0.0294  0.0573
  805SOL     hw 3218   1.854   4.989   5.707  0.9132 -0.1648 -0.4699
  805SOL     hw 3219   1.819   4.971   5.853 -0.5625  1.1289 -0.6380
  805SOL     vw 3220   1.871   4.955   5.785 -0.1567  0.1054 -0.1037
  806SOL     ow 3221   3.566   1.530   5.835  0.1632 -0.1447  1.0856
  806SOL     hw 3222   3.595   1.545   5.745 -2.6430  3.6455  0.5529
  806SOL     hw 3223   3.620   1.458   5.866  3.9948  0.8573 -2.3485
  806SOL     vw 3224   3.577   1.523   5.827  0.2985  0.4876  0.5624
  807SOL     ow 3225   3.048   0.157   1.708  0.7353  0.2016  0.8492
  807SOL     hw 3226   3.008   0.138   1.793  0.2093 -0.6566  0.4272
  807SOL     hw 3227   3.092   0.075   1.684  0.1862  0.1705 -0.0708
  807SOL     vw 3228   3.049   0.144   1.716  0.5934  0.0843  0.6722
  808SOL     ow 3229   1.829   2.678   2.439 -0.2692  0.6958  0.2001
  808SOL     hw 3230   1.765   2.679   2.368 -0.4314 -1.5746  0.2385
  808SOL     hw 3231   1.909   2.714   2.399 -1.1198  2.1559 -0.2638
  808SOL     vw 3232   1.831   2.683   2.424 -0.4029  0.5889  0.1439
  809SOL     ow 3233   2.375   3.477   6.674 -0.3582  0.0794 -0.2541
  809SOL     hw 3234   2.337   3.467   6.761  1.1768  0.8061  0.5505
  809SOL     hw 3235   2.380   3.572   6.661 -0.1217 -0.0216 -0.9305
  809SOL     vw 3236   2.371   3.488   6.684 -0.1243  0.1619 -0.2367
  810SOL     ow 3237   1.316   6.395   4.303  0.0810 -0.4105 -0.4512
  810SOL     hw 3238   1.372   6.473   4.303  0.8952 -0.8850  2.1372
  810SOL     hw 3239   1.286   6.386   4.213  1.9352  1.4856 -1.3290
  810SOL     vw 3240   1.319   6.404   4.291  0.4330 -0.2229 -0.2255
  811SOL     ow 3241   4.526   6.341   6.700  0.8990 -0.0363  0.2394
  811SOL     hw 3242   4.561   6.264   6.654  1.9023  0.1505  0.6701
  811SOL     hw 3243   4.471   6.384   6.634 -0.7554 -1.7919  0.3720
  811SOL     vw 3244   4.523   6.336   6.685  0.8132 -0.2429  0.3142
  812SOL     ow 3245   3.265   6.580   2.963 -0.0762  0.0327  0.2526
  812SOL     hw 3246   3.242   6.672   2.975 -0.6826 -0.0364 -0.3200
  812SOL     hw 3247   3.360   6.580   2.952 -0.1993  0.7370 -0.9837
  812SOL     vw 3248   3.274   6.592   2.964 -0.1725  0.1161  0.0138
  813SOL     ow 3249   0.668   3.612   1.753 -0.1083  0.3548  0.0930
  813SOL     hw 3250   0.673   3.620   1.658  0.5480 -2.1801 -0.1515
  813SOL     hw 3251   0.699   3.696   1.786  1.3647  0.6762 -1.9358
  813SOL     vw 3252   0.673   3.624   1.745  0.1726  0.0628 -0.2068
  814SOL     ow 3253   2.690   5.548   1.925  0.2843  0.1808 -0.0705
  814SOL     hw 3254   2.691   5.640   1.899  1.3870  0.5436  1.1499
  814SOL     hw 3255   2.780   5.519   1.909  0.0388 -0.5818 -0.0831
  814SOL     vw 3256   2.702   5.556   1.919  0.3972  0.1283  0.0889
  815SOL     ow 3257   4.271   2.992   1.836  0.6230  0.4445  0.7027
  815SOL     hw 3258   4.319   2.932   1.892 -0.8454 -0.3500  1.1566
  815SOL     hw 3259   4.332   3.012   1.765  1.2561 -1.3832  0.6727
  815SOL     vw 3260   4.285   2.987   1.834  0.5128  0.0986  0.7586
  816SOL     ow 3261   6.819   0.190   5.335 -0.8167  0.0790  1.0252
  816SOL     hw 3262   6.808   0.267   5.280  0.4722 -1.0477 -0.9307
  816SOL     hw 3263   6.913   0.188   5.354 -0.7354 -1.2886  0.5638
  816SOL     vw 3264   6.830   0.200   5.330 -0.6361 -0.2501  0.7062
  817SOL     ow 3265   5.112   6.397   3.834 -0.7799 -0.4115  0.3714
  817SOL     hw 3266   5.058   6.333   3.880  0.4901 -1.6037  0.2784
  817SOL     hw 3267   5.195   6.398   3.883  0.4125 -1.3054 -1.5326
  817SOL     vw 3268   5.116   6.389   3.847 -0.4549 -0.6866  0.1079
  818SOL     ow 3269   2.144   5.810   4.381  0.1976  0.1047  0.8353
  818SOL     hw 3270   2.205   5.844   4.315 -0.2130 -1.2647 -0.2942
  818SOL     hw 3271   2.170   5.719   4.394 -3.3415 -1.5870 -2.0061
  818SOL     vw 3272   2.155   5.803   4.374 -0.3234 -0.2992  0.3116
  819SOL     ow 3273   0.668   3.343   1.801  0.4139  0.1108  0.0651
  819SOL     hw 3274   0.655   3.437   1.792 -0.3731 -0.0285 -0.4199
  819SOL     hw 3275   0.744   3.323   1.746  2.7551  0.9322  2.7931
  819SOL     vw 3276   0.676   3.352   1.792  0.6190  0.2009  0.3610
  820SOL     ow 3277   0.249   4.329   6.940  0.4954  0.5532 -0.5638
  820SOL     hw 3278   0.329   4.374   6.968  1.1420  0.9334 -2.8718
  820SOL     hw 3279   0.201   4.314   7.022  2.9664  0.1500  0.9120
  820SOL     vw 3280   0.253   4.333   6.955  0.9067  0.5500 -0.6735
  821SOL     ow 3281   6.667   1.454   0.724  0.0717  0.0691  0.0794
  821SOL     hw 3282   6.685   1.516   0.654  0.4880 -0.0151  0.1128
  821SOL     hw 3283   6.712   1.490   0.800 -1.3882  0.8218  0.6326
  821SOL     vw 3284   6.675   1.467   0.725 -0.0663  0.1574  0.1568
  822SOL     ow 3285   2.782   3.842   1.240 -0.7508 -0.7090  0.4893
  822SOL     hw 3286   2.817   3.774   1.297 -0.5204 -0.8501  0.1893
  822SOL     hw 3287   2.776   3.919   1.295 -0.8781 -0.9365  0.7952
  822SOL     vw 3288   2.786   3.843   1.255 -0.7372 -0.7576  0.4900
  823SOL     ow 3289   2.630   1.669   6.996  0.2844  0.5309  0.0177
  823SOL     hw 3290   2.627   1.577   6.974 -0.4313  0.7015 -0.6215
  823SOL     hw 3291   2.613   1.715   6.914 -0.5845  1.2043  0.5497
  823SOL     vw 3292   2.627   1.663   6.983  0.0753  0.6422  0.0038
  824SOL     ow 3293   6.342   5.114   0.341 -0.3559 -0.3070 -0.2541
  824SOL     hw 3294   6.353   5.020   0.327 -0.6034 -0.6521  1.6271
  824SOL     hw 3295   6.371   5.128   0.431 -0.6760  1.3590 -0.3878
  824SOL     vw 3296   6.347   5.103   0.351 -0.4308 -0.1330 -0.0236
  825SOL     ow 3297   6.042   1.876   3.051  0.5922 -0.2626 -0.0028
  825SOL     hw 3298   6.122   1.836   3.019  0.5296 -0.8793  0.5752
  825SOL     hw 3299   6.069   1.959   3.090  0.7701  0.1149 -0.9298
  825SOL     vw 3300   6.056   1.881   3.052  0.6077 -0.2941 -0.0489
  826SOL     ow 3301   5.516   3.063   3.622  0.3371  0.2101  0.2439
  826SOL     hw 3302   5.481   2.988   3.573 -3.5781  1.5181  0.6519
  826SOL     hw 3303   5.555   3.120   3.555  0.0190 -0.5173 -0.5693
  826SOL     vw 3304   5.516   3.061   3.606 -0.2215  0.2867  0.1904
  827SOL     ow 3305   4.231   0.984   6.095 -0.7440 -0.0141 -0.0654
  827SOL     hw 3306   4.180   0.938   6.161 -1.7283  1.9315  0.6163
  827SOL     hw 3307   4.187   0.964   6.012 -1.0461 -0.4421  0.1941
  827SOL     vw 3308   4.218   0.975   6.093 -0.9136  0.1861  0.0589
  828SOL     ow 3309   0.038   1.784   4.345  0.1305 -0.0965  0.2205
  828SOL     hw 3310   0.005   1.761   4.258  1.4580  0.8922 -0.5950
  828SOL     hw 3311  -0.041   1.791   4.399 -0.5896 -2.8793 -0.3023
  828SOL     vw 3312   0.023   1.782   4.341  0.2105 -0.3332  0.0439
  829SOL     ow 3313   4.781   2.944   3.134  0.2853 -0.1617  0.2342
  829SOL     hw 3314   4.806   2.950   3.042  0.2734 -1.7548  0.0997
  829SOL     hw 3315   4.773   3.035   3.163  2.3225  0.3995 -0.7666
  829SOL     vw 3316   4.783   2.956   3.126  0.5527 -0.2979  0.0845
  830SOL     ow 3317   6.620   7.016   7.083 -0.8349 -0.5197 -0.5185
  830SOL     hw 3318   6.680   6.975   7.145 -0.6893  0.2455 -0.1389
  830SOL     hw 3319   6.674   7.035   7.007 -0.7589 -0.4612 -0.4501
  830SOL     vw 3320   6.635   7.013   7.081 -0.8059 -0.4108 -0.4594
  831SOL     ow 3321   2.420   2.902   6.039  0.6472  0.7404  0.0216
  831SOL     hw 3322   2.504   2.896   5.994  0.6124 -0.5151  0.0884
  831SOL     hw 3323   2.396   2.811   6.056 -0.1964  1.1339  0.9914
  831SOL     vw 3324   2.428   2.889   6.035  0.5312  0.6267  0.1583
  832SOL     ow 3325   4.974   1.753   1.101 -0.0130  0.1106 -0.0602
  832SOL     hw 3326   4.966   1.847   1.088 -0.3252 -0.0081 -0.7691
  832SOL     hw 3327   4.911   1.733   1.170  1.5045  0.7167  1.5654
  832SOL     vw 3328   4.965   1.762   1.108  0.1459  0.1749  0.0607
  833SOL     ow 3329   3.425   3.158   6.489  0.4563  0.1357  0.3191
  833SOL     hw 3330   3.467   3.093   6.434 -2.2550 -1.4291 -0.0849
  833SOL     hw 3331   3.361   3.200   6.432 -2.3995 -1.4816  2.0585
  833SOL     vw 3332   3.422   3.155   6.474 -0.2784 -0.2841  0.4957
  834SOL     ow 3333   3.872   3.379   5.182  0.8518 -1.2584  0.2518
  834SOL     hw 3334   3.817   3.404   5.108  0.2155 -1.6285  0.5925
  834SOL     hw 3335   3.857   3.285   5.192  0.9863 -1.2247  0.8099
  834SOL     vw 3336   3.863   3.370   5.173  0.7855 -1.3027  0.3703
  835SOL     ow 3337   3.386   0.420   2.230 -0.1858 -0.6182 -0.6167
  835SOL     hw 3338   3.323   0.484   2.264 -0.7201 -0.9437 -0.9850
  835SOL     hw 3339   3.469   0.446   2.269  0.1359  1.8355 -2.6482
  835SOL     vw 3340   3.389   0.432   2.239 -0.2137 -0.3374 -0.9334
  836SOL     ow 3341   6.339   2.444   0.084 -0.4268 -0.7551 -0.2149
  836SOL     hw 3342   6.300   2.526   0.056 -0.6388 -0.2607  1.4392
  836SOL     hw 3343   6.333   2.387   0.007 -4.3244 -0.6933 -0.1164
  836SOL     vw 3344   6.333   2.447   0.070 -0.9687 -0.6816  0.0163
  837SOL     ow 3345   4.491   1.782   2.976 -0.7831  0.5017 -0.1840
  837SOL     hw 3346   4.539   1.860   3.002 -0.0562  0.0352 -0.1111
  837SOL     hw 3347   4.536   1.710   3.020 -0.4074 -0.1480 -1.5723
  837SOL     vw 3348   4.503   1.782   2.985 -0.6378  0.3545 -0.3575
  838SOL     ow 3349   7.096   4.724   0.093  0.5986  0.0491 -0.1213
  838SOL     hw 3350   7.166   4.785   0.068  1.4762 -0.4321  1.0829
  838SOL     hw 3351   7.076   4.746   0.184  1.0951 -1.5896  0.4097
  838SOL     vw 3352   7.103   4.735   0.101  0.7801 -0.2308  0.1076
  839SOL     ow 3353   4.158   3.401   5.269 -0.5816  0.4100 -0.2195
  839SOL     hw 3354   4.171   3.306   5.270 -0.1600  0.4727  0.4513
  839SOL     hw 3355   4.209   3.431   5.193 -1.5198 -0.0009 -1.0318
  839SOL     vw 3356   4.167   3.392   5.259 -0.6497  0.3641 -0.2382
  840SOL     ow 3357   3.522   5.741   2.901 -0.1294  0.4354 -0.1376
  840SOL     hw 3358   3.551   5.790   2.824  0.6074  1.4733  0.7823
  840SOL     hw 3359   3.590   5.675   2.914  0.3678  1.0172  0.3010
  840SOL     vw 3360   3.535   5.739   2.893  0.0334  0.6490  0.0417
  841SOL     ow 3361   4.443   4.822   3.576 -0.3042 -0.4069  1.0042
  841SOL     hw 3362   4.378   4.800   3.643 -0.6453  1.0703  1.1829
  841SOL     hw 3363   4.397   4.809   3.493 -0.8792  0.7503  1.1319
  841SOL     vw 3364   4.428   4.817   3.574 -0.4251 -0.0594  1.0448
  842SOL     ow 3365   5.242   5.448   6.069 -0.3029 -0.7842 -0.0545
  842SOL     hw 3366   5.210   5.358   6.076 -0.4688 -0.5994  2.2610
  842SOL     hw 3367   5.336   5.442   6.086 -0.3945 -0.4732  0.5815
  842SOL     vw 3368   5.250   5.436   6.072 -0.3366 -0.7191  0.3350
  843SOL     ow 3369   3.091   5.461   2.700  0.7412  0.5589 -0.1218
  843SOL     hw 3370   3.037   5.382   2.690  2.2028 -0.8621  2.2932
  843SOL     hw 3371   3.076   5.489   2.790  2.5108  1.3082 -0.0278
  843SOL     vw 3372   3.082   5.454   2.711  1.1674  0.4704  0.2091
  844SOL     ow 3373   3.217   2.847   5.021  0.3560  0.0662 -1.0107
  844SOL     hw 3374   3.239   2.788   4.949  4.6127  1.0573 -0.7856
  844SOL     hw 3375   3.253   2.804   5.099  3.0407  2.4312 -0.7614
  844SOL     vw 3376   3.225   2.834   5.022  1.2718  0.5090 -0.9482
  845SOL     ow 3377   2.530   3.818   2.482 -0.3689 -0.0109 -0.3422
  845SOL     hw 3378   2.499   3.844   2.569  1.3982  3.5532 -0.5797
  845SOL     hw 3379   2.583   3.740   2.498 -0.1273  0.5283  1.8128
  845SOL     vw 3380   2.533   3.811   2.496 -0.1040  0.5305 -0.0892
  846SOL     ow 3381   6.923   3.669   1.402  0.0764 -0.4481 -0.4361
  846SOL     hw 3382   6.876   3.667   1.485 -0.2937  0.5186 -0.6125
  846SOL     hw 3383   6.920   3.579   1.370 -2.6174 -0.2254 -0.9859
  846SOL     vw 3384   6.917   3.657   1.409 -0.3278 -0.2913 -0.5320
  847SOL     ow 3385   5.705   1.783   1.645  0.5420  0.6687  0.5644
  847SOL     hw 3386   5.688   1.818   1.558  1.0185  1.8418  0.9124
  847SOL     hw 3387   5.800   1.771   1.648  0.3156 -1.8178  0.0739
  847SOL     vw 3388   5.715   1.786   1.634  0.5751  0.4954  0.5457
  848SOL     ow 3389   4.407   6.476   2.576 -0.1354 -0.3752 -0.4821
  848SOL     hw 3390   4.349   6.552   2.574  0.2246  0.0277  1.9811
  848SOL     hw 3391   4.476   6.497   2.512 -2.0942 -0.4619 -2.7681
  848SOL     vw 3392   4.409   6.489   2.567 -0.3467 -0.3335 -0.4588
  849SOL     ow 3393   2.195   0.344   6.440 -0.1106  0.3353 -0.1628
  849SOL     hw 3394   2.109   0.334   6.399 -1.4029  1.9501  1.9680
  849SOL     hw 3395   2.255   0.358   6.367 -1.2453 -2.6948 -1.8735
  849SOL     vw 3396   2.192   0.344   6.425 -0.4308  0.1486 -0.1075
  850SOL     ow 3397   2.919   5.603   0.027 -0.6015 -0.5895  0.4444
  850SOL     hw 3398   3.010   5.627   0.008 -0.6606 -1.0589 -0.4940
  850SOL     hw 3399   2.926   5.535   0.094 -0.2943 -0.2635  0.7548
  850SOL     vw 3400   2.932   5.597   0.033 -0.5687 -0.6087  0.3615
  851SOL     ow 3401   2.456   6.611   5.107 -0.5090 -0.0169 -0.0978
  851SOL     hw 3402   2.545   6.626   5.139 -0.0466 -4.3415  1.2023
  851SOL     hw 3403   2.403   6.602   5.186 -1.8482  0.9025 -0.8453
  851SOL     vw 3404   2.460   6.612   5.121 -0.6248 -0.4661 -0.0248
  852SOL     ow 3405   0.559   1.526   5.359 -0.2695  0.3191 -0.6927
  852SOL     hw 3406   0.631   1.588   5.345 -0.2295  0.8923  1.6244
  852SOL     hw 3407   0.484   1.581   5.380 -0.6416 -0.3514 -0.2208
  852SOL     vw 3408   0.559   1.541   5.360 -0.3133  0.3062 -0.3245
  853SOL     ow 3409   0.836   6.844   3.765 -0.0287 -0.3367 -0.3878
  853SOL     hw 3410   0.892   6.861   3.689 -0.0838  1.2113 -0.1013
  853SOL     hw 3411   0.763   6.793   3.728  0.0329  0.2349 -1.3434
  853SOL     vw 3412   0.834   6.839   3.750 -0.0278 -0.0572 -0.4761
  854SOL     ow 3413   1.858   1.209   2.961  0.0127 -0.1326  0.0161
  854SOL     hw 3414   1.822   1.296   2.945  3.1512  1.1219 -1.0133
  854SOL     hw 3415   1.897   1.184   2.878  1.8961 -1.0918  1.1204
  854SOL     vw 3416   1.858   1.217   2.948  0.6753 -0.0936  0.0260
  855SOL     ow 3417   6.406   3.645   3.995 -0.3068 -0.1746 -1.0320
  855SOL     hw 3418   6.375   3.604   4.076  0.3360  1.2216 -0.0293
  855SOL     hw 3419   6.482   3.593   3.969  0.4518  0.2880  0.1672
  855SOL     vw 3420   6.412   3.633   4.002 -0.1216  0.0708 -0.7415
  856SOL     ow 3421   3.881   2.749   2.223  0.8900 -0.0428 -0.1885
  856SOL     hw 3422   3.789   2.765   2.243  0.5383  0.5438 -2.0757
  856SOL     hw 3423   3.922   2.834   2.232  1.3225 -0.3529  0.9009
  856SOL     vw 3424   3.874   2.762   2.227  0.9007 -0.0064 -0.2936
  857SOL     ow 3425   0.960   6.889   5.968  0.2395  0.3584  0.1191
  857SOL     hw 3426   0.866   6.874   5.962 -0.5722  4.3905 -0.4252
  857SOL     hw 3427   0.988   6.906   5.878  1.1565  0.7351  0.4571
  857SOL     vw 3428   0.952   6.890   5.956  0.2534  0.9401  0.0918
  858SOL     ow 3429   4.932   0.137   5.011  0.0393 -0.9545 -0.5426
  858SOL     hw 3430   4.888   0.086   5.079  0.3451 -0.6148 -0.0859
  858SOL     hw 3431   4.948   0.222   5.051 -1.0008 -0.2797 -1.4927
  858SOL     vw 3432   4.928   0.141   5.025 -0.0577 -0.8207 -0.6077
  859SOL     ow 3433   0.351   0.628   1.028  0.5547  0.6062  0.4219
  859SOL     hw 3434   0.386   0.622   1.117  1.3536  1.8359  0.2180
  859SOL     hw 3435   0.289   0.701   1.032  0.3581  0.4615  0.0359
  859SOL     vw 3436   0.347   0.637   1.041  0.6342  0.7493  0.3441
  860SOL     ow 3437   6.042   4.137   2.929 -0.6784 -0.4283  0.1807
  860SOL     hw 3438   6.013   4.118   3.018  0.4040 -2.4318  0.1466
  860SOL     hw 3439   5.963   4.128   2.876 -0.9607 -1.0341  0.6995
  860SOL     vw 3440   6.027   4.133   2.934 -0.5729 -0.7727  0.2445
  861SOL     ow 3441   4.665   4.799   3.796  0.1246 -0.3757 -0.2602
  861SOL     hw 3442   4.611   4.778   3.872  0.1279 -1.8155 -0.6303
  861SOL     hw 3443   4.743   4.840   3.834 -0.2899 -0.2066  0.4368
  861SOL     vw 3444   4.668   4.802   3.811  0.0703 -0.5431 -0.2170
  862SOL     ow 3445   1.743   2.564   0.812  0.2256  0.6296  0.1820
  862SOL     hw 3446   1.723   2.481   0.857 -1.6236  0.0331 -1.5855
  862SOL     hw 3447   1.837   2.560   0.794  0.2508 -0.8932  0.5213
  862SOL     vw 3448   1.753   2.552   0.816 -0.0150  0.3499 -0.0064
  863SOL     ow 3449   1.769   0.705   4.250  0.0698  0.4010  0.5467
  863SOL     hw 3450   1.745   0.796   4.267  0.9403  0.5983  0.7801
  863SOL     hw 3451   1.712   0.654   4.308  1.2547  0.9299  2.2546
  863SOL     vw 3452   1.758   0.710   4.260  0.3409  0.4969  0.8028
  864SOL     ow 3453   4.171   3.198   0.503 -0.2418 -0.0569 -0.1433
  864SOL     hw 3454   4.173   3.248   0.585 -0.9652 -0.2910  0.0312
  864SOL     hw 3455   4.120   3.252   0.443 -2.5238 -1.2644  0.5592
  864SOL     vw 3456   4.164   3.211   0.506 -0.6385 -0.2471 -0.0276
  865SOL     ow 3457   2.380   0.188   2.258 -0.3386  0.2050  0.8313
  865SOL     hw 3458   2.308   0.233   2.302 -1.6957  1.2278 -2.1653
  865SOL     hw 3459   2.368   0.096   2.280 -3.3013  0.1986 -0.3802
  865SOL     vw 3460   2.369   0.182   2.267 -0.9085  0.3391  0.2762
  866SOL     ow 3461   4.934   3.484   4.946  0.9146  0.3297  0.5961
  866SOL     hw 3462   4.939   3.441   4.860  2.4319 -0.9398  1.2631
  866SOL     hw 3463   5.021   3.470   4.984  1.4978  4.0051  0.9066
  866SOL     vw 3464   4.946   3.476   4.940  1.1919  0.6472  0.7250
  867SOL     ow 3465   1.653   4.647   2.012  0.0620 -0.1713  0.1714
  867SOL     hw 3466   1.603   4.638   2.092  1.7034  0.3630  1.3090
  867SOL     hw 3467   1.739   4.609   2.033  0.6581  0.3587 -1.1963
  867SOL     vw 3468   1.658   4.641   2.025  0.3572 -0.0308  0.1410
  868SOL     ow 3469   5.734   5.771   4.434  0.4802  0.2836 -0.2031
  868SOL     hw 3470   5.661   5.817   4.478  0.4665 -0.3378  0.4540
  868SOL     hw 3471   5.812   5.805   4.477  0.6056  1.0431 -0.9950
  868SOL     vw 3472   5.734   5.782   4.446  0.4950  0.3021 -0.2208
  869SOL     ow 3473   4.930   7.104   4.766 -0.3497 -0.0252 -0.0317
  869SOL     hw 3474   4.844   7.141   4.783 -0.6545 -0.4771 -0.5648
  869SOL     hw 3475   4.932   7.091   4.671  0.0574 -0.6288  0.0577
  869SOL     vw 3476   4.919   7.107   4.755 -0.3359 -0.1645 -0.0901
  870SOL     ow 3477   2.560   0.413   1.389 -0.1253 -0.4693  0.4122
  870SOL     hw 3478   2.528   0.458   1.311  1.2902 -1.6233 -0.9093
  870SOL     hw 3479   2.518   0.458   1.462  2.1405  3.9504 -0.6429
  870SOL     vw 3480   2.550   0.425   1.388  0.3605 -0.0385  0.0986
  871SOL     ow 3481   1.904   2.726   5.356 -0.0948 -0.2856 -0.0986
  871SOL     hw 3482   1.930   2.698   5.444 -1.2609 -3.4052 -0.6444
  871SOL     hw 3483   1.906   2.822   5.361  1.9371 -0.3423  2.6612
  871SOL     vw 3484   1.907   2.735   5.368  0.0194 -0.7046  0.1934
  872SOL     ow 3485   3.088   3.228   4.855  0.2921  0.1143  0.0010
  872SOL     hw 3486   3.042   3.302   4.814  0.3964  0.3939  0.3889
  872SOL     hw 3487   3.083   3.159   4.789  0.4432  0.5545 -0.4832
  872SOL     vw 3488   3.081   3.229   4.841  0.3259  0.2092 -0.0117
  873SOL     ow 3489   5.194   1.558   3.489 -0.2969 -0.1837 -0.2486
  873SOL     hw 3490   5.200   1.499   3.414 -0.6160  1.3421 -1.5213
  873SOL     hw 3491   5.102   1.554   3.516  0.3015 -2.6789  1.7662
  873SOL     vw 3492   5.183   1.550   3.482 -0.2604 -0.3117 -0.1506
  874SOL     ow 3493   0.800   3.847   1.837  0.0653 -0.2752  0.4633
  874SOL     hw 3494   0.750   3.927   1.848  0.0043 -0.0575 -1.1590
  874SOL     hw 3495   0.836   3.828   1.924 -1.2697  0.5885  1.2217
  874SOL     vw 3496   0.798   3.855   1.850 -0.1189 -0.1326  0.3494
  875SOL     ow 3497   1.325   1.896   0.887 -0.2781  0.1275  0.1529
  875SOL     hw 3498   1.394   1.885   0.953  0.8159  0.5146 -0.8774
  875SOL     hw 3499   1.363   1.958   0.823  0.3810 -3.1324 -2.9577
  875SOL     vw 3500   1.339   1.903   0.887 -0.0467 -0.2516 -0.3934
  876SOL     ow 3501   0.428   2.789   0.222  0.0459 -0.7114 -0.0812
  876SOL     hw 3502   0.431   2.699   0.188 -2.1086 -0.6878 -0.4868
  876SOL     hw 3503   0.346   2.793   0.272 -0.4621  1.3114 -0.9669
  876SOL     vw 3504   0.418   2.778   0.224 -0.3054 -0.4414 -0.2516
  877SOL     ow 3505   6.770   6.968   1.569 -0.0606 -0.2102  0.8344
  877SOL     hw 3506   6.786   7.062   1.561  1.1479 -0.3728  1.1175
  877SOL     hw 3507   6.770   6.952   1.663 -1.1819 -0.3635  0.8217
  877SOL     vw 3508   6.772   6.978   1.580 -0.0489 -0.2520  0.8700
  878SOL     ow 3509   5.139   5.940   4.955  0.4533 -0.3549  0.4210
  878SOL     hw 3510   5.070   5.881   4.982  0.9628 -0.3672  1.7439
  878SOL     hw 3511   5.095   6.007   4.903 -0.0681 -2.1561 -1.6310
  878SOL     vw 3512   5.124   5.941   4.951  0.4520 -0.5941  0.3247
  879SOL     ow 3513   0.236   1.553   1.373 -0.4683  0.2891 -0.4222
  879SOL     hw 3514   0.184   1.633   1.381 -0.1629  0.4389  0.1499
  879SOL     hw 3515   0.194   1.504   1.303 -1.9868 -0.0493  0.6765
  879SOL     vw 3516   0.224   1.557   1.365 -0.6284  0.2643 -0.2018
  880SOL     ow 3517   4.216   3.443   6.519  0.0029  0.0871  0.4015
  880SOL     hw 3518   4.231   3.495   6.439  1.9327  0.5877  1.0342
  880SOL     hw 3519   4.218   3.352   6.489  0.5170  0.2733 -0.1539
  880SOL     vw 3520   4.218   3.438   6.504  0.3254  0.1777  0.4120
  881SOL     ow 3521   4.111   1.043   3.611  0.8090 -0.7638  0.5559
  881SOL     hw 3522   4.103   1.120   3.555  2.5785 -0.8072  0.1733
  881SOL     hw 3523   4.028   1.039   3.659  0.8070  1.5734  0.8440
  881SOL     vw 3524   4.099   1.053   3.610  1.0419 -0.4612  0.5435
  882SOL     ow 3525   1.993   1.893   3.166  0.6222 -0.3565 -0.2142
  882SOL     hw 3526   1.938   1.909   3.090 -0.8436  3.0112  1.3215
  882SOL     hw 3527   1.935   1.850   3.229  0.3449  1.1288  0.5933
  882SOL     vw 3528   1.978   1.890   3.164  0.3921  0.2838  0.0950
  883SOL     ow 3529   3.843   3.842   2.680 -0.1987 -0.0571  0.4013
  883SOL     hw 3530   3.787   3.884   2.745 -1.5826 -1.1623 -0.0115
  883SOL     hw 3531   3.788   3.772   2.644  1.2012 -0.6812 -0.5900
  883SOL     vw 3532   3.828   3.838   2.684 -0.1967 -0.2853  0.2160
  884SOL     ow 3533   2.397   1.215   5.920 -0.4628  0.2790  0.3670
  884SOL     hw 3534   2.447   1.286   5.879 -1.1036  0.1173 -0.7308
  884SOL     hw 3535   2.457   1.178   5.986 -0.0918  1.7817  0.9226
  884SOL     vw 3536   2.412   1.220   5.924 -0.4984  0.4559  0.2954
  885SOL     ow 3537   0.594   6.806   5.994  0.1770 -0.4230  0.4287
  885SOL     hw 3538   0.665   6.744   5.974 -0.6200 -1.7347  1.5177
  885SOL     hw 3539   0.635   6.892   5.985  2.6220 -1.1142  3.3030
  885SOL     vw 3540   0.609   6.809   5.990  0.3944 -0.6874  0.9515
  886SOL     ow 3541   5.174   4.603   4.944  0.1669  0.3955  0.5481
  886SOL     hw 3542   5.202   4.692   4.923  0.9928  0.2209  0.8478
  886SOL     hw 3543   5.252   4.563   4.984  0.2005 -0.8367 -0.6897
  886SOL     vw 3544   5.188   4.609   4.947  0.2804  0.2098  0.4241
  887SOL     ow 3545   6.769   0.671   5.537  0.9369  0.3181  0.3546
  887SOL     hw 3546   6.747   0.699   5.448  1.4185  1.2553  0.5107
  887SOL     hw 3547   6.826   0.741   5.570  2.1569 -0.8433  0.7932
  887SOL     vw 3548   6.774   0.684   5.530  1.1618  0.2885  0.4332
  888SOL     ow 3549   4.282   2.123   3.845 -0.3562  0.5421  0.6308
  888SOL     hw 3550   4.337   2.060   3.798 -1.9148 -1.2671  1.1543
  888SOL     hw 3551   4.203   2.131   3.791 -1.1867  0.1971  1.7768
  888SOL     vw 3552   4.279   2.116   3.831 -0.6716  0.2578  0.8510
  889SOL     ow 3553   3.426   4.321   0.283  0.0067 -0.7065  0.0807
  889SOL     hw 3554   3.341   4.288   0.256 -0.1663  1.0745 -1.7472
  889SOL     hw 3555   3.407   4.399   0.335  0.4917  0.3277 -1.2340
  889SOL     vw 3556   3.413   4.327   0.287  0.0479 -0.3352 -0.3339
  890SOL     ow 3557   1.750   6.639   5.467  0.1967  0.3410  0.0668
  890SOL     hw 3558   1.665   6.646   5.423  0.0178 -1.7661 -0.0595
  890SOL     hw 3559   1.796   6.720   5.445 -1.3420  1.0202 -0.8061
  890SOL     vw 3560   1.745   6.650   5.459 -0.0299  0.1528 -0.0651
  891SOL     ow 3561   2.219   4.898   6.094 -0.2407  0.5213  0.2881
  891SOL     hw 3562   2.312   4.909   6.114 -0.5274 -0.4825  2.4042
  891SOL     hw 3563   2.173   4.933   6.170 -1.5529 -0.4188 -0.0220
  891SOL     vw 3564   2.225   4.904   6.106 -0.4517  0.2644  0.5264
  892SOL     ow 3565   1.418   6.133   2.555  0.2092 -0.1232  0.3449
  892SOL     hw 3566   1.427   6.186   2.475  2.8065  1.4895  1.5630
  892SOL     hw 3567   1.429   6.196   2.626  0.7222 -1.9252  1.9331
  892SOL     vw 3568   1.420   6.149   2.554  0.6195 -0.1483  0.7151
  893SOL     ow 3569   2.425   6.370   0.485  0.4302 -0.7124 -0.4697
  893SOL     hw 3570   2.345   6.339   0.443  0.9798 -1.4023 -1.0274
  893SOL     hw 3571   2.399   6.386   0.576  0.2422 -3.4808  0.0399
  893SOL     vw 3572   2.411   6.368   0.492  0.4779 -1.1687 -0.4761
  894SOL     ow 3573   5.990   0.390   4.944  0.2349  0.5272 -0.3182
  894SOL     hw 3574   6.002   0.381   5.039  1.0607  1.8099 -0.2748
  894SOL     hw 3575   6.013   0.304   4.909 -0.0513  0.0410  0.6430
  894SOL     vw 3576   5.995   0.377   4.952  0.3061  0.6323 -0.1855
  895SOL     ow 3577   0.866   6.249   5.229 -0.2730 -0.5393  0.2446
  895SOL     hw 3578   0.821   6.222   5.309 -0.4013 -0.7883  0.0896
  895SOL     hw 3579   0.826   6.197   5.159 -0.4790  0.0104 -0.0538
  895SOL     vw 3580   0.855   6.238   5.230 -0.3171 -0.4995  0.1850
  896SOL     ow 3581   2.186   0.546   5.305 -0.5792 -0.7098 -0.6657
  896SOL     hw 3582   2.230   0.462   5.318  0.2326  0.1580  3.7280
  896SOL     hw 3583   2.109   0.541   5.361 -1.1210  1.0713 -1.2181
  896SOL     vw 3584   2.182   0.534   5.314 -0.5436 -0.3603 -0.1590
  897SOL     ow 3585   1.054   1.822   0.884  0.0403 -0.1419 -0.3924
  897SOL     hw 3586   1.009   1.856   0.807  0.1202  0.1377 -0.3174
  897SOL     hw 3587   1.143   1.805   0.855  0.3244  0.8374 -0.1343
  897SOL     vw 3588   1.060   1.824   0.870  0.0883  0.0242 -0.3485
  898SOL     ow 3589   3.418   6.532   5.536  0.5273  0.5055  0.2108
  898SOL     hw 3590   3.352   6.483   5.486 -0.1625  1.1629  0.4507
  898SOL     hw 3591   3.497   6.526   5.484 -0.4428  2.1089 -1.5453
  898SOL     vw 3592   3.420   6.525   5.523  0.3084  0.8037  0.0107
  899SOL     ow 3593   4.254   6.522   5.389 -0.3376  0.2494 -0.1102
  899SOL     hw 3594   4.257   6.428   5.403  0.5893  0.0871 -1.1966
  899SOL     hw 3595   4.202   6.556   5.461 -1.0624 -1.1376  0.0534
  899SOL     vw 3596   4.248   6.514   5.400 -0.3109  0.0453 -0.2322
  900SOL     ow 3597   0.359   2.082   1.846  0.3119 -0.0141  0.3706
  900SOL     hw 3598   0.272   2.050   1.822 -0.6942  1.9735  1.1305
  900SOL     hw 3599   0.361   2.173   1.815  2.2083 -0.0682  0.1923
  900SOL     vw 3600   0.348   2.090   1.839  0.4293  0.2409  0.4474
  901SOL     ow 3601   7.063   4.721   4.108  0.1360 -0.2331 -0.0683
  901SOL     hw 3602   7.017   4.655   4.160 -0.2743  0.2794  0.2271
  901SOL     hw 3603   7.021   4.804   4.131  1.9995  0.4491  1.1635
  901SOL     vw 3604   7.052   4.724   4.118  0.3278 -0.0753  0.1333
  902SOL     ow 3605   1.036   1.932   4.375 -0.3948  0.4022 -0.1733
  902SOL     hw 3606   1.075   1.980   4.302 -1.6941  0.2305 -1.0290
  902SOL     hw 3607   0.995   1.999   4.430 -2.4673  0.3471 -1.5255
  902SOL     vw 3608   1.035   1.947   4.373 -0.8397  0.3722 -0.4647
  903SOL     ow 3609   3.231   0.891   1.141  0.1628 -1.0125  0.3291
  903SOL     hw 3610   3.284   0.881   1.219  0.1247 -0.5379  0.4191
  903SOL     hw 3611   3.148   0.927   1.172  0.6097  0.4218 -0.0634
  903SOL     vw 3612   3.227   0.895   1.155  0.2167 -0.7606  0.2893
  904SOL     ow 3613   2.331   0.278   4.476 -0.2571  0.7521  0.2632
  904SOL     hw 3614   2.324   0.290   4.571 -0.3914  1.0405  0.2171
  904SOL     hw 3615   2.311   0.186   4.462  1.4246  0.2752  0.6964
  904SOL     vw 3616   2.328   0.268   4.487 -0.0530  0.7272  0.3142
  905SOL     ow 3617   0.239   1.253   6.992  0.0567 -0.0014 -0.5594
  905SOL     hw 3618   0.214   1.202   7.070  0.0060  0.3690 -0.3299
  905SOL     hw 3619   0.172   1.230   6.927 -1.0050  1.0932  0.0987
  905SOL     vw 3620   0.227   1.243   6.994 -0.0901  0.1919 -0.4423
  906SOL     ow 3621   1.640   4.240   1.318  0.5822  0.3819 -0.1930
  906SOL     hw 3622   1.606   4.175   1.256 -0.9465  0.2171  0.7678
  906SOL     hw 3623   1.598   4.217   1.401  1.7466  1.2632  0.6665
  906SOL     vw 3624   1.630   4.228   1.320  0.5341  0.4766  0.0472
  907SOL     ow 3625   1.321   3.907   3.920 -0.1821  0.2468  0.3611
  907SOL     hw 3626   1.313   3.980   3.859  0.9672 -0.5358 -0.7443
  907SOL     hw 3627   1.258   3.842   3.888  1.8278 -0.9979 -1.2557
  907SOL     vw 3628   1.311   3.908   3.908  0.2347 -0.0209  0.0018
  908SOL     ow 3629   2.214   0.495   4.390 -0.3195 -0.8967  0.4471
  908SOL     hw 3630   2.236   0.545   4.469 -0.9388  0.1744 -0.0455
  908SOL     hw 3631   2.257   0.410   4.403 -1.9623 -1.4691  2.8400
  908SOL     vw 3632   2.222   0.490   4.402 -0.6179 -0.8309  0.6979
  909SOL     ow 3633   5.205   5.918   2.790  0.7257 -0.1699  0.2858
  909SOL     hw 3634   5.216   5.982   2.720 -0.9083  0.2285  0.3500
  909SOL     hw 3635   5.117   5.934   2.824 -0.0109 -2.8233 -0.0955
  909SOL     vw 3636   5.194   5.928   2.785  0.4132 -0.4673  0.2441
  910SOL     ow 3637   2.659   4.104   2.430  0.5300 -0.4224  0.5964
  910SOL     hw 3638   2.742   4.116   2.385 -0.3851 -0.1997 -1.1199
  910SOL     hw 3639   2.641   4.190   2.470 -0.0029  0.2746 -1.0660
  910SOL     vw 3640   2.667   4.117   2.430  0.3390 -0.3011  0.1507
  911SOL     ow 3641   6.378   3.921   6.439 -0.0382  1.4124  0.1382
  911SOL     hw 3642   6.441   3.970   6.386  1.4846 -0.3473  0.1923
  911SOL     hw 3643   6.311   3.892   6.377  2.2091 -1.4322 -1.2086
  911SOL     vw 3644   6.378   3.924   6.424  0.4590  0.8048 -0.0324
  912SOL     ow 3645   4.535   6.896   4.436 -0.4310  0.5390 -0.2717
  912SOL     hw 3646   4.570   6.877   4.523  0.4636  1.8163 -0.3175
  912SOL     hw 3647   4.591   6.846   4.376 -1.4300 -0.8262 -0.1019
  912SOL     vw 3648   4.547   6.887   4.439 -0.4447  0.5276 -0.2551
  913SOL     ow 3649   2.509   2.724   2.209 -0.2046  0.2601 -0.1299
  913SOL     hw 3650   2.553   2.743   2.292 -0.3145 -0.3209  0.0670
  913SOL     hw 3651   2.557   2.651   2.172  1.0550  1.7110 -1.5311
  913SOL     vw 3652   2.521   2.717   2.215 -0.0529  0.3749 -0.2887
  914SOL     ow 3653   5.627   5.225   0.897 -0.2421 -0.0835 -0.6117
  914SOL     hw 3654   5.719   5.226   0.872 -0.4637  0.2258 -1.4539
  914SOL     hw 3655   5.583   5.276   0.829 -0.8635  0.8652  0.4808
  914SOL     vw 3656   5.633   5.232   0.884 -0.3533  0.0823 -0.5786
  915SOL     ow 3657   2.127   3.495   0.152  0.2788 -0.1065 -0.0922
  915SOL     hw 3658   2.165   3.446   0.079  0.8854  0.4853 -0.1773
  915SOL     hw 3659   2.037   3.515   0.124 -0.2131 -1.7093  0.2036
  915SOL     vw 3660   2.120   3.491   0.139  0.2939 -0.2398 -0.0644
  916SOL     ow 3661   6.687   3.092   5.116  0.4118  0.2425 -0.1231
  916SOL     hw 3662   6.701   3.021   5.053  1.0151  0.2888 -0.0412
  916SOL     hw 3663   6.664   3.048   5.197  1.3239  0.1087  0.0743
  916SOL     vw 3664   6.686   3.077   5.118  0.6118  0.2309 -0.0863
  917SOL     ow 3665   3.424   4.456   2.847  0.3085 -0.1336 -0.0692
  917SOL     hw 3666   3.330   4.473   2.854  0.3356  0.9061 -1.7561
  917SOL     hw 3667   3.435   4.369   2.886 -1.3227 -0.2347  0.2541
  917SOL     vw 3668   3.413   4.447   2.853  0.0969 -0.0095 -0.2491
  918SOL     ow 3669   6.386   1.965   1.024  0.0206  0.1528 -0.0478
  918SOL     hw 3670   6.480   1.983   1.019  1.3671 -3.4197  4.5619
  918SOL     hw 3671   6.377   1.877   0.986 -1.1618 -0.0969  0.7654
  918SOL     vw 3672   6.398   1.956   1.018  0.0422 -0.3514  0.6678
  919SOL     ow 3673   5.096   2.331   0.611 -0.4635 -0.3529  0.3956
  919SOL     hw 3674   5.165   2.272   0.641  0.7575 -0.0651 -1.6803
  919SOL     hw 3675   5.127   2.418   0.636 -0.5182 -0.2945  0.2569
  919SOL     vw 3676   5.109   2.334   0.619 -0.3097 -0.3073  0.1035
  920SOL     ow 3677   4.634   3.841   0.634  0.3572 -0.3798 -0.8173
  920SOL     hw 3678   4.657   3.749   0.619  1.5039 -0.1772 -0.3876
  920SOL     hw 3679   4.586   3.841   0.716 -0.7616 -0.7389 -1.4471
  920SOL     vw 3680   4.630   3.829   0.643  0.3610 -0.4004 -0.8437
  921SOL     ow 3681   6.818   3.084   6.010 -0.2803  0.4003 -0.2479
  921SOL     hw 3682   6.834   3.110   5.919 -1.4905 -0.0508 -0.6055
  921SOL     hw 3683   6.812   3.167   6.058 -2.1485  0.7523 -1.0346
  921SOL     vw 3684   6.819   3.098   6.004 -0.6864  0.3873 -0.3991
  922SOL     ow 3685   2.838   0.354   0.399  0.0862  0.1520  0.1649
  922SOL     hw 3686   2.848   0.356   0.494  0.0494 -2.1105  0.2763
  922SOL     hw 3687   2.823   0.262   0.378  1.3481  0.3792 -2.1613
  922SOL     vw 3688   2.837   0.342   0.409  0.2478 -0.1165 -0.1273
  923SOL     ow 3689   5.991   6.926   4.122 -0.1373 -0.2294 -0.1776
  923SOL     hw 3690   5.908   6.886   4.098 -1.2259  0.3666  2.2879
  923SOL     hw 3691   5.967   7.008   4.166  1.6611 -0.5391  1.5348
  923SOL     vw 3692   5.977   6.932   4.125 -0.0439 -0.1915  0.3738
  924SOL     ow 3693   4.822   2.984   1.416 -0.8665 -0.6990  0.0581
  924SOL     hw 3694   4.875   3.045   1.467  0.7016  0.5080 -2.7897
  924SOL     hw 3695   4.732   3.006   1.439 -0.2438  0.5808  1.4282
  924SOL     vw 3696   4.817   2.995   1.425 -0.5774 -0.3709 -0.1369
  925SOL     ow 3697   1.744   6.793   1.800  0.4215 -0.6956  0.0065
  925SOL     hw 3698   1.786   6.798   1.714  1.7851  1.0007  0.7197
  925SOL     hw 3699   1.651   6.787   1.780  0.3541  3.0353 -1.6791
  925SOL     vw 3700   1.737   6.793   1.786  0.5924  0.0205 -0.1218
  926SOL     ow 3701   3.698   2.331   1.020  0.1898  0.1109  0.7346
  926SOL     hw 3702   3.738   2.307   0.937  0.1493  0.7023  0.5382
  926SOL     hw 3703   3.612   2.366   0.996 -0.0803 -0.3056  1.0776
  926SOL     vw 3704   3.692   2.333   1.006  0.1489  0.1340  0.7539
  927SOL     ow 3705   0.102   6.147   1.074  0.3319  0.2711 -0.2850
  927SOL     hw 3706   0.074   6.202   1.147 -1.6718 -2.0784  0.8629
  927SOL     hw 3707   0.197   6.148   1.078  0.3703  3.0219  0.0861
  927SOL     vw 3708   0.111   6.154   1.084  0.0726  0.3242 -0.0846
  928SOL     ow 3709   5.306   1.808   5.290  0.3176  0.0025 -0.1256
  928SOL     hw 3710   5.393   1.844   5.310 -0.8814  0.7554  5.3322
  928SOL     hw 3711   5.254   1.885   5.266  0.5534 -0.0477 -0.8100
  928SOL     vw 3712   5.311   1.823   5.290  0.1907  0.0952  0.5043
  929SOL     ow 3713   2.353   4.936   4.360 -0.7042  0.1327 -0.1746
  929SOL     hw 3714   2.339   4.977   4.275 -0.4919  1.6688  0.5096
  929SOL     hw 3715   2.446   4.951   4.380 -0.6782 -0.4675  0.2014
  929SOL     vw 3716   2.364   4.943   4.352 -0.6727  0.2561 -0.0348
  930SOL     ow 3717   1.817   2.814   2.714  0.5224 -0.2914 -0.0536
  930SOL     hw 3718   1.829   2.836   2.806  0.0232 -1.3064  0.2582
  930SOL     hw 3719   1.823   2.899   2.669  2.0821  0.0631  0.7530
  930SOL     vw 3720   1.820   2.828   2.720  0.6624 -0.3786  0.0938
  931SOL     ow 3721   1.366   4.568   6.291 -0.0173 -0.7331 -0.3641
  931SOL     hw 3722   1.406   4.622   6.359  0.1888 -2.7429  1.2390
  931SOL     hw 3723   1.277   4.553   6.321 -0.3444 -0.5564 -1.2321
  931SOL     vw 3724   1.360   4.573   6.304 -0.0332 -0.9749 -0.2675
  932SOL     ow 3725   0.744   5.076   2.831 -0.3925 -0.4006  1.1493
  932SOL     hw 3726   0.667   5.053   2.777 -0.2219  3.6831 -1.2064
  932SOL     hw 3727   0.708   5.123   2.906 -0.3369  1.9401 -0.1979
  932SOL     vw 3728   0.729   5.079   2.833 -0.3626  0.4470  0.6608
  933SOL     ow 3729   2.857   5.288   4.960  0.8416 -0.6135  1.2385
  933SOL     hw 3730   2.895   5.309   5.045  3.0427 -1.4281  0.5462
  933SOL     hw 3731   2.931   5.255   4.908  0.3241  2.6704 -2.0072
  933SOL     vw 3732   2.872   5.286   4.964  1.0637 -0.2880  0.7191
  934SOL     ow 3733   2.341   1.728   1.043 -0.2521 -0.0147 -0.2353
  934SOL     hw 3734   2.301   1.701   1.126  2.0913  0.0728  1.0181
  934SOL     hw 3735   2.282   1.695   0.976 -1.7338 -0.9652  1.4450
  934SOL     vw 3736   2.328   1.720   1.045 -0.1384 -0.1286  0.1518
  935SOL     ow 3737   1.567   0.388   6.131 -0.1707  0.2183 -0.5989
  935SOL     hw 3738   1.472   0.380   6.132 -0.1009 -0.8346  0.5289
  935SOL     hw 3739   1.597   0.314   6.078  0.0169  0.7627 -1.2661
  935SOL     vw 3740   1.558   0.377   6.124 -0.1367  0.1512 -0.5383
  936SOL     ow 3741   0.127   2.218   7.082 -0.3084 -0.1891 -0.2599
  936SOL     hw 3742   0.186   2.240   7.153 -0.1771 -3.5928  0.8723
  936SOL     hw 3743   0.178   2.161   7.025 -1.9292 -1.8564 -0.1481
  936SOL     vw 3744   0.142   2.214   7.083 -0.5049 -0.8581 -0.0958
  937SOL     ow 3745   0.635   3.069   5.704 -0.1265  0.0894 -0.5054
  937SOL     hw 3746   0.704   3.048   5.766 -1.2155  3.2599  2.0977
  937SOL     hw 3747   0.566   3.006   5.722  0.5016 -0.5240 -0.2105
  937SOL     vw 3748   0.635   3.058   5.714 -0.1873  0.4268 -0.1230
  938SOL     ow 3749   5.354   1.839   4.971  0.8030  0.3349 -0.5053
  938SOL     hw 3750   5.443   1.828   4.937  0.5680 -1.0301 -0.7575
  938SOL     hw 3751   5.362   1.816   5.064  1.1736  2.6931  0.1006
  938SOL     vw 3752   5.367   1.835   4.979  0.8209  0.4659 -0.4585
  939SOL     ow 3753   2.246   4.549   0.796 -0.0603  0.0425 -0.5825
  939SOL     hw 3754   2.163   4.549   0.749  0.2241 -1.0230 -1.1186
  939SOL     hw 3755   2.309   4.510   0.734  0.7762  0.5765 -0.0903
  939SOL     vw 3756   2.243   4.544   0.781  0.0876 -0.0279 -0.5883
  940SOL     ow 3757   5.587   0.343   2.685 -0.2342  1.1766  0.3503
  940SOL     hw 3758   5.552   0.285   2.752 -1.8988  0.4855 -1.0269
  940SOL     hw 3759   5.513   0.399   2.660  0.2605  1.2619 -1.0479
  940SOL     vw 3760   5.572   0.343   2.691 -0.3889  1.0966 -0.0159
  941SOL     ow 3761   5.320   2.156   2.157 -0.1119  0.4838 -0.2164
  941SOL     hw 3762   5.247   2.097   2.140  0.4352 -0.1623 -0.3436
  941SOL     hw 3763   5.330   2.205   2.075 -0.0032  0.1408 -0.4078
  941SOL     vw 3764   5.311   2.155   2.144 -0.0253  0.3533 -0.2584
  942SOL     ow 3765   1.968   4.850   3.306  0.8641  0.4330  0.0104
  942SOL     hw 3766   1.987   4.788   3.376  0.5690  0.7978  0.4152
  942SOL     hw 3767   1.942   4.930   3.351  2.3448  1.2264 -0.4756
  942SOL     vw 3768   1.967   4.852   3.321  1.0206  0.5858 -0.0004
  943SOL     ow 3769   5.666   3.159   4.093  0.8310 -0.7091  0.4769
  943SOL     hw 3770   5.746   3.157   4.040  1.1797 -0.2275  0.9667
  943SOL     hw 3771   5.691   3.210   4.171 -0.2371  0.3191  0.1618
  943SOL     vw 3772   5.680   3.166   4.097  0.7362 -0.5099  0.5002
  944SOL     ow 3773   2.393   4.908   0.506  0.3997  0.4391 -0.0984
  944SOL     hw 3774   2.473   4.902   0.453 -0.0706 -1.5508 -0.6773
  944SOL     hw 3775   2.346   4.984   0.471  0.7641 -0.0015 -1.6150
  944SOL     vw 3776   2.397   4.917   0.495  0.3858  0.1183 -0.3748
  945SOL     ow 3777   3.590   7.044   3.687 -0.8647 -0.0984  0.3300
  945SOL     hw 3778   3.648   7.028   3.612  0.0360 -0.6078  1.1186
  945SOL     hw 3779   3.527   6.972   3.685 -1.0586  0.0832 -0.1418
  945SOL     vw 3780   3.590   7.032   3.677 -0.7714 -0.1416  0.3719
  946SOL     ow 3781   0.407   6.086   4.774 -0.2929  0.3266 -0.1803
  946SOL     hw 3782   0.361   6.143   4.835 -1.2740  2.6722 -2.9015
  946SOL     hw 3783   0.431   6.142   4.701 -0.3539 -2.5146 -2.5929
  946SOL     vw 3784   0.404   6.101   4.772 -0.4304  0.2613 -0.8576
  947SOL     ow 3785   1.954   2.535   2.702 -0.8151  0.7329  0.1167
  947SOL     hw 3786   2.031   2.487   2.674 -0.9587 -0.6262  1.8694
  947SOL     hw 3787   1.958   2.534   2.798 -3.0352  0.5173  0.2725
  947SOL     vw 3788   1.964   2.528   2.711 -1.1270  0.5251  0.3685
  948SOL     ow 3789   5.890   5.275   0.887  0.1479  0.1796  0.5965
  948SOL     hw 3790   5.860   5.340   0.824  0.3358  2.0954  2.3617
  948SOL     hw 3791   5.960   5.227   0.843 -0.0465  1.1285 -0.7783
  948SOL     vw 3792   5.895   5.277   0.873  0.1473  0.5577  0.6480
  949SOL     ow 3793   7.113   5.859   5.637 -0.2833 -0.0681  0.0183
  949SOL     hw 3794   7.110   5.905   5.553 -0.7229  0.4879  0.3369
  949SOL     hw 3795   7.023   5.833   5.654 -0.4555  1.0530  0.9865
  949SOL     vw 3796   7.101   5.861   5.628 -0.3641  0.1528  0.1884
  950SOL     ow 3797   5.230   4.477   1.605  0.9295 -0.0687 -0.3597
  950SOL     hw 3798   5.244   4.560   1.651 -0.1701 -0.7583  1.3352
  950SOL     hw 3799   5.148   4.443   1.642  0.4600 -1.1193 -2.2362
  950SOL     vw 3800   5.221   4.483   1.616  0.7226 -0.2980 -0.3837
  951SOL     ow 3801   3.154   2.491   0.366 -0.4114  0.1345  0.4812
  951SOL     hw 3802   3.120   2.453   0.447 -1.4152  0.5713  0.2749
  951SOL     hw 3803   3.190   2.416   0.318  1.3284  0.0247  1.8382
  951SOL     vw 3804   3.154   2.476   0.370 -0.3142  0.1777  0.6330
  952SOL     ow 3805   4.382   0.276   1.807  0.2284  0.1447  0.4519
  952SOL     hw 3806   4.305   0.225   1.781  0.1368 -1.1520  2.9746
  952SOL     hw 3807   4.452   0.243   1.751 -0.2798 -1.3318  0.6380
  952SOL     vw 3808   4.381   0.265   1.796  0.1493 -0.2212  0.8093
  953SOL     ow 3809   6.384   2.072   5.439  0.2754  0.1121 -1.1275
  953SOL     hw 3810   6.326   2.119   5.379 -0.7442 -0.5287 -0.6696
  953SOL     hw 3811   6.328   2.008   5.482  0.7876  1.0288  1.0493
  953SOL     vw 3812   6.369   2.070   5.437  0.2086  0.1485 -0.7799
  954SOL     ow 3813   6.392   6.633   5.349 -0.5099 -0.3057  0.1335
  954SOL     hw 3814   6.402   6.728   5.357  1.4491 -0.5584  1.4674
  954SOL     hw 3815   6.319   6.621   5.289 -1.7697  2.0536  1.0582
  954SOL     vw 3816   6.383   6.644   5.342 -0.4175 -0.0279  0.4315
  955SOL     ow 3817   5.315   5.629   3.445  0.5331 -0.3704 -0.0874
  955SOL     hw 3818   5.259   5.559   3.413  0.1991  0.7430 -2.0625
  955SOL     hw 3819   5.400   5.613   3.403  0.1939  0.9029 -1.3116
  955SOL     vw 3820   5.319   5.618   3.436  0.4442 -0.0553 -0.5095
  956SOL     ow 3821   4.003   5.256   2.568 -0.2300 -0.0124 -0.5527
  956SOL     hw 3822   3.962   5.312   2.633  0.0672  2.0201 -2.0084
  956SOL     hw 3823   4.072   5.210   2.616 -0.1166  1.2925  0.6155
  956SOL     vw 3824   4.007   5.257   2.583 -0.1760  0.4277 -0.5906
  957SOL     ow 3825   4.806   6.901   2.773  0.3463 -0.6256  0.1404
  957SOL     hw 3826   4.806   6.858   2.687  0.9604  0.5279 -0.4666
  957SOL     hw 3827   4.899   6.913   2.793  0.2275 -1.4897  1.2999
  957SOL     vw 3828   4.819   6.897   2.764  0.4117 -0.5875  0.2134
  958SOL     ow 3829   1.442   1.444   3.503 -0.0356  0.4322 -0.2151
  958SOL     hw 3830   1.494   1.474   3.429  1.3458 -1.1330  0.0551
  958SOL     hw 3831   1.474   1.495   3.578  1.5696 -0.8543  0.0473
  958SOL     vw 3832   1.453   1.454   3.503  0.3585  0.0560 -0.1447
  959SOL     ow 3833   6.439   5.493   0.073 -0.1752 -0.1448 -0.3187
  959SOL     hw 3834   6.359   5.523   0.114  0.0232  1.3790 -0.9615
  959SOL     hw 3835   6.485   5.573   0.048  1.9084 -0.9406  0.6866
  959SOL     vw 3836   6.435   5.507   0.075  0.1256 -0.0486 -0.2709
  960SOL     ow 3837   4.034   5.970   3.541  0.5372 -0.7990  0.3139
  960SOL     hw 3838   3.994   5.885   3.560 -2.0696  0.2288 -0.0692
  960SOL     hw 3839   4.000   6.028   3.610  0.2577  0.4458 -0.8381
  960SOL     vw 3840   4.024   5.967   3.553  0.1564 -0.4992  0.1113
  961SOL     ow 3841   3.366   5.777   4.613 -0.2412 -0.1325 -0.3570
  961SOL     hw 3842   3.398   5.821   4.691  2.7874  1.3745 -2.2379
  961SOL     hw 3843   3.282   5.739   4.639  0.7696 -0.0596  3.6542
  961SOL     vw 3844   3.359   5.778   4.626  0.2918  0.0763 -0.0758
  962SOL     ow 3845   2.563   6.766   1.504  0.4094 -0.2338  0.1848
  962SOL     hw 3846   2.574   6.672   1.492 -1.9702 -0.8043  1.7335
  962SOL     hw 3847   2.547   6.777   1.598 -2.1760  1.3239 -0.3382
  962SOL     vw 3848   2.562   6.755   1.515 -0.2458 -0.1035  0.3202
  963SOL     ow 3849   7.058   5.757   2.736  0.2745 -0.6091 -0.0324
  963SOL     hw 3850   6.963   5.755   2.725  0.3303 -1.3497 -0.4980
  963SOL     hw 3851   7.078   5.846   2.764 -0.6643 -0.7502  1.1649
  963SOL     vw 3852   7.048   5.768   2.738  0.1581 -0.7255  0.0641
  964SOL     ow 3853   0.420   6.177   0.008  0.5294  0.7277 -0.0409
  964SOL     hw 3854   0.329   6.199   0.024 -0.1652 -2.3818  1.0622
  964SOL     hw 3855   0.469   6.255   0.033 -1.6948  1.6172  1.8670
  964SOL     vw 3856   0.415   6.190   0.014  0.1443  0.4346  0.3564
  965SOL     ow 3857   2.879   1.588   6.974 -0.9399  0.1866  0.9792
  965SOL     hw 3858   2.796   1.615   7.014 -0.9385  0.6288  0.6995
  965SOL     hw 3859   2.866   1.605   6.880 -1.1081 -1.2384  0.7198
  965SOL     vw 3860   2.866   1.594   6.967 -0.9620  0.0570  0.9079
  966SOL     ow 3861   3.476   4.714   2.669 -1.0133 -0.2151 -0.0178
  966SOL     hw 3862   3.470   4.804   2.700  0.5637  0.3426 -1.2076
  966SOL     hw 3863   3.408   4.707   2.603 -0.8904  0.2277 -0.1960
  966SOL     vw 3864   3.466   4.725   2.665 -0.7889 -0.0832 -0.1985
  967SOL     ow 3865   5.657   4.173   2.094 -0.6664  0.7356  0.0202
  967SOL     hw 3866   5.646   4.079   2.107 -1.5087  0.6064 -1.3722
  967SOL     hw 3867   5.670   4.208   2.182  1.7423 -0.8928  0.4192
  967SOL     vw 3868   5.657   4.165   2.108 -0.4599  0.5035 -0.1109
  968SOL     ow 3869   6.295   1.862   1.504 -0.2270 -0.4707  0.4394
  968SOL     hw 3870   6.341   1.788   1.542  0.3927  0.4871  1.6373
  968SOL     hw 3871   6.313   1.935   1.564 -0.3595  0.7799 -0.9768
  968SOL     vw 3872   6.303   1.862   1.517 -0.1628 -0.1794  0.4106
  969SOL     ow 3873   5.186   0.574   3.952  0.1080  0.8454  0.2713
  969SOL     hw 3874   5.177   0.578   4.047 -0.5010 -0.7690  0.3171
  969SOL     hw 3875   5.097   0.573   3.920  0.2619  3.5983 -0.5152
  969SOL     vw 3876   5.173   0.574   3.961  0.0482  0.9956  0.1736
  970SOL     ow 3877   5.319   0.745   1.172  1.0551  0.2287  0.3471
  970SOL     hw 3878   5.286   0.657   1.154  0.5117  0.3923  0.5388
  970SOL     hw 3879   5.311   0.754   1.267  0.5891  0.6948  0.2624
  970SOL     vw 3880   5.314   0.734   1.182  0.9217  0.3118  0.3612
  971SOL     ow 3881   3.110   2.584   6.432 -0.5581  0.3252 -0.3972
  971SOL     hw 3882   3.074   2.670   6.410  0.2719  0.9493  0.6397
  971SOL     hw 3883   3.108   2.581   6.527 -0.2502 -0.6745 -0.4172
  971SOL     vw 3884   3.105   2.595   6.442 -0.4081  0.2757 -0.2630
  972SOL     ow 3885   1.203   2.576   0.739  0.2449  0.0212  0.1578
  972SOL     hw 3886   1.112   2.547   0.749  1.5151 -4.8243  0.2215
  972SOL     hw 3887   1.232   2.596   0.828 -0.2133 -0.3473  0.3917
  972SOL     vw 3888   1.195   2.575   0.752  0.3520 -0.6667  0.1971
  973SOL     ow 3889   1.959   4.882   1.920 -0.2730 -0.3441  0.0823
  973SOL     hw 3890   1.989   4.969   1.891 -2.1217  0.9320  1.7058
  973SOL     hw 3891   1.956   4.889   2.015  4.0993 -3.8434  0.7926
  973SOL     vw 3892   1.962   4.895   1.929  0.0599 -0.6375  0.3902
  974SOL     ow 3893   1.055   4.178   5.327  0.6323 -0.5294  0.7755
  974SOL     hw 3894   1.064   4.115   5.256  3.7419 -0.2095  0.7514
  974SOL     hw 3895   1.084   4.131   5.405 -0.8776 -0.2833  1.5229
  974SOL     vw 3896   1.060   4.163   5.328  0.8435 -0.4549  0.8709
  975SOL     ow 3897   3.740   2.060   1.026  0.3641 -0.0503 -0.9522
  975SOL     hw 3898   3.777   1.975   1.000  0.9657 -0.0884 -0.0433
  975SOL     hw 3899   3.646   2.052   1.009  0.8437  0.5726 -4.7619
  975SOL     vw 3900   3.733   2.047   1.020  0.5068  0.0269 -1.3349
  976SOL     ow 3901   4.754   5.479   2.262 -0.2014  0.0828 -0.1606
  976SOL     hw 3902   4.820   5.534   2.304  1.1873  0.8159 -3.0441
  976SOL     hw 3903   4.707   5.438   2.335  3.2725 -0.3352  2.0676
  976SOL     vw 3904   4.757   5.481   2.277  0.4401  0.1242 -0.2472
  977SOL     ow 3905   1.328   3.423   4.718 -0.4975 -0.0644 -0.2498
  977SOL     hw 3906   1.312   3.459   4.631 -0.6145 -0.4358 -0.3836
  977SOL     hw 3907   1.328   3.328   4.705  0.7880 -0.1034 -0.0801
  977SOL     vw 3908   1.326   3.415   4.704 -0.3433 -0.1186 -0.2451
  978SOL     ow 3909   1.520   3.973   4.093 -0.2488 -0.6356 -0.1192
  978SOL     hw 3910   1.489   3.918   4.021 -0.0531 -0.4995 -0.3085
  978SOL     hw 3911   1.510   3.918   4.170 -2.0153 -0.2227 -0.0042
  978SOL     vw 3912   1.515   3.958   4.093 -0.4561 -0.5631 -0.1285
  979SOL     ow 3913   6.711   2.256   2.164 -0.1208  0.2576  0.4075
  979SOL     hw 3914   6.803   2.255   2.138  1.1326  3.1069  3.7977
  979SOL     hw 3915   6.674   2.332   2.119 -1.3548 -1.6501 -2.0201
  979SOL     vw 3916   6.718   2.266   2.155 -0.1183  0.3818  0.5344
  980SOL     ow 3917   6.363   5.262   3.166  0.2711  0.0748  0.6307
  980SOL     hw 3918   6.361   5.275   3.071 -3.3115  0.5320  0.6510
  980SOL     hw 3919   6.440   5.311   3.195 -0.3836  2.7250 -1.7031
  980SOL     vw 3920   6.373   5.270   3.157 -0.2880  0.4847  0.3253
  981SOL     ow 3921   6.741   3.823   3.236 -0.0463 -0.3917  0.3725
  981SOL     hw 3922   6.800   3.747   3.238 -1.0213 -1.1581  1.6781
  981SOL     hw 3923   6.683   3.806   3.163  0.2901 -0.4702  0.1211
  981SOL     vw 3924   6.741   3.811   3.227 -0.1304 -0.5032  0.5115
  982SOL     ow 3925   0.715   3.869   6.567  0.5283 -0.2935 -0.4989
  982SOL     hw 3926   0.782   3.890   6.632 -0.0890  0.3837 -0.0738
  982SOL     hw 3927   0.730   3.931   6.496 -1.4470  1.8730  0.8622
  982SOL     vw 3928   0.726   3.880   6.566  0.1862  0.0817 -0.2632
  983SOL     ow 3929   1.956   1.363   1.443  0.1417  0.1664 -0.6205
  983SOL     hw 3930   1.978   1.443   1.491  1.2506 -0.7838  0.5701
  983SOL     hw 3931   2.037   1.340   1.397  0.0345 -0.5655 -0.4635
  983SOL     vw 3932   1.970   1.370   1.443  0.2738 -0.0556 -0.4427
  984SOL     ow 3933   2.408   0.233   0.647  0.5328  0.2142 -0.1554
  984SOL     hw 3934   2.448   0.252   0.732 -1.2275  0.7563  0.6014
  984SOL     hw 3935   2.353   0.157   0.663 -0.6241  0.9479 -0.5224
  984SOL     vw 3936   2.406   0.226   0.660  0.1479  0.3825 -0.1040
  985SOL     ow 3937   1.675   2.653   5.166  0.3706  0.6694  0.7203
  985SOL     hw 3938   1.636   2.739   5.183  0.3228  1.0231 -1.0790
  985SOL     hw 3939   1.619   2.614   5.099  0.6985 -0.5741  1.1345
  985SOL     vw 3940   1.662   2.659   5.160  0.4076  0.5519  0.5376
  986SOL     ow 3941   4.037   0.753   2.260  0.2273  0.0393 -0.1511
  986SOL     hw 3942   4.106   0.796   2.209  0.2957  0.3191  0.1777
  986SOL     hw 3943   4.079   0.728   2.342 -0.2045  0.7242  0.2863
  986SOL     vw 3944   4.052   0.755   2.264  0.1793  0.1666 -0.0501
  987SOL     ow 3945   1.148   1.498   2.704 -0.3005  0.1204  0.4710
  987SOL     hw 3946   1.202   1.429   2.742 -1.2514 -0.4500  0.8167
  987SOL     hw 3947   1.060   1.462   2.703 -0.7999  1.2921  0.5537
  987SOL     vw 3948   1.144   1.484   2.709 -0.4918  0.1998  0.5275
  988SOL     ow 3949   6.187   1.829   6.049 -0.0742  0.7424  0.9667
  988SOL     hw 3950   6.259   1.787   6.096 -1.0968 -0.3988  1.5649
  988SOL     hw 3951   6.125   1.855   6.117 -1.2710 -0.3310  0.3194
  988SOL     vw 3952   6.188   1.827   6.064 -0.3669  0.4502  0.9601
  989SOL     ow 3953   2.919   0.699   3.364 -0.1397 -0.3573  0.4427
  989SOL     hw 3954   2.865   0.621   3.380 -0.5941 -0.1570 -0.0887
  989SOL     hw 3955   2.856   0.771   3.365  0.1755 -0.0812  0.1754
  989SOL     vw 3956   2.904   0.698   3.367 -0.1581 -0.2944  0.3374
  990SOL     ow 3957   6.455   4.145   4.935  0.6181 -0.2961 -0.5273
  990SOL     hw 3958   6.370   4.123   4.973  0.8275  0.8012  0.6619
  990SOL     hw 3959   6.519   4.106   4.994  0.9555  1.6681  0.4876
  990SOL     vw 3960   6.452   4.137   4.948  0.6902  0.1080 -0.2363
  991SOL     ow 3961   0.839   1.709   6.150 -0.3595 -0.4707  0.1913
  991SOL     hw 3962   0.928   1.721   6.119 -0.2163 -2.0776 -0.1335
  991SOL     hw 3963   0.793   1.669   6.076 -1.0030 -0.8398  0.7771
  991SOL     vw 3964   0.844   1.705   6.137 -0.4255 -0.7313  0.2258
  992SOL     ow 3965   0.238   6.382   3.969 -0.6563 -0.7026  0.2367
  992SOL     hw 3966   0.273   6.401   4.056 -1.9418  1.4369  0.3649
  992SOL     hw 3967   0.246   6.464   3.922 -3.2603 -0.7652 -0.4646
  992SOL     vw 3968   0.244   6.395   3.974 -1.1695 -0.4284  0.1611
  993SOL     ow 3969   7.094   3.461   4.278  0.0320 -0.1671  0.1309
  993SOL     hw 3970   7.079   3.372   4.247 -0.6401 -0.4944  1.3381
  993SOL     hw 3971   7.093   3.515   4.198 -0.9705 -1.0455 -0.4703
  993SOL     vw 3972   7.092   3.456   4.263 -0.1893 -0.3263  0.2108
  994SOL     ow 3973   2.616   4.427   5.477  0.3233 -0.7105  0.2134
  994SOL     hw 3974   2.602   4.349   5.424 -0.9830  0.8957 -1.9574
  994SOL     hw 3975   2.533   4.439   5.524  0.7523 -0.9413  1.0682
  994SOL     vw 3976   2.603   4.418   5.476  0.2077 -0.5291  0.0398
  995SOL     ow 3977   4.639   4.507   4.852  0.2667  0.2336 -0.2947
  995SOL     hw 3978   4.635   4.534   4.944 -2.4539 -0.3517 -0.1458
  995SOL     hw 3979   4.636   4.411   4.855  0.2109  0.2069 -0.9857
  995SOL     vw 3980   4.638   4.498   4.864 -0.0997  0.1531 -0.3660
  996SOL     ow 3981   3.046   4.467   5.842 -0.0975 -0.2632  0.1115
  996SOL     hw 3982   3.029   4.550   5.887  2.0679 -0.2998  1.1184
  996SOL     hw 3983   2.980   4.407   5.878 -0.4908  0.5581  0.7982
  996SOL     vw 3984   3.035   4.470   5.853  0.1363 -0.1597  0.3350
  997SOL     ow 3985   1.362   1.794   5.412  0.1169  0.2287 -0.0115
  997SOL     hw 3986   1.413   1.768   5.335 -0.5957  0.2948 -0.5120
  997SOL     hw 3987   1.386   1.730   5.479  1.1636  0.4984 -0.1074
  997SOL     vw 3988   1.372   1.783   5.411  0.1611  0.2730 -0.0901
  998SOL     ow 3989   0.130   5.811   2.521 -0.4205  0.5993 -0.0023
  998SOL     hw 3990   0.118   5.874   2.450 -0.8514  0.7162  0.1710
  998SOL     hw 3991   0.180   5.858   2.587  0.3090  0.3727 -0.3792
  998SOL     vw 3992   0.135   5.826   2.520 -0.3811  0.5846 -0.0291
  999SOL     ow 3993   3.633   3.010   6.160 -0.2140 -0.1818 -0.0922
  999SOL     hw 3994   3.568   2.948   6.193  1.0857 -1.8158 -0.4648
  999SOL     hw 3995   3.689   3.028   6.235  0.4846 -0.9168 -0.4205
  999SOL     vw 3996   3.632   3.004   6.174  0.0496 -0.4944 -0.1845
 1000SOL     ow 3997   6.570   4.504   3.909  0.5604 -0.0604  0.3960
 1000SOL     hw 3998   6.581   4.598   3.926  0.5222  0.4262 -1.9789
 1000SOL     hw 3999   6.570   4.496   3.814 -0.7973 -2.3200  0.4979
 1000SOL     vw 4000   6.571   4.515   3.899  0.3760 -0.2942  0.0962
 1001SOL     ow 4001   5.273   4.000   1.247 -0.2020 -0.5126  0.0862
 1001SOL     hw 4002   5.339   3.979   1.180 -1.3332 -1.1333 -0.8705
 1001SOL     hw 4003   5.204   3.935   1.234 -0.9776  0.0763  1.1170
 1001SOL     vw 4004   5.273   3.989   1.236 -0.4535 -0.5168  0.0958
 1002SOL     ow 4005   3.951   1.249   5.465 -0.3178  0.5065  0.5926
 1002SOL     hw 4006   4.044   1.229   5.474 -0.4235 -0.8570 -0.7999
 1002SOL     hw 4007   3.909   1.205   5.539  0.0222 -0.1306  0.4185
 1002SOL     vw 4008   3.958   1.240   5.476 -0.2869  0.2427  0.3862
 1003SOL     ow 4009   6.603   2.944   5.365  0.3056 -0.1580  0.0753
 1003SOL     hw 4010   6.525   2.992   5.393  0.0664  0.3221 -1.3154
 1003SOL     hw 4011   6.568   2.872   5.312  0.7638 -0.5136  0.2554
 1003SOL     vw 4012   6.588   2.941   5.361  0.3345 -0.1415 -0.0844
 1004SOL     ow 4013   6.903   2.902   6.862 -0.1339 -0.0284  0.8037
 1004SOL     hw 4014   6.936   2.874   6.947  0.3948 -0.6155  0.4120
 1004SOL     hw 4015   6.808   2.888   6.867 -0.0013 -0.8972  0.9846
 1004SOL     vw 4016   6.894   2.896   6.874 -0.0465 -0.2205  0.7758
 1005SOL     ow 4017   6.749   1.366   4.276 -0.1801  0.1428  0.3422
 1005SOL     hw 4018   6.814   1.420   4.232 -0.3957  2.5008  2.7194
 1005SOL     hw 4019   6.671   1.372   4.220  0.8226 -0.6845 -1.2271
 1005SOL     vw 4020   6.747   1.374   4.263 -0.0763  0.3448  0.4489
 1006SOL     ow 4021   4.172   0.694   2.491 -0.1106 -0.0201 -0.0191
 1006SOL     hw 4022   4.263   0.672   2.510 -0.0235  0.8419  0.6207
 1006SOL     hw 4023   4.121   0.626   2.534  0.2346 -2.9537 -3.7101
 1006SOL     vw 4024   4.177   0.682   2.499 -0.0536 -0.2934 -0.4216
 1007SOL     ow 4025   4.701   2.697   6.202  0.2947  0.1857 -0.5020
 1007SOL     hw 4026   4.774   2.692   6.265 -2.6519 -2.6775  3.1335
 1007SOL     hw 4027   4.643   2.763   6.240 -1.4444 -1.4456 -0.2142
 1007SOL     vw 4028   4.703   2.705   6.216 -0.3233 -0.4072  0.0155
 1008SOL     ow 4029   6.128   6.411   2.954  0.3966 -0.0722 -0.5721
 1008SOL     hw 4030   6.064   6.360   2.905  0.1748 -0.5023  0.1423
 1008SOL     hw 4031   6.091   6.417   3.042  2.0422 -1.6542  0.2852
 1008SOL     vw 4032   6.115   6.405   2.959  0.5844 -0.3378 -0.3647
 1009SOL     ow 4033   4.003   3.035   4.280  0.3945  0.0796 -0.3580
 1009SOL     hw 4034   4.042   3.043   4.193 -0.2022 -0.9705 -0.7356
 1009SOL     hw 4035   3.937   3.105   4.283  0.8246  0.4963 -0.5226
 1009SOL     vw 4036   3.999   3.045   4.269  0.3724 -0.0041 -0.4296
 1010SOL     ow 4037   3.140   0.755   3.560  0.4479  0.0833  0.1192
 1010SOL     hw 4038   3.063   0.724   3.512 -0.2615 -0.1767  1.3819
 1010SOL     hw 4039   3.132   0.850   3.559 -0.3841  0.0436  0.9765
 1010SOL     vw 4040   3.128   0.763   3.553  0.2445  0.0438  0.3990
 1011SOL     ow 4041   1.636   2.191   4.249  0.1272  0.0993 -0.2362
 1011SOL     hw 4042   1.635   2.275   4.202  2.7144 -0.6919 -1.9057
 1011SOL     hw 4043   1.724   2.185   4.286 -0.1237 -1.7282  0.1473
 1011SOL     vw 4044   1.647   2.201   4.247  0.4355 -0.2460 -0.4058
 1012SOL     ow 4045   7.137   1.787   0.375 -0.1087 -0.2848  0.2963
 1012SOL     hw 4046   7.186   1.774   0.293  2.2116 -1.6745  1.7719
 1012SOL     hw 4047   7.056   1.831   0.348  0.3893 -0.9910 -2.7688
 1012SOL     vw 4048   7.133   1.791   0.361  0.2631 -0.5613  0.0866
 1013SOL     ow 4049   0.521   2.185   1.557 -0.0118  0.0585 -0.0385
 1013SOL     hw 4050   0.462   2.260   1.554 -1.0001 -0.6701  0.8502
 1013SOL     hw 4051   0.608   2.223   1.542 -0.6181  1.2139 -0.7669
 1013SOL     vw 4052   0.525   2.200   1.554 -0.2222  0.1147 -0.0173
 1014SOL     ow 4053   2.899   3.490   3.861 -0.1366 -0.9144 -0.3577
 1014SOL     hw 4054   2.915   3.414   3.804  0.2596 -1.4724  0.4726
 1014SOL     hw 4055   2.911   3.456   3.950 -0.8061 -0.0784  0.0683
 1014SOL     vw 4056   2.902   3.475   3.865 -0.1726 -0.8777 -0.1920
 1015SOL     ow 4057   4.707   4.981   6.563  0.0289 -0.5669  0.3976
 1015SOL     hw 4058   4.654   5.059   6.543  0.6670  0.9218  3.7382
 1015SOL     hw 4059   4.673   4.913   6.505 -2.8282  1.3467 -0.3946
 1015SOL     vw 4060   4.695   4.983   6.553 -0.2639 -0.1180  0.7336
 1016SOL     ow 4061   5.338   6.947   0.619 -0.9387  0.1501  0.0919
 1016SOL     hw 4062   5.419   6.998   0.617 -0.3554 -0.7759 -1.9544
 1016SOL     hw 4063   5.268   7.012   0.624 -0.1244  0.9915  0.9293
 1016SOL     vw 4064   5.340   6.962   0.620 -0.7544  0.1390 -0.0676
 1017SOL     ow 4065   0.009   4.492   7.037 -0.9017  0.0669 -0.4019
 1017SOL     hw 4066  -0.008   4.415   6.981  0.6418 -1.7278  1.4330
 1017SOL     hw 4067   0.097   4.521   7.011 -0.9742  0.4485 -0.2237
 1017SOL     vw 4068   0.018   4.485   7.026 -0.7076 -0.1197 -0.1361
 1018SOL     ow 4069   4.998   2.561   0.047 -0.4982  0.7240 -0.0574
 1018SOL     hw 4070   4.955   2.487   0.004 -0.1683  1.8044 -2.4066
 1018SOL     hw 4071   5.086   2.563   0.008  0.9578  0.0064  2.8873
 1018SOL     vw 4072   5.004   2.551   0.036 -0.2630  0.7719  0.0212
 1019SOL     ow 4073   0.530   2.834   6.307  0.5473  0.2060 -0.0696
 1019SOL     hw 4074   0.523   2.763   6.242  1.3656 -0.4777  0.5588
 1019SOL     hw 4075   0.559   2.910   6.256  0.2005 -0.0548 -0.6668
 1019SOL     vw 4076   0.533   2.835   6.292  0.6095  0.0813 -0.0653
 1020SOL     ow 4077   0.197   3.804   1.265 -0.3744  0.2494  0.6180
 1020SOL     hw 4078   0.170   3.747   1.194 -0.4582 -0.1780  0.9904
 1020SOL     hw 4079   0.291   3.815   1.252 -0.2915 -0.2767  0.7616
 1020SOL     vw 4080   0.206   3.798   1.254 -0.3745  0.1236  0.6860
 1021SOL     ow 4081   3.821   2.341   0.778 -0.0326  0.3500  0.2817
 1021SOL     hw 4082   3.913   2.327   0.798 -0.3683 -0.6045  1.2961
 1021SOL     hw 4083   3.801   2.277   0.709 -0.2449 -0.4154  1.0324
 1021SOL     vw 4084   3.830   2.330   0.771 -0.1049  0.1231  0.5146
 1022SOL     ow 4085   5.907   1.567   3.178 -0.3651 -0.4907  0.5315
 1022SOL     hw 4086   5.815   1.551   3.199 -0.6533 -1.0685 -1.0520
 1022SOL     hw 4087   5.939   1.483   3.146  1.0286 -0.5815  2.0174
 1022SOL     vw 4088   5.899   1.554   3.177 -0.2189 -0.5789  0.5186
 1023SOL     ow 4089   3.031   0.610   6.677  0.8087 -0.1268  0.7710
 1023SOL     hw 4090   3.078   0.679   6.723  1.3603 -1.4200  2.2355
 1023SOL     hw 4091   3.073   0.529   6.706  1.8749 -1.0301 -2.8167
 1023SOL     vw 4092   3.042   0.608   6.687  1.0221 -0.4166  0.4904
 1024SOL     ow 4093   3.398   3.330   2.901 -0.7799  0.9069  0.2755
 1024SOL     hw 4094   3.332   3.276   2.859 -0.3377  1.6822 -1.5324
 1024SOL     hw 4095   3.468   3.269   2.924 -1.7859  0.1867  1.6063
 1024SOL     vw 4096   3.399   3.315   2.898 -0.8541  0.9141  0.2127
 1025SOL     ow 4097   2.014   4.172   3.983 -0.6024 -0.3354 -0.2177
 1025SOL     hw 4098   2.029   4.088   3.939  1.4660  0.2766 -0.8210
 1025SOL     hw 4099   2.090   4.225   3.959 -1.4984  1.4752  0.7404
 1025SOL     vw 4100   2.026   4.168   3.974 -0.4476 -0.0157 -0.1711
 1026SOL     ow 4101   2.245   4.995   0.195  0.0728  0.6373  0.1428
 1026SOL     hw 4102   2.239   5.054   0.270  2.0692  1.5618 -0.3574
 1026SOL     hw 4103   2.329   5.016   0.155  0.1457 -1.5224 -0.9607
 1026SOL     vw 4104   2.255   5.006   0.199  0.3457  0.4742 -0.0688
 1027SOL     ow 4105   0.852   2.062   6.263  0.2426 -0.3091  0.8119
 1027SOL     hw 4106   0.797   2.139   6.247 -0.1146 -0.6109  0.5788
 1027SOL     hw 4107   0.924   2.095   6.317  0.6895  0.4250 -0.2169
 1027SOL     vw 4108   0.854   2.076   6.268  0.2545 -0.2521  0.6454
 1028SOL     ow 4109   0.028   4.909   7.055 -0.6724 -0.4010  0.4442
 1028SOL     hw 4110  -0.066   4.903   7.070 -0.4702 -0.8849  1.6052
 1028SOL     hw 4111   0.047   5.003   7.060 -0.9973 -0.3558  0.8167
 1028SOL     vw 4112   0.018   4.921   7.057 -0.6888 -0.4587  0.6466
 1029SOL     ow 4113   2.882   1.930   5.619 -0.1193 -0.4647 -0.7895
 1029SOL     hw 4114   2.924   1.933   5.705 -2.1562  2.9743  0.2905
 1029SOL     hw 4115   2.794   1.897   5.636 -0.8642  1.1402 -1.3214
 1029SOL     vw 4116   2.876   1.926   5.632 -0.4863  0.2007 -0.7172
 1030SOL     ow 4117   0.882   2.148   6.999 -0.3676 -0.3923  0.5219
 1030SOL     hw 4118   0.924   2.097   6.930  1.6821 -1.0407  2.1406
 1030SOL     hw 4119   0.804   2.098   7.022 -0.1470 -1.0639 -0.1438
 1030SOL     vw 4120   0.877   2.135   6.993 -0.0681 -0.5664  0.6475
 1031SOL     ow 4121   3.075   1.573   2.763 -0.0473 -0.0859 -0.4297
 1031SOL     hw 4122   3.034   1.524   2.835 -1.1453 -0.7559 -1.4842
 1031SOL     hw 4123   3.158   1.528   2.748 -0.4334 -0.8001 -0.4866
 1031SOL     vw 4124   3.081   1.561   2.771 -0.2432 -0.2685 -0.5763
 1032SOL     ow 4125   1.926   2.112   0.715 -0.0391  0.8156 -0.2069
 1032SOL     hw 4126   1.841   2.154   0.732  0.1754  0.7142  1.1780
 1032SOL     hw 4127   1.936   2.048   0.785  1.6366  1.5367  0.2520
 1032SOL     vw 4128   1.916   2.109   0.726  0.2103  0.8974  0.0364
 1033SOL     ow 4129   6.046   1.444   4.760  0.5190  0.0999  0.1183
 1033SOL     hw 4130   6.137   1.465   4.784 -0.0366  1.2227  1.3759
 1033SOL     hw 4131   5.993   1.491   4.824 -1.1092  3.0743 -3.0758
 1033SOL     vw 4132   6.051   1.453   4.771  0.2308  0.6405 -0.1373
 1034SOL     ow 4133   4.866   0.465   2.431  0.0434 -0.5026  0.2082
 1034SOL     hw 4134   4.858   0.543   2.376  0.5723  1.8333  3.1666
 1034SOL     hw 4135   4.788   0.468   2.487  0.6956 -1.3745  1.1859
 1034SOL     vw 4136   4.855   0.476   2.431  0.1993 -0.3095  0.7275
 1035SOL     ow 4137   2.428   6.921   6.236  0.4493 -0.5518  0.2255
 1035SOL     hw 4138   2.439   6.902   6.143 -0.3389 -0.3765  0.0844
 1035SOL     hw 4139   2.449   6.839   6.280  0.7206 -0.6668 -0.1180
 1035SOL     vw 4140   2.432   6.908   6.229  0.3812 -0.5441  0.1616
 1036SOL     ow 4141   4.936   6.733   5.654  0.3215  0.2994 -0.0584
 1036SOL     hw 4142   4.938   6.828   5.665 -1.2920  0.3907 -0.2815
 1036SOL     hw 4143   5.006   6.714   5.591  0.1375  1.4382 -0.6254
 1036SOL     vw 4144   4.945   6.743   5.647  0.0844  0.4618 -0.1628
 1037SOL     ow 4145   3.267   6.358   4.221 -0.2530 -1.1557  0.1616
 1037SOL     hw 4146   3.333   6.319   4.164 -1.1447 -2.1742 -0.2074
 1037SOL     hw 4147   3.232   6.284   4.270  0.1760 -0.3638  1.7331
 1037SOL     vw 4148   3.271   6.343   4.220 -0.3141 -1.1857  0.3204
 1038SOL     ow 4149   5.675   5.953   4.189 -0.1801 -0.2034 -0.3565
 1038SOL     hw 4150   5.660   6.017   4.258  0.1172 -0.2385 -0.2545
 1038SOL     hw 4151   5.607   5.969   4.125  0.1701  0.5230 -0.5521
 1038SOL     vw 4152   5.664   5.963   4.190 -0.0944 -0.1123 -0.3688
 1039SOL     ow 4153   2.802   5.886   7.139 -0.5885  0.3288  0.2649
 1039SOL     hw 4154   2.833   5.938   7.213  1.7859 -0.0756 -0.3678
 1039SOL     hw 4155   2.878   5.877   7.081 -2.2741  0.3810 -2.1139
 1039SOL     vw 4156   2.816   5.891   7.141 -0.4976  0.2823 -0.1324
 1040SOL     ow 4157   5.420   3.161   3.858  0.4859  0.0333 -0.3455
 1040SOL     hw 4158   5.326   3.145   3.849  0.3187  0.8900 -0.2597
 1040SOL     hw 4159   5.456   3.138   3.773 -0.0662  1.3417 -0.9668
 1040SOL     vw 4160   5.412   3.156   3.846  0.3912  0.3189 -0.4162
 1041SOL     ow 4161   4.267   5.143   5.430  0.0655 -0.2897 -0.9812
 1041SOL     hw 4162   4.284   5.218   5.488  0.0684 -0.6232 -0.5409
 1041SOL     hw 4163   4.347   5.136   5.377  0.6040 -0.7647 -0.1351
 1041SOL     vw 4164   4.280   5.152   5.431  0.1373 -0.3963 -0.8113
 1042SOL     ow 4165   4.826   5.988   4.517  0.0008 -0.1311 -0.4081
 1042SOL     hw 4166   4.904   6.035   4.548  0.6143  0.0225 -2.0727
 1042SOL     hw 4167   4.770   5.982   4.594  1.4227  0.2296  0.7140
 1042SOL     vw 4168   4.829   5.993   4.531  0.2694 -0.0634 -0.4797
 1043SOL     ow 4169   4.175   3.421   3.708 -0.2912  0.0408  0.0834
 1043SOL     hw 4170   4.087   3.404   3.675  0.0044  0.0742 -0.7401
 1043SOL     hw 4171   4.179   3.517   3.716  0.4106  0.2437 -2.0649
 1043SOL     vw 4172   4.164   3.432   3.705 -0.1595  0.0719 -0.3086
 1044SOL     ow 4173   2.946   4.000   3.869 -0.4687  0.3079 -0.0419
 1044SOL     hw 4174   2.905   3.915   3.853 -1.2145  0.5712  0.4540
 1044SOL     hw 4175   2.901   4.060   3.809  0.3448  0.2918 -0.6982
 1044SOL     vw 4176   2.935   3.996   3.859 -0.4598  0.3405 -0.0632
 1045SOL     ow 4177   0.897   5.031   2.126  0.4797  0.0310  0.0143
 1045SOL     hw 4178   0.953   4.995   2.195  1.4925  0.8430 -0.3705
 1045SOL     hw 4179   0.944   5.108   2.094 -0.9537  0.8664 -0.1816
 1045SOL     vw 4180   0.910   5.036   2.131  0.4241  0.2487 -0.0623
 1046SOL     ow 4181   3.969   0.114   6.793 -0.7563 -0.4810  0.8254
 1046SOL     hw 4182   3.932   0.192   6.752  0.6101 -0.0240  0.3863
 1046SOL     hw 4183   4.044   0.147   6.842 -0.7935 -1.3869  1.5125
 1046SOL     vw 4184   3.974   0.129   6.794 -0.5808 -0.5402  0.8583
 1047SOL     ow 4185   2.435   3.050   2.172  0.1215 -0.3539 -0.1356
 1047SOL     hw 4186   2.392   3.034   2.256  0.9891  0.6007  0.5204
 1047SOL     hw 4187   2.457   3.143   2.174  2.1569 -0.7838 -0.4319
 1047SOL     vw 4188   2.432   3.060   2.184  0.5045 -0.2847 -0.0881
 1048SOL     ow 4189   6.442   5.782   3.473  0.4284 -0.3379  0.0915
 1048SOL     hw 4190   6.374   5.747   3.415 -0.3291 -0.7202  1.1552
 1048SOL     hw 4191   6.410   5.762   3.561  1.7462 -0.1588  0.6337
 1048SOL     vw 4192   6.428   5.775   3.477  0.5023 -0.3645  0.3034
 1049SOL     ow 4193   0.528   0.363   3.858 -0.3000  1.1555 -0.0609
 1049SOL     hw 4194   0.615   0.372   3.895  0.3754  1.1966 -1.5584
 1049SOL     hw 4195   0.513   0.446   3.811 -0.2941  0.4166 -1.4370
 1049SOL     vw 4196   0.538   0.375   3.857 -0.2101  1.0635 -0.4400
 1050SOL     ow 4197   5.034   2.458   0.286 -0.2827 -0.2502 -0.5052
 1050SOL     hw 4198   5.128   2.454   0.269 -0.1514 -0.3890  0.2117
 1050SOL     hw 4199   4.996   2.496   0.207  0.1510 -2.0338 -1.6183
 1050SOL     vw 4200   5.041   2.463   0.273 -0.2081 -0.5039 -0.5575
 1051SOL     ow 4201   0.900   3.441   6.182 -0.0417  0.0848 -0.0274
 1051SOL     hw 4202   0.807   3.417   6.191 -0.1758 -0.6331 -2.5601
 1051SOL     hw 4203   0.943   3.396   6.254 -1.6579  0.5500  1.3054
 1051SOL     vw 4204   0.893   3.432   6.193 -0.2726  0.0514 -0.1857
 1052SOL     ow 4205   4.880   4.625   4.943 -0.1687 -0.6789  0.1743
 1052SOL     hw 4206   4.809   4.604   4.883  0.4679 -0.7900 -0.5641
 1052SOL     hw 4207   4.907   4.713   4.918  0.2662 -0.8209  0.1322
 1052SOL     vw 4208   4.875   4.634   4.932 -0.0274 -0.7124  0.0710
 1053SOL     ow 4209   2.573   1.753   0.111  0.2046  0.0505  0.9849
 1053SOL     hw 4210   2.577   1.744   0.015  1.9592 -1.8859  1.1608
 1053SOL     hw 4211   2.621   1.834   0.129 -0.0522  0.3809  0.2428
 1053SOL     vw 4212   2.580   1.763   0.100  0.4022 -0.1615  0.9102
 1054SOL     ow 4213   3.285   3.377   1.265 -0.2406  1.1776 -0.4637
 1054SOL     hw 4214   3.356   3.436   1.291  0.2956 -0.0155  0.9640
 1054SOL     hw 4215   3.222   3.382   1.337 -2.2546  3.0845 -2.2220
 1054SOL     vw 4216   3.286   3.386   1.278 -0.4355  1.2718 -0.5074
 1055SOL     ow 4217   2.084   4.641   1.700 -0.1588 -0.4725  0.3134
 1055SOL     hw 4218   2.088   4.545   1.692 -2.5324 -0.6483  0.4735
 1055SOL     hw 4219   2.172   4.666   1.729  0.6331 -2.5507 -0.0699
 1055SOL     vw 4220   2.096   4.631   1.703 -0.3675 -0.7699  0.2839
 1056SOL     ow 4221   1.078   1.776   2.687 -0.3736  0.2610  0.2293
 1056SOL     hw 4222   1.007   1.725   2.646  0.9128 -1.2270 -0.2541
 1056SOL     hw 4223   1.099   1.844   2.623 -0.0718 -0.5046 -0.5091
 1056SOL     vw 4224   1.071   1.778   2.673 -0.1641 -0.0363  0.0681
 1057SOL     ow 4225   4.035   5.836   4.434 -0.2775  0.1874  0.2030
 1057SOL     hw 4226   4.022   5.742   4.451 -0.5428 -0.2076 -1.8564
 1057SOL     hw 4227   4.057   5.873   4.519 -3.8303 -1.0823  1.9032
 1057SOL     vw 4228   4.036   5.828   4.447 -0.7811 -0.0322  0.1559
 1058SOL     ow 4229   2.971   5.628   6.186  1.1567  0.4434 -0.0894
 1058SOL     hw 4230   2.955   5.720   6.207  1.2633  0.2958  0.6803
 1058SOL     hw 4231   2.888   5.584   6.205  0.6699  0.5677 -1.7529
 1058SOL     vw 4232   2.958   5.634   6.191  1.1065  0.4404 -0.2069
 1059SOL     ow 4233   6.024   4.979   0.959 -0.5699  1.1575 -0.3534
 1059SOL     hw 4234   6.013   5.056   1.015 -0.7883  1.3023 -0.5939
 1059SOL     hw 4235   6.119   4.969   0.950 -0.5479  1.7285 -0.7765
 1059SOL     vw 4236   6.035   4.988   0.965 -0.5960  1.2517 -0.4410
 1060SOL     ow 4237   5.349   6.540   0.913 -0.5665  0.1915 -0.0167
 1060SOL     hw 4238   5.283   6.471   0.923 -0.2857 -0.0688  0.0499
 1060SOL     hw 4239   5.382   6.555   1.002 -0.7910  0.5747  0.0031
 1060SOL     vw 4240   5.345   6.533   0.926 -0.5586  0.2077 -0.0053
 1061SOL     ow 4241   0.620   5.940   2.277  0.0016 -0.0838 -0.0666
 1061SOL     hw 4242   0.589   6.021   2.317  2.0428 -0.4691  2.5232
 1061SOL     hw 4243   0.573   5.871   2.323  0.8755 -0.4789  0.2501
 1061SOL     vw 4244   0.609   5.941   2.288  0.3862 -0.1869  0.3169
 1062SOL     ow 4245   0.219   0.713   2.261  0.3751  0.0934 -0.2872
 1062SOL     hw 4246   0.301   0.740   2.302 -0.4402  0.0202  1.4560
 1062SOL     hw 4247   0.151   0.759   2.310 -0.7084 -0.7647 -0.9360
 1062SOL     vw 4248   0.221   0.723   2.273  0.1246 -0.0294 -0.1427
 1063SOL     ow 4249   3.339   3.017   3.834 -0.3821 -0.0113 -0.2258
 1063SOL     hw 4250   3.339   3.096   3.780  2.3226 -1.1525 -2.1413
 1063SOL     hw 4251   3.249   2.987   3.834 -0.7775  0.9899 -2.6916
 1063SOL     vw 4252   3.327   3.024   3.827 -0.0775 -0.0299 -0.8038
 1064SOL     ow 4253   5.191   0.929   2.275 -0.6415  0.0074 -0.6870
 1064SOL     hw 4254   5.278   0.950   2.308 -0.3066 -3.1359  0.7469
 1064SOL     hw 4255   5.153   1.014   2.254  1.0846  1.9430  2.9789
 1064SOL     vw 4256   5.197   0.943   2.277 -0.3695 -0.1520 -0.0142
 1065SOL     ow 4257   2.189   2.268   0.737 -0.2375  0.5029 -0.0896
 1065SOL     hw 4258   2.220   2.299   0.651  0.6146 -1.8463 -0.7213
 1065SOL     hw 4259   2.114   2.213   0.716  0.2085 -0.3948  0.6055
 1065SOL     vw 4260   2.183   2.265   0.723 -0.0662  0.0745 -0.0812
 1066SOL     ow 4261   7.119   2.861   6.504  0.8487 -0.1725 -0.2228
 1066SOL     hw 4262   7.151   2.897   6.587 -0.3684  0.8977 -0.1856
 1066SOL     hw 4263   7.073   2.782   6.528 -1.8468  1.5012  0.5432
 1066SOL     vw 4264   7.117   2.856   6.518  0.3326  0.1895 -0.1168
 1067SOL     ow 4265   4.881   1.858   6.676 -0.2696 -0.2660  0.3430
 1067SOL     hw 4266   4.955   1.918   6.670 -0.6049  0.2004  0.7914
 1067SOL     hw 4267   4.916   1.780   6.720  0.1002 -0.2961 -0.0054
 1067SOL     vw 4268   4.895   1.855   6.681 -0.2651 -0.2084  0.3564
 1068SOL     ow 4269   2.024   3.239   4.406 -0.4122  0.4758  0.0959
 1068SOL     hw 4270   2.086   3.171   4.379 -0.4593  0.5379 -0.1728
 1068SOL     hw 4271   2.067   3.321   4.384 -0.6577  0.5155 -0.2405
 1068SOL     vw 4272   2.038   3.241   4.399 -0.4508  0.4892  0.0162
 1069SOL     ow 4273   2.245   3.763   0.082 -0.2694  0.5365  0.2038
 1069SOL     hw 4274   2.338   3.765   0.106 -0.8637 -0.8749  3.0080
 1069SOL     hw 4275   2.216   3.674   0.103 -2.0390  0.5840 -1.7179
 1069SOL     vw 4276   2.253   3.752   0.088 -0.5813  0.3567  0.3203
 1070SOL     ow 4277   6.533   4.943   6.428 -0.0118  0.7376  0.4498
 1070SOL     hw 4278   6.542   4.911   6.518  0.5070 -0.4250  0.0023
 1070SOL     hw 4279   6.537   5.039   6.437 -0.7990  0.6785  1.7409
 1070SOL     vw 4280   6.535   4.952   6.441 -0.0472  0.5765  0.5612
 1071SOL     ow 4281   2.275   1.842   3.310  0.5603 -0.3703  0.0866
 1071SOL     hw 4282   2.238   1.788   3.380 -0.1779  0.0593  0.0292
 1071SOL     hw 4283   2.275   1.931   3.346  0.5156 -0.2030 -0.3269
 1071SOL     vw 4284   2.270   1.846   3.324  0.4570 -0.2915  0.0243
 1072SOL     ow 4285   4.314   3.714   6.625  0.0880  0.4354  0.0636
 1072SOL     hw 4286   4.393   3.744   6.581  0.4504  1.3708  1.3028
 1072SOL     hw 4287   4.244   3.771   6.590 -0.2107 -0.8125 -1.5165
 1072SOL     vw 4288   4.315   3.726   6.614  0.0966  0.3941  0.0188
 1073SOL     ow 4289   5.928   5.470   6.641 -0.3249 -0.1180  0.4752
 1073SOL     hw 4290   5.901   5.535   6.575  1.2814  1.6736  1.4929
 1073SOL     hw 4291   5.849   5.456   6.694 -0.5154  1.5874  0.6921
 1073SOL     vw 4292   5.914   5.477   6.639 -0.1380  0.3433  0.6382
 1074SOL     ow 4293   6.354   3.888   6.996 -0.0371  0.0801  0.3667
 1074SOL     hw 4294   6.371   3.947   7.069  0.0301 -0.3339  0.6868
 1074SOL     hw 4295   6.259   3.893   6.982 -0.1065 -0.1473  0.7468
 1074SOL     vw 4296   6.343   3.896   7.004 -0.0374 -0.0045  0.4590
 1075SOL     ow 4297   1.569   4.711   2.980  0.2629  0.0384  0.6279
 1075SOL     hw 4298   1.508   4.715   2.907  1.2749 -1.4301 -0.3566
 1075SOL     hw 4299   1.576   4.618   3.001  1.3093  0.2777  1.4552
 1075SOL     vw 4300   1.562   4.699   2.973  0.5345 -0.1235  0.6070
 1076SOL     ow 4301   1.739   5.792   5.178  0.7769  0.3486  0.4526
 1076SOL     hw 4302   1.761   5.881   5.204  1.9156  0.3708 -0.5412
 1076SOL     hw 4303   1.756   5.789   5.084 -0.3125 -0.6129  0.2557
 1076SOL     vw 4304   1.744   5.803   5.169  0.7834  0.2246  0.2956
 1077SOL     ow 4305   4.352   0.738   1.023 -0.2080 -0.8278 -0.1396
 1077SOL     hw 4306   4.440   0.762   1.052  0.2912 -1.3990 -1.1172
 1077SOL     hw 4307   4.366   0.693   0.939 -1.5998  1.5080 -1.7606
 1077SOL     vw 4308   4.365   0.735   1.015 -0.3259 -0.5950 -0.4824
 1078SOL     ow 4309   5.770   6.525   5.654 -0.0593 -0.7830 -0.5062
 1078SOL     hw 4310   5.681   6.528   5.620 -0.8306 -0.7220  1.3958
 1078SOL     hw 4311   5.773   6.444   5.704  0.5268 -0.1617  0.4967
 1078SOL     vw 4312   5.759   6.515   5.656 -0.0839 -0.6926 -0.1230
 1079SOL     ow 4313   0.955   4.056   1.628 -0.2499  0.1568  0.4212
 1079SOL     hw 4314   0.865   4.086   1.616 -0.3040  0.4584  1.5036
 1079SOL     hw 4315   1.010   4.130   1.601 -0.3235  0.0073 -0.1450
 1079SOL     vw 4316   0.951   4.069   1.623 -0.2667  0.1767  0.4892
 1080SOL     ow 4317   3.328   1.634   5.367 -0.5570  0.6822  0.3063
 1080SOL     hw 4318   3.396   1.673   5.312 -0.5858  0.7769  0.3375
 1080SOL     hw 4319   3.359   1.545   5.384 -0.9930  0.3411 -0.6273
 1080SOL     vw 4320   3.341   1.628   5.362 -0.6182  0.6498  0.1872
 1081SOL     ow 4321   5.723   1.780   3.216  0.7832 -0.1353 -0.4120
 1081SOL     hw 4322   5.719   1.811   3.306 -1.2754  0.9587 -0.8202
 1081SOL     hw 4323   5.659   1.710   3.211  0.8520 -0.1632 -1.0423
 1081SOL     vw 4324   5.714   1.775   3.227  0.5207  0.0054 -0.5492
 1082SOL     ow 4325   4.605   6.340   0.081  0.3220 -0.5623 -0.0207
 1082SOL     hw 4326   4.649   6.270   0.129  2.0658  0.8606  0.6117
 1082SOL     hw 4327   4.657   6.418   0.102 -2.9742  1.4510  1.4141
 1082SOL     vw 4328   4.618   6.341   0.090  0.1168 -0.1092  0.2520
 1083SOL     ow 4329   5.731   6.918   6.985  0.2287 -0.1721  0.2695
 1083SOL     hw 4330   5.777   6.919   6.901 -0.1319  1.2120  0.0740
 1083SOL     hw 4331   5.640   6.938   6.964 -0.2333 -1.5716  0.8070
 1083SOL     vw 4332   5.725   6.921   6.971  0.1202 -0.1740  0.3147
 1084SOL     ow 4333   5.213   5.077   4.320  0.2079  0.2114 -0.0972
 1084SOL     hw 4334   5.130   5.036   4.346 -1.6699  2.4103 -2.1523
 1084SOL     hw 4335   5.242   5.124   4.398 -0.6708 -0.2963  0.5533
 1084SOL     vw 4336   5.206   5.077   4.334 -0.1557  0.4344 -0.2825
 1085SOL     ow 4337   0.026   2.122   1.347 -0.6800 -0.5230 -0.1735
 1085SOL     hw 4338   0.097   2.133   1.284  0.8898 -4.1690  0.7193
 1085SOL     hw 4339  -0.031   2.198   1.333  1.9352  1.1430 -2.7961
 1085SOL     vw 4340   0.028   2.134   1.337 -0.1279 -0.7842 -0.4017
 1086SOL     ow 4341   3.965   4.297   1.062 -0.2303 -0.8706  0.1214
 1086SOL     hw 4342   4.035   4.274   1.122  0.8510  1.2716 -0.2211
 1086SOL     hw 4343   3.912   4.361   1.110 -1.5886 -1.9319  0.1184
 1086SOL     vw 4344   3.967   4.303   1.076 -0.2668 -0.7281  0.0758
 1087SOL     ow 4345   2.491   6.541   5.401 -0.6209 -0.3918 -1.0101
 1087SOL     hw 4346   2.443   6.458   5.401 -2.6186  0.7049 -0.3114
 1087SOL     hw 4347   2.450   6.592   5.470  2.3780  0.2295  0.4878
 1087SOL     vw 4348   2.480   6.536   5.410 -0.4888 -0.1650 -0.7203
 1088SOL     ow 4349   3.552   5.000   6.764  0.4336  0.0198 -0.4621
 1088SOL     hw 4350   3.609   5.038   6.699  0.1349 -0.7217 -1.1771
 1088SOL     hw 4351   3.593   5.020   6.848  0.9661  0.7353 -0.8922
 1088SOL     vw 4352   3.565   5.008   6.767  0.4643  0.0162 -0.6135
 1089SOL     ow 4353   3.546   0.301   4.532 -0.1489 -0.5465 -0.6937
 1089SOL     hw 4354   3.504   0.301   4.446  1.1169 -0.9696 -1.3391
 1089SOL     hw 4355   3.636   0.330   4.515 -0.3086  0.9612  0.7289
 1089SOL     vw 4356   3.553   0.305   4.519 -0.0030 -0.4034 -0.5915
 1090SOL     ow 4357   0.895   1.740   1.115 -0.1876 -0.1202  0.9344
 1090SOL     hw 4358   0.868   1.690   1.038  0.1532  1.1223 -0.0243
 1090SOL     hw 4359   0.813   1.761   1.160 -0.6095  1.1109 -0.3589
 1090SOL     vw 4360   0.881   1.736   1.111 -0.1983  0.2062  0.6372
 1091SOL     ow 4361   0.540   3.070   0.188  0.3720  0.0175 -0.4727
 1091SOL     hw 4362   0.474   3.050   0.123 -0.7209 -1.5074  1.0057
 1091SOL     hw 4363   0.583   3.149   0.156 -2.0601  0.9897 -1.5712
 1091SOL     vw 4364   0.537   3.077   0.175 -0.0930 -0.0556 -0.4225
 1092SOL     ow 4365   5.144   6.243   1.891 -0.2033 -0.1063 -0.0815
 1092SOL     hw 4366   5.209   6.207   1.951 -2.5428 -1.7024  1.7156
 1092SOL     hw 4367   5.128   6.173   1.828 -1.0979 -0.2877  0.3207
 1092SOL     vw 4368   5.150   6.229   1.891 -0.6301 -0.3409  0.2086
 1093SOL     ow 4369   4.796   3.734   4.817  0.8437  0.4222 -0.4894
 1093SOL     hw 4370   4.859   3.737   4.744  0.4171 -1.2608 -0.9743
 1093SOL     hw 4371   4.786   3.826   4.843  0.1121  1.2516 -3.3225
 1093SOL     vw 4372   4.803   3.747   4.811  0.6909  0.3095 -0.9272
 1094SOL     ow 4373   2.448   7.121   2.769 -0.7414 -0.6534  1.1181
 1094SOL     hw 4374   2.402   7.200   2.797 -0.2571 -1.1502  3.6069
 1094SOL     hw 4375   2.380   7.061   2.740 -1.6132 -0.8274  3.3112
 1094SOL     vw 4376   2.433   7.123   2.769 -0.7927 -0.7420  1.7357
 1095SOL     ow 4377   4.368   1.735   0.124  0.4234  0.1960  0.0221
 1095SOL     hw 4378   4.420   1.680   0.181 -0.2652  0.2145  0.6882
 1095SOL     hw 4379   4.380   1.824   0.158  0.9579  0.3704 -0.6033
 1095SOL     vw 4380   4.376   1.739   0.136  0.4029  0.2215  0.0275
 1096SOL     ow 4381   6.128   2.439   0.301  1.1913  0.0474  0.3233
 1096SOL     hw 4382   6.147   2.526   0.336  1.6174 -0.1231  0.5210
 1096SOL     hw 4383   6.195   2.424   0.234 -1.5894  1.8327 -3.2187
 1096SOL     vw 4384   6.139   2.448   0.297  0.8807  0.2605 -0.1180
 1097SOL     ow 4385   4.853   4.016   3.780  0.5421  0.6800  0.7473
 1097SOL     hw 4386   4.894   4.061   3.707 -0.5515  0.8307  0.1931
 1097SOL     hw 4387   4.771   3.982   3.743  0.6635 -0.5061  1.5260
 1097SOL     vw 4388   4.847   4.017   3.765  0.4137  0.5436  0.7770
 1098SOL     ow 4389   5.656   0.374   4.323 -0.7109  0.2023 -0.0300
 1098SOL     hw 4390   5.619   0.462   4.313 -0.8806 -0.0226 -1.7232
 1098SOL     hw 4391   5.749   0.390   4.339 -0.7586  0.7019 -0.2166
 1098SOL     vw 4392   5.664   0.388   4.323 -0.7396  0.2386 -0.2782
 1099SOL     ow 4393   6.137   2.074   0.879  0.6030 -0.1100  0.0848
 1099SOL     hw 4394   6.144   2.045   0.788 -1.1488 -2.7051  0.6575
 1099SOL     hw 4395   6.091   2.157   0.874 -2.5262 -1.7449 -1.3769
 1099SOL     vw 4396   6.132   2.081   0.867 -0.0410 -0.6680 -0.0325
 1100SOL     ow 4397   2.178   2.996   3.617 -0.2722  0.4152  0.5540
 1100SOL     hw 4398   2.147   2.949   3.540 -0.8898 -0.3070  1.2344
 1100SOL     hw 4399   2.107   3.056   3.640 -0.0704  0.6646  0.5364
 1100SOL     vw 4400   2.165   2.998   3.610 -0.3271  0.3529  0.6416
 1101SOL     ow 4401   0.986   7.023   2.239 -0.3531 -0.2081 -0.4011
 1101SOL     hw 4402   0.905   6.981   2.208  0.9835 -1.0420 -3.0267
 1101SOL     hw 4403   0.993   7.103   2.187  0.4074 -0.0351 -0.0410
 1101SOL     vw 4404   0.976   7.028   2.228 -0.0764 -0.2954 -0.7001
 1102SOL     ow 4405   2.391   5.459   1.841 -0.2163  0.1269  0.5656
 1102SOL     hw 4406   2.309   5.499   1.871  0.3790 -0.1228  2.6662
 1102SOL     hw 4407   2.363   5.383   1.790 -1.3108  1.7352 -1.4436
 1102SOL     vw 4408   2.376   5.454   1.838 -0.2822  0.3061  0.5777
 1103SOL     ow 4409   0.489   1.910   2.012  0.2243 -0.4113  0.0372
 1103SOL     hw 4410   0.530   1.825   2.027  2.5121  1.0678  3.0922
 1103SOL     hw 4411   0.397   1.896   2.035  0.5934 -2.0257  0.6711
 1103SOL     vw 4412   0.482   1.897   2.017  0.5749 -0.4292  0.5239
 1104SOL     ow 4413   1.986   2.591   6.463  0.9092  0.6213 -0.1879
 1104SOL     hw 4414   1.991   2.500   6.433  0.7842  0.2535  0.8566
 1104SOL     hw 4415   1.915   2.630   6.412 -0.6178 -0.5270  0.9613
 1104SOL     vw 4416   1.978   2.584   6.453  0.6912  0.4212  0.1018
 1105SOL     ow 4417   2.932   2.103   3.370  0.1931 -0.2609  0.4511
 1105SOL     hw 4418   2.995   2.176   3.368 -1.4063  1.1849  0.4548
 1105SOL     hw 4419   2.898   2.098   3.280 -1.2041  0.4144  0.9084
 1105SOL     vw 4420   2.936   2.112   3.358 -0.2024  0.0190  0.5119
 1106SOL     ow 4421   4.884   6.220   2.073 -0.1436  0.3606 -0.8543
 1106SOL     hw 4422   4.865   6.133   2.038  1.3987 -0.3616 -0.0030
 1106SOL     hw 4423   4.837   6.224   2.156  0.9928 -0.2930 -0.1516
 1106SOL     vw 4424   4.875   6.209   2.079  0.2096  0.1788 -0.6493
 1107SOL     ow 4425   4.574   0.194   5.536 -0.0274 -0.3751  0.9370
 1107SOL     hw 4426   4.538   0.105   5.533 -1.3727  0.0923  2.3056
 1107SOL     hw 4427   4.624   0.197   5.618 -0.3831  0.2678  1.1356
 1107SOL     vw 4428   4.576   0.183   5.546 -0.2520 -0.2286  1.1437
 1108SOL     ow 4429   5.656   3.383   6.463 -0.4676  0.5365 -0.0667
 1108SOL     hw 4430   5.749   3.380   6.486 -0.9121  1.4743  2.1132
 1108SOL     hw 4431   5.616   3.317   6.518 -1.4098  1.8769  0.9112
 1108SOL     vw 4432   5.663   3.374   6.473 -0.6504  0.8371  0.3498
 1109SOL     ow 4433   1.213   1.179   2.690 -0.2086  0.0020 -0.3377
 1109SOL     hw 4434   1.254   1.134   2.616 -2.5990  0.9149 -2.3402
 1109SOL     hw 4435   1.156   1.113   2.730 -1.6876  0.4600 -1.6238
 1109SOL     vw 4436   1.211   1.164   2.686 -0.7191  0.1828 -0.7715
 1110SOL     ow 4437   1.873   0.826   6.567  0.2707 -0.3850 -0.0937
 1110SOL     hw 4438   1.795   0.782   6.533 -1.6357  1.0516  2.1051
 1110SOL     hw 4439   1.894   0.779   6.648  1.3431 -0.3589 -0.3329
 1110SOL     vw 4440   1.866   0.814   6.574  0.1606 -0.1920  0.1645
 1111SOL     ow 4441   6.787   3.343   6.578 -0.2872  0.7082 -0.5988
 1111SOL     hw 4442   6.789   3.363   6.484  0.0005  3.7982 -0.0397
 1111SOL     hw 4443   6.844   3.409   6.618 -0.4299 -0.4981  1.7817
 1111SOL     vw 4444   6.795   3.354   6.571 -0.2680  0.9568 -0.2108
 1112SOL     ow 4445   3.240   4.004   0.946 -0.4632  0.0012 -0.2948
 1112SOL     hw 4446   3.193   3.940   0.893  0.0406  1.4567 -2.6148
 1112SOL     hw 4447   3.223   3.977   1.037  0.1947 -3.7266 -1.1247
 1112SOL     vw 4448   3.232   3.992   0.951 -0.3098 -0.2986 -0.7105
 1113SOL     ow 4449   1.533   2.285   1.924  0.5209 -0.6738  0.3680
 1113SOL     hw 4450   1.487   2.246   1.998 -2.5776  1.3021 -0.3464
 1113SOL     hw 4451   1.535   2.215   1.858  2.6739 -2.2055  1.8961
 1113SOL     vw 4452   1.527   2.270   1.925  0.3961 -0.6152  0.4754
 1114SOL     ow 4453   6.476   1.452   2.509  0.1555 -0.7442  0.9114
 1114SOL     hw 4454   6.457   1.464   2.602 -1.6365  0.3386  0.4516
 1114SOL     hw 4455   6.423   1.377   2.483 -2.2949  1.1772  0.0185
 1114SOL     vw 4456   6.466   1.443   2.518 -0.4044 -0.3478  0.7330
 1115SOL     ow 4457   6.185   6.776   2.272  0.2772 -0.0931  0.7171
 1115SOL     hw 4458   6.236   6.846   2.314  0.7615 -0.7659  1.2621
 1115SOL     hw 4459   6.177   6.804   2.180  2.0280 -0.1990  0.5055
 1115SOL     vw 4460   6.191   6.789   2.265  0.5722 -0.1960  0.7612
 1116SOL     ow 4461   6.342   5.792   5.240  0.2373  0.3048  0.7777
 1116SOL     hw 4462   6.304   5.735   5.308 -0.0055 -2.6539 -1.6119
 1116SOL     hw 4463   6.433   5.761   5.232  1.3298  2.9226  1.9603
 1116SOL     vw 4464   6.349   5.780   5.248  0.3495  0.2596  0.6187
 1117SOL     ow 4465   6.370   5.635   0.306 -0.1738  0.5654  0.0772
 1117SOL     hw 4466   6.351   5.728   0.305  2.4315  1.3063  3.2726
 1117SOL     hw 4467   6.462   5.629   0.333  0.7906 -2.9049 -3.1430
 1117SOL     vw 4468   6.380   5.646   0.310  0.2973  0.2053  0.0740
 1118SOL     ow 4469   1.937   6.001   2.314 -0.2162  0.4629  0.1532
 1118SOL     hw 4470   1.892   5.980   2.232  1.5090 -1.8293 -0.2899
 1118SOL     hw 4471   2.000   6.069   2.290 -0.3852  0.4910 -0.2182
 1118SOL     vw 4472   1.939   6.007   2.300 -0.0108  0.1640  0.0458
 1119SOL     ow 4473   1.823   2.580   0.224  1.0524 -0.0441  0.2840
 1119SOL     hw 4474   1.885   2.621   0.285  0.3312  1.1394  0.2531
 1119SOL     hw 4475   1.780   2.654   0.180 -0.7771 -0.7957  0.7080
 1119SOL     vw 4476   1.826   2.595   0.227  0.7159  0.0129  0.3359
 1120SOL     ow 4477   1.690   3.077   0.743 -0.6581  0.5264 -0.4493
 1120SOL     hw 4478   1.782   3.064   0.765 -0.8346  1.3195  0.8629
 1120SOL     hw 4479   1.680   3.171   0.732 -1.4949  0.5493  0.3600
 1120SOL     vw 4480   1.701   3.088   0.744 -0.7918  0.6342 -0.1694
 1121SOL     ow 4481   5.966   5.081   0.670 -0.0871 -0.0244 -0.1191
 1121SOL     hw 4482   6.058   5.057   0.683 -0.0856 -0.0697 -0.2094
 1121SOL     hw 4483   5.955   5.080   0.575 -1.1650 -3.8383 -0.1082
 1121SOL     vw 4484   5.977   5.078   0.659 -0.2294 -0.5341 -0.1296
 1122SOL     ow 4485   6.472   3.320   5.135  0.0010 -0.2343 -0.1022
 1122SOL     hw 4486   6.397   3.296   5.190  0.9496  0.3043  1.4986
 1122SOL     hw 4487   6.485   3.414   5.152  0.0505  0.0615 -1.6218
 1122SOL     vw 4488   6.464   3.329   5.145  0.1328 -0.1242 -0.0913
 1123SOL     ow 4489   3.996   5.676   2.062  0.1320  0.1559  0.4199
 1123SOL     hw 4490   3.906   5.670   2.028  0.0373  2.7521 -0.0403
 1123SOL     hw 4491   4.052   5.661   1.986  0.0007  0.9175  0.1545
 1123SOL     vw 4492   3.991   5.673   2.048  0.1023  0.5989  0.3240
 1124SOL     ow 4493   6.904   1.097   6.953 -1.2769  0.4462 -0.3998
 1124SOL     hw 4494   6.821   1.063   6.919 -1.5057 -1.1344  1.5030
 1124SOL     hw 4495   6.890   1.103   7.048  0.7732  0.0776 -0.0214
 1124SOL     vw 4496   6.891   1.093   6.961 -1.0366  0.1890 -0.0987
 1125SOL     ow 4497   2.896   2.975   4.964  0.5767  0.1753 -0.6021
 1125SOL     hw 4498   2.892   3.008   4.874  0.9998  0.7604 -0.4173
 1125SOL     hw 4499   2.810   2.937   4.980 -0.7238  3.0298 -0.1600
 1125SOL     vw 4500   2.884   2.975   4.954  0.4610  0.6289 -0.5195
 1126SOL     ow 4501   3.658   0.201   5.975 -0.1673 -0.0787 -0.6936
 1126SOL     hw 4502   3.701   0.122   6.009 -1.3424 -0.5592 -0.2713
 1126SOL     hw 4503   3.597   0.169   5.909 -0.9451  0.4222 -0.2376
 1126SOL     vw 4504   3.656   0.186   5.971 -0.4249 -0.0760 -0.5779
 1127SOL     ow 4505   5.517   1.065   2.920  0.2269 -0.5699  0.0569
 1127SOL     hw 4506   5.591   1.020   2.961  1.2822  1.1227  0.1082
 1127SOL     hw 4507   5.556   1.143   2.880 -1.3516 -0.2969 -1.0370
 1127SOL     vw 4508   5.532   1.069   2.920  0.1578 -0.3105 -0.0807
 1128SOL     ow 4509   6.290   6.016   3.543  0.0679 -0.4083  0.2762
 1128SOL     hw 4510   6.264   5.987   3.631 -0.5332  0.3976  0.3774
 1128SOL     hw 4511   6.213   6.060   3.508  0.6281  0.1898 -0.2531
 1128SOL     vw 4512   6.277   6.018   3.550  0.0625 -0.2232  0.2197
 1129SOL     ow 4513   5.127   1.337   6.476 -0.2139 -0.0861  0.1576
 1129SOL     hw 4514   5.218   1.333   6.446 -0.6454  0.3701 -1.3108
 1129SOL     hw 4515   5.081   1.274   6.421 -0.7794 -0.3897  0.9608
 1129SOL     vw 4516   5.133   1.328   6.464 -0.3455 -0.0659  0.0696
 1130SOL     ow 4517   5.712   0.095   4.180  0.2222 -1.7355  0.2688
 1130SOL     hw 4518   5.787   0.106   4.122 -1.0262  0.1612 -1.1099
 1130SOL     hw 4519   5.750   0.062   4.262  2.3537 -2.1344 -0.7971
 1130SOL     vw 4520   5.727   0.092   4.184  0.3386 -1.5379 -0.0539
 1131SOL     ow 4521   4.337   6.353   1.222  0.2147 -0.1074 -0.1581
 1131SOL     hw 4522   4.284   6.297   1.279 -1.1717  0.5060 -0.8115
 1131SOL     hw 4523   4.387   6.408   1.283 -0.1465 -0.4653  0.4755
 1131SOL     vw 4524   4.336   6.353   1.237 -0.0157 -0.0739 -0.1608
 1132SOL     ow 4525   1.849   7.074   5.206  0.0272  0.0488  0.4192
 1132SOL     hw 4526   1.809   7.156   5.178  1.3117  0.9555  1.1350
 1132SOL     hw 4527   1.854   7.021   5.126 -0.8321  0.6340 -0.0465
 1132SOL     vw 4528   1.844   7.078   5.192  0.0833  0.2456  0.4520
 1133SOL     ow 4529   6.687   1.553   3.425 -0.1176 -0.4026  1.0067
 1133SOL     hw 4530   6.669   1.628   3.482 -1.9655  1.1463 -1.4316
 1133SOL     hw 4531   6.780   1.561   3.403  0.2806 -0.2546  2.6562
 1133SOL     vw 4532   6.697   1.564   3.429 -0.3090 -0.1787  0.9027
 1134SOL     ow 4533   2.991   2.740   0.431 -0.1134 -0.3468  0.3488
 1134SOL     hw 4534   2.945   2.820   0.455  1.3987  0.9983 -0.9322
 1134SOL     hw 4535   3.070   2.740   0.486 -0.5179 -1.4166  0.9422
 1134SOL     vw 4536   2.996   2.750   0.441  0.0325 -0.3103  0.2581
 1135SOL     ow 4537   4.590   6.788   6.908  0.1472 -0.1298  0.2218
 1135SOL     hw 4538   4.495   6.780   6.909  0.1553 -0.6049  2.1303
 1135SOL     hw 4539   4.611   6.836   6.988  1.5622 -0.9270  0.3710
 1135SOL     vw 4540   4.580   6.793   6.919  0.3347 -0.2975  0.4935
 1136SOL     ow 4541   1.925   0.958   3.191 -0.2180 -0.4419  0.2713
 1136SOL     hw 4542   1.874   0.915   3.259 -0.3490 -1.3269 -0.3780
 1136SOL     hw 4543   1.960   0.887   3.137  1.0197  0.1838  0.2106
 1136SOL     vw 4544   1.923   0.943   3.193 -0.0719 -0.4761  0.1775
 1137SOL     ow 4545   6.809   6.942   1.836 -0.0329  0.0695 -0.9446
 1137SOL     hw 4546   6.874   6.948   1.906 -1.5582 -2.2214  0.8220
 1137SOL     hw 4547   6.725   6.947   1.881 -1.0754 -2.2687 -2.4477
 1137SOL     vw 4548   6.807   6.943   1.851 -0.3717 -0.5412 -0.9099
 1138SOL     ow 4549   6.476   4.766   1.706  0.0124 -0.6646 -0.1940
 1138SOL     hw 4550   6.454   4.832   1.640 -0.0478  0.1376  0.6102
 1138SOL     hw 4551   6.571   4.775   1.719  0.5549 -2.6546 -2.0858
 1138SOL     vw 4552   6.486   4.776   1.699  0.0761 -0.8211 -0.3375
 1139SOL     ow 4553   6.385   3.312   2.591  0.3250  0.2349  0.2849
 1139SOL     hw 4554   6.447   3.239   2.584  1.1903  1.0358 -0.8416
 1139SOL     hw 4555   6.342   3.299   2.676  0.6995 -1.3803  0.2603
 1139SOL     vw 4556   6.388   3.301   2.602  0.4885  0.1273  0.1330
 1140SOL     ow 4557   6.015   4.696   0.870 -1.0838 -0.7468  0.2456
 1140SOL     hw 4558   6.106   4.721   0.852 -1.3498 -0.0646 -0.2064
 1140SOL     hw 4559   6.001   4.617   0.819 -1.5078  0.5858 -1.8179
 1140SOL     vw 4560   6.025   4.689   0.861 -1.1744 -0.4809 -0.0863
 1141SOL     ow 4561   0.659   2.636   6.572  0.7021 -0.5903 -0.0086
 1141SOL     hw 4562   0.623   2.650   6.659 -0.4149 -1.4347 -0.3232
 1141SOL     hw 4563   0.593   2.585   6.526  0.6492  0.9783 -1.8006
 1141SOL     vw 4564   0.646   2.631   6.577  0.5478 -0.4948 -0.2863
 1142SOL     ow 4565   5.042   0.251   2.437 -0.1697 -0.2771 -0.5591
 1142SOL     hw 4566   4.990   0.332   2.437 -0.7022 -0.5730 -2.7681
 1142SOL     hw 4567   5.078   0.245   2.349  1.6294 -1.3795  0.1921
 1142SOL     vw 4568   5.040   0.261   2.426 -0.0029 -0.4616 -0.7516
 1143SOL     ow 4569   3.740   6.186   6.380  0.3652  0.6136 -0.1931
 1143SOL     hw 4570   3.688   6.108   6.397 -0.5423  1.4036  0.7753
 1143SOL     hw 4571   3.732   6.200   6.286  1.7352 -1.2566 -0.6627
 1143SOL     vw 4572   3.732   6.177   6.370  0.4262  0.4711 -0.1273
 1144SOL     ow 4573   0.792   5.253   0.381  0.6768 -0.0869 -0.2440
 1144SOL     hw 4574   0.777   5.174   0.432  2.0341 -0.3242 -0.1712
 1144SOL     hw 4575   0.885   5.251   0.360  0.5863  1.1177 -0.8804
 1144SOL     vw 4576   0.802   5.242   0.385  0.8440  0.0408 -0.3184
 1145SOL     ow 4577   2.647   5.673   7.002 -0.6274 -0.5371  0.0138
 1145SOL     hw 4578   2.576   5.609   7.002 -0.0031 -1.3131 -2.0207
 1145SOL     hw 4579   2.616   5.742   6.944 -0.9594  0.6746  1.5640
 1145SOL     vw 4580   2.634   5.674   6.994 -0.5889 -0.4799 -0.0501
 1146SOL     ow 4581   3.337   1.688   6.021  0.6487 -1.1977 -0.0022
 1146SOL     hw 4582   3.279   1.670   6.095  3.3147 -0.7116  2.3605
 1146SOL     hw 4583   3.396   1.757   6.053  0.9565  0.2074 -3.1629
 1146SOL     vw 4584   3.337   1.695   6.035  1.0411 -0.9481 -0.1075
 1147SOL     ow 4585   6.193   3.962   4.727  0.4950  0.9311 -0.0784
 1147SOL     hw 4586   6.277   3.977   4.684  0.7200 -1.4142 -0.6084
 1147SOL     hw 4587   6.209   3.886   4.783 -0.5943  2.0813  1.9080
 1147SOL     vw 4588   6.206   3.954   4.729  0.3808  0.7734  0.1140
 1148SOL     ow 4589   6.548   1.340   3.593 -0.8259 -0.2742 -0.0751
 1148SOL     hw 4590   6.587   1.379   3.671 -0.2418 -0.8019 -0.0938
 1148SOL     hw 4591   6.506   1.260   3.624 -3.1848  0.9798  0.1987
 1148SOL     vw 4592   6.548   1.334   3.607 -1.0598 -0.1784 -0.0415
 1149SOL     ow 4593   1.203   7.117   6.349  0.1339  0.2279  0.3614
 1149SOL     hw 4594   1.230   7.105   6.441 -0.4232  2.6678  0.8871
 1149SOL     hw 4595   1.198   7.211   6.337  0.5094 -0.0124 -2.3188
 1149SOL     vw 4596   1.206   7.128   6.360  0.1099  0.5181  0.0772
 1150SOL     ow 4597   0.547   3.246   5.513  0.3574  0.1756 -0.3807
 1150SOL     hw 4598   0.635   3.261   5.480  0.3710  0.5223 -0.1959
 1150SOL     hw 4599   0.559   3.194   5.592  0.4913  1.2368  0.3164
 1150SOL     vw 4600   0.560   3.241   5.519  0.3769  0.3613 -0.2644
 1151SOL     ow 4601   4.996   4.861   6.687 -0.4126  0.2575  0.0372
 1151SOL     hw 4602   5.068   4.842   6.747  1.4207 -0.2458 -2.1860
 1151SOL     hw 4603   4.981   4.780   6.639 -1.8578  0.6163 -0.1858
 1151SOL     vw 4604   5.003   4.848   6.688 -0.3614  0.2384 -0.2856
 1152SOL     ow 4605   5.895   4.013   0.585  0.1751  0.6012  0.4306
 1152SOL     hw 4606   5.922   3.959   0.660  0.6242 -0.2730 -0.3248
 1152SOL     hw 4607   5.962   4.081   0.580  1.9309 -1.1030 -0.9597
 1152SOL     vw 4608   5.907   4.015   0.594  0.4659  0.2608  0.1475
 1153SOL     ow 4609   0.106   6.509   2.853  0.0613 -0.3641  0.4815
 1153SOL     hw 4610   0.094   6.566   2.778  0.0151 -0.7843  0.1651
 1153SOL     hw 4611   0.191   6.468   2.839  0.3758  0.0907  1.0238
 1153SOL     vw 4612   0.115   6.511   2.841  0.0967 -0.3595  0.5114
 1154SOL     ow 4613   2.227   3.117   5.913  0.2529  0.4570 -0.0643
 1154SOL     hw 4614   2.150   3.170   5.891  0.4172  0.3441 -0.9381
 1154SOL     hw 4615   2.300   3.165   5.875  0.5935  0.4218  0.5284
 1154SOL     vw 4616   2.226   3.131   5.905  0.3194  0.4375 -0.1013
 1155SOL     ow 4617   3.671   2.097   5.647 -0.4213 -0.3082 -0.0382
 1155SOL     hw 4618   3.691   2.147   5.568  0.7354 -1.6401 -0.6242
 1155SOL     hw 4619   3.578   2.113   5.663 -0.5526  0.3768 -1.3646
 1155SOL     vw 4620   3.661   2.106   5.639 -0.2860 -0.3936 -0.2906
 1156SOL     ow 4621   0.094   6.732   0.475  0.3448 -0.3774  0.8324
 1156SOL     hw 4622   0.103   6.815   0.429  1.1249 -0.8439  0.1114
 1156SOL     hw 4623   0.082   6.667   0.406  0.3145 -0.9379  1.3542
 1156SOL     vw 4624   0.094   6.734   0.460  0.4437 -0.5131  0.8061
 1157SOL     ow 4625   4.624   0.328   2.018  0.2930  0.5450  0.1384
 1157SOL     hw 4626   4.714   0.317   1.985  0.4967 -0.1055  0.8760
 1157SOL     hw 4627   4.626   0.412   2.062  0.5234  0.5738  0.0790
 1157SOL     vw 4628   4.636   0.337   2.019  0.3505  0.4629  0.2280
 1158SOL     ow 4629   5.777   0.693   1.988 -0.0994 -0.1604  0.3898
 1158SOL     hw 4630   5.755   0.638   1.913 -0.7842  1.0534 -0.3254
 1158SOL     hw 4631   5.803   0.631   2.056 -0.1615 -1.3238 -0.6106
 1158SOL     vw 4632   5.778   0.677   1.987 -0.1979 -0.1537  0.1635
 1159SOL     ow 4633   3.457   3.650   2.903 -0.4646  0.4802  0.4040
 1159SOL     hw 4634   3.490   3.670   2.815  0.4967 -4.6721 -0.7446
 1159SOL     hw 4635   3.534   3.652   2.959 -0.0209 -1.1965 -0.0720
 1159SOL     vw 4636   3.472   3.653   2.898 -0.2792 -0.4208  0.1897
 1160SOL     ow 4637   5.915   1.586   4.944  0.0055 -0.4329 -0.3182
 1160SOL     hw 4638   5.834   1.537   4.954  0.5700 -1.3698 -0.2474
 1160SOL     hw 4639   5.889   1.666   4.898 -1.2695  0.1583  1.3051
 1160SOL     vw 4640   5.901   1.590   4.939 -0.0880 -0.4784 -0.0949
 1161SOL     ow 4641   5.404   1.428   0.770 -0.0306 -0.1365 -0.7722
 1161SOL     hw 4642   5.356   1.511   0.767 -0.2112 -0.2366 -0.6989
 1161SOL     hw 4643   5.485   1.448   0.816  0.3583  0.2141 -1.5893
 1161SOL     vw 4644   5.408   1.441   0.775 -0.0031 -0.1034 -0.8703
 1162SOL     ow 4645   6.350   2.970   0.697 -0.3812 -0.6629 -0.2664
 1162SOL     hw 4646   6.350   2.908   0.625 -0.5169 -0.4519 -0.4505
 1162SOL     hw 4647   6.266   3.016   0.689  0.4481  0.7713 -1.2051
 1162SOL     vw 4648   6.339   2.968   0.687 -0.2899 -0.4457 -0.4145
 1163SOL     ow 4649   4.336   6.133   3.524 -0.1647 -0.5594  0.0067
 1163SOL     hw 4650   4.304   6.223   3.525 -0.2877 -0.5619 -1.2756
 1163SOL     hw 4651   4.397   6.130   3.450  0.9785 -1.1628  0.9350
 1163SOL     vw 4652   4.340   6.144   3.514 -0.0303 -0.6392 -0.0401
 1164SOL     ow 4653   1.459   5.779   4.660  0.5636 -0.2274  0.3031
 1164SOL     hw 4654   1.424   5.864   4.690  1.8118 -0.4156  2.5615
 1164SOL     hw 4655   1.554   5.790   4.665  0.8825 -0.5985 -3.0712
 1164SOL     vw 4656   1.467   5.792   4.665  0.7704 -0.3014  0.1559
 1165SOL     ow 4657   3.085   6.697   1.468 -0.2457  0.1066  0.0895
 1165SOL     hw 4658   3.079   6.731   1.379  3.8460 -2.2680 -1.3933
 1165SOL     hw 4659   3.160   6.742   1.507 -0.5165 -0.5556  1.4669
 1165SOL     vw 4660   3.094   6.707   1.462  0.2584 -0.2940  0.0756
 1166SOL     ow 4661   5.590   0.923   5.273  0.0135 -0.0986  0.2875
 1166SOL     hw 4662   5.569   0.915   5.367 -0.2560  3.4868  0.6489
 1166SOL     hw 4663   5.683   0.945   5.271 -0.1264  0.4584 -0.2516
 1166SOL     vw 4664   5.599   0.925   5.285 -0.0403  0.4480  0.2642
 1167SOL     ow 4665   0.204   1.163   3.084 -0.2364  0.3270  0.0321
 1167SOL     hw 4666   0.272   1.134   3.145 -3.3949 -2.0335  2.7375
 1167SOL     hw 4667   0.174   1.247   3.119  0.1708  0.5930 -0.2452
 1167SOL     vw 4668   0.209   1.170   3.096 -0.5994  0.0507  0.3524
 1168SOL     ow 4669   0.388   4.933   6.434 -0.2163 -0.3440 -0.3065
 1168SOL     hw 4670   0.418   4.845   6.409  0.0036  0.3466 -2.6903
 1168SOL     hw 4671   0.449   4.961   6.502  0.9447 -1.2592 -0.9452
 1168SOL     vw 4672   0.400   4.925   6.440 -0.0341 -0.3736 -0.7052
 1169SOL     ow 4673   2.540   5.233   1.869  0.3479 -0.0210 -0.5079
 1169SOL     hw 4674   2.486   5.154   1.869 -0.8448  0.7283 -2.0882
 1169SOL     hw 4675   2.629   5.203   1.886 -0.1853 -1.6002 -0.3930
 1169SOL     vw 4676   2.544   5.219   1.871  0.1202 -0.1304 -0.7012
 1170SOL     ow 4677   6.980   4.926   2.373  0.0545  0.2250  0.1228
 1170SOL     hw 4678   6.938   4.999   2.328 -0.1065  0.5284  0.7423
 1170SOL     hw 4679   7.056   4.966   2.415  1.2034 -0.3853 -1.2935
 1170SOL     vw 4680   6.985   4.941   2.373  0.1845  0.1845  0.0176
 1171SOL     ow 4681   1.843   5.848   4.396 -0.2128 -0.2610  0.0015
 1171SOL     hw 4682   1.835   5.904   4.474  1.0532 -0.5124  0.3369
 1171SOL     hw 4683   1.837   5.759   4.430 -1.0768 -0.3674 -0.3900
 1171SOL     vw 4684   1.841   5.843   4.411 -0.1597 -0.3083 -0.0060
 1172SOL     ow 4685   4.828   7.124   4.494  0.3027 -0.2540 -0.4141
 1172SOL     hw 4686   4.812   7.133   4.400  0.9027  0.0264 -0.4914
 1172SOL     hw 4687   4.743   7.098   4.530 -0.4169  1.4361 -0.7942
 1172SOL     vw 4688   4.814   7.122   4.486  0.2868  0.0060 -0.4742
 1173SOL     ow 4689   2.515   0.014   0.360 -0.4668 -0.0254  0.3587
 1173SOL     hw 4690   2.427   0.023   0.395 -1.1283 -1.1074 -0.9208
 1173SOL     hw 4691   2.556  -0.055   0.412  0.4517  1.9277  2.3895
 1173SOL     vw 4692   2.509   0.006   0.371 -0.4328  0.0894  0.4578
 1174SOL     ow 4693   1.720   0.324   1.699  0.7033 -0.0061  0.3941
 1174SOL     hw 4694   1.728   0.262   1.771  1.2432 -1.2333 -0.6782
 1174SOL     hw 4695   1.795   0.382   1.709  1.6670 -1.1265 -0.0332
 1174SOL     vw 4696   1.731   0.323   1.710  0.9016 -0.3159  0.1962
 1175SOL     ow 4697   4.547   6.379   3.643 -0.4349  0.8414 -0.2269
 1175SOL     hw 4698   4.586   6.305   3.598  0.1543 -0.0726  1.6866
 1175SOL     hw 4699   4.453   6.361   3.641 -0.2922 -0.0495  0.3052
 1175SOL     vw 4700   4.539   6.367   3.637 -0.3383  0.6032  0.0957
 1176SOL     ow 4701   5.800   4.892   0.791  0.6227 -0.3684 -0.4948
 1176SOL     hw 4702   5.860   4.949   0.742 -0.0089  0.2606 -0.5439
 1176SOL     hw 4703   5.780   4.821   0.730  1.7131 -0.8626 -0.3011
 1176SOL     vw 4704   5.805   4.890   0.776  0.6831 -0.3505 -0.4757
 1177SOL     ow 4705   6.225   3.841   4.458  0.0084  0.1041 -0.5823
 1177SOL     hw 4706   6.256   3.750   4.459  2.2396  0.7859  0.8768
 1177SOL     hw 4707   6.273   3.881   4.386  0.3156  0.4814 -0.1769
 1177SOL     vw 4708   6.235   3.834   4.449  0.3433  0.2439 -0.3362
 1178SOL     ow 4709   6.781   2.404   2.400 -0.3005  0.5685  0.4929
 1178SOL     hw 4710   6.762   2.346   2.473 -1.0772  0.8226  0.4993
 1178SOL     hw 4711   6.761   2.352   2.322 -0.1865  0.5469  0.4775
 1178SOL     vw 4712   6.776   2.389   2.399 -0.3881  0.5991  0.4916
 1179SOL     ow 4713   5.306   6.393   6.282 -0.3870  0.3821  0.2946
 1179SOL     hw 4714   5.225   6.440   6.301  0.6493  2.1753  0.6347
 1179SOL     hw 4715   5.326   6.345   6.362 -2.1714 -1.8788 -0.5135
 1179SOL     vw 4716   5.298   6.393   6.295 -0.4859  0.3204  0.2332
 1180SOL     ow 4717   3.759   2.475   3.068 -0.7487 -0.2678  0.2618
 1180SOL     hw 4718   3.798   2.462   3.155  0.7662 -0.7874 -0.4532
 1180SOL     hw 4719   3.793   2.559   3.040 -0.5066 -0.5160 -0.1919
 1180SOL     vw 4720   3.769   2.484   3.076 -0.5169 -0.3692  0.1075
 1181SOL     ow 4721   0.137   5.561   2.659 -0.3111  0.9074 -0.4700
 1181SOL     hw 4722   0.121   5.495   2.726 -1.5011  1.5490 -0.0858
 1181SOL     hw 4723   0.232   5.566   2.651 -0.1883 -0.7699 -0.4450
 1181SOL     vw 4724   0.147   5.553   2.667 -0.4519  0.7708 -0.4162
 1182SOL     ow 4725   0.304   5.111   2.513  0.3898 -0.0359  0.3083
 1182SOL     hw 4726   0.376   5.172   2.532 -0.3741  1.0981 -0.3517
 1182SOL     hw 4727   0.302   5.052   2.589  1.4331  0.4717  0.7536
 1182SOL     vw 4728   0.313   5.112   2.526  0.4267  0.1805  0.2800
 1183SOL     ow 4729   3.271   3.620   0.979  0.4945  0.0986 -0.3120
 1183SOL     hw 4730   3.236   3.638   0.891 -1.6384  2.3592  0.8740
 1183SOL     hw 4731   3.364   3.640   0.971  0.2472  0.8216 -1.9390
 1183SOL     vw 4732   3.279   3.625   0.966  0.1806  0.4922 -0.3702
 1184SOL     ow 4733   3.295   1.434   3.637 -0.3272  1.1941  0.1339
 1184SOL     hw 4734   3.205   1.423   3.608  0.3836 -1.8529 -1.3456
 1184SOL     hw 4735   3.342   1.460   3.557  0.7738 -1.9977 -0.4211
 1184SOL     vw 4736   3.289   1.436   3.622 -0.0881  0.3710 -0.1345
 1185SOL     ow 4737   0.955   1.230   6.030  0.4369 -0.3463 -0.6523
 1185SOL     hw 4738   0.916   1.291   5.968  2.7274  0.2743 -1.6139
 1185SOL     hw 4739   1.048   1.230   6.007  0.7353 -3.1618  0.2336
 1185SOL     vw 4740   0.962   1.238   6.019  0.7785 -0.6359 -0.6623
 1186SOL     ow 4741   5.026   3.752   5.004 -0.2560 -0.0930 -0.1545
 1186SOL     hw 4742   5.059   3.812   5.072 -3.1878 -0.7642  2.0547
 1186SOL     hw 4743   5.101   3.697   4.984  0.2960 -1.5284  4.5461
 1186SOL     vw 4744   5.040   3.753   5.010 -0.5698 -0.3709  0.7572
 1187SOL     ow 4745   1.476   4.624   2.222 -0.4318 -0.1266  0.5255
 1187SOL     hw 4746   1.492   4.697   2.282 -4.0123  0.6226  0.8091
 1187SOL     hw 4747   1.452   4.551   2.279  1.1223 -0.9566  0.1529
 1187SOL     vw 4748   1.475   4.624   2.237 -0.6991 -0.1373  0.5138
 1188SOL     ow 4749   2.135   1.700   5.477 -0.3120 -0.2843 -1.0466
 1188SOL     hw 4750   2.221   1.715   5.515 -0.4896 -2.0142  0.1284
 1188SOL     hw 4751   2.150   1.632   5.410 -0.6982 -0.3053 -1.1144
 1188SOL     vw 4752   2.148   1.693   5.473 -0.3864 -0.5153 -0.9005
 1189SOL     ow 4753   6.216   1.256   5.237 -0.4099 -0.3089 -0.3036
 1189SOL     hw 4754   6.299   1.288   5.272 -1.2546  0.0891  1.4847
 1189SOL     hw 4755   6.231   1.162   5.223  0.8416  0.0628 -1.6958
 1189SOL     vw 4756   6.229   1.248   5.240 -0.3562 -0.2074 -0.2518
 1190SOL     ow 4757   5.321   5.689   2.797  0.0093  0.1993  0.7352
 1190SOL     hw 4758   5.288   5.614   2.747  1.4718  0.5911 -0.9470
 1190SOL     hw 4759   5.258   5.759   2.779 -0.7785 -0.3102  1.4375
 1190SOL     vw 4760   5.308   5.688   2.788  0.0985  0.1838  0.6059
 1191SOL     ow 4761   6.732   4.855   6.185 -0.3741  0.2608 -0.1313
 1191SOL     hw 4762   6.812   4.849   6.237 -0.0303  0.3673 -0.6416
 1191SOL     hw 4763   6.738   4.782   6.123 -1.1035 -0.2726  0.4099
 1191SOL     vw 4764   6.743   4.845   6.184 -0.4249  0.2046 -0.1271
 1192SOL     ow 4765   3.018   6.484   2.018 -0.3377 -0.0712 -0.0283
 1192SOL     hw 4766   3.013   6.390   1.998  0.9893 -0.2198  0.2847
 1192SOL     hw 4767   2.984   6.491   2.107  0.0546 -0.3373  0.1464
 1192SOL     vw 4768   3.013   6.472   2.027 -0.1109 -0.1259  0.0360
 1193SOL     ow 4769   6.718   4.256   4.153  0.8746  0.2462 -0.7938
 1193SOL     hw 4770   6.770   4.279   4.230 -1.4569  0.4103  0.8510
 1193SOL     hw 4771   6.708   4.161   4.159 -0.4505  0.4055 -0.0486
 1193SOL     vw 4772   6.723   4.246   4.164  0.3924  0.2887 -0.4783
 1194SOL     ow 4773   6.718   4.454   2.287 -0.0693 -0.0081  1.0001
 1194SOL     hw 4774   6.700   4.487   2.374  0.8177  0.1550  1.1348
 1194SOL     hw 4775   6.633   4.425   2.253 -0.9832  2.7624  0.7020
 1194SOL     vw 4776   6.705   4.454   2.294 -0.0730  0.3788  0.9785
 1195SOL     ow 4777   3.307   1.437   1.270 -0.0634  1.0585 -0.5659
 1195SOL     hw 4778   3.244   1.391   1.325  1.1622  2.0599  1.8027
 1195SOL     hw 4779   3.386   1.384   1.275 -0.5110 -0.0627 -3.3306
 1195SOL     vw 4780   3.309   1.424   1.278  0.0393  1.0426 -0.6182
 1196SOL     ow 4781   2.898   4.749   1.120 -0.2432 -0.5213  0.4478
 1196SOL     hw 4782   2.985   4.739   1.081 -0.6129 -0.1201 -0.5232
 1196SOL     hw 4783   2.882   4.667   1.167  0.2048 -1.0462 -0.3100
 1196SOL     vw 4784   2.907   4.737   1.121 -0.2327 -0.5376  0.2198
 1197SOL     ow 4785   5.463   1.365   0.314 -0.6228  0.0735  0.5226
 1197SOL     hw 4786   5.457   1.440   0.373 -1.1608  2.6975 -2.5831
 1197SOL     hw 4787   5.556   1.345   0.310 -0.5171  0.2540  1.7499
 1197SOL     vw 4788   5.474   1.372   0.321 -0.6800  0.4435  0.2748
 1198SOL     ow 4789   4.340   0.928   3.871 -0.3596 -0.4089 -0.6586
 1198SOL     hw 4790   4.371   0.980   3.945 -3.2045 -0.1772  0.4632
 1198SOL     hw 4791   4.296   0.853   3.910 -0.8873 -0.9018 -2.1387
 1198SOL     vw 4792   4.339   0.925   3.886 -0.8044 -0.4434 -0.7058
 1199SOL     ow 4793   1.988   6.068   4.253 -0.0665  0.1644  0.0351
 1199SOL     hw 4794   2.025   6.092   4.168 -1.6615 -1.1278 -1.0950
 1199SOL     hw 4795   1.913   6.127   4.264 -1.4073 -1.3241 -0.7256
 1199SOL     vw 4796   1.983   6.079   4.243 -0.4539 -0.2027 -0.2143
 1200SOL     ow 4797   6.484   3.938   5.763 -0.2507 -0.2885  0.3638
 1200SOL     hw 4798   6.439   4.001   5.820  0.8264  2.3348 -1.5243
 1200SOL     hw 4799   6.429   3.933   5.685  0.5689 -0.3207 -0.2219
 1200SOL     vw 4800   6.470   3.946   5.761 -0.0002  0.0533  0.0377
 1201SOL     ow 4801   3.248   2.938   2.504 -0.3261 -0.0339  0.9425
 1201SOL     hw 4802   3.197   2.951   2.424 -1.7328  2.1040  2.0979
 1201SOL     hw 4803   3.234   2.846   2.526  0.2654 -0.7482 -1.3267
 1201SOL     vw 4804   3.240   2.928   2.496 -0.4338  0.1539  0.7955
 1202SOL     ow 4805   4.114   3.817   2.000 -0.1030 -0.1295  0.5643
 1202SOL     hw 4806   4.040   3.825   2.060  0.8136 -1.7606  2.0067
 1202SOL     hw 4807   4.162   3.740   2.031  2.0845  0.7493 -0.4144
 1202SOL     vw 4808   4.111   3.808   2.012  0.3061 -0.2289  0.6254
 1203SOL     ow 4809   5.454   1.379   1.368  0.0939 -0.2778 -0.3047
 1203SOL     hw 4810   5.527   1.348   1.315  0.1087 -0.7746 -0.0029
 1203SOL     hw 4811   5.447   1.315   1.438 -1.6458 -1.1418 -1.2110
 1203SOL     vw 4812   5.463   1.367   1.370 -0.1338 -0.4573 -0.3844
 1204SOL     ow 4813   6.012   0.980   6.399 -0.2208 -0.3109 -0.7016
 1204SOL     hw 4814   6.108   0.977   6.402 -0.1777  0.3149 -1.2700
 1204SOL     hw 4815   5.986   0.888   6.395  0.3567 -0.4851 -0.6601
 1204SOL     vw 4816   6.022   0.968   6.399 -0.1388 -0.2513 -0.7713
 1205SOL     ow 4817   6.742   2.883   5.595 -0.2393 -0.2351 -0.1120
 1205SOL     hw 4818   6.833   2.912   5.583 -0.9057  2.1454  0.0016
 1205SOL     hw 4819   6.706   2.878   5.506 -0.2690 -0.2014 -0.1019
 1205SOL     vw 4820   6.749   2.886   5.582 -0.3312  0.0834 -0.0956
 1206SOL     ow 4821   6.533   3.733   1.826 -0.2267 -0.0824  0.1610
 1206SOL     hw 4822   6.506   3.642   1.818  0.3134 -0.1736 -0.8804
 1206SOL     hw 4823   6.626   3.729   1.850 -0.3051  0.1939  0.5180
 1206SOL     vw 4824   6.542   3.721   1.828 -0.1655 -0.0579  0.0706
 1207SOL     ow 4825   5.665   4.870   2.451  0.2870  0.0126  0.0716
 1207SOL     hw 4826   5.722   4.935   2.492 -0.6854  0.9928 -0.0863
 1207SOL     hw 4827   5.625   4.824   2.525 -0.1497  0.6062  0.2121
 1207SOL     vw 4828   5.667   4.873   2.466  0.1013  0.2201  0.0693
 1208SOL     ow 4829   5.446   6.700   0.714 -0.1733 -0.9736  0.1242
 1208SOL     hw 4830   5.405   6.755   0.647 -1.1316 -1.8221 -0.0134
 1208SOL     hw 4831   5.440   6.751   0.795  0.1264 -0.3421 -0.2419
 1208SOL     vw 4832   5.440   6.714   0.716 -0.2601 -1.0021  0.0577
 1209SOL     ow 4833   0.806   2.818   6.384  0.2492 -0.4036  0.3719
 1209SOL     hw 4834   0.837   2.840   6.296  0.6937  0.9023  0.8376
 1209SOL     hw 4835   0.886   2.808   6.436  0.0815  3.6809  1.7519
 1209SOL     vw 4836   0.821   2.819   6.379  0.2857  0.3076  0.6154
 1210SOL     ow 4837   3.650   5.763   0.716 -0.1517  0.3877  0.0431
 1210SOL     hw 4838   3.602   5.738   0.637 -0.1722  0.5490  0.0043
 1210SOL     hw 4839   3.686   5.849   0.695 -1.0550  0.9165  0.6063
 1210SOL     vw 4840   3.648   5.771   0.702 -0.2736  0.4785  0.1122
 1211SOL     ow 4841   4.454   1.401   1.953 -0.3273 -0.0262  0.2860
 1211SOL     hw 4842   4.478   1.321   1.906  1.8660  0.9381 -0.3600
 1211SOL     hw 4843   4.537   1.443   1.975 -1.3859  1.7607  1.2068
 1211SOL     vw 4844   4.468   1.396   1.950 -0.1774  0.3368  0.3222
 1212SOL     ow 4845   1.949   4.599   6.291  0.8278 -0.1606 -0.0842
 1212SOL     hw 4846   1.968   4.614   6.198  1.2796 -0.5389 -0.0581
 1212SOL     hw 4847   1.923   4.685   6.324  0.6964 -0.0154 -0.5520
 1212SOL     vw 4848   1.948   4.612   6.283  0.8701 -0.1912 -0.1423
 1213SOL     ow 4849   0.946   1.619   2.509 -0.3575 -0.3169 -0.4664
 1213SOL     hw 4850   0.934   1.652   2.420 -0.8899  0.9406  0.0543
 1213SOL     hw 4851   0.862   1.578   2.531 -0.2241 -0.6330 -0.5456
 1213SOL     vw 4852   0.933   1.618   2.500 -0.4102 -0.1928 -0.4082
 1214SOL     ow 4853   3.725   6.043   7.093 -0.5426 -0.2276  0.7303
 1214SOL     hw 4854   3.703   6.054   7.000  1.2676 -2.4768 -0.0574
 1214SOL     hw 4855   3.665   6.101   7.139 -2.0479  0.3495 -1.7874
 1214SOL     vw 4856   3.715   6.052   7.086 -0.5023 -0.4480  0.2942
 1215SOL     ow 4857   1.040   5.155   2.731  0.1110  0.7335 -0.0984
 1215SOL     hw 4858   1.112   5.208   2.765  1.1284 -0.2076 -0.7583
 1215SOL     hw 4859   1.081   5.093   2.672 -1.2321  0.0806 -0.3786
 1215SOL     vw 4860   1.055   5.154   2.728  0.0680  0.5233 -0.2224
 1216SOL     ow 4861   2.336   1.272   2.448 -0.3898  0.4359  0.1262
 1216SOL     hw 4862   2.315   1.213   2.377 -0.8311 -1.2546  1.5928
 1216SOL     hw 4863   2.323   1.360   2.412 -2.3443 -0.4031 -1.3170
 1216SOL     vw 4864   2.332   1.276   2.434 -0.7060  0.1022  0.1292
 1217SOL     ow 4865   7.125   1.185   6.547 -0.8817  0.4643  0.1958
 1217SOL     hw 4866   7.142   1.160   6.637  1.4976  0.7129 -0.1021
 1217SOL     hw 4867   7.155   1.276   6.541 -0.8630  0.4053 -0.8555
 1217SOL     vw 4868   7.131   1.194   6.558 -0.5655  0.4894  0.0179
 1218SOL     ow 4869   1.121   2.587   2.653 -0.7912  0.2903 -0.5801
 1218SOL     hw 4870   1.081   2.668   2.682 -1.9862 -0.3962 -0.2245
 1218SOL     hw 4871   1.205   2.582   2.699 -0.3540  1.6681 -1.1896
 1218SOL     vw 4872   1.127   2.597   2.663 -0.8912  0.3815 -0.6135
 1219SOL     ow 4873   4.829   1.816   4.960 -0.7462 -0.0158  0.2581
 1219SOL     hw 4874   4.817   1.891   5.019  0.7815  0.8970 -0.5121
 1219SOL     hw 4875   4.740   1.790   4.936 -1.3494  0.6808  1.5985
 1219SOL     vw 4876   4.816   1.823   4.965 -0.6242  0.1965  0.3333
 1220SOL     ow 4877   5.454   5.550   7.027  0.4432 -0.3750 -0.1954
 1220SOL     hw 4878   5.434   5.471   6.978 -0.2737 -0.9566  0.9766
 1220SOL     hw 4879   5.494   5.519   7.108  1.7943  0.5643 -0.4703
 1220SOL     vw 4880   5.456   5.536   7.031  0.5271 -0.3276 -0.0772
 1221SOL     ow 4881   4.450   4.254   6.839  0.3913 -0.0183  0.1306
 1221SOL     hw 4882   4.470   4.337   6.797  1.9531 -0.4585 -0.0425
 1221SOL     hw 4883   4.375   4.220   6.789  1.3317  0.1144 -1.4313
 1221SOL     vw 4884   4.443   4.260   6.827  0.7212 -0.0591 -0.0980
 1222SOL     ow 4885   5.907   0.032   1.023 -0.0790  0.1896  0.0840
 1222SOL     hw 4886   5.922  -0.016   0.942  1.3482 -0.4933  0.7174
 1222SOL     hw 4887   5.879  -0.035   1.086  1.1028  0.3034  0.7520
 1222SOL     vw 4888   5.905   0.017   1.021  0.2651  0.1144  0.2558
 1223SOL     ow 4889   5.256   6.552   3.631  0.0730  0.5572 -0.0381
 1223SOL     hw 4890   5.297   6.522   3.711  1.6769  1.9048 -0.3029
 1223SOL     hw 4891   5.254   6.648   3.639 -2.1484  0.6017 -0.4846
 1223SOL     vw 4892   5.261   6.561   3.642 -0.0086  0.7408 -0.1321
 1224SOL     ow 4893   5.410   3.151   2.412  0.1820  0.4487 -0.0992
 1224SOL     hw 4894   5.495   3.146   2.455 -0.0352 -0.6838  0.2418
 1224SOL     hw 4895   5.402   3.242   2.384  1.0215  0.8352  0.8534
 1224SOL     vw 4896   5.420   3.162   2.414  0.2642  0.3504  0.0715
 1225SOL     ow 4897   4.805   4.020   4.068  0.3719 -0.5328 -0.4813
 1225SOL     hw 4898   4.746   4.093   4.085  1.7904  0.7850 -1.0257
 1225SOL     hw 4899   4.772   3.949   4.123  0.1585  1.1353  1.6827
 1225SOL     vw 4900   4.793   4.020   4.077  0.5307 -0.1390 -0.2677
 1226SOL     ow 4901   6.730   5.148   4.837  0.3071  0.1570  0.0016
 1226SOL     hw 4902   6.636   5.152   4.819  0.5603 -1.0022 -1.9542
 1226SOL     hw 4903   6.758   5.239   4.842 -0.7391  0.5193 -0.5528
 1226SOL     vw 4904   6.722   5.160   4.835  0.2027  0.0517 -0.3297
 1227SOL     ow 4905   2.211   6.485   0.665 -0.7576  1.1416 -0.1657
 1227SOL     hw 4906   2.191   6.566   0.712 -3.3616  1.0847 -0.9997
 1227SOL     hw 4907   2.125   6.450   0.641  0.3313  0.3848 -3.6004
 1227SOL     vw 4908   2.197   6.491   0.668 -0.9575  1.0343 -0.7289
 1228SOL     ow 4909   6.749   6.508   6.912 -0.9593  0.0456  0.4809
 1228SOL     hw 4910   6.744   6.603   6.902  0.0887  0.0445 -0.2350
 1228SOL     hw 4911   6.769   6.495   7.005 -0.4664  0.5680  0.4568
 1228SOL     vw 4912   6.751   6.519   6.923 -0.7560  0.1144  0.3834
 1229SOL     ow 4913   6.254   2.680   0.032 -0.1194 -0.2423 -0.1299
 1229SOL     hw 4914   6.246   2.711   0.122 -0.7901 -0.5182 -0.0869
 1229SOL     hw 4915   6.191   2.733  -0.018  1.7657  1.4104 -0.8557
 1229SOL     vw 4916   6.244   2.691   0.037  0.0408 -0.0608 -0.2200
 1230SOL     ow 4917   6.071   1.967   0.366  0.0983 -0.7845  0.1984
 1230SOL     hw 4918   6.163   1.954   0.343 -0.3856 -0.4884 -2.1672
 1230SOL     hw 4919   6.047   2.048   0.320 -0.9492  0.0756  2.1246
 1230SOL     vw 4920   6.080   1.976   0.357 -0.1040 -0.6319  0.1405
 1231SOL     ow 4921   0.778   2.247   1.517 -0.3852 -0.0493 -0.2108
 1231SOL     hw 4922   0.781   2.299   1.437  1.0396 -0.8934 -0.7349
 1231SOL     hw 4923   0.826   2.298   1.581 -0.0325 -0.1496 -0.3902
 1231SOL     vw 4924   0.784   2.260   1.515 -0.1506 -0.1739 -0.3036
 1232SOL     ow 4925   3.725   5.201   5.983  0.4451 -0.1110  0.3066
 1232SOL     hw 4926   3.805   5.249   6.005  0.1681  1.1868 -1.3598
 1232SOL     hw 4927   3.705   5.152   6.063  1.1987  1.8992  1.8271
 1232SOL     vw 4928   3.733   5.201   5.997  0.5078  0.3252  0.2875
 1233SOL     ow 4929   1.653   1.317   4.663  0.6162 -0.8646 -0.3831
 1233SOL     hw 4930   1.677   1.404   4.693  1.4755 -0.0214 -3.2326
 1233SOL     hw 4931   1.628   1.329   4.572  1.6849 -3.7378 -1.1599
 1233SOL     vw 4932   1.653   1.330   4.655  0.8706 -1.1324 -0.8614
 1234SOL     ow 4933   5.140   4.394   4.044 -1.2523 -0.1901  0.6250
 1234SOL     hw 4934   5.190   4.435   3.973  1.1596  1.0931  2.8803
 1234SOL     hw 4935   5.080   4.462   4.074 -1.0628 -0.1467  0.9067
 1234SOL     vw 4936   5.139   4.408   4.039 -0.9091 -0.0150  0.9599
 1235SOL     ow 4937   3.042   0.533   5.486 -0.4293 -0.5040  0.5530
 1235SOL     hw 4938   3.013   0.585   5.561 -2.8374 -0.2007 -0.5111
 1235SOL     hw 4939   3.087   0.595   5.429  0.4586 -0.5143  1.2249
 1235SOL     vw 4940   3.044   0.548   5.489 -0.6300 -0.4653  0.5014
 1236SOL     ow 4941   4.464   2.438   6.247 -0.3686 -0.1187 -0.4288
 1236SOL     hw 4942   4.488   2.384   6.322 -1.6010 -2.9671 -1.9645
 1236SOL     hw 4943   4.376   2.470   6.267 -0.5360 -0.5400 -0.4975
 1236SOL     vw 4944   4.455   2.435   6.259 -0.5534 -0.5500 -0.6402
 1237SOL     ow 4945   4.023   1.589   1.606 -0.3178  0.2309  0.2641
 1237SOL     hw 4946   3.995   1.563   1.518 -4.9877 -1.2945  1.9570
 1237SOL     hw 4947   3.972   1.667   1.625 -0.6048 -0.3994  2.2156
 1237SOL     vw 4948   4.013   1.596   1.597 -0.9718 -0.0535  0.7449
 1238SOL     ow 4949   3.226   6.112   1.481  0.5817 -0.3098 -1.4565
 1238SOL     hw 4950   3.150   6.096   1.424  0.5279  1.0040 -1.7783
 1238SOL     hw 4951   3.188   6.140   1.564  0.6838 -1.4014 -1.0292
 1238SOL     vw 4952   3.211   6.113   1.484  0.5879 -0.2804 -1.4427
 1239SOL     ow 4953   0.593   6.150   5.876  0.0803 -0.2407  0.0729
 1239SOL     hw 4954   0.643   6.153   5.794 -0.1620 -0.6806 -0.0969
 1239SOL     hw 4955   0.653   6.112   5.939 -0.2300 -1.3377 -0.2787
 1239SOL     vw 4956   0.608   6.146   5.874  0.0074 -0.4437  0.0038
 1240SOL     ow 4957   4.031   5.827   4.106  0.1148 -0.6426 -0.3061
 1240SOL     hw 4958   3.977   5.818   4.027 -0.6074 -0.7554  0.1876
 1240SOL     hw 4959   4.085   5.748   4.107 -0.6785 -1.1951 -0.0950
 1240SOL     vw 4960   4.031   5.815   4.096 -0.0854 -0.7305 -0.2131
 1241SOL     ow 4961   2.745   4.220   3.185 -0.3296 -0.4791 -0.1763
 1241SOL     hw 4962   2.752   4.227   3.280 -4.7694  0.9018  0.2452
 1241SOL     hw 4963   2.756   4.126   3.168  1.0279 -0.6998  1.5721
 1241SOL     vw 4964   2.748   4.209   3.195 -0.7362 -0.3259  0.1099
 1242SOL     ow 4965   3.051   1.799   2.550 -0.3864  0.6764  0.2349
 1242SOL     hw 4966   3.066   1.833   2.462 -0.3662  0.0678 -0.0043
 1242SOL     hw 4967   3.086   1.866   2.608  1.5552  0.1397 -0.2627
 1242SOL     vw 4968   3.057   1.812   2.546 -0.1274  0.5253  0.1377
 1243SOL     ow 4969   0.296   0.487   3.461  0.2672 -0.1665  0.2280
 1243SOL     hw 4970   0.245   0.474   3.541 -0.7950 -1.4267 -0.6000
 1243SOL     hw 4971   0.257   0.565   3.421 -1.4270 -1.3713 -0.6255
 1243SOL     vw 4972   0.284   0.496   3.466 -0.0965 -0.4918  0.0061
 1244SOL     ow 4973   3.876   1.609   2.842 -0.4385  0.0283  1.0187
 1244SOL     hw 4974   3.780   1.618   2.842 -0.7053 -1.5700 -1.9156
 1244SOL     hw 4975   3.905   1.663   2.769  0.3099 -2.8963 -1.0553
 1244SOL     vw 4976   3.867   1.617   2.832 -0.3752 -0.5685  0.3579
 1245SOL     ow 4977   0.542   1.021   4.370  0.3064  0.1134  0.1861
 1245SOL     hw 4978   0.519   1.114   4.376  1.8965  0.4721  1.3038
 1245SOL     hw 4979   0.493   0.989   4.294  0.2482  2.0245 -0.6296
 1245SOL     vw 4980   0.532   1.029   4.361  0.5085  0.4129  0.2260
 1246SOL     ow 4981   5.458   1.317   0.002 -0.5008  0.3271  0.2638
 1246SOL     hw 4982   5.482   1.408  -0.013 -1.3275  0.5051 -0.0358
 1246SOL     hw 4983   5.483   1.272  -0.079  1.2493 -0.0099  0.9506
 1246SOL     vw 4984   5.464   1.323  -0.011 -0.3791  0.3061  0.3150
 1247SOL     ow 4985   0.202   0.277   3.906 -0.1480 -0.6675  0.1104
 1247SOL     hw 4986   0.156   0.337   3.847  2.6312  2.8480  1.1334
 1247SOL     hw 4987   0.179   0.190   3.874 -2.9864  0.9006 -2.7511
 1247SOL     vw 4988   0.193   0.273   3.894 -0.1559  0.0032 -0.1323
 1248SOL     ow 4989   6.785   3.937   3.557 -0.9353 -0.2745 -0.4956
 1248SOL     hw 4990   6.722   3.903   3.620 -2.0956  1.7728 -0.4700
 1248SOL     hw 4991   6.840   3.997   3.608 -0.6983 -0.0004 -1.0655
 1248SOL     vw 4992   6.784   3.940   3.572 -1.0569  0.0317 -0.5674
 1249SOL     ow 4993   3.986   0.889   4.486 -0.0751  0.1683  0.9362
 1249SOL     hw 4994   4.041   0.960   4.454  1.1990 -0.5201  1.5465
 1249SOL     hw 4995   3.903   0.932   4.508 -0.0060  1.1270 -0.5076
 1249SOL     vw 4996   3.982   0.904   4.485  0.1020  0.2040  0.8264
 1250SOL     ow 4997   6.450   3.472   0.360 -0.0503 -0.1358 -0.4041
 1250SOL     hw 4998   6.404   3.464   0.444  0.3257  3.0758  0.2201
 1250SOL     hw 4999   6.415   3.400   0.307 -3.1835  0.0387  1.2101
 1250SOL     vw 5000   6.439   3.461   0.364 -0.4141  0.3110 -0.1087
 1251SOL     ow 5001   6.602   5.359   5.437 -0.3660  0.5656  0.7105
 1251SOL     hw 5002   6.578   5.452   5.445 -0.1134  0.7793 -0.6878
 1251SOL     hw 5003   6.541   5.325   5.371  0.5182  0.1128  0.1133
 1251SOL     vw 5004   6.591   5.367   5.429 -0.2160  0.5338  0.4470
 1252SOL     ow 5005   2.675   3.848   4.818 -0.2836  0.5135 -1.0697
 1252SOL     hw 5006   2.745   3.798   4.777 -0.3856  2.0254 -3.2773
 1252SOL     hw 5007   2.701   3.854   4.910  1.6201 -0.3590 -1.4911
 1252SOL     vw 5008   2.688   3.842   4.824 -0.0459  0.5980 -1.4162
 1253SOL     ow 5009   6.215   0.532   3.608 -0.2497 -0.1867  0.4053
 1253SOL     hw 5010   6.216   0.628   3.604  4.0218 -0.0381  0.3460
 1253SOL     hw 5011   6.214   0.512   3.701 -0.7783 -0.1035  0.4217
 1253SOL     vw 5012   6.215   0.542   3.620  0.2439 -0.1561  0.3996
 1254SOL     ow 5013   6.662   1.930   5.377  0.5312  0.5025 -0.2749
 1254SOL     hw 5014   6.620   1.870   5.316  2.1310 -0.3451 -0.5973
 1254SOL     hw 5015   6.755   1.906   5.374  0.9152  1.6952  1.0814
 1254SOL     vw 5016   6.669   1.919   5.368  0.7930  0.5480 -0.1383
 1255SOL     ow 5017   0.568   1.641   2.021  0.5482 -0.6443  0.8086
 1255SOL     hw 5018   0.584   1.585   1.945 -2.1100  0.2504 -0.5248
 1255SOL     hw 5019   0.539   1.580   2.090 -1.4398 -1.1032 -0.3520
 1255SOL     vw 5020   0.566   1.625   2.020 -0.0648 -0.5868  0.4795
 1256SOL     ow 5021   6.724   4.822   2.114 -0.3960 -0.4551  0.2613
 1256SOL     hw 5022   6.700   4.912   2.134 -0.2869 -0.7610  1.8765
 1256SOL     hw 5023   6.765   4.827   2.027 -0.7362  0.9765  0.1640
 1256SOL     vw 5024   6.726   4.835   2.105 -0.4265 -0.3064  0.4616
 1257SOL     ow 5025   6.874   3.672   3.582 -0.7210 -0.4293  0.5383
 1257SOL     hw 5026   6.870   3.657   3.676 -0.0333 -0.1400  0.6177
 1257SOL     hw 5027   6.868   3.767   3.573 -1.9254 -0.5178  0.2204
 1257SOL     vw 5028   6.872   3.683   3.593 -0.7889 -0.4028  0.5068
 1258SOL     ow 5029   1.064   0.964   0.619  0.4936 -0.3583 -0.2559
 1258SOL     hw 5030   1.074   1.052   0.655 -0.8209 -0.7456  1.1756
 1258SOL     hw 5031   1.017   0.977   0.537  1.5973  0.3643 -0.8078
 1258SOL     vw 5032   1.059   0.978   0.613  0.4658 -0.3141 -0.1399
 1259SOL     ow 5033   1.452   3.060   5.834 -0.8407  0.5046 -0.0051
 1259SOL     hw 5034   1.528   3.071   5.892 -1.8995  3.6060  0.9873
 1259SOL     hw 5035   1.399   3.138   5.848 -3.0175 -0.3528 -2.5278
 1259SOL     vw 5036   1.455   3.071   5.844 -1.2676  0.8007 -0.2072
 1260SOL     ow 5037   1.263   6.251   0.007 -0.3132  0.3317 -0.1073
 1260SOL     hw 5038   1.299   6.218   0.090  1.2156  1.1100 -0.4203
 1260SOL     hw 5039   1.299   6.193  -0.060  0.9735  1.4893 -0.4865
 1260SOL     vw 5040   1.273   6.239   0.009  0.0583  0.5870 -0.1988
 1261SOL     ow 5041   6.911   5.745   6.248  0.4575  0.5668 -0.5210
 1261SOL     hw 5042   6.844   5.696   6.295  2.0801 -0.5337  0.7634
 1261SOL     hw 5043   6.906   5.710   6.158  0.7636 -1.1446  0.0802
 1261SOL     vw 5044   6.902   5.734   6.242  0.7119  0.1957 -0.2720
 1262SOL     ow 5045   4.994   2.850   0.095 -0.3274  0.6277  0.1334
 1262SOL     hw 5046   4.910   2.887   0.119 -0.2688  0.6846  0.2498
 1262SOL     hw 5047   4.981   2.755   0.097 -0.1954  0.6210  0.8433
 1262SOL     vw 5048   4.981   2.842   0.098 -0.3023  0.6343  0.2424
 1263SOL     ow 5049   2.165   0.937   6.431  0.2747  0.1680 -0.2456
 1263SOL     hw 5050   2.215   0.975   6.503 -1.2932  1.7804  0.0503
 1263SOL     hw 5051   2.214   0.858   6.407  1.8401  0.6011  1.3293
 1263SOL     vw 5052   2.178   0.932   6.437  0.2744  0.4379  0.0012
 1264SOL     ow 5053   1.264   3.447   2.173 -0.9803 -0.4188 -0.4905
 1264SOL     hw 5054   1.197   3.400   2.223 -0.9824 -1.7931 -1.7156
 1264SOL     hw 5055   1.215   3.493   2.105 -1.0142  1.7431  0.9132
 1264SOL     vw 5056   1.249   3.447   2.171 -0.9850 -0.3150 -0.4669
 1265SOL     ow 5057   1.013   6.953   6.231  0.2333  0.0181  0.0844
 1265SOL     hw 5058   1.067   7.010   6.284 -0.3644  0.9353 -0.2762
 1265SOL     hw 5059   0.925   6.989   6.238 -0.0952 -0.6576 -0.4221
 1265SOL     vw 5060   1.008   6.965   6.239  0.1111  0.0503 -0.0300
 1266SOL     ow 5061   3.997   5.380   2.246 -0.2574 -0.1621 -0.1874
 1266SOL     hw 5062   3.963   5.453   2.298 -1.1913 -0.0967 -0.8687
 1266SOL     hw 5063   4.074   5.416   2.202  1.2665 -0.5454  1.9950
 1266SOL     vw 5064   4.003   5.394   2.247 -0.1795 -0.2038  0.0106
 1267SOL     ow 5065   2.703   3.596   5.579 -0.1324  0.5705 -0.6216
 1267SOL     hw 5066   2.649   3.558   5.648  0.4632  0.3934 -0.2484
 1267SOL     hw 5067   2.747   3.521   5.539 -1.6028  0.4831 -2.2099
 1267SOL     vw 5068   2.701   3.581   5.583 -0.2478  0.5355 -0.7818
 1268SOL     ow 5069   6.899   2.385   4.864 -0.3741  0.8173 -0.6443
 1268SOL     hw 5070   6.946   2.446   4.807 -0.2949  1.8977  0.5356
 1268SOL     hw 5071   6.836   2.439   4.912 -0.7860 -0.1359 -0.0608
 1268SOL     vw 5072   6.897   2.400   4.863 -0.4179  0.8341 -0.4115
 1269SOL     ow 5073   5.999   4.457   6.746  0.2529 -0.6222 -0.1718
 1269SOL     hw 5074   5.991   4.376   6.797 -1.0332  1.3136  3.0229
 1269SOL     hw 5075   5.909   4.485   6.730  0.5237  1.8830  1.9729
 1269SOL     vw 5076   5.986   4.450   6.751  0.1190 -0.0362  0.5326
 1270SOL     ow 5077   2.714   3.874   2.252 -0.2272  0.2180 -0.3867
 1270SOL     hw 5078   2.695   3.842   2.164  4.6816 -0.4532 -1.4666
 1270SOL     hw 5079   2.809   3.867   2.261 -0.4283  0.0411  5.1003
 1270SOL     vw 5080   2.724   3.869   2.242  0.3939  0.1061  0.1948
 1271SOL     ow 5081   5.287   1.633   3.885  0.5004  0.2614  0.0089
 1271SOL     hw 5082   5.356   1.690   3.917 -0.4575  0.0282  2.7451
 1271SOL     hw 5083   5.275   1.568   3.955 -1.8172 -0.2734 -0.7969
 1271SOL     vw 5084   5.294   1.632   3.898  0.0682  0.1601  0.2636
 1272SOL     ow 5085   5.975   1.434   5.358  0.0051  0.1010  0.0107
 1272SOL     hw 5086   5.962   1.372   5.430  0.4111  0.0689  0.0572
 1272SOL     hw 5087   5.912   1.505   5.376 -2.0504 -1.2889 -1.2142
 1272SOL     vw 5088   5.965   1.435   5.370 -0.2124 -0.0866 -0.1450
 1273SOL     ow 5089   5.270   7.081   3.502  0.4029 -0.1358  0.0547
 1273SOL     hw 5090   5.185   7.107   3.468  0.5803 -0.0647 -0.3377
 1273SOL     hw 5091   5.277   7.125   3.587  0.0420 -0.1632  0.0992
 1273SOL     vw 5092   5.260   7.090   3.509  0.3788 -0.1299  0.0088
 1274SOL     ow 5093   5.658   2.949   0.572 -0.3929 -0.0517  0.7974
 1274SOL     hw 5094   5.589   3.007   0.604 -2.2647 -1.5607 -0.3076
 1274SOL     hw 5095   5.635   2.863   0.607  2.1076 -0.2807  2.0912
 1274SOL     vw 5096   5.646   2.946   0.581 -0.3099 -0.2810  0.8222
 1275SOL     ow 5097   6.952   1.110   4.285  0.0383 -0.5417  0.4679
 1275SOL     hw 5098   7.044   1.111   4.310  0.2833 -0.0041 -0.4199
 1275SOL     hw 5099   6.951   1.079   4.195 -0.6123 -0.1650  0.3332
 1275SOL     vw 5100   6.964   1.106   4.277 -0.0150 -0.4211  0.3328
 1276SOL     ow 5101   6.946   2.999   2.155  0.1373  0.3261 -0.6180
 1276SOL     hw 5102   6.862   3.007   2.111 -1.8217  3.8365  3.1307
 1276SOL     hw 5103   6.949   2.908   2.185 -3.7432  0.6591  1.3726
 1276SOL     vw 5104   6.936   2.988   2.153 -0.6330  0.8330  0.1391
 1277SOL     ow 5105   1.177   0.449   1.522  0.3240  0.7385 -0.5290
 1277SOL     hw 5106   1.263   0.485   1.502  0.3527  2.5005  2.1949
 1277SOL     hw 5107   1.190   0.397   1.601 -0.9386  0.0237 -0.7529
 1277SOL     vw 5108   1.190   0.447   1.530  0.1612  0.8767 -0.1991
 1278SOL     ow 5109   5.726   4.752   5.250 -0.3590 -0.9123 -0.1100
 1278SOL     hw 5110   5.767   4.708   5.176 -1.6889 -2.4372 -0.0001
 1278SOL     hw 5111   5.660   4.690   5.282 -1.8705  0.8794  0.5045
 1278SOL     vw 5112   5.722   4.738   5.245 -0.7339 -0.8774 -0.0145
 1279SOL     ow 5113   1.562   3.771   1.089 -0.6590  0.3838 -0.7867
 1279SOL     hw 5114   1.629   3.839   1.090  0.7466 -0.9227  1.3692
 1279SOL     hw 5115   1.595   3.706   1.027 -0.1929  0.0058 -0.1496
 1279SOL     vw 5116   1.575   3.771   1.081 -0.4120  0.1615 -0.4182
 1280SOL     ow 5117   1.492   1.831   3.021  0.2871 -0.2437  0.2055
 1280SOL     hw 5118   1.413   1.885   3.021 -0.6325 -1.5422  1.0534
 1280SOL     hw 5119   1.557   1.884   2.974 -1.2738  0.5548 -1.1740
 1280SOL     vw 5120   1.490   1.845   3.015 -0.0402 -0.3097  0.1354
 1281SOL     ow 5121   2.167   3.048   5.616 -0.6434 -0.0397  0.6263
 1281SOL     hw 5122   2.075   3.022   5.625 -0.5382 -1.5507 -1.6618
 1281SOL     hw 5123   2.183   3.045   5.522  2.2068 -1.5753  1.0462
 1281SOL     vw 5124   2.157   3.044   5.605 -0.2533 -0.4417  0.3798
 1282SOL     ow 5125   6.355   1.111   3.671  0.3594  0.0169 -0.3044
 1282SOL     hw 5126   6.282   1.157   3.630 -0.2413  0.0725  0.7932
 1282SOL     hw 5127   6.348   1.132   3.764  0.6216 -1.5294  0.0971
 1282SOL     vw 5128   6.345   1.120   3.678  0.3147 -0.1797 -0.1067
 1283SOL     ow 5129   0.963   2.392   7.131  0.9173  0.6117 -0.3570
 1283SOL     hw 5130   0.919   2.382   7.046  1.2478  1.3263 -0.6250
 1283SOL     hw 5131   0.895   2.428   7.188  0.4734 -0.5989 -0.0958
 1283SOL     vw 5132   0.948   2.396   7.127  0.9023  0.5462 -0.3576
 1284SOL     ow 5133   1.645   2.591   2.688 -0.0686 -0.9591 -0.0988
 1284SOL     hw 5134   1.629   2.502   2.718  0.5775 -1.1301 -0.2601
 1284SOL     hw 5135   1.602   2.646   2.753  2.9904 -1.2183  2.3244
 1284SOL     vw 5136   1.637   2.586   2.700  0.4202 -1.0158  0.1996
 1285SOL     ow 5137   0.432   6.581   5.924  0.3631 -0.4395 -0.2386
 1285SOL     hw 5138   0.509   6.537   5.959  1.0587  0.9747  0.0722
 1285SOL     hw 5139   0.442   6.575   5.829  0.6957 -0.5115 -0.1985
 1285SOL     vw 5140   0.443   6.574   5.916  0.4988 -0.2623 -0.1924
 1286SOL     ow 5141   5.631   0.618   4.041  0.3948  0.0385  0.3903
 1286SOL     hw 5142   5.720   0.647   4.060  0.9157 -0.5613 -1.0266
 1286SOL     hw 5143   5.589   0.615   4.127  1.8448 -0.0152  1.1406
 1286SOL     vw 5144   5.637   0.621   4.055  0.6547 -0.0477  0.3021
 1287SOL     ow 5145   3.259   3.290   1.738 -0.0242 -0.3984  0.1024
 1287SOL     hw 5146   3.308   3.307   1.818  1.1537  0.6638 -0.8070
 1287SOL     hw 5147   3.169   3.319   1.758  0.5513  1.1461  0.6088
 1287SOL     vw 5148   3.253   3.296   1.751  0.2071 -0.0546  0.0492
 1288SOL     ow 5149   3.873   1.025   1.806  0.1365  0.5720  0.1853
 1288SOL     hw 5150   3.900   0.952   1.749  1.8859  1.5385 -0.2774
 1288SOL     hw 5151   3.878   0.989   1.894  1.7637  0.3123  0.0240
 1288SOL     vw 5152   3.877   1.010   1.810  0.5821  0.6653  0.1029
 1289SOL     ow 5153   1.246   6.696   1.283 -0.2316  0.0838  0.0818
 1289SOL     hw 5154   1.232   6.790   1.295  1.0046  0.0966  1.9060
 1289SOL     hw 5155   1.341   6.687   1.275 -0.3869 -0.9597 -0.8173
 1289SOL     vw 5156   1.257   6.707   1.284 -0.0889 -0.0522  0.2038
 1290SOL     ow 5157   6.779   3.179   5.754 -0.2981 -0.0403 -0.4414
 1290SOL     hw 5158   6.782   3.189   5.659 -1.8630  0.2823 -0.4875
 1290SOL     hw 5159   6.689   3.152   5.772 -0.3431  0.9945  1.0423
 1290SOL     vw 5160   6.767   3.177   5.744 -0.5102  0.1388 -0.2520
 1291SOL     ow 5161   5.302   4.865   4.156 -0.2354  0.5766 -0.1440
 1291SOL     hw 5162   5.248   4.795   4.121  1.4498 -0.2704 -1.1814
 1291SOL     hw 5163   5.351   4.824   4.227 -0.8082  1.3031  0.7080
 1291SOL     vw 5164   5.301   4.851   4.161 -0.0889  0.5608 -0.1683
 1292SOL     ow 5165   3.233   4.716   3.318  0.1519 -0.4337  0.1336
 1292SOL     hw 5166   3.176   4.670   3.380 -0.7949 -2.1058 -1.8415
 1292SOL     hw 5167   3.184   4.794   3.293  0.2531 -0.0989  0.9329
 1292SOL     vw 5168   3.219   4.720   3.323  0.0403 -0.6101 -0.0216
 1293SOL     ow 5169   4.998   3.061   4.880 -0.1676 -0.0093 -0.2399
 1293SOL     hw 5170   5.032   3.113   4.953 -2.9374  2.7087 -0.6480
 1293SOL     hw 5171   4.927   3.115   4.844  0.1281 -1.8758 -4.0755
 1293SOL     vw 5172   4.993   3.075   4.885 -0.4938  0.1031 -0.8001
 1294SOL     ow 5173   6.731   3.364   5.280 -0.7032 -0.1031  0.0663
 1294SOL     hw 5174   6.782   3.326   5.351 -0.4913  0.3808  0.1784
 1294SOL     hw 5175   6.670   3.423   5.323 -0.5547  0.2141 -0.1501
 1294SOL     vw 5176   6.730   3.367   5.295 -0.6554  0.0026  0.0527
 1295SOL     ow 5177   1.352   5.935   2.760  0.0070  0.2635  0.0970
 1295SOL     hw 5178   1.282   5.996   2.784 -1.4856 -1.3137 -0.0968
 1295SOL     hw 5179   1.341   5.862   2.820  0.0944 -0.9984 -1.3858
 1295SOL     vw 5180   1.341   5.934   2.771 -0.1783 -0.1111 -0.1242
 1296SOL     ow 5181   6.730   0.440   5.754 -0.2105 -0.7701 -0.2509
 1296SOL     hw 5182   6.710   0.359   5.801  0.2794 -1.1350 -0.6550
 1296SOL     hw 5183   6.755   0.502   5.822  0.1980 -1.2023  0.0002
 1296SOL     vw 5184   6.731   0.437   5.769 -0.0920 -0.8753 -0.2708
 1297SOL     ow 5185   6.159   6.699   4.105 -0.5838 -0.1200 -0.2229
 1297SOL     hw 5186   6.135   6.607   4.100  0.9630 -0.5373 -0.7912
 1297SOL     hw 5187   6.141   6.734   4.018 -2.7076  0.5831  0.4302
 1297SOL     vw 5188   6.154   6.692   4.093 -0.6597 -0.0823 -0.2120
 1298SOL     ow 5189   6.600   0.828   6.787 -0.1719  0.2007  0.3920
 1298SOL     hw 5190   6.625   0.912   6.826  3.5768 -0.9105  0.7491
 1298SOL     hw 5191   6.654   0.822   6.708 -0.9141 -1.6055 -0.0243
 1298SOL     vw 5192   6.610   0.839   6.782  0.2246 -0.1842  0.3839
 1299SOL     ow 5193   4.099   2.672   2.381 -0.5896 -0.7282 -0.4966
 1299SOL     hw 5194   4.024   2.656   2.438 -0.5913 -1.2823 -0.6565
 1299SOL     hw 5195   4.065   2.663   2.292 -0.2266 -1.4826 -0.5668
 1299SOL     vw 5196   4.085   2.669   2.377 -0.5419 -0.9009 -0.5271
 1300SOL     ow 5197   1.588   4.376   1.994  0.3034 -0.7423 -0.4042
 1300SOL     hw 5198   1.561   4.460   2.032  0.3671 -0.2773 -1.3370
 1300SOL     hw 5199   1.622   4.326   2.067  3.4111  1.2869 -0.2623
 1300SOL     vw 5200   1.589   4.381   2.009  0.7218 -0.4132 -0.5085
 1301SOL     ow 5201   2.631   0.059   1.530  0.5970  0.2318  0.4218
 1301SOL     hw 5202   2.694   0.112   1.482  0.0593  1.1854  0.7437
 1301SOL     hw 5203   2.559   0.119   1.550 -1.4373 -1.2855 -1.7511
 1301SOL     vw 5204   2.630   0.074   1.526  0.2577  0.1575  0.1776
 1302SOL     ow 5205   1.440   1.532   0.383  0.2893 -0.2295  0.5105
 1302SOL     hw 5206   1.465   1.522   0.291 -0.7519 -3.1907  0.4447
 1302SOL     hw 5207   1.354   1.492   0.389  0.3804 -0.2204  2.8119
 1302SOL     vw 5208   1.432   1.525   0.372  0.1640 -0.6189  0.8055
 1303SOL     ow 5209   4.641   2.724   3.489  0.2750 -0.5179  0.6779
 1303SOL     hw 5210   4.564   2.739   3.545 -0.2414 -0.2535 -0.0837
 1303SOL     hw 5211   4.645   2.629   3.480  0.7020 -0.5909  1.6296
 1303SOL     vw 5212   4.631   2.713   3.495  0.2632 -0.4927  0.7030
 1304SOL     ow 5213   5.623   0.300   4.001  0.3892  0.3540  0.7133
 1304SOL     hw 5214   5.569   0.374   3.972 -0.7496 -1.2106 -1.4045
 1304SOL     hw 5215   5.700   0.303   3.945  0.8238  0.4565  1.2966
 1304SOL     vw 5216   5.626   0.310   3.990  0.2964  0.1611  0.5108
 1305SOL     ow 5217   1.541   5.274   4.496  0.6921 -0.6859 -0.6768
 1305SOL     hw 5218   1.621   5.224   4.509  0.5398 -0.5823  0.8888
 1305SOL     hw 5219   1.500   5.235   4.420 -0.0237 -3.8027  1.1267
 1305SOL     vw 5220   1.546   5.262   4.488  0.5776 -1.0836 -0.2320
 1306SOL     ow 5221   0.345   0.368   1.174  0.5912  0.6829 -0.1365
 1306SOL     hw 5222   0.346   0.388   1.268  2.0434  1.0473 -0.2135
 1306SOL     hw 5223   0.366   0.275   1.169  0.3350  0.6208 -0.1054
 1306SOL     vw 5224   0.348   0.358   1.186  0.7490  0.7228 -0.1425
 1307SOL     ow 5225   6.715   6.408   1.874  0.0795 -0.3554  0.0633
 1307SOL     hw 5226   6.637   6.355   1.861  0.0052 -0.5382  1.1954
 1307SOL     hw 5227   6.787   6.346   1.870  0.1308 -0.2718 -0.3837
 1307SOL     vw 5228   6.714   6.393   1.871  0.0765 -0.3686  0.1537
 1308SOL     ow 5229   5.155   1.383   3.823 -0.3894  0.0364  0.0572
 1308SOL     hw 5230   5.183   1.473   3.836  0.8575 -0.2540 -0.4566
 1308SOL     hw 5231   5.069   1.390   3.781 -0.3455  0.9788  0.1059
 1308SOL     vw 5232   5.147   1.396   3.819 -0.2191  0.1224 -0.0042
 1309SOL     ow 5233   4.106   1.705   3.060  0.1749 -0.0776  0.2099
 1309SOL     hw 5234   4.173   1.720   2.993  0.0115 -1.3439 -0.2666
 1309SOL     hw 5235   4.025   1.735   3.020  0.0070 -1.2270 -0.3559
 1309SOL     vw 5236   4.104   1.711   3.046  0.1311 -0.3963  0.0722
 1310SOL     ow 5237   1.874   1.081   6.458  0.1448 -0.2029 -0.4282
 1310SOL     hw 5238   1.827   1.148   6.408 -1.2620 -1.3320 -0.6709
 1310SOL     hw 5239   1.830   1.078   6.542  1.1642  0.1991  0.1386
 1310SOL     vw 5240   1.862   1.090   6.462  0.0937 -0.2989 -0.3853
 1311SOL     ow 5241   5.003   0.352   6.886  0.0525  0.3844 -0.0861
 1311SOL     hw 5242   4.974   0.270   6.845  1.3433 -0.6293  0.9323
 1311SOL     hw 5243   5.082   0.376   6.837  0.6627  0.0569  0.7165
 1311SOL     vw 5244   5.010   0.344   6.874  0.3035  0.2075  0.1545
 1312SOL     ow 5245   3.128   6.657   4.232  0.2756 -0.2458 -0.3606
 1312SOL     hw 5246   3.176   6.711   4.294  1.2538 -2.9614  1.4669
 1312SOL     hw 5247   3.038   6.658   4.263  1.1634 -3.9721  3.4101
 1312SOL     vw 5248   3.123   6.664   4.244  0.5218 -1.0958  0.3784
 1313SOL     ow 5249   0.167   0.041   1.443  0.6832  0.2204  0.3039
 1313SOL     hw 5250   0.261   0.031   1.428  0.5858  0.9010 -0.9463
 1313SOL     hw 5251   0.160   0.114   1.505  0.9549  0.9560 -0.5120
 1313SOL     vw 5252   0.179   0.050   1.449  0.7062  0.4072  0.0313
 1314SOL     ow 5253   4.506   3.635   2.317  0.4267  0.2372 -0.3827
 1314SOL     hw 5254   4.425   3.625   2.268  0.2119 -0.9516  0.1952
 1314SOL     hw 5255   4.498   3.721   2.359 -1.0957 -0.3744  0.6592
 1314SOL     vw 5256   4.494   3.645   2.316  0.1974 -0.0004 -0.1690
 1315SOL     ow 5257   1.244   4.656   4.688  0.6782  0.1652  0.6863
 1315SOL     hw 5258   1.216   4.566   4.672  0.8201  0.5834 -2.5159
 1315SOL     hw 5259   1.294   4.652   4.769  0.2742 -2.5265  0.8775
 1315SOL     vw 5260   1.247   4.644   4.697  0.6436 -0.1349  0.2887
 1316SOL     ow 5261   4.703   5.448   0.974 -0.2998  0.0907  0.6375
 1316SOL     hw 5262   4.762   5.473   1.044  0.4594  1.2694 -0.3807
 1316SOL     hw 5263   4.673   5.360   0.998 -0.4082  0.6218  2.6310
 1316SOL     vw 5264   4.707   5.439   0.986 -0.2139  0.3164  0.7661
 1317SOL     ow 5265   6.889   1.592   1.483  0.4471 -0.0336 -0.1199
 1317SOL     hw 5266   6.891   1.528   1.555 -0.0605 -0.6919 -0.6826
 1317SOL     hw 5267   6.901   1.541   1.404 -1.2986  0.3688 -0.6955
 1317SOL     vw 5268   6.891   1.577   1.482  0.1497 -0.0674 -0.2701
 1318SOL     ow 5269   5.724   0.762   3.735  0.4496  0.4867  0.4807
 1318SOL     hw 5270   5.703   0.854   3.725 -1.0977  0.1160  0.1145
 1318SOL     hw 5271   5.778   0.758   3.814 -1.5819  1.4248  1.9930
 1318SOL     vw 5272   5.729   0.773   3.744 -0.0226  0.5615  0.6319
 1319SOL     ow 5273   1.458   0.850   0.467  1.0008 -0.1493 -0.3937
 1319SOL     hw 5274   1.527   0.859   0.401  0.5481 -1.1078 -1.0363
 1319SOL     hw 5275   1.475   0.920   0.530  2.2483 -0.0535 -0.8081
 1319SOL     vw 5276   1.470   0.860   0.466  1.1056 -0.2631 -0.5332
 1320SOL     ow 5277   3.156   6.162   2.174  0.0251  0.5715  0.3249
 1320SOL     hw 5278   3.062   6.180   2.186  0.1381  1.6807 -0.3603
 1320SOL     hw 5279   3.193   6.175   2.262 -0.1481  2.2818  0.1884
 1320SOL     vw 5280   3.148   6.166   2.187  0.0172  0.9437  0.2165
 1321SOL     ow 5281   0.720   3.866   2.681 -0.3792 -0.1216  0.3371
 1321SOL     hw 5282   0.776   3.861   2.603  2.7101 -1.3565  2.4545
 1321SOL     hw 5283   0.641   3.818   2.656  0.2693 -0.0461 -2.1628
 1321SOL     vw 5284   0.717   3.859   2.667  0.1140 -0.2745  0.2867
 1322SOL     ow 5285   4.131   3.090   6.994 -0.2928  0.1132  0.3896
 1322SOL     hw 5286   4.135   3.176   7.035  0.0246 -0.1818  0.9918
 1322SOL     hw 5287   4.038   3.072   6.985 -0.3661  0.1184  1.1190
 1322SOL     vw 5288   4.120   3.099   6.998 -0.2606  0.0750  0.5653
 1323SOL     ow 5289   5.226   5.174   6.003 -0.3382 -0.1502 -0.2561
 1323SOL     hw 5290   5.232   5.140   5.913  0.7517 -1.7610  0.3805
 1323SOL     hw 5291   5.149   5.132   6.040 -0.2703 -0.1852 -0.1544
 1323SOL     vw 5292   5.217   5.164   5.996 -0.1853 -0.3674 -0.1585
 1324SOL     ow 5293   3.325   3.724   4.129  0.4643 -0.4364  0.3046
 1324SOL     hw 5294   3.406   3.713   4.178  0.2697  0.0829  0.7543
 1324SOL     hw 5295   3.308   3.638   4.092 -1.2681 -1.9365  4.0882
 1324SOL     vw 5296   3.333   3.711   4.130  0.2100 -0.5656  0.8631
 1325SOL     ow 5297   0.028   3.149   6.975 -0.1437 -0.5193  0.2139
 1325SOL     hw 5298   0.035   3.205   7.052 -2.2646  3.4934 -2.1513
 1325SOL     hw 5299   0.118   3.121   6.957  1.5280  3.7060  0.7334
 1325SOL     vw 5300   0.041   3.153   6.983 -0.2029  0.5677 -0.0298
 1326SOL     ow 5301   3.950   1.074   4.839 -0.4413 -0.1331  0.1576
 1326SOL     hw 5302   3.865   1.031   4.854 -0.2391 -0.0652  1.5932
 1326SOL     hw 5303   4.014   1.005   4.855 -0.1472  0.4361  1.5328
 1326SOL     vw 5304   3.947   1.059   4.843 -0.3760 -0.0490  0.5286
 1327SOL     ow 5305   4.232   6.261   5.397 -0.5906  0.3276 -0.0057
 1327SOL     hw 5306   4.305   6.205   5.422 -0.8999  0.0524  0.3090
 1327SOL     hw 5307   4.169   6.251   5.469  0.0149  2.3374  0.8711
 1327SOL     vw 5308   4.233   6.252   5.410 -0.5515  0.5565  0.1514
 1328SOL     ow 5309   6.894   3.197   3.421 -0.8227 -0.3776 -0.3900
 1328SOL     hw 5310   6.875   3.172   3.331 -0.3998 -2.9914  0.1611
 1328SOL     hw 5311   6.876   3.118   3.473  1.4665  0.1733  1.4583
 1328SOL     vw 5312   6.889   3.183   3.416 -0.4647 -0.6498 -0.0734
 1329SOL     ow 5313   5.596   6.010   1.487 -0.2516  0.0737 -0.0763
 1329SOL     hw 5314   5.520   5.975   1.534  0.7420 -1.3979  0.5226
 1329SOL     hw 5315   5.670   5.958   1.519  1.1401  1.9485 -0.1060
 1329SOL     vw 5316   5.596   5.998   1.497  0.0632  0.1271 -0.0011
 1330SOL     ow 5317   4.205   6.903   1.537  0.8221 -0.4435  0.5495
 1330SOL     hw 5318   4.267   6.945   1.478  0.9748 -1.0056  0.3022
 1330SOL     hw 5319   4.251   6.826   1.569 -0.1792 -1.5801 -0.6176
 1330SOL     vw 5320   4.219   6.898   1.534  0.7102 -0.6678  0.3629
 1331SOL     ow 5321   2.308   6.737   1.374 -0.5484  0.3183 -0.3949
 1331SOL     hw 5322   2.335   6.665   1.317  0.9580  1.4763 -1.2224
 1331SOL     hw 5323   2.219   6.757   1.347 -1.2186 -1.5534  0.2294
 1331SOL     vw 5324   2.300   6.730   1.363 -0.4382  0.2241 -0.4217
 1332SOL     ow 5325   2.670   3.840   5.775 -0.0974  0.4848  0.8298
 1332SOL     hw 5326   2.644   3.931   5.762 -1.4897 -0.1007 -0.9481
 1332SOL     hw 5327   2.596   3.801   5.822  0.9575  0.4661  2.5721
 1332SOL     vw 5328   2.657   3.846   5.780 -0.1417  0.4051  0.8252
 1333SOL     ow 5329   4.942   5.814   4.300  0.4060 -0.4731  0.2262
 1333SOL     hw 5330   4.952   5.880   4.231 -1.1545 -1.1625 -0.7213
 1333SOL     hw 5331   5.004   5.745   4.277 -1.3610 -1.5595 -1.6383
 1333SOL     vw 5332   4.951   5.814   4.288 -0.0331 -0.7071 -0.1450
 1334SOL     ow 5333   1.791   0.682   2.470  0.1916  0.6578 -0.1052
 1334SOL     hw 5334   1.784   0.686   2.565  1.0771  1.4018 -0.0475
 1334SOL     hw 5335   1.883   0.702   2.452  0.2587 -0.3922 -1.0761
 1334SOL     vw 5336   1.802   0.685   2.480  0.3173  0.6174 -0.2257
 1335SOL     ow 5337   4.169   1.449   5.442 -0.0963 -0.4259 -0.3899
 1335SOL     hw 5338   4.210   1.531   5.415 -0.2895 -0.0527  0.4127
 1335SOL     hw 5339   4.225   1.416   5.512 -1.2855  0.2603  0.9560
 1335SOL     vw 5340   4.182   1.456   5.447 -0.2787 -0.2862 -0.1068
 1336SOL     ow 5341   6.572   3.848   3.696  0.7152  0.3126  0.2443
 1336SOL     hw 5342   6.593   3.754   3.699  1.6078  0.5132  0.6535
 1336SOL     hw 5343   6.477   3.851   3.699  0.6840 -0.5154  2.6658
 1336SOL     vw 5344   6.563   3.836   3.697  0.8290  0.2297  0.6176
 1337SOL     ow 5345   5.446   2.354   1.068  0.0327  1.1657  0.2357
 1337SOL     hw 5346   5.403   2.269   1.076  2.9422 -0.3497  0.8240
 1337SOL     hw 5347   5.487   2.352   0.982 -1.0030  2.6086 -0.3345
 1337SOL     vw 5348   5.445   2.343   1.058  0.2799  1.1562  0.2381
 1338SOL     ow 5349   6.038   4.083   4.475 -0.5814 -0.1426  0.4006
 1338SOL     hw 5350   6.046   4.084   4.379  1.7163  0.5606  0.5612
 1338SOL     hw 5351   5.956   4.129   4.492 -0.4990  0.6716 -1.1969
 1338SOL     vw 5352   6.028   4.089   4.464 -0.2673  0.0577  0.2110
 1339SOL     ow 5353   2.231   2.310   4.524 -0.8464  0.4852  0.3073
 1339SOL     hw 5354   2.298   2.372   4.496  0.8365  0.5144  3.7606
 1339SOL     hw 5355   2.267   2.224   4.501 -0.5184  0.5915  0.4139
 1339SOL     vw 5356   2.245   2.307   4.517 -0.5810  0.5029  0.7770
 1340SOL     ow 5357   6.690   1.485   2.942 -0.3732 -0.3278 -0.3097
 1340SOL     hw 5358   6.775   1.505   2.981 -0.3935  3.0338 -1.6012
 1340SOL     hw 5359   6.634   1.558   2.969 -2.4160 -1.6365 -0.7943
 1340SOL     vw 5360   6.694   1.497   2.950 -0.6456 -0.0569 -0.5440
 1341SOL     ow 5361   0.188   1.016   1.884  0.0745 -0.2883 -0.4684
 1341SOL     hw 5362   0.178   0.931   1.926  2.5077 -0.3037  0.2600
 1341SOL     hw 5363   0.100   1.053   1.881 -0.7513 -2.0219  0.9187
 1341SOL     vw 5364   0.175   1.009   1.889  0.2866 -0.5190 -0.1894
 1342SOL     ow 5365   3.172   2.700   0.177  0.3373  0.7072 -0.0730
 1342SOL     hw 5366   3.181   2.782   0.129 -0.0793  0.7883 -0.0120
 1342SOL     hw 5367   3.230   2.639   0.131  0.3168  0.9204 -0.3815
 1342SOL     vw 5368   3.181   2.703   0.164  0.2798  0.7460 -0.1057
 1343SOL     ow 5369   4.589   0.388   5.337  0.5436  0.4376  0.1468
 1343SOL     hw 5370   4.589   0.325   5.409  1.6038  0.0918 -0.1372
 1343SOL     hw 5371   4.653   0.353   5.275 -2.2545 -0.8053 -2.3120
 1343SOL     vw 5372   4.597   0.375   5.338  0.3142  0.2280 -0.2153
 1344SOL     ow 5373   4.266   2.721   1.732  0.0233 -0.1234 -0.2100
 1344SOL     hw 5374   4.232   2.806   1.761 -0.8768 -0.5981  0.1653
 1344SOL     hw 5375   4.316   2.689   1.807 -0.5142 -0.3869  0.0428
 1344SOL     vw 5376   4.268   2.728   1.746 -0.1662 -0.2207 -0.1271
 1345SOL     ow 5377   3.442   1.400   0.284  0.4784 -0.3689 -0.7951
 1345SOL     hw 5378   3.496   1.469   0.246 -0.9648  0.7464 -0.9337
 1345SOL     hw 5379   3.391   1.444   0.352  2.1791 -2.0700  1.7658
 1345SOL     vw 5380   3.442   1.415   0.288  0.5124 -0.4461 -0.4755
 1346SOL     ow 5381   2.668   4.297   4.641 -0.3686 -0.4033  0.5741
 1346SOL     hw 5382   2.695   4.387   4.662 -1.2626 -0.2194  0.9892
 1346SOL     hw 5383   2.700   4.283   4.552  1.3568 -0.3179  1.1481
 1346SOL     vw 5384   2.676   4.307   4.632 -0.2590 -0.3676  0.7048
 1347SOL     ow 5385   3.515   4.796   3.372  0.2061 -0.1508 -0.1266
 1347SOL     hw 5386   3.587   4.806   3.434 -1.3150 -0.8260  1.8616
 1347SOL     hw 5387   3.452   4.863   3.398 -0.6467 -0.7118 -0.6955
 1347SOL     vw 5388   3.516   4.807   3.383 -0.1072 -0.3140  0.0608
 1348SOL     ow 5389   6.781   6.741   0.994  0.0280 -0.3530  0.4707
 1348SOL     hw 5390   6.793   6.821   0.944 -3.6357  0.4345  0.5444
 1348SOL     hw 5391   6.808   6.763   1.083  0.6268  0.2492  0.1413
 1348SOL     vw 5392   6.786   6.754   0.999 -0.3762 -0.1698  0.4369
 1349SOL     ow 5393   1.118   4.319   1.669  0.4174 -0.1853  0.4588
 1349SOL     hw 5394   1.126   4.360   1.583  0.3230  0.8094  0.9116
 1349SOL     hw 5395   1.025   4.329   1.691  0.6242  0.4180  1.0841
 1349SOL     vw 5396   1.107   4.326   1.661  0.4323  0.0257  0.6011
 1350SOL     ow 5397   3.891   0.178   3.008 -0.4530 -0.1195  0.6890
 1350SOL     hw 5398   3.913   0.219   2.925 -1.1123 -1.6543 -0.2973
 1350SOL     hw 5399   3.796   0.168   3.005 -0.3635 -1.2333  1.0912
 1350SOL     vw 5400   3.882   0.182   2.997 -0.5282 -0.4689  0.6120
 1351SOL     ow 5401   2.351   5.681   3.418  0.3839 -0.3851  0.2057
 1351SOL     hw 5402   2.257   5.666   3.427  0.2182  0.1690 -0.5293
 1351SOL     hw 5403   2.382   5.609   3.363 -0.1305  0.9577 -1.9636
 1351SOL     vw 5404   2.343   5.670   3.412  0.2942 -0.1349 -0.1775
 1352SOL     ow 5405   0.389   4.127   1.241  0.0253  0.3982 -0.3317
 1352SOL     hw 5406   0.423   4.050   1.287  3.2608  0.6170 -2.0578
 1352SOL     hw 5407   0.399   4.105   1.148  1.2755  2.9027 -0.8646
 1352SOL     vw 5408   0.395   4.114   1.235  0.6172  0.7575 -0.6297
 1353SOL     ow 5409   6.044   2.580   6.314  0.0666  0.0777  0.5911
 1353SOL     hw 5410   6.087   2.513   6.262  0.8463  0.1021  1.1859
 1353SOL     hw 5411   6.095   2.660   6.297  0.2252  0.1218  1.2556
 1353SOL     vw 5412   6.057   2.582   6.305  0.1905  0.0868  0.7572
 1354SOL     ow 5413   0.477   0.853   4.578 -0.0483 -0.6475  0.0565
 1354SOL     hw 5414   0.487   0.762   4.607  0.0530 -1.3546 -2.0545
 1354SOL     hw 5415   0.382   0.864   4.570 -0.0576 -0.5830  0.2510
 1354SOL     vw 5416   0.466   0.842   4.581 -0.0362 -0.7322 -0.1965
 1355SOL     ow 5417   6.680   3.577   2.606  0.0833  0.1807  0.8755
 1355SOL     hw 5418   6.648   3.535   2.686 -1.8809 -2.2567 -1.0370
 1355SOL     hw 5419   6.716   3.505   2.554 -2.3371  0.9089 -2.0629
 1355SOL     vw 5420   6.681   3.562   2.610 -0.4950 -0.0447  0.2356
 1356SOL     ow 5421   0.451   1.025   0.429  0.8756  0.3991  0.2604
 1356SOL     hw 5422   0.476   0.944   0.383  1.7076  2.0399 -2.3946
 1356SOL     hw 5423   0.523   1.085   0.414 -1.3008  2.8763 -1.2164
 1356SOL     vw 5424   0.464   1.022   0.421  0.6983  0.9425 -0.2847
 1357SOL     ow 5425   6.778   0.230   2.394  0.0683  0.4443 -0.3260
 1357SOL     hw 5426   6.735   0.262   2.473  0.6794  0.8855 -0.1640
 1357SOL     hw 5427   6.863   0.198   2.424  0.4123  0.8553 -0.8350
 1357SOL     vw 5428   6.783   0.230   2.408  0.1941  0.5567 -0.3718
 1358SOL     ow 5429   1.339   3.640   0.944 -0.1000 -0.3924  0.2048
 1358SOL     hw 5430   1.346   3.588   0.865 -0.1396 -4.7556  2.7827
 1358SOL     hw 5431   1.428   3.645   0.978 -0.4982 -1.2750  1.4177
 1358SOL     vw 5432   1.351   3.634   0.938 -0.1578 -1.0846  0.7050
 1359SOL     ow 5433   3.671   4.821   4.363 -0.0508 -0.1922 -0.3060
 1359SOL     hw 5434   3.725   4.743   4.371 -0.6616 -0.6406 -0.5523
 1359SOL     hw 5435   3.585   4.794   4.395 -0.1233  0.5295  0.1284
 1359SOL     vw 5436   3.667   4.807   4.369 -0.1409 -0.1559 -0.2811
 1360SOL     ow 5437   3.424   5.937   4.305  0.2189  0.2356 -0.5580
 1360SOL     hw 5438   3.363   5.997   4.349 -0.2730 -1.2599  0.9435
 1360SOL     hw 5439   3.411   5.953   4.212 -1.7864  0.6567 -0.2514
 1360SOL     vw 5440   3.414   5.947   4.299 -0.1105  0.0939 -0.3192
 1361SOL     ow 5441   1.723   0.127   6.855 -0.9054  0.2096 -0.1337
 1361SOL     hw 5442   1.656   0.194   6.871 -0.3644  0.5438  0.8559
 1361SOL     hw 5443   1.695   0.052   6.907  0.8343  1.2792  2.5692
 1361SOL     vw 5444   1.711   0.126   6.864 -0.6045  0.3948  0.3536
 1362SOL     ow 5445   3.303   3.479   0.253 -0.0522 -0.1666  0.5882
 1362SOL     hw 5446   3.241   3.550   0.269  0.3385 -0.0671  1.7494
 1362SOL     hw 5447   3.371   3.518   0.198  0.2096  0.3940  1.2994
 1362SOL     vw 5448   3.304   3.493   0.248  0.0339 -0.0796  0.8352
 1363SOL     ow 5449   6.924   3.648   3.303 -0.2371 -0.7463 -0.5463
 1363SOL     hw 5450   6.877   3.630   3.385  0.1900 -1.9256 -0.5431
 1363SOL     hw 5451   7.016   3.639   3.326 -0.1356 -1.7906 -1.3001
 1363SOL     vw 5452   6.930   3.644   3.317 -0.1674 -1.0395 -0.6453
 1364SOL     ow 5453   0.484   0.757   0.313  0.6430 -0.6580  0.0662
 1364SOL     hw 5454   0.553   0.731   0.252 -0.1087  1.5577 -1.8752
 1364SOL     hw 5455   0.403   0.729   0.271  0.0599  1.5707 -0.4603
 1364SOL     vw 5456   0.483   0.750   0.300  0.4669 -0.0716 -0.2594
 1365SOL     ow 5457   5.084   0.862   5.068 -0.2840  0.5523 -0.7278
 1365SOL     hw 5458   5.027   0.865   4.991 -0.7715  0.6604 -0.3656
 1365SOL     hw 5459   5.025   0.874   5.142  0.2327  0.8304 -0.3554
 1365SOL     vw 5460   5.069   0.864   5.067 -0.2801  0.6032 -0.6311
 1366SOL     ow 5461   2.961   0.402   1.469  0.6216 -0.2259  0.1865
 1366SOL     hw 5462   2.914   0.462   1.528  0.9449  0.6431 -0.4164
 1366SOL     hw 5463   2.891   0.349   1.429  0.1565  0.8325 -0.4554
 1366SOL     vw 5464   2.945   0.403   1.471  0.6028  0.0284  0.0223
 1367SOL     ow 5465   1.499   0.793   5.223 -0.4749  0.0652 -0.1926
 1367SOL     hw 5466   1.582   0.749   5.239  0.2760  0.7180 -2.0977
 1367SOL     hw 5467   1.480   0.837   5.306  0.8672 -0.3893  0.3938
 1367SOL     vw 5468   1.507   0.793   5.236 -0.1987  0.0914 -0.3664
 1368SOL     ow 5469   4.681   6.633   6.663  0.7863  0.5261  0.7456
 1368SOL     hw 5470   4.605   6.576   6.679  0.8409  0.6172  1.3364
 1368SOL     hw 5471   4.721   6.596   6.584  0.7319 -0.1657  1.0320
 1368SOL     vw 5472   4.676   6.620   6.655  0.7863  0.4468  0.8616
 1369SOL     ow 5473   5.612   5.201   0.062 -0.0038 -1.0123 -0.5383
 1369SOL     hw 5474   5.587   5.123   0.113  0.6854 -1.3546 -0.7077
 1369SOL     hw 5475   5.552   5.201  -0.012 -1.2122 -0.3449  0.4085
 1369SOL     vw 5476   5.601   5.190   0.059 -0.0722 -0.9696 -0.4357
 1370SOL     ow 5477   1.356   0.558   5.094 -0.5690  0.2811  0.4247
 1370SOL     hw 5478   1.350   0.543   5.000  0.5225  1.0256  0.2250
 1370SOL     hw 5479   1.445   0.532   5.117 -0.8009  0.1702  1.2481
 1370SOL     vw 5480   1.367   0.552   5.085 -0.4556  0.3647  0.5066
 1371SOL     ow 5481   2.081   3.520   1.405 -0.0655 -0.3054 -0.1559
 1371SOL     hw 5482   2.021   3.571   1.459 -0.6608  2.0634 -2.7674
 1371SOL     hw 5483   2.062   3.429   1.426 -0.5691  0.4290  3.1365
 1371SOL     vw 5484   2.071   3.515   1.415 -0.2105  0.1040 -0.0661
 1372SOL     ow 5485   2.329   0.228   6.639 -1.0836  0.3906 -0.3410
 1372SOL     hw 5486   2.295   0.292   6.577 -0.3961  0.8996 -0.1982
 1372SOL     hw 5487   2.312   0.266   6.725 -2.7683 -0.6689 -0.1390
 1372SOL     vw 5488   2.322   0.241   6.642 -1.2151  0.3180 -0.2954
 1373SOL     ow 5489   3.705   6.334   6.677  0.0052  0.4611  0.0847
 1373SOL     hw 5490   3.683   6.255   6.727 -0.6023 -0.3928 -1.4715
 1373SOL     hw 5491   3.775   6.375   6.727  0.3801 -1.1036  0.9066
 1373SOL     vw 5492   3.711   6.329   6.690 -0.0255  0.1419 -0.0122
 1374SOL     ow 5493   2.582   6.196   0.674 -0.0381 -0.3460 -0.1410
 1374SOL     hw 5494   2.600   6.103   0.668 -2.1043 -0.8013  0.0523
 1374SOL     hw 5495   2.601   6.230   0.586  1.5420 -0.7511  0.0175
 1374SOL     vw 5496   2.587   6.188   0.662 -0.1022 -0.4592 -0.0946
 1375SOL     ow 5497   5.953   6.787   5.209 -0.2740 -0.0385  0.1784
 1375SOL     hw 5498   5.898   6.762   5.134  0.8494 -0.1891 -0.6283
 1375SOL     hw 5499   5.929   6.878   5.227 -1.4410 -0.3845  0.4485
 1375SOL     vw 5500   5.943   6.795   5.201 -0.2799 -0.1040  0.1075
 1376SOL     ow 5501   2.576   5.615   6.578 -0.1184  0.0300 -0.1552
 1376SOL     hw 5502   2.509   5.638   6.513 -0.9885  0.9918  1.0347
 1376SOL     hw 5503   2.527   5.577   6.651  0.1392  3.5708  2.0914
 1376SOL     vw 5504   2.561   5.613   6.579 -0.1992  0.6239  0.2983
 1377SOL     ow 5505   6.770   0.273   5.991 -0.5221  0.4307 -0.2715
 1377SOL     hw 5506   6.844   0.334   5.995 -0.2467  0.0903 -0.0984
 1377SOL     hw 5507   6.697   0.321   6.031 -0.5418  0.9694 -0.9470
 1377SOL     vw 5508   6.770   0.287   5.997 -0.4883  0.4568 -0.3378
 1378SOL     ow 5509   1.545   2.858   3.786 -0.1294 -0.8973  0.3369
 1378SOL     hw 5510   1.561   2.829   3.696  2.3295  0.0789  0.3586
 1378SOL     hw 5511   1.611   2.812   3.838 -0.2349  0.0057  1.3109
 1378SOL     vw 5512   1.556   2.848   3.781  0.1811 -0.6495  0.4684
 1379SOL     ow 5513   4.643   3.910   2.904  0.0638  0.0930 -0.0527
 1379SOL     hw 5514   4.633   3.966   2.827  0.7401  1.5819  0.9129
 1379SOL     hw 5515   4.660   3.823   2.867  2.5598  1.1320 -1.6537
 1379SOL     vw 5516   4.644   3.906   2.889  0.4823  0.4265 -0.1365
 1380SOL     ow 5517   2.576   3.607   1.102  0.1458  0.6311 -0.6625
 1380SOL     hw 5518   2.637   3.535   1.095  1.3088  1.4463  0.5399
 1380SOL     hw 5519   2.512   3.592   1.032  0.1826 -1.6731 -0.2819
 1380SOL     vw 5520   2.575   3.596   1.092  0.3042  0.4346 -0.4536
 1381SOL     ow 5521   2.763   5.694   5.054 -0.2138 -0.5222  1.2348
 1381SOL     hw 5522   2.777   5.639   4.978 -1.6919 -2.4542  2.2798
 1381SOL     hw 5523   2.825   5.661   5.120 -0.0017  0.1324  1.3741
 1381SOL     vw 5524   2.773   5.683   5.053 -0.3808 -0.6909  1.3909
 1382SOL     ow 5525   3.965   0.378   5.681 -0.7333  0.1515 -0.7045
 1382SOL     hw 5526   3.964   0.459   5.631 -0.5148 -0.3933 -1.6149
 1382SOL     hw 5527   3.879   0.338   5.665 -0.7858  0.1296 -0.3788
 1382SOL     vw 5528   3.953   0.383   5.673 -0.7114  0.0768 -0.7818
 1383SOL     ow 5529   2.353   4.655   3.315  0.0884 -0.7460  0.0043
 1383SOL     hw 5530   2.261   4.652   3.289 -1.0246 -0.6840  3.4302
 1383SOL     hw 5531   2.360   4.733   3.370  1.8792 -1.4939  0.9310
 1383SOL     vw 5532   2.342   4.665   3.319  0.1779 -0.8361  0.5788
 1384SOL     ow 5533   5.837   5.342   1.505 -0.0537 -0.0218 -0.2553
 1384SOL     hw 5534   5.894   5.296   1.567 -0.0402  0.6905  0.2767
 1384SOL     hw 5535   5.803   5.417   1.555  1.5565  1.7553 -1.7069
 1384SOL     vw 5536   5.840   5.346   1.520  0.1607  0.3066 -0.3766
 1385SOL     ow 5537   5.315   0.836   0.857 -0.4230 -0.3065  0.3433
 1385SOL     hw 5538   5.230   0.794   0.848 -1.1736  1.4365 -1.7559
 1385SOL     hw 5539   5.357   0.824   0.772  1.2783 -0.7478  1.1985
 1385SOL     vw 5540   5.309   0.829   0.845 -0.2973 -0.1347  0.1792
 1386SOL     ow 5541   1.979   2.518   5.126  0.0776  0.7901 -0.7114
 1386SOL     hw 5542   2.062   2.542   5.168  0.4967 -1.3457 -0.2160
 1386SOL     hw 5543   1.996   2.528   5.032  0.0283  2.8605 -0.5447
 1386SOL     vw 5544   1.993   2.523   5.119  0.1264  0.7815 -0.6239
 1387SOL     ow 5545   5.012   4.198   3.924  0.2325  0.4312  0.0554
 1387SOL     hw 5546   5.053   4.251   3.993  0.6967  0.2303 -0.0602
 1387SOL     hw 5547   4.972   4.261   3.865  1.9852  0.7429 -0.8481
 1387SOL     vw 5548   5.012   4.213   3.926  0.5250  0.4458 -0.0790
 1388SOL     ow 5549   2.772   5.773   6.420 -0.0877  0.6317 -0.0048
 1388SOL     hw 5550   2.833   5.816   6.361 -0.7418 -0.1450 -1.3041
 1388SOL     hw 5551   2.685   5.797   6.387 -0.4667 -0.9012 -0.2028
 1388SOL     vw 5552   2.768   5.782   6.408 -0.2240  0.3269 -0.2024
 1389SOL     ow 5553   5.665   1.144   6.436 -0.3285 -0.2295 -0.6801
 1389SOL     hw 5554   5.654   1.182   6.523  1.3569  0.2315 -0.6449
 1389SOL     hw 5555   5.579   1.156   6.395 -2.1028 -3.0444  1.8242
 1389SOL     vw 5556   5.652   1.151   6.442 -0.3402 -0.5401 -0.3450
 1390SOL     ow 5557   1.127   0.018   5.342  0.1971 -0.5743 -0.0617
 1390SOL     hw 5558   1.212  -0.024   5.333  0.9538  0.6100  1.1611
 1390SOL     hw 5559   1.142   0.091   5.402 -1.0950  1.2754 -1.8040
 1390SOL     vw 5560   1.140   0.022   5.349  0.1265 -0.1743 -0.1302
 1391SOL     ow 5561   0.121   1.821   2.566  0.3184  0.2205 -0.1265
 1391SOL     hw 5562   0.168   1.781   2.492  1.3132 -0.2365  0.7198
 1391SOL     hw 5563   0.075   1.747   2.607 -1.2830  0.6852 -1.0174
 1391SOL     vw 5564   0.121   1.806   2.562  0.2384  0.2216 -0.1323
 1392SOL     ow 5565   2.505   3.181   4.862 -0.3578 -1.1114 -0.0393
 1392SOL     hw 5566   2.564   3.109   4.841 -0.9237 -2.5559  2.9353
 1392SOL     hw 5567   2.419   3.149   4.837 -0.2890 -0.1305 -1.6836
 1392SOL     vw 5568   2.502   3.167   4.856 -0.4236 -1.1727  0.1359
 1393SOL     ow 5569   4.813   2.763   5.805 -0.6666  0.5353 -0.3887
 1393SOL     hw 5570   4.743   2.776   5.869  0.8904 -0.5396  1.6641
 1393SOL     hw 5571   4.767   2.743   5.723 -2.7513  0.1265  0.8057
 1393SOL     vw 5572   4.797   2.762   5.803 -0.7365  0.3396  0.0398
 1394SOL     ow 5573   1.385   5.799   2.489  0.1457 -1.0392  0.2098
 1394SOL     hw 5574   1.379   5.782   2.395 -2.1458 -3.6293  0.7030
 1394SOL     hw 5575   1.451   5.736   2.520  0.1599 -0.8958  0.4709
 1394SOL     vw 5576   1.393   5.788   2.480 -0.1547 -1.3621  0.3092
 1395SOL     ow 5577   6.229   6.636   3.113 -0.3923  0.0041 -0.5577
 1395SOL     hw 5578   6.241   6.627   3.207 -0.4214  0.3021 -0.5250
 1395SOL     hw 5579   6.221   6.730   3.098  0.4776  0.0221 -0.9634
 1395SOL     vw 5580   6.229   6.647   3.123 -0.2813  0.0455 -0.6069
 1396SOL     ow 5581   2.077   3.578   0.440 -0.0758 -0.4215  0.1308
 1396SOL     hw 5582   1.991   3.588   0.400 -0.2096  0.0196  0.5092
 1396SOL     hw 5583   2.062   3.592   0.534 -0.0428 -3.0359  0.5845
 1396SOL     vw 5584   2.064   3.581   0.447 -0.0892 -0.7083  0.2406
 1397SOL     ow 5585   6.398   2.986   4.401 -0.3429 -0.4077  0.1939
 1397SOL     hw 5586   6.428   2.906   4.358 -0.1068  0.8189 -2.1035
 1397SOL     hw 5587   6.356   3.036   4.331  1.6339  2.5132  0.9141
 1397SOL     vw 5588   6.396   2.982   4.386 -0.0508  0.1394 -0.0145
 1398SOL     ow 5589   2.469   3.216   6.772  0.0946  0.1008  0.3258
 1398SOL     hw 5590   2.418   3.136   6.779  0.9852 -0.4537  0.5688
 1398SOL     hw 5591   2.405   3.286   6.788 -0.4544 -0.6005  1.2961
 1398SOL     vw 5592   2.454   3.215   6.775  0.1397 -0.0647  0.4859
 1399SOL     ow 5593   0.789   1.795   4.756 -0.1009  0.2348  0.1170
 1399SOL     hw 5594   0.876   1.836   4.765  0.6208 -0.4845 -2.5806
 1399SOL     hw 5595   0.755   1.793   4.845  2.4796  0.9265  1.2410
 1399SOL     vw 5596   0.796   1.800   4.769  0.3348  0.2312 -0.0908
 1400SOL     ow 5597   4.122   5.561   4.545 -0.3168  0.2589  0.3913
 1400SOL     hw 5598   4.038   5.518   4.536  0.8471 -2.0778 -0.0352
 1400SOL     hw 5599   4.184   5.504   4.499  1.3731  2.3540 -0.1130
 1400SOL     vw 5600   4.119   5.548   4.538  0.0601  0.2270  0.2685
 1401SOL     ow 5601   2.003   0.004   0.072 -0.1404 -0.2822 -0.2212
 1401SOL     hw 5602   2.009   0.088   0.026  1.8257  0.1621  0.7561
 1401SOL     hw 5603   1.912  -0.002   0.100 -0.5933  0.9416 -1.3406
 1401SOL     vw 5604   1.991   0.014   0.069  0.0592 -0.0621 -0.2399
 1402SOL     ow 5605   0.660   4.887   1.888 -0.7566  0.5333  0.2857
 1402SOL     hw 5606   0.591   4.821   1.879 -2.1475  1.6718  1.8311
 1402SOL     hw 5607   0.639   4.953   1.821  0.9521 -0.7562 -1.6353
 1402SOL     vw 5608   0.648   4.887   1.878 -0.7147  0.5133  0.2362
 1403SOL     ow 5609   2.989   0.660   2.904 -0.1411  1.0110  0.7513
 1403SOL     hw 5610   2.924   0.694   2.843 -1.1863  0.4980  1.5638
 1403SOL     hw 5611   3.070   0.704   2.879  0.4497 -1.9188 -3.5066
 1403SOL     vw 5612   2.991   0.671   2.893 -0.2011  0.5567  0.2967
 1404SOL     ow 5613   1.354   2.501   1.928  0.1600 -0.4491 -1.0058
 1404SOL     hw 5614   1.394   2.414   1.930  0.7035 -0.1883 -0.2705
 1404SOL     hw 5615   1.260   2.484   1.921  0.3853 -1.0676 -3.1303
 1404SOL     vw 5616   1.347   2.488   1.927  0.2615 -0.4964 -1.1891
 1405SOL     ow 5617   1.021   6.097   3.605 -0.5633  0.0412  0.8208
 1405SOL     hw 5618   1.094   6.058   3.558 -1.1701  0.9961 -1.0110
 1405SOL     hw 5619   1.049   6.099   3.696  1.1898 -0.6952  0.3360
 1405SOL     vw 5620   1.034   6.092   3.610 -0.4121  0.0701  0.5151
 1406SOL     ow 5621   1.207   0.737   5.272 -0.0101  0.0599 -0.0830
 1406SOL     hw 5622   1.123   0.693   5.263 -0.6098  1.1247  0.1286
 1406SOL     hw 5623   1.231   0.727   5.364 -1.2249  2.0166  0.4918
 1406SOL     vw 5624   1.199   0.730   5.283 -0.2494  0.4585  0.0207
 1407SOL     ow 5625   2.486   4.038   3.787  0.0861  0.0384  0.0932
 1407SOL     hw 5626   2.409   4.067   3.738 -0.4863 -1.5969 -0.0308
 1407SOL     hw 5627   2.452   4.016   3.874  0.7263  0.8634  0.5742
 1407SOL     vw 5628   2.472   4.039   3.792  0.0950 -0.0682  0.1404
 1408SOL     ow 5629   1.093   6.992   2.529 -0.8096 -0.0315  0.1981
 1408SOL     hw 5630   1.134   6.936   2.462  1.2377  0.3111  1.0967
 1408SOL     hw 5631   1.104   7.081   2.496  1.7706  0.2958  1.6627
 1408SOL     vw 5632   1.100   6.996   2.516 -0.1991  0.0567  0.5099
 1409SOL     ow 5633   0.752   5.853   5.595 -0.3310 -0.6374 -0.2942
 1409SOL     hw 5634   0.743   5.901   5.678  0.9228 -1.0920  0.1285
 1409SOL     hw 5635   0.841   5.871   5.566 -0.9190 -0.0386 -1.8590
 1409SOL     vw 5636   0.762   5.862   5.602 -0.2431 -0.6182 -0.4449
 1410SOL     ow 5637   2.910   3.655   5.831 -0.8180  0.2988 -0.2246
 1410SOL     hw 5638   2.998   3.691   5.834  0.2023 -1.8468 -1.9352
 1410SOL     hw 5639   2.904   3.597   5.906  0.1839 -1.4327 -1.4162
 1410SOL     vw 5640   2.921   3.652   5.841 -0.5512 -0.2128 -0.6075
 1411SOL     ow 5641   0.382   3.356   1.993 -0.0031  0.2746 -0.5500
 1411SOL     hw 5642   0.353   3.420   2.058 -0.9141 -1.3485  0.7304
 1411SOL     hw 5643   0.338   3.383   1.912 -1.9627  0.2119  0.4193
 1411SOL     vw 5644   0.372   3.368   1.991 -0.3819  0.0522 -0.2532
 1412SOL     ow 5645   5.154   3.553   5.173 -0.2883  0.2672 -0.6390
 1412SOL     hw 5646   5.249   3.549   5.162 -0.1599 -0.1610  0.5159
 1412SOL     hw 5647   5.141   3.552   5.268 -1.5352 -2.1587 -0.7491
 1412SOL     vw 5648   5.165   3.552   5.184 -0.4358 -0.1092 -0.5012
 1413SOL     ow 5649   0.613   5.960   0.099  0.5565  0.8919  0.1408
 1413SOL     hw 5650   0.655   5.878   0.070  0.2937  0.9590 -0.4540
 1413SOL     hw 5651   0.667   5.990   0.172 -0.0697 -0.4697  1.2128
 1413SOL     vw 5652   0.626   5.953   0.105  0.4392  0.7210  0.2038
 1414SOL     ow 5653   1.517   6.893   1.957  0.6601 -0.2888  0.7599
 1414SOL     hw 5654   1.480   6.831   1.894 -0.4510  0.3798  0.7387
 1414SOL     hw 5655   1.610   6.870   1.961  0.3975 -1.5186  0.2510
 1414SOL     vw 5656   1.524   6.882   1.949  0.4789 -0.3626  0.6899
 1415SOL     ow 5657   4.498   6.490   3.935  0.3935 -0.8755 -0.0662
 1415SOL     hw 5658   4.523   6.424   3.999  0.4187  0.8057  1.7615
 1415SOL     hw 5659   4.420   6.532   3.972  0.5053  0.2612 -1.0348
 1415SOL     vw 5660   4.491   6.487   3.948  0.4117 -0.5038  0.0471
 1416SOL     ow 5661   3.133   0.238   6.631  0.0207 -0.1002  0.8721
 1416SOL     hw 5662   3.208   0.294   6.654  0.0444 -0.0625  0.6986
 1416SOL     hw 5663   3.131   0.172   6.701  1.1169 -0.9830  0.1115
 1416SOL     vw 5664   3.143   0.236   6.644  0.1684 -0.2117  0.7486
 1417SOL     ow 5665   5.554   4.974   0.894  0.5877 -0.1891 -0.7951
 1417SOL     hw 5666   5.559   5.069   0.902  2.4683 -0.4214  2.1447
 1417SOL     hw 5667   5.641   4.947   0.865  0.2321 -1.0741 -1.0733
 1417SOL     vw 5668   5.566   4.983   0.891  0.7889 -0.3366 -0.4439
 1418SOL     ow 5669   4.701   4.781   4.758 -0.5679 -0.2841  0.3539
 1418SOL     hw 5670   4.696   4.810   4.667 -0.7958 -1.2443  0.0441
 1418SOL     hw 5671   4.771   4.833   4.797 -0.1328 -0.2184 -0.5092
 1418SOL     vw 5672   4.709   4.792   4.751 -0.5407 -0.4022  0.1993
 1419SOL     ow 5673   0.732   6.603   1.846 -0.1141 -0.9116  0.0562
 1419SOL     hw 5674   0.800   6.606   1.779 -0.3664  1.2118 -0.1683
 1419SOL     hw 5675   0.678   6.528   1.823  0.7494 -1.1744 -1.1655
 1419SOL     vw 5676   0.734   6.593   1.834 -0.0334 -0.6661 -0.1346
 1420SOL     ow 5677   1.356   2.637   6.627 -0.0709 -0.6635  0.1358
 1420SOL     hw 5678   1.358   2.543   6.642 -1.2500 -0.9709 -1.4154
 1420SOL     hw 5679   1.325   2.674   6.710 -0.9500 -1.7644  0.3155
 1420SOL     vw 5680   1.353   2.630   6.640 -0.3424 -0.8492 -0.0453
 1421SOL     ow 5681   1.797   2.657   6.305  0.4614  0.0302  0.4610
 1421SOL     hw 5682   1.742   2.728   6.273 -0.7300 -0.1027  2.0687
 1421SOL     hw 5683   1.784   2.586   6.242 -1.1298  0.0576  0.7096
 1421SOL     vw 5684   1.788   2.657   6.293  0.0943  0.0163  0.7057
 1422SOL     ow 5685   5.371   6.154   2.946  0.1470 -0.4604 -0.8472
 1422SOL     hw 5686   5.453   6.202   2.932  0.4840 -0.6027  0.5016
 1422SOL     hw 5687   5.303   6.209   2.907 -0.1789  3.5733  4.3445
 1422SOL     vw 5688   5.373   6.167   2.939  0.1483  0.0529  0.0157
 1423SOL     ow 5689   0.744   2.992   3.960 -0.8080 -0.2909 -0.5496
 1423SOL     hw 5690   0.669   3.051   3.954 -0.7360  0.1915  1.8930
 1423SOL     hw 5691   0.711   2.907   3.933 -1.9378  0.1269 -0.5365
 1423SOL     vw 5692   0.730   2.989   3.956 -0.9476 -0.1720 -0.2257
 1424SOL     ow 5693   6.760   0.410   4.795  0.6195 -0.7000 -0.0723
 1424SOL     hw 5694   6.694   0.394   4.862  1.0481  0.7288  0.7582
 1424SOL     hw 5695   6.837   0.438   4.845  1.3427 -0.8262 -1.0998
 1424SOL     vw 5696   6.762   0.412   4.811  0.7715 -0.5281 -0.0985
 1425SOL     ow 5697   6.901   4.653   2.220  0.2741  0.4831  0.1153
 1425SOL     hw 5698   6.831   4.598   2.255  1.4196  0.5812  2.8719
 1425SOL     hw 5699   6.859   4.708   2.154 -1.8251 -0.6921  0.4041
 1425SOL     vw 5700   6.886   4.653   2.216  0.1481  0.3409  0.5170
 1426SOL     ow 5701   0.694   0.238   3.236 -0.4379 -0.8058  0.3114
 1426SOL     hw 5702   0.729   0.327   3.244  0.3250 -1.0331 -0.3007
 1426SOL     hw 5703   0.771   0.184   3.219 -1.0846 -1.2754 -1.4189
 1426SOL     vw 5704   0.708   0.243   3.235 -0.4226 -0.8977  0.0024
 1427SOL     ow 5705   5.751   4.275   3.070  0.2416  0.1395  0.3260
 1427SOL     hw 5706   5.758   4.370   3.067 -1.3517  0.2455 -1.0481
 1427SOL     hw 5707   5.828   4.248   3.120  1.9942  2.0026 -1.1454
 1427SOL     vw 5708   5.762   4.284   3.076  0.2627  0.3994 -0.0495
 1428SOL     ow 5709   2.308   1.432   6.470 -0.2423  0.0888 -0.3659
 1428SOL     hw 5710   2.373   1.386   6.523 -0.7426 -1.7962 -1.3086
 1428SOL     hw 5711   2.355   1.454   6.389 -0.3588  0.0786 -0.4367
 1428SOL     vw 5712   2.323   1.429   6.466 -0.3238 -0.1612 -0.4995
 1429SOL     ow 5713   5.799   0.307   0.902 -0.2534 -0.7693  0.7955
 1429SOL     hw 5714   5.854   0.373   0.860 -0.6714  0.3300  1.9075
 1429SOL     hw 5715   5.779   0.244   0.833 -2.0627  1.6739 -1.0676
 1429SOL     vw 5716   5.804   0.307   0.887 -0.5472 -0.3019  0.6964
 1430SOL     ow 5717   6.614   1.352   2.727 -0.6712  0.1737  0.4259
 1430SOL     hw 5718   6.632   1.259   2.740  1.7563  0.0773 -2.4643
 1430SOL     hw 5719   6.641   1.393   2.809 -1.1942 -1.5514  1.5246
 1430SOL     vw 5720   6.620   1.345   2.740 -0.4199 -0.0666  0.1895
 1431SOL     ow 5721   6.601   0.007   5.305  0.5856  0.1227 -0.0633
 1431SOL     hw 5722   6.581   0.074   5.371 -2.1060 -1.0753  0.4429
 1431SOL     hw 5723   6.565   0.042   5.223 -1.9595 -1.1114  0.4349
 1431SOL     vw 5724   6.594   0.021   5.303 -0.1054 -0.1981  0.0691
 1432SOL     ow 5725   5.623   3.252   1.200 -0.7793  0.0888  0.3747
 1432SOL     hw 5726   5.597   3.217   1.114 -1.9124  1.0851  0.2796
 1432SOL     hw 5727   5.719   3.252   1.198 -0.7598 -1.5829 -0.1779
 1432SOL     vw 5728   5.632   3.248   1.188 -0.9260 -0.0002  0.2892
 1433SOL     ow 5729   0.366   5.976   3.225  1.2164 -0.0296 -0.3667
 1433SOL     hw 5730   0.458   5.954   3.212  1.3725 -1.6745  2.4863
 1433SOL     hw 5731   0.335   5.910   3.288 -1.4181  1.5817  0.1765
 1433SOL     vw 5732   0.374   5.964   3.232  0.8894 -0.0339  0.0814
 1434SOL     ow 5733   1.807   2.456   5.356 -0.4929 -0.6302  0.6165
 1434SOL     hw 5734   1.807   2.425   5.446 -0.9595 -1.7137  0.2585
 1434SOL     hw 5735   1.741   2.403   5.312 -0.5520  0.1550 -0.2768
 1434SOL     vw 5736   1.799   2.445   5.362 -0.5623 -0.6696  0.4513
 1435SOL     ow 5737   5.148   6.227   3.586 -0.1766  0.6402  0.0586
 1435SOL     hw 5738   5.095   6.168   3.532  1.9700  0.5200 -2.0868
 1435SOL     hw 5739   5.164   6.177   3.667 -1.4538 -0.1751 -0.1565
 1435SOL     vw 5740   5.143   6.213   3.590 -0.0618  0.5167 -0.2527
 1436SOL     ow 5741   6.662   5.276   7.074  0.4378 -0.0376  0.0338
 1436SOL     hw 5742   6.744   5.312   7.040  2.1577 -3.1390  0.5121
 1436SOL     hw 5743   6.642   5.202   7.016 -2.7216  1.2334 -0.7212
 1436SOL     vw 5744   6.670   5.271   7.062  0.2477 -0.2792 -0.0026
 1437SOL     ow 5745   0.654   1.137   3.710  0.1293  0.1829 -0.0197
 1437SOL     hw 5746   0.563   1.154   3.732 -0.1980 -1.0491 -0.3878
 1437SOL     hw 5747   0.652   1.105   3.620  1.3004  3.6629 -1.4808
 1437SOL     vw 5748   0.642   1.135   3.701  0.2406  0.4795 -0.2612
 1438SOL     ow 5749   0.995   3.635   5.971 -0.3975 -0.2062  0.0326
 1438SOL     hw 5750   1.060   3.647   5.901  0.1389 -3.3506 -0.1371
 1438SOL     hw 5751   0.911   3.649   5.927 -0.1401 -3.0427 -1.6631
 1438SOL     vw 5752   0.992   3.638   5.956 -0.2927 -0.9954 -0.2136
 1439SOL     ow 5753   6.906   4.134   3.691  0.2993  0.5304 -0.2403
 1439SOL     hw 5754   6.911   4.102   3.781  1.6401  0.5670 -0.2873
 1439SOL     hw 5755   6.980   4.194   3.682  0.7764 -0.2359 -1.6675
 1439SOL     vw 5756   6.916   4.138   3.702  0.5391  0.4342 -0.4349
 1440SOL     ow 5757   1.364   4.543   5.338  0.0945 -0.5771 -0.0025
 1440SOL     hw 5758   1.416   4.538   5.258 -0.5479 -1.2426 -0.4012
 1440SOL     hw 5759   1.369   4.455   5.375 -0.8121 -0.6811 -0.1043
 1440SOL     vw 5760   1.371   4.531   5.332 -0.1099 -0.6785 -0.0687
 1441SOL     ow 5761   6.009   4.852   3.596  0.0342  0.2134  0.2101
 1441SOL     hw 5762   5.936   4.863   3.536  0.1383  0.1142  0.0633
 1441SOL     hw 5763   6.001   4.924   3.658 -1.4667 -1.0276  1.5434
 1441SOL     vw 5764   5.998   4.863   3.596 -0.1497  0.0367  0.3668
 1442SOL     ow 5765   5.265   2.036   3.857  0.3270 -0.4556  0.0289
 1442SOL     hw 5766   5.205   1.988   3.914  0.5114 -3.0325 -1.7533
 1442SOL     hw 5767   5.330   2.073   3.916  0.0211 -2.2309  1.5929
 1442SOL     vw 5768   5.265   2.034   3.872  0.3109 -1.0298  0.0001
 1443SOL     ow 5769   0.835   5.382   2.800 -0.3974  0.0254  0.2336
 1443SOL     hw 5770   0.762   5.440   2.781 -0.6253 -0.6430 -1.0587
 1443SOL     hw 5771   0.859   5.402   2.890 -2.9011 -0.4988  1.0977
 1443SOL     vw 5772   0.829   5.392   2.809 -0.7578 -0.1318  0.1771
 1444SOL     ow 5773   0.737   5.488   0.194 -0.3777 -0.3774  0.7316
 1444SOL     hw 5774   0.734   5.507   0.100  0.6505  0.3785  0.8214
 1444SOL     hw 5775   0.756   5.573   0.234 -0.9282 -0.6708  1.6340
 1444SOL     vw 5776   0.739   5.502   0.187 -0.3147 -0.3164  0.8625
 1445SOL     ow 5777   6.906   1.531   3.089 -0.2238 -0.2445 -0.0370
 1445SOL     hw 5778   6.891   1.525   3.183 -0.4379  0.6261 -0.0134
 1445SOL     hw 5779   6.998   1.554   3.081  1.3150 -5.1686 -0.1730
 1445SOL     vw 5780   6.916   1.533   3.100 -0.0489 -0.7793 -0.0517
 1446SOL     ow 5781   5.749   6.863   3.336 -0.3140  0.7815 -0.0525
 1446SOL     hw 5782   5.743   6.789   3.276 -1.9873 -1.0926  2.1869
 1446SOL     hw 5783   5.842   6.881   3.344  0.6428 -3.7562  2.1395
 1446SOL     vw 5784   5.760   6.856   3.329 -0.4084 -0.0646  0.5323
 1447SOL     ow 5785   5.669   0.977   2.005  0.0045 -0.1039  0.2622
 1447SOL     hw 5786   5.681   1.059   2.052  1.7281  0.4180 -0.9751
 1447SOL     hw 5787   5.643   1.003   1.916  0.2050 -0.8945 -0.0400
 1447SOL     vw 5788   5.667   0.991   1.999  0.2584 -0.1393  0.0592
 1448SOL     ow 5789   5.544   2.387   1.313  0.4275  0.1545  0.4410
 1448SOL     hw 5790   5.536   2.301   1.355  3.8244 -0.3866  0.2876
 1448SOL     hw 5791   5.499   2.377   1.229  1.6360 -1.9003 -0.0535
 1448SOL     vw 5792   5.537   2.374   1.308  1.0352 -0.1881  0.3555
 1449SOL     ow 5793   0.433   1.892   2.631  0.4686 -0.2297  0.2458
 1449SOL     hw 5794   0.423   1.820   2.568 -1.5821  0.0433  0.1939
 1449SOL     hw 5795   0.527   1.910   2.632  0.5483  0.2122 -3.2635
 1449SOL     vw 5796   0.444   1.885   2.623  0.2085 -0.1354 -0.2240
 1450SOL     ow 5797   4.887   1.335   5.441 -0.4222  0.0859 -0.0164
 1450SOL     hw 5798   4.848   1.257   5.401 -0.8016  0.2396  0.0472
 1450SOL     hw 5799   4.980   1.328   5.421 -0.3738 -0.6346  0.3880
 1450SOL     vw 5800   4.894   1.324   5.433 -0.4656  0.0111  0.0453
 1451SOL     ow 5801   0.872   1.372   4.514  0.2450 -0.2470  0.1250
 1451SOL     hw 5802   0.951   1.374   4.459 -0.2421 -1.3021 -0.6472
 1451SOL     hw 5803   0.905   1.382   4.603  1.1350  0.5665 -0.2726
 1451SOL     vw 5804   0.887   1.374   4.518  0.2982 -0.2788 -0.0293
 1452SOL     ow 5805   2.944   4.418   3.466  0.4559 -0.5443 -0.9075
 1452SOL     hw 5806   3.018   4.419   3.405 -0.0182  0.3381 -1.4964
 1452SOL     hw 5807   2.961   4.489   3.526 -0.3799  0.3271 -1.6570
 1452SOL     vw 5808   2.956   4.427   3.466  0.2830 -0.3128 -1.0841
 1453SOL     ow 5809   5.820   7.045   3.534 -0.2352 -0.2790 -0.4931
 1453SOL     hw 5810   5.884   6.997   3.586 -0.5073 -3.3722 -2.7477
 1453SOL     hw 5811   5.872   7.090   3.467 -0.1770  0.5198  0.0739
 1453SOL     vw 5812   5.835   7.045   3.532 -0.2632 -0.5817 -0.7159
 1454SOL     ow 5813   1.550   0.288   4.431 -0.6589 -0.0359  0.3934
 1454SOL     hw 5814   1.491   0.276   4.356  0.5825 -1.0714 -0.4551
 1454SOL     hw 5815   1.521   0.370   4.470 -2.1016 -0.0733 -0.5145
 1454SOL     vw 5816   1.538   0.298   4.426 -0.6855 -0.1774  0.1619
 1455SOL     ow 5817   5.511   1.774   4.002  0.6402 -0.1145 -0.1045
 1455SOL     hw 5818   5.464   1.801   4.081  1.3287  0.8516  0.0017
 1455SOL     hw 5819   5.552   1.691   4.026 -1.6511 -1.4160 -0.4813
 1455SOL     vw 5820   5.511   1.767   4.015  0.4287 -0.1587 -0.1400
 1456SOL     ow 5821   1.124   6.398   5.318  0.9441 -0.5156 -0.0041
 1456SOL     hw 5822   1.099   6.439   5.401  1.2218 -1.8483  0.7577
 1456SOL     hw 5823   1.191   6.456   5.282  0.4493  0.3504  0.4373
 1456SOL     vw 5824   1.130   6.411   5.324  0.9155 -0.5774  0.1543
 1457SOL     ow 5825   6.975   6.418   5.096 -0.1298 -0.1571 -0.3653
 1457SOL     hw 5826   6.921   6.373   5.161  0.3845  3.0719  2.5917
 1457SOL     hw 5827   7.031   6.349   5.060 -2.3692 -2.6012  0.4928
 1457SOL     vw 5828   6.975   6.403   5.100 -0.3576 -0.0532  0.1380
 1458SOL     ow 5829   5.213   1.634   1.939  0.7407 -0.2829  1.1207
 1458SOL     hw 5830   5.208   1.710   1.881  0.7176 -0.4575  0.8904
 1458SOL     hw 5831   5.153   1.654   2.010 -0.4077 -0.7245  0.3069
 1458SOL     vw 5832   5.205   1.647   1.941  0.5863 -0.3642  0.9829
 1459SOL     ow 5833   6.906   1.000   6.529  0.0816  0.0678 -0.2413
 1459SOL     hw 5834   6.833   0.938   6.532 -0.5999  0.8072  3.3658
 1459SOL     hw 5835   6.983   0.946   6.546 -0.0678 -0.2658 -0.6232
 1459SOL     vw 5836   6.906   0.985   6.532 -0.0279  0.1214  0.1843
 1460SOL     ow 5837   4.079   2.255   0.808  0.0785 -0.6542  0.2005
 1460SOL     hw 5838   4.122   2.296   0.733 -0.6222 -2.1271 -1.0524
 1460SOL     hw 5839   4.147   2.203   0.850  0.2857 -0.4306  0.1428
 1460SOL     vw 5840   4.094   2.254   0.804  0.0134 -0.8191  0.0275
 1461SOL     ow 5841   4.552   3.313   2.459  0.6152  1.0888 -0.6848
 1461SOL     hw 5842   4.533   3.313   2.553  2.0871  0.7495 -0.3632
 1461SOL     hw 5843   4.557   3.221   2.435  1.6538  1.1564 -0.7730
 1461SOL     vw 5844   4.551   3.301   2.469  0.9468  1.0530 -0.6540
 1462SOL     ow 5845   4.912   5.468   2.048  0.0299  0.0597 -0.7844
 1462SOL     hw 5846   4.878   5.403   1.985  1.1699 -3.1799  1.6593
 1462SOL     hw 5847   4.841   5.481   2.110  0.0660  0.5711 -0.8490
 1462SOL     vw 5848   4.898   5.461   2.048  0.1848 -0.3004 -0.4704
 1463SOL     ow 5849   1.249   0.222   2.780  0.1929 -0.0678  0.3973
 1463SOL     hw 5850   1.163   0.262   2.763 -1.0751 -1.9177  2.0750
 1463SOL     hw 5851   1.264   0.167   2.703 -0.1498  0.2109  0.1224
 1463SOL     vw 5852   1.240   0.220   2.767 -0.0196 -0.2751  0.5825
 1464SOL     ow 5853   1.354   2.227   2.117 -0.2821 -0.6743 -0.3266
 1464SOL     hw 5854   1.296   2.193   2.049 -1.5303  0.3672  0.1792
 1464SOL     hw 5855   1.349   2.163   2.188  0.6259 -1.4999 -0.9763
 1464SOL     vw 5856   1.346   2.214   2.117 -0.3270 -0.6458 -0.3456
 1465SOL     ow 5857   5.802   5.015   5.461  0.4991 -0.1944  0.3226
 1465SOL     hw 5858   5.716   5.056   5.453  0.2945 -0.6680  0.0634
 1465SOL     hw 5859   5.858   5.085   5.495 -0.2185 -0.1662  1.5244
 1465SOL     vw 5860   5.798   5.030   5.465  0.3772 -0.2532  0.4470
 1466SOL     ow 5861   3.559   2.575   4.875 -0.1999  0.0270 -0.3502
 1466SOL     hw 5862   3.631   2.557   4.815  0.2950 -1.1092  0.5427
 1466SOL     hw 5863   3.599   2.615   4.951 -0.9356  2.2613 -1.0612
 1466SOL     vw 5864   3.574   2.578   4.877 -0.2316  0.1720 -0.3264
 1467SOL     ow 5865   5.695   3.581   6.233 -0.2610  0.2872 -0.9957
 1467SOL     hw 5866   5.787   3.604   6.218  0.0240 -1.7536 -2.8320
 1467SOL     hw 5867   5.684   3.496   6.191 -3.1585  0.7210 -1.3169
 1467SOL     vw 5868   5.706   3.572   6.226 -0.6058  0.0751 -1.2805
 1468SOL     ow 5869   2.282   1.094   1.759 -0.1486 -0.0059  0.6954
 1468SOL     hw 5870   2.315   1.071   1.673  0.3986  0.7779  0.6833
 1468SOL     hw 5871   2.197   1.050   1.765  1.1455 -2.6911  1.0217
 1468SOL     vw 5872   2.275   1.085   1.748  0.0944 -0.2568  0.7369
 1469SOL     ow 5873   4.630   5.820   4.345 -0.3010 -0.1036 -0.6583
 1469SOL     hw 5874   4.641   5.742   4.292  0.2494 -0.8999  0.5724
 1469SOL     hw 5875   4.624   5.892   4.282  2.1159 -0.7811 -1.7601
 1469SOL     vw 5876   4.631   5.819   4.330  0.0904 -0.2983 -0.6416
 1470SOL     ow 5877   1.389   3.840   0.294  0.0891  0.0042 -0.3737
 1470SOL     hw 5878   1.432   3.914   0.336  1.1401 -1.3420  1.0080
 1470SOL     hw 5879   1.401   3.767   0.355 -0.6445 -1.3858 -1.8249
 1470SOL     vw 5880   1.396   3.841   0.307  0.1310 -0.3568 -0.3829
 1471SOL     ow 5881   1.752   0.495   6.285  0.9641 -0.4501  0.3731
 1471SOL     hw 5882   1.674   0.454   6.246  0.5205 -1.0311  1.8000
 1471SOL     hw 5883   1.784   0.554   6.217 -1.0293  0.2053 -0.0806
 1471SOL     vw 5884   1.746   0.498   6.271  0.6425 -0.4403  0.5016
 1472SOL     ow 5885   5.233   4.030   4.514  0.2733  0.6277 -0.0159
 1472SOL     hw 5886   5.280   4.100   4.560  1.1582  0.7524 -1.0460
 1472SOL     hw 5887   5.234   3.956   4.575  1.8728  0.6204  0.0080
 1472SOL     vw 5888   5.240   4.029   4.528  0.6008  0.6433 -0.1488
 1473SOL     ow 5889   3.668   1.660   5.564 -0.4966 -0.6375  0.0707
 1473SOL     hw 5890   3.669   1.751   5.535 -1.1741 -0.1966  1.3650
 1473SOL     hw 5891   3.635   1.611   5.488 -3.0396  0.5798  0.2871
 1473SOL     vw 5892   3.664   1.665   5.550 -0.9216 -0.4187  0.2699
 1474SOL     ow 5893   3.243   6.138   4.377 -0.2389  0.4633  0.3475
 1474SOL     hw 5894   3.247   6.136   4.472 -0.3574 -1.3625  0.3499
 1474SOL     hw 5895   3.167   6.083   4.355 -1.9816  3.0608 -0.7608
 1474SOL     vw 5896   3.233   6.130   4.387 -0.4845  0.5651  0.2015
 1475SOL     ow 5897   3.580   2.915   5.880 -0.0536 -0.9107 -0.6636
 1475SOL     hw 5898   3.492   2.953   5.884  1.1232  1.9447  2.5506
 1475SOL     hw 5899   3.565   2.820   5.880 -3.0775 -0.5574 -1.9551
 1475SOL     vw 5900   3.566   2.907   5.880 -0.2973 -0.4873 -0.4096
 1476SOL     ow 5901   2.411   7.021   1.471 -0.4281  0.4221 -0.3834
 1476SOL     hw 5902   2.338   7.029   1.532  0.4068  0.0920  0.7116
 1476SOL     hw 5903   2.479   7.078   1.508 -0.4848  1.5996 -1.9739
 1476SOL     vw 5904   2.411   7.030   1.484 -0.3254  0.5338 -0.4488
 1477SOL     ow 5905   5.054   5.247   2.188  0.5303  0.0315  0.5736
 1477SOL     hw 5906   5.035   5.193   2.111 -1.7412 -0.4629  1.3947
 1477SOL     hw 5907   4.988   5.221   2.252  0.5516  2.4470  1.6912
 1477SOL     vw 5908   5.043   5.236   2.186  0.2334  0.2851  0.8293
 1478SOL     ow 5909   3.180   1.686   6.935 -0.4230 -0.1785  0.7052
 1478SOL     hw 5910   3.225   1.637   6.866  2.7386 -0.5140  2.8162
 1478SOL     hw 5911   3.217   1.774   6.929 -0.3951 -0.1163  1.7178
 1478SOL     vw 5912   3.191   1.691   6.925 -0.0023 -0.2145  1.1175
 1479SOL     ow 5913   2.722   4.272   3.486  0.5598  0.2437  0.0796
 1479SOL     hw 5914   2.800   4.325   3.472  1.3365 -1.2221 -1.4439
 1479SOL     hw 5915   2.745   4.212   3.556  1.8560 -1.9524 -2.0657
 1479SOL     vw 5916   2.735   4.271   3.493  0.8333 -0.2394 -0.4045
 1480SOL     ow 5917   1.200   3.442   6.162 -0.2697  0.2987  0.2614
 1480SOL     hw 5918   1.238   3.530   6.158 -1.7123  1.0410  1.7730
 1480SOL     hw 5919   1.270   3.387   6.196 -0.1322  1.3869  1.8085
 1480SOL     vw 5920   1.215   3.447   6.166 -0.4419  0.5403  0.6649
 1481SOL     ow 5921   1.480   3.779   2.922  0.9027 -0.1836  0.5041
 1481SOL     hw 5922   1.460   3.817   2.836  1.8400 -3.6806 -1.4355
 1481SOL     hw 5923   1.571   3.803   2.938  0.7948  0.2872  0.4497
 1481SOL     vw 5924   1.489   3.788   2.912  1.0121 -0.5829  0.2410
 1482SOL     ow 5925   5.286   1.104   3.705  0.2356  0.4805  0.2331
 1482SOL     hw 5926   5.278   1.084   3.612  2.9811  0.5637 -0.1047
 1482SOL     hw 5927   5.256   1.025   3.750 -0.4485  0.1811 -0.7242
 1482SOL     vw 5928   5.281   1.091   3.699  0.5074  0.4520  0.0623
 1483SOL     ow 5929   1.222   0.719   6.211  0.3486 -0.2134 -0.6778
 1483SOL     hw 5930   1.282   0.657   6.170 -0.8502 -1.5427 -0.4732
 1483SOL     hw 5931   1.200   0.679   6.295 -1.6884 -0.3402 -1.2121
 1483SOL     vw 5932   1.227   0.706   6.217 -0.0783 -0.4055 -0.7210
 1484SOL     ow 5933   6.444   6.823   1.638  1.1173 -0.8376 -0.4686
 1484SOL     hw 5934   6.359   6.835   1.594  0.6501 -0.5796  0.4892
 1484SOL     hw 5935   6.500   6.891   1.600 -0.5701  2.5447  2.5193
 1484SOL     vw 5936   6.440   6.834   1.627  0.8330 -0.3574  0.0519
 1485SOL     ow 5937   5.675   3.693   0.608  0.1152 -0.3050  0.3692
 1485SOL     hw 5938   5.750   3.700   0.550  1.1654  0.2374  1.7477
 1485SOL     hw 5939   5.602   3.670   0.550  0.7361  1.9255 -1.4498
 1485SOL     vw 5940   5.675   3.691   0.592  0.3357  0.0609  0.3111
 1486SOL     ow 5941   7.025   3.829   5.791  0.0733 -0.0639  0.1875
 1486SOL     hw 5942   7.110   3.854   5.755  1.8004 -0.4537  3.5851
 1486SOL     hw 5943   6.985   3.912   5.818  0.9688 -0.0655  1.6438
 1486SOL     vw 5944   7.031   3.843   5.790  0.4191 -0.1154  0.8283
 1487SOL     ow 5945   3.559   2.237   3.140  0.3246  0.0605  0.7931
 1487SOL     hw 5946   3.491   2.227   3.207  1.2437  0.0720  1.7560
 1487SOL     hw 5947   3.602   2.151   3.137  0.7164  0.2568  0.7020
 1487SOL     vw 5948   3.556   2.224   3.148  0.4975  0.0881  0.9081
 1488SOL     ow 5949   5.341   4.941   1.144 -0.2012 -0.3811 -0.0846
 1488SOL     hw 5950   5.324   5.026   1.186 -0.0207 -0.6630  0.5846
 1488SOL     hw 5951   5.394   4.894   1.208  0.1533 -0.8009 -0.6793
 1488SOL     vw 5952   5.346   4.946   1.158 -0.1307 -0.4737 -0.0748
 1489SOL     ow 5953   7.125   1.537   5.929 -0.0459  0.6505 -0.0999
 1489SOL     hw 5954   7.048   1.489   5.900 -0.6196  1.4001  0.1480
 1489SOL     hw 5955   7.096   1.584   6.007  2.1379 -3.5200  3.6747
 1489SOL     vw 5956   7.111   1.537   5.936  0.1667  0.1991  0.4308
 1490SOL     ow 5957   2.360   2.958   3.802 -0.3229 -0.7105 -0.3526
 1490SOL     hw 5958   2.307   2.953   3.722  0.3229  3.0430 -1.2170
 1490SOL     hw 5959   2.301   2.994   3.867  0.2741  0.4060 -0.4100
 1490SOL     vw 5960   2.345   2.962   3.800 -0.1589 -0.0681 -0.4742
 1491SOL     ow 5961   6.711   6.372   3.785 -0.2046  0.6226  0.3389
 1491SOL     hw 5962   6.725   6.299   3.845 -1.3588  0.7718  0.8286
 1491SOL     hw 5963   6.779   6.363   3.719 -1.3380 -1.9064 -0.5956
 1491SOL     vw 5964   6.721   6.361   3.784 -0.5064  0.3085  0.2801
 1492SOL     ow 5965   1.497   6.984   2.262 -0.0328 -0.7335 -0.0330
 1492SOL     hw 5966   1.589   7.010   2.274  0.4407 -0.7990 -2.7614
 1492SOL     hw 5967   1.483   6.915   2.327  1.0908  0.8363  2.0120
 1492SOL     vw 5968   1.507   6.979   2.272  0.1779 -0.5352 -0.1231
 1493SOL     ow 5969   0.717   2.696   3.939 -0.5271 -0.1856  0.3585
 1493SOL     hw 5970   0.624   2.688   3.962 -1.0655 -1.0616 -1.7797
 1493SOL     hw 5971   0.739   2.610   3.902  0.7228  0.4575 -0.4476
 1493SOL     vw 5972   0.708   2.683   3.937 -0.4332 -0.2164 -0.0298
 1494SOL     ow 5973   0.422   6.165   2.998  0.6651 -0.3890 -0.0681
 1494SOL     hw 5974   0.397   6.242   2.947 -1.4027  0.7395  2.4426
 1494SOL     hw 5975   0.488   6.197   3.059  2.5057 -1.5378 -1.3462
 1494SOL     vw 5976   0.427   6.179   2.999  0.6351 -0.3917  0.0945
 1495SOL     ow 5977   1.927   0.177   1.493  0.5600  0.1556 -0.0094
 1495SOL     hw 5978   1.980   0.102   1.464 -2.1876 -1.3068 -1.6468
 1495SOL     hw 5979   1.985   0.253   1.480  2.8602 -1.4786  0.0794
 1495SOL     vw 5980   1.942   0.177   1.487  0.5010 -0.2530 -0.2137
 1496SOL     ow 5981   3.983   4.656   6.545  0.1323 -0.6439  0.8135
 1496SOL     hw 5982   3.998   4.574   6.497  0.6539 -1.3590  2.1547
 1496SOL     hw 5983   3.910   4.636   6.604  1.3933 -0.7339  2.4057
 1496SOL     vw 5984   3.975   4.642   6.546  0.3675 -0.7501  1.2007
 1497SOL     ow 5985   0.910   2.507   4.218 -1.1824 -0.4811 -0.1627
 1497SOL     hw 5986   0.867   2.454   4.151 -0.3300  0.2348 -1.2956
 1497SOL     hw 5987   0.982   2.452   4.249  0.9189  0.6202 -2.6996
 1497SOL     vw 5988   0.914   2.493   4.213 -0.7927 -0.2415 -0.6471
 1498SOL     ow 5989   3.680   4.251   0.961  0.0635  0.1862  0.6653
 1498SOL     hw 5990   3.664   4.237   1.054 -0.2151  0.9347  0.7361
 1498SOL     hw 5991   3.632   4.331   0.940 -1.1808 -0.8057 -0.4760
 1498SOL     vw 5992   3.671   4.260   0.970 -0.1374  0.1540  0.5241
 1499SOL     ow 5993   1.273   2.737   6.845 -0.1304 -0.6737 -0.2193
 1499SOL     hw 5994   1.226   2.704   6.921 -1.2684  0.0604 -0.5722
 1499SOL     hw 5995   1.347   2.785   6.881 -0.2537 -0.9478  0.4015
 1499SOL     vw 5996   1.276   2.739   6.859 -0.2968 -0.6131 -0.1838
 1500SOL     ow 5997   0.727   1.056   4.051 -0.1972  0.6208 -0.3936
 1500SOL     hw 5998   0.783   0.982   4.073 -1.2024 -0.9414 -2.7064
 1500SOL     hw 5999   0.673   1.070   4.130 -0.5327 -1.6547 -0.1518
 1500SOL     vw 6000   0.727   1.048   4.065 -0.3741  0.1144 -0.6671
 1501SOL     ow 6001   4.323   5.397   4.463  0.2830 -0.7920  0.5682
 1501SOL     hw 6002   4.342   5.314   4.420 -0.9716  0.9300 -3.9940
 1501SOL     hw 6003   4.408   5.442   4.468  0.3832 -0.6399 -1.4379
 1501SOL     vw 6004   4.337   5.392   4.458  0.1309 -0.5445 -0.2985
 1502SOL     ow 6005   1.989   4.503   4.961  0.3747  0.5971 -0.0829
 1502SOL     hw 6006   1.963   4.522   4.870  0.3797  4.1898  0.5302
 1502SOL     hw 6007   2.077   4.538   4.969 -0.4834  2.5297  1.8649
 1502SOL     vw 6008   1.997   4.510   4.950  0.2621  1.3263  0.2553
 1503SOL     ow 6009   3.328   3.026   1.825 -0.2448  0.3851 -0.2798
 1503SOL     hw 6010   3.337   2.936   1.857  0.2023  0.5963  0.2013
 1503SOL     hw 6011   3.299   3.076   1.901 -0.3313  0.6832 -0.5045
 1503SOL     vw 6012   3.325   3.021   1.839 -0.1973  0.4524 -0.2460
 1504SOL     ow 6013   1.832   6.893   5.456 -0.9155  0.5473 -0.5925
 1504SOL     hw 6014   1.741   6.911   5.432 -0.8472  1.3839 -0.2722
 1504SOL     hw 6015   1.829   6.880   5.551 -0.5668  1.5376 -0.4392
 1504SOL     vw 6016   1.820   6.893   5.465 -0.8605  0.7885 -0.5300
 1505SOL     ow 6017   3.040   1.701   5.534  0.1923  0.9453  0.1155
 1505SOL     hw 6018   2.959   1.652   5.542  0.5332  0.5015  1.0064
 1505SOL     hw 6019   3.020   1.788   5.569 -0.1733  1.1699 -0.6402
 1505SOL     vw 6020   3.027   1.706   5.539  0.1889  0.9164  0.1333
 1506SOL     ow 6021   3.457   5.704   1.535 -0.0295  0.3554 -0.5033
 1506SOL     hw 6022   3.525   5.664   1.589  0.2856  1.7038  0.1489
 1506SOL     hw 6023   3.429   5.781   1.585 -1.6244  0.1584 -1.0307
 1506SOL     vw 6024   3.462   5.709   1.549 -0.1984  0.5074 -0.4869
 1507SOL     ow 6025   3.661   5.689   1.302  0.6502  0.3744  0.0103
 1507SOL     hw 6026   3.721   5.647   1.363 -0.0819 -3.3923 -1.5508
 1507SOL     hw 6027   3.712   5.760   1.262  3.8473 -2.0465 -0.6008
 1507SOL     vw 6028   3.675   5.693   1.305  0.9755 -0.4420 -0.2763
 1508SOL     ow 6029   4.273   0.410   5.818 -0.0023 -0.2293 -0.0939
 1508SOL     hw 6030   4.355   0.384   5.859 -0.5680 -2.1161 -0.0864
 1508SOL     hw 6031   4.263   0.502   5.841  1.2119 -0.4413  1.4095
 1508SOL     vw 6032   4.283   0.419   5.826  0.0834 -0.5062  0.1054
 1509SOL     ow 6033   3.933   4.830   4.429 -0.0004  0.2471 -0.0351
 1509SOL     hw 6034   3.950   4.739   4.408  1.7492  0.4698  0.2480
 1509SOL     hw 6035   4.005   4.856   4.487 -0.5906  1.7368  0.0993
 1509SOL     vw 6036   3.945   4.822   4.434  0.1526  0.4728  0.0200
 1510SOL     ow 6037   0.341   1.847   1.610 -0.5184  0.2042  0.0965
 1510SOL     hw 6038   0.270   1.877   1.666 -0.6314  1.7922 -0.8375
 1510SOL     hw 6039   0.413   1.907   1.630 -0.0297 -0.2637 -0.2596
 1510SOL     vw 6040   0.341   1.859   1.620 -0.4689  0.3520 -0.0737
 1511SOL     ow 6041   6.189   3.424   2.269  0.1173  0.1684  0.0939
 1511SOL     hw 6042   6.196   3.510   2.226  1.7449 -0.6223 -1.3672
 1511SOL     hw 6043   6.100   3.395   2.250  0.1321  0.7653 -0.9947
 1511SOL     vw 6044   6.178   3.432   2.261  0.3343  0.1429 -0.2425
 1512SOL     ow 6045   2.816   5.176   3.781  0.0034  0.1695 -0.1095
 1512SOL     hw 6046   2.749   5.111   3.759 -0.1609  0.0573  0.6884
 1512SOL     hw 6047   2.886   5.160   3.718  1.2762 -2.7617  1.8525
 1512SOL     vw 6048   2.816   5.165   3.770  0.1497 -0.2317  0.2546
 1513SOL     ow 6049   1.897   0.859   6.269 -0.2490 -0.2551  0.2580
 1513SOL     hw 6050   1.932   0.777   6.236  0.8466  0.8228 -1.4751
 1513SOL     hw 6051   1.847   0.895   6.195 -0.7692  0.5822  0.9977
 1513SOL     vw 6052   1.895   0.853   6.255 -0.1732 -0.0024  0.1268
 1514SOL     ow 6053   1.984   0.799   0.670 -0.7106 -0.2396 -0.2316
 1514SOL     hw 6054   1.969   0.794   0.576  4.3842  0.2796 -1.3790
 1514SOL     hw 6055   2.022   0.886   0.684  0.2426 -0.9331  1.9574
 1514SOL     vw 6056   1.987   0.810   0.660  0.0874 -0.2626 -0.0942
 1515SOL     ow 6057   5.936   4.792   1.351 -0.2431  0.4232 -0.4516
 1515SOL     hw 6058   5.867   4.759   1.409 -0.2383  0.8160 -0.2133
 1515SOL     hw 6059   6.008   4.814   1.410  0.2718 -0.4433 -0.7567
 1515SOL     vw 6060   5.936   4.791   1.367 -0.1748  0.3607 -0.4604
 1516SOL     ow 6061   6.722   2.561   3.702 -0.2220  0.1483  0.1569
 1516SOL     hw 6062   6.761   2.537   3.618 -0.8369  1.0321 -0.4017
 1516SOL     hw 6063   6.796   2.581   3.759  0.1748  1.0215 -0.6436
 1516SOL     vw 6064   6.737   2.561   3.699 -0.2508  0.3800 -0.0224
 1517SOL     ow 6065   0.664   1.572   4.594 -0.0897 -0.5961  0.0345
 1517SOL     hw 6066   0.583   1.546   4.549  0.6923  0.7950 -2.3873
 1517SOL     hw 6067   0.729   1.509   4.564  0.3919  0.2047 -0.6452
 1517SOL     vw 6068   0.662   1.560   4.584  0.0770 -0.3069 -0.3750
 1518SOL     ow 6069   4.613   3.691   5.848  0.5227 -0.4819  0.8021
 1518SOL     hw 6070   4.701   3.725   5.833  1.3156 -2.4134  0.7531
 1518SOL     hw 6071   4.606   3.683   5.943  0.7955 -1.2845  0.7574
 1518SOL     vw 6072   4.624   3.694   5.858  0.6635 -0.8425  0.7901
 1519SOL     ow 6073   3.518   5.371   5.850  0.4585 -0.4150 -0.5912
 1519SOL     hw 6074   3.563   5.403   5.772 -1.8709  2.3613 -0.9593
 1519SOL     hw 6075   3.564   5.413   5.923  2.0616 -2.2978 -0.4320
 1519SOL     vw 6076   3.530   5.381   5.849  0.3628 -0.2971 -0.6187
 1520SOL     ow 6077   5.582   0.523   3.804 -0.0683  0.2392 -0.2564
 1520SOL     hw 6078   5.615   0.565   3.884 -1.1890 -3.1200  2.2143
 1520SOL     hw 6079   5.491   0.504   3.823 -0.1546 -1.4010 -1.9976
 1520SOL     vw 6080   5.575   0.526   3.817 -0.2277 -0.4204 -0.1601
 1521SOL     ow 6081   1.501   1.149   6.885  0.0272  0.1970 -0.3370
 1521SOL     hw 6082   1.426   1.110   6.839 -0.3874 -0.0980  0.5467
 1521SOL     hw 6083   1.570   1.083   6.877  0.1444  0.3947 -1.0110
 1521SOL     vw 6084   1.500   1.135   6.878 -0.0121  0.1842 -0.3092
 1522SOL     ow 6085   1.793   4.072   6.876 -0.3513 -0.5422  0.0916
 1522SOL     hw 6086   1.793   4.127   6.798 -0.9185 -2.2842 -1.1886
 1522SOL     hw 6087   1.738   4.119   6.939 -0.3832  0.5889 -0.7625
 1522SOL     vw 6088   1.786   4.085   6.874 -0.4305 -0.6227 -0.1900
 1523SOL     ow 6089   4.970   1.433   4.567 -0.0531 -0.3932  0.2337
 1523SOL     hw 6090   5.030   1.396   4.633  0.5645  0.4488  0.1674
 1523SOL     hw 6091   5.010   1.409   4.483 -0.1257 -0.3224  0.1798
 1523SOL     vw 6092   4.983   1.425   4.565  0.0186 -0.2728  0.2177
 1524SOL     ow 6093   3.915   1.525   5.584  0.8116 -0.1613  0.0298
 1524SOL     hw 6094   3.938   1.527   5.677 -0.5583  0.5921  0.3818
 1524SOL     hw 6095   3.850   1.595   5.574  0.6519 -0.4864 -1.4198
 1524SOL     vw 6096   3.909   1.534   5.595  0.6099 -0.1048 -0.1152
 1525SOL     ow 6097   3.363   6.729   4.847 -0.7857 -0.1567  0.4336
 1525SOL     hw 6098   3.374   6.654   4.906 -1.0191 -0.0949  0.5534
 1525SOL     hw 6099   3.402   6.699   4.764 -2.1484 -0.9394  0.0514
 1525SOL     vw 6100   3.370   6.715   4.844 -0.9961 -0.2518  0.3989
 1526SOL     ow 6101   6.521   6.590   1.761 -0.6732  0.0028  0.6301
 1526SOL     hw 6102   6.497   6.675   1.723  1.4802  0.1707 -0.5430
 1526SOL     hw 6103   6.463   6.527   1.719 -1.7655  0.7823  0.9245
 1526SOL     vw 6104   6.511   6.593   1.750 -0.5333  0.1278  0.5143
 1527SOL     ow 6105   5.923   0.944   2.138  0.0426  0.3157  0.4657
 1527SOL     hw 6106   6.008   0.987   2.131  0.9408 -1.5179 -0.5288
 1527SOL     hw 6107   5.928   0.893   2.218 -0.5990  1.1307  1.0429
 1527SOL     vw 6108   5.935   0.943   2.148  0.0765  0.1813  0.4108
 1528SOL     ow 6109   1.742   3.526   6.521 -0.1218  0.1137 -0.2998
 1528SOL     hw 6110   1.743   3.430   6.527 -0.5185  0.0162 -1.5268
 1528SOL     hw 6111   1.736   3.544   6.427  0.5454  1.3526 -0.1257
 1528SOL     vw 6112   1.741   3.516   6.509 -0.0861  0.2643 -0.4387
 1529SOL     ow 6113   0.545   7.065   6.747  0.6205  0.4648 -0.0960
 1529SOL     hw 6114   0.520   7.006   6.819  0.5654  0.0689 -0.4399
 1529SOL     hw 6115   0.462   7.105   6.720  0.5426  0.1331 -0.3619
 1529SOL     vw 6116   0.531   7.062   6.753  0.6029  0.3688 -0.1762
 1530SOL     ow 6117   0.004   1.612   0.643  0.4657  0.0133 -0.2069
 1530SOL     hw 6118  -0.078   1.640   0.683  0.2091  1.0213 -1.3747
 1530SOL     hw 6119   0.010   1.518   0.662  0.2211  0.3793  1.8849
 1530SOL     vw 6120  -0.006   1.603   0.651  0.3996  0.1945 -0.0849
 1531SOL     ow 6121   2.866   4.531   5.626 -0.0191 -0.3699 -0.1251
 1531SOL     hw 6122   2.949   4.545   5.671 -0.3130 -1.5792  0.8496
 1531SOL     hw 6123   2.799   4.557   5.689 -0.4225 -1.4463 -0.0831
 1531SOL     vw 6124   2.868   4.537   5.640 -0.1111 -0.6716  0.0093
 1532SOL     ow 6125   5.547   5.473   0.114 -0.4333 -0.4076  0.0830
 1532SOL     hw 6126   5.486   5.465   0.187 -0.6467 -1.6295 -0.1953
 1532SOL     hw 6127   5.572   5.383   0.094  2.7260  0.1010  1.1899
 1532SOL     vw 6128   5.542   5.460   0.121 -0.0443 -0.5014  0.1923
 1533SOL     ow 6129   0.553   2.703   3.098  0.0589 -0.1026  0.0029
 1533SOL     hw 6130   0.515   2.616   3.110  0.4139 -0.4408 -1.1839
 1533SOL     hw 6131   0.574   2.733   3.187  0.4037 -1.4431  0.3846
 1533SOL     vw 6132   0.551   2.696   3.111  0.1512 -0.3240 -0.1032
 1534SOL     ow 6133   0.226   2.696   6.395 -0.9138  0.0673  0.1824
 1534SOL     hw 6134   0.271   2.671   6.475  1.0222  0.5576 -0.6874
 1534SOL     hw 6135   0.254   2.630   6.330  0.2628  1.5381 -0.8840
 1534SOL     vw 6136   0.235   2.684   6.397 -0.5032  0.3262 -0.0730
 1535SOL     ow 6137   3.686   7.044   2.205 -0.4279 -0.2416  0.3207
 1535SOL     hw 6138   3.771   7.025   2.247  0.1838  2.6984  0.6379
 1535SOL     hw 6139   3.710   7.082   2.121 -1.4622  0.2584  0.2491
 1535SOL     vw 6140   3.701   7.046   2.200 -0.4836  0.2127  0.3530
 1536SOL     ow 6141   2.228   5.448   0.839 -0.6105  0.2610  0.2274
 1536SOL     hw 6142   2.223   5.448   0.743  0.0214 -0.2554  0.1846
 1536SOL     hw 6143   2.254   5.537   0.862  2.8695 -0.4633 -0.3412
 1536SOL     vw 6144   2.231   5.459   0.829 -0.0681  0.0970  0.1467
 1537SOL     ow 6145   6.467   2.148   2.112 -0.1778  0.2171 -0.0219
 1537SOL     hw 6146   6.556   2.180   2.126 -0.6421  1.7368 -0.3999
 1537SOL     hw 6147   6.446   2.173   2.022 -0.9373 -0.2751  0.0069
 1537SOL     vw 6148   6.476   2.155   2.102 -0.3393  0.3526 -0.0679
 1538SOL     ow 6149   0.771   1.790   3.336  0.6309  0.3481  0.1980
 1538SOL     hw 6150   0.838   1.725   3.354  1.4557  1.2686  0.5466
 1538SOL     hw 6151   0.813   1.874   3.355 -0.3912  0.9894 -0.2673
 1538SOL     vw 6152   0.785   1.792   3.341  0.6048  0.5541  0.1825
 1539SOL     ow 6153   6.824   3.891   1.266 -0.0504  0.5117  0.8280
 1539SOL     hw 6154   6.868   3.825   1.318  2.0045  1.4108  0.3289
 1539SOL     hw 6155   6.818   3.967   1.324  0.6301  0.9388  0.3536
 1539SOL     vw 6156   6.829   3.892   1.281  0.3107  0.6868  0.6996
 1540SOL     ow 6157   3.375   6.261   0.990  0.3799 -0.7219 -0.1504
 1540SOL     hw 6158   3.317   6.185   0.995 -1.3707  0.1206 -3.9620
 1540SOL     hw 6159   3.354   6.313   1.068 -2.8975 -1.2652 -0.5318
 1540SOL     vw 6160   3.365   6.258   1.001 -0.2834 -0.6821 -0.7036
 1541SOL     ow 6161   1.031   0.934   6.213 -0.2285 -0.4247 -0.1103
 1541SOL     hw 6162   1.029   0.928   6.308 -2.2813  1.2307  0.0371
 1541SOL     hw 6163   1.093   0.866   6.185 -1.1404 -2.3775  2.2774
 1541SOL     vw 6164   1.039   0.924   6.222 -0.6197 -0.4639  0.2244
 1542SOL     ow 6165   4.653   7.001   3.011  1.0810 -0.3729 -0.1274
 1542SOL     hw 6166   4.607   7.079   2.979  0.0028 -1.1942 -0.6452
 1542SOL     hw 6167   4.709   7.034   3.081 -3.0578  0.3199  3.3327
 1542SOL     vw 6168   4.654   7.016   3.016  0.3927 -0.3893  0.2607
 1543SOL     ow 6169   5.346   0.388   3.854 -0.2567  0.5437 -0.3059
 1543SOL     hw 6170   5.284   0.450   3.892  0.8465  0.9740  0.8561
 1543SOL     hw 6171   5.306   0.362   3.771 -2.0804  0.6299  0.5071
 1543SOL     vw 6172   5.333   0.392   3.848 -0.3517  0.6119 -0.0453
 1544SOL     ow 6173   1.701   5.472   5.245  0.0103  0.7679  0.1707
 1544SOL     hw 6174   1.782   5.442   5.203 -1.1609  0.3156 -1.9152
 1544SOL     hw 6175   1.667   5.395   5.289  0.8928  1.0605  1.3950
 1544SOL     vw 6176   1.707   5.458   5.245 -0.0277  0.7470  0.0570
 1545SOL     ow 6177   4.317   6.753   6.891  0.1415  0.2500  0.1301
 1545SOL     hw 6178   4.289   6.668   6.857 -0.4160  0.1348  0.8580
 1545SOL     hw 6179   4.252   6.814   6.856  0.8857  0.4839 -0.8951
 1545SOL     vw 6180   4.305   6.750   6.882  0.1662  0.2658  0.0908
 1546SOL     ow 6181   0.489   2.684   5.078 -0.1377  0.8101  0.5683
 1546SOL     hw 6182   0.498   2.605   5.025 -1.0807 -0.9586  2.8703
 1546SOL     hw 6183   0.451   2.749   5.019 -1.0533 -1.0116 -0.9229
 1546SOL     vw 6184   0.485   2.682   5.064 -0.3829  0.3365  0.6752
 1547SOL     ow 6185   4.419   2.577   5.287 -0.2018 -0.1573 -0.5207
 1547SOL     hw 6186   4.349   2.562   5.350 -1.3025 -0.4868 -1.7968
 1547SOL     hw 6187   4.474   2.644   5.328 -1.9201  0.9867 -0.0327
 1547SOL     vw 6188   4.417   2.584   5.301 -0.5739 -0.0499 -0.6247
 1548SOL     ow 6189   5.556   0.356   1.726 -0.6809 -0.1868  0.8606
 1548SOL     hw 6190   5.522   0.401   1.649 -1.0951  0.1645  1.2421
 1548SOL     hw 6191   5.481   0.351   1.786 -0.3632 -0.4559  1.2410
 1548SOL     vw 6192   5.541   0.361   1.724 -0.6936 -0.1760  0.9612
 1549SOL     ow 6193   5.504   7.013   3.418 -0.1732 -0.2566  0.2800
 1549SOL     hw 6194   5.506   7.034   3.325 -0.4745 -0.7561  0.1584
 1549SOL     hw 6195   5.421   7.048   3.449 -1.2119 -2.1669 -0.1588
 1549SOL     vw 6196   5.493   7.020   3.410 -0.3500 -0.5746  0.2061
 1550SOL     ow 6197   5.495   3.510   5.935 -0.7487 -0.2869 -0.3959
 1550SOL     hw 6198   5.568   3.495   5.875 -0.5314  1.1215 -0.5130
 1550SOL     hw 6199   5.519   3.462   6.015  2.8474  3.9537  1.5091
 1550SOL     vw 6200   5.508   3.502   5.938 -0.2458  0.4585 -0.1600
 1551SOL     ow 6201   3.798   1.119   5.642 -0.1965 -0.4286 -0.4077
 1551SOL     hw 6202   3.816   1.166   5.723 -1.3742  0.2692 -0.5303
 1551SOL     hw 6203   3.777   1.030   5.669  1.4173 -0.7525 -0.1252
 1551SOL     vw 6204   3.798   1.113   5.656 -0.1391 -0.3793 -0.3870
 1552SOL     ow 6205   2.334   2.887   5.761  0.0367 -0.0343 -0.3862
 1552SOL     hw 6206   2.288   2.948   5.704 -2.0171 -2.1261 -1.1246
 1552SOL     hw 6207   2.405   2.852   5.707  0.4881  0.7748 -0.3381
 1552SOL     vw 6208   2.338   2.890   5.747 -0.1748 -0.2035 -0.4773
 1553SOL     ow 6209   6.153   6.165   2.168  0.0873 -0.2959  0.5359
 1553SOL     hw 6210   6.143   6.178   2.074 -3.5621 -0.2596  0.7857
 1553SOL     hw 6211   6.203   6.241   2.198  1.2482 -0.2656 -1.3062
 1553SOL     vw 6212   6.158   6.177   2.160 -0.2410 -0.2875  0.3258
 1554SOL     ow 6213   2.462   4.332   3.659 -0.3835  0.7891 -0.0751
 1554SOL     hw 6214   2.379   4.380   3.665 -0.3855  0.5762  2.5185
 1554SOL     hw 6215   2.482   4.306   3.749  2.7173  1.1672 -0.5296
 1554SOL     vw 6216   2.454   4.335   3.672  0.0254  0.8113  0.2071
 1555SOL     ow 6217   6.461   6.500   2.100 -0.1228 -0.5041  0.1936
 1555SOL     hw 6218   6.405   6.532   2.170 -1.0248 -1.8764  0.1336
 1555SOL     hw 6219   6.400   6.476   2.030  0.5864 -1.2370 -0.1934
 1555SOL     vw 6220   6.446   6.501   2.100 -0.1483 -0.7820  0.1346
 1556SOL     ow 6221   2.670   5.689   0.196  1.0588  0.5045 -0.5085
 1556SOL     hw 6222   2.666   5.775   0.239  1.5105 -0.3890  1.4289
 1556SOL     hw 6223   2.672   5.626   0.269 -0.1996 -1.2086 -1.8654
 1556SOL     vw 6224   2.670   5.692   0.212  0.9522  0.1605 -0.4319
 1557SOL     ow 6225   6.659   5.451   1.945  0.1445 -0.1488  0.5234
 1557SOL     hw 6226   6.683   5.361   1.923 -1.9379 -0.4076 -1.0360
 1557SOL     hw 6227   6.723   5.505   1.898  0.8242 -0.7999  0.6890
 1557SOL     vw 6228   6.671   5.447   1.936 -0.0405 -0.2689  0.3394
 1558SOL     ow 6229   6.567   5.208   0.205  0.2896 -0.2970  0.0629
 1558SOL     hw 6230   6.621   5.130   0.199 -1.4825 -1.4836 -1.8220
 1558SOL     hw 6231   6.483   5.178   0.240  0.3972  1.2846  1.8431
 1558SOL     vw 6232   6.563   5.194   0.209  0.0699 -0.2449  0.0491
 1559SOL     ow 6233   0.777   5.215   2.556  0.4891 -0.2548  0.2723
 1559SOL     hw 6234   0.685   5.242   2.544  0.8249  1.5794  1.4103
 1559SOL     hw 6235   0.828   5.281   2.509  1.2516 -1.5166 -0.7362
 1559SOL     vw 6236   0.771   5.227   2.549  0.6340 -0.1793  0.2893
 1560SOL     ow 6237   5.443   1.664   1.348  0.6965 -0.3169 -0.4055
 1560SOL     hw 6238   5.480   1.577   1.360  0.5079 -0.3794 -0.2633
 1560SOL     hw 6239   5.518   1.724   1.354  0.9636 -0.5322 -1.4464
 1560SOL     vw 6240   5.457   1.661   1.350  0.7067 -0.3535 -0.5241
 1561SOL     ow 6241   4.276   1.287   0.534  0.0402  0.1745 -0.6557
 1561SOL     hw 6242   4.195   1.238   0.542  0.6321 -0.9141 -1.1679
 1561SOL     hw 6243   4.323   1.244   0.463 -0.1376  2.4940 -2.2881
 1561SOL     vw 6244   4.271   1.275   0.526  0.0949  0.3369 -0.9387
 1562SOL     ow 6245   5.095   6.571   1.356  0.3085 -0.4627  0.0171
 1562SOL     hw 6246   5.052   6.487   1.342 -0.6860 -0.0507  0.4874
 1562SOL     hw 6247   5.134   6.564   1.443 -1.5017  0.2251  0.9543
 1562SOL     vw 6248   5.094   6.559   1.365 -0.0615 -0.3178  0.2028
 1563SOL     ow 6249   3.140   1.652   1.154 -0.3112  0.5157  0.0057
 1563SOL     hw 6250   3.120   1.744   1.138 -0.1277  0.5932  0.2245
 1563SOL     hw 6251   3.142   1.613   1.066  0.2003  0.8390 -0.1298
 1563SOL     vw 6252   3.138   1.659   1.140 -0.2195  0.5686  0.0166
 1564SOL     ow 6253   1.415   5.520   0.589  0.4083 -0.4641  0.0140
 1564SOL     hw 6254   1.403   5.545   0.681 -0.3660  0.3213 -0.2826
 1564SOL     hw 6255   1.344   5.459   0.571  0.7746 -0.8987  0.0319
 1564SOL     vw 6256   1.404   5.515   0.599  0.3545 -0.4175 -0.0228
 1565SOL     ow 6257   0.202   4.730   6.943 -0.2773 -0.0987  0.1398
 1565SOL     hw 6258   0.132   4.785   6.978 -0.7193 -0.2681 -0.4620
 1565SOL     hw 6259   0.268   4.728   7.012  0.9441  3.2924 -0.7422
 1565SOL     vw 6260   0.201   4.737   6.957 -0.1745  0.3262 -0.0558
 1566SOL     ow 6261   4.873   5.718   4.587 -0.0974  0.4135 -0.1695
 1566SOL     hw 6262   4.922   5.746   4.664 -1.8655  0.4166  1.0298
 1566SOL     hw 6263   4.913   5.636   4.561  2.5051  1.8931 -1.1850
 1566SOL     vw 6264   4.884   5.711   4.594  0.0126  0.6089 -0.1452
 1567SOL     ow 6265   7.132   6.918   3.019  0.1109 -0.6526  0.2753
 1567SOL     hw 6266   7.174   6.976   2.955 -0.1708  1.9028  2.2504
 1567SOL     hw 6267   7.041   6.946   3.021  0.3482  0.1408  2.5412
 1567SOL     vw 6268   7.126   6.929   3.010  0.1051 -0.2108  0.8348
 1568SOL     ow 6269   3.108   0.246   3.291 -0.3984  0.3577  0.1713
 1568SOL     hw 6270   3.072   0.210   3.372 -0.1829  0.5565  0.3563
 1568SOL     hw 6271   3.166   0.177   3.259  0.1164  0.5880  0.5955
 1568SOL     vw 6272   3.111   0.232   3.298 -0.3020  0.4143  0.2518
 1569SOL     ow 6273   3.855   5.585   1.458  0.4023  0.4072  0.1602
 1569SOL     hw 6274   3.944   5.597   1.426  1.2024 -0.2225  2.0265
 1569SOL     hw 6275   3.864   5.576   1.553 -1.6346  0.1817  0.3866
 1569SOL     vw 6276   3.868   5.585   1.467  0.2389  0.2942  0.4363
 1570SOL     ow 6277   4.131   4.846   6.743  0.2811  0.6230 -0.3013
 1570SOL     hw 6278   4.222   4.876   6.745  1.0016 -1.4244  1.2311
 1570SOL     hw 6279   4.112   4.821   6.833 -1.9957  1.4233 -0.4996
 1570SOL     vw 6280   4.141   4.846   6.755  0.0758  0.4582 -0.1252
 1571SOL     ow 6281   1.200   1.136   3.755 -0.6349 -0.2942 -0.8996
 1571SOL     hw 6282   1.254   1.059   3.773  1.4426  0.6128 -2.8262
 1571SOL     hw 6283   1.219   1.195   3.828  0.6927 -0.1684 -1.3204
 1571SOL     vw 6284   1.210   1.134   3.767 -0.1856 -0.1579 -1.2094
 1572SOL     ow 6285   4.310   2.707   2.524 -0.0641 -0.3343 -0.1606
 1572SOL     hw 6286   4.359   2.749   2.454 -1.8151 -0.7890 -1.7621
 1572SOL     hw 6287   4.224   2.689   2.486 -1.0853 -0.6807  2.0958
 1572SOL     vw 6288   4.305   2.710   2.510 -0.4299 -0.4399 -0.0743
 1573SOL     ow 6289   0.318   3.506   2.204 -0.1650 -0.0191  0.0666
 1573SOL     hw 6290   0.362   3.588   2.229  0.5892 -0.2138 -0.5884
 1573SOL     hw 6291   0.298   3.464   2.287  0.0795  0.5032  0.3990
 1573SOL     vw 6292   0.321   3.511   2.218 -0.0332  0.0242  0.0241
 1574SOL     ow 6293   4.212   6.211   2.127 -0.2769  0.8236 -0.1740
 1574SOL     hw 6294   4.122   6.199   2.158 -0.4770  1.0869 -0.6568
 1574SOL     hw 6295   4.223   6.306   2.121  0.4290  0.8525  1.0340
 1574SOL     vw 6296   4.202   6.222   2.131 -0.2100  0.8621 -0.0783
 1575SOL     ow 6297   5.632   3.040   1.438  0.2920  0.5302 -0.6276
 1575SOL     hw 6298   5.631   2.992   1.521  1.8162 -0.2027 -0.9958
 1575SOL     hw 6299   5.644   2.972   1.371  1.8132  1.3087 -1.2060
 1575SOL     vw 6300   5.634   3.025   1.440  0.6938  0.5362 -0.7526
 1576SOL     ow 6301   3.993   2.947   0.470  0.1144 -0.5295 -0.4247
 1576SOL     hw 6302   3.923   2.946   0.534 -1.4748 -1.1929 -2.0937
 1576SOL     hw 6303   3.949   2.938   0.385  1.8598  2.9395 -1.9154
 1576SOL     vw 6304   3.978   2.946   0.467  0.1351 -0.1593 -0.8416
 1577SOL     ow 6305   4.465   6.351   6.970 -0.6228  0.5623  0.4276
 1577SOL     hw 6306   4.479   6.347   6.876 -0.4027 -0.9735  0.5058
 1577SOL     hw 6307   4.371   6.368   6.980 -0.7829 -0.0313 -0.0628
 1577SOL     vw 6308   4.454   6.353   6.959 -0.6151  0.2816  0.3736
 1578SOL     ow 6309   3.806   6.502   6.452 -0.1629  1.5156 -0.1672
 1578SOL     hw 6310   3.881   6.521   6.508 -1.1641  0.4076  1.6369
 1578SOL     hw 6311   3.813   6.565   6.380  0.9799  3.2421  1.3620
 1578SOL     vw 6312   3.817   6.513   6.450 -0.1444  1.5972  0.2725
 1579SOL     ow 6313   3.056   3.940   6.580 -0.0936 -0.0764  0.1028
 1579SOL     hw 6314   3.119   3.919   6.649  0.2422  0.4585 -0.0329
 1579SOL     hw 6315   3.016   3.856   6.558 -2.3849  0.1049  2.9804
 1579SOL     vw 6316   3.059   3.926   6.586 -0.3515  0.0181  0.4642
 1580SOL     ow 6317   6.260   2.293   4.385 -0.1063 -0.2779  0.1790
 1580SOL     hw 6318   6.225   2.332   4.305 -1.5537 -1.4744  0.2018
 1580SOL     hw 6319   6.353   2.281   4.367 -0.4564 -0.7750 -1.4380
 1580SOL     vw 6320   6.268   2.297   4.372 -0.3436 -0.5014 -0.0312
 1581SOL     ow 6321   0.332   6.145   5.038 -0.3885 -0.3858 -0.2710
 1581SOL     hw 6322   0.248   6.135   5.084 -0.1690  2.9260  1.1900
 1581SOL     hw 6323   0.397   6.145   5.107  1.0437 -3.7325 -1.4582
 1581SOL     vw 6324   0.329   6.144   5.053 -0.1706 -0.3903 -0.2351
 1582SOL     ow 6325   2.680   2.429   5.360 -0.4681  0.0150  0.1446
 1582SOL     hw 6326   2.717   2.470   5.438  1.4847  2.1339 -1.7726
 1582SOL     hw 6327   2.596   2.474   5.346  0.7322  2.0943 -0.7960
 1582SOL     vw 6328   2.674   2.440   5.368 -0.0520  0.5689 -0.2325
 1583SOL     ow 6329   1.825   3.775   5.265  0.3602  1.4422  0.0195
 1583SOL     hw 6330   1.864   3.748   5.182 -0.0692 -0.0280  0.2795
 1583SOL     hw 6331   1.821   3.871   5.259  1.2450  1.4228 -1.2360
 1583SOL     vw 6332   1.829   3.784   5.253  0.4203  1.2455 -0.1118
 1584SOL     ow 6333   4.212   6.671   0.504  0.2379  0.1225 -0.5153
 1584SOL     hw 6334   4.295   6.632   0.531 -0.3194 -0.7118  0.0273
 1584SOL     hw 6335   4.157   6.668   0.582 -0.8876 -0.9250 -1.3177
 1584SOL     vw 6336   4.215   6.666   0.518  0.0162 -0.1259 -0.5495
 1585SOL     ow 6337   1.392   5.269   1.684  0.6917  0.1415 -0.0770
 1585SOL     hw 6338   1.418   5.183   1.716  1.8215  0.9790  1.4108
 1585SOL     hw 6339   1.470   5.324   1.698 -0.6496  1.8824  0.9321
 1585SOL     vw 6340   1.406   5.265   1.690  0.6638  0.4814  0.2524
 1586SOL     ow 6341   1.922   0.314   6.345  0.1321  0.7456 -0.1685
 1586SOL     hw 6342   1.889   0.259   6.274 -0.3186 -1.1381  1.4026
 1586SOL     hw 6343   1.868   0.393   6.341 -2.5795 -0.9432  0.3934
 1586SOL     vw 6344   1.911   0.317   6.335 -0.2852  0.2743  0.1128
 1587SOL     ow 6345   4.876   5.192   6.730  0.9568 -0.6107  0.2602
 1587SOL     hw 6346   4.788   5.224   6.750  0.0194 -0.4551 -3.3317
 1587SOL     hw 6347   4.922   5.269   6.698  1.5041 -1.2086 -0.4119
 1587SOL     vw 6348   4.870   5.207   6.728  0.9053 -0.6688 -0.3023
 1588SOL     ow 6349   3.480   0.002   3.982  0.0402 -0.6291 -0.5604
 1588SOL     hw 6350   3.396  -0.023   4.020  0.4426  0.1419  0.8984
 1588SOL     hw 6351   3.542  -0.003   4.055  1.2403 -0.9824 -1.5572
 1588SOL     vw 6352   3.477  -0.002   3.997  0.2517 -0.5739 -0.4995
 1589SOL     ow 6353   5.937   1.281   5.598  0.3211  0.1784 -0.4180
 1589SOL     hw 6354   6.000   1.284   5.670  0.1908 -0.5850 -0.2615
 1589SOL     hw 6355   5.870   1.219   5.627 -0.3156  0.7101 -0.7339
 1589SOL     vw 6356   5.936   1.273   5.611  0.2198  0.1478 -0.4389
 1590SOL     ow 6357   5.196   6.825   3.638 -0.2701  0.7038  0.0478
 1590SOL     hw 6358   5.110   6.837   3.598 -0.5752 -1.5503 -0.0798
 1590SOL     hw 6359   5.243   6.905   3.616 -2.4220  2.1708  0.4420
 1590SOL     vw 6360   5.191   6.837   3.630 -0.5941  0.6001  0.0830
 1591SOL     ow 6361   0.376   3.553   0.693 -0.1025 -0.3428 -0.4033
 1591SOL     hw 6362   0.353   3.644   0.715  1.4785 -0.0876  0.3308
 1591SOL     hw 6363   0.377   3.508   0.778  0.9460 -0.5923 -0.5364
 1591SOL     vw 6364   0.373   3.559   0.707  0.2445 -0.3420 -0.3240
 1592SOL     ow 6365   2.884   6.811   1.673 -0.1876 -0.0355  1.1187
 1592SOL     hw 6366   2.882   6.885   1.734 -1.7478  0.9964 -0.0931
 1592SOL     hw 6367   2.833   6.841   1.598  2.0308 -1.0754 -0.9363
 1592SOL     vw 6368   2.877   6.825   1.672 -0.1006 -0.0367  0.6877
 1593SOL     ow 6369   2.505   7.020   0.105 -0.2403  0.4073 -0.2771
 1593SOL     hw 6370   2.551   7.073   0.040  1.1204 -1.0105 -0.5461
 1593SOL     hw 6371   2.523   7.063   0.189  1.2881  0.1082 -0.4294
 1593SOL     vw 6372   2.513   7.032   0.108  0.1409  0.1805 -0.3327
 1594SOL     ow 6373   6.417   0.501   3.363  0.4611 -0.7672 -0.0536
 1594SOL     hw 6374   6.438   0.582   3.316  0.0526 -0.6384 -0.0151
 1594SOL     hw 6375   6.351   0.458   3.309 -0.4203 -0.3529  0.6679
 1594SOL     vw 6376   6.411   0.506   3.350  0.2909 -0.6955  0.0467
 1595SOL     ow 6377   3.681   6.268   0.953 -0.1989 -0.6304  0.0085
 1595SOL     hw 6378   3.750   6.242   0.892 -0.5349  1.7458 -1.5060
 1595SOL     hw 6379   3.727   6.288   1.034  0.8147  0.1027 -0.7208
 1595SOL     vw 6380   3.696   6.267   0.956 -0.1094 -0.2201 -0.2875
 1596SOL     ow 6381   2.641   6.242   0.970  0.3024 -0.1478 -0.1154
 1596SOL     hw 6382   2.712   6.301   0.996 -0.7055  0.0760  2.4122
 1596SOL     hw 6383   2.667   6.156   1.005 -0.5830 -0.0885  0.7302
 1596SOL     vw 6384   2.654   6.238   0.978  0.0525 -0.1106  0.3296
 1597SOL     ow 6385   5.592   1.574   1.863 -0.3327 -0.6167  0.0889
 1597SOL     hw 6386   5.513   1.548   1.814 -2.0829 -1.2015  2.9672
 1597SOL     hw 6387   5.658   1.510   1.837 -0.7940 -0.2410 -2.2654
 1597SOL     vw 6388   5.590   1.562   1.853 -0.6244 -0.6442  0.1580
 1598SOL     ow 6389   0.577   5.488   2.821  0.8251 -0.0239  0.2512
 1598SOL     hw 6390   0.599   5.556   2.886 -1.0876  0.0855  0.8425
 1598SOL     hw 6391   0.533   5.536   2.751 -1.5441 -0.7244  1.1755
 1598SOL     vw 6392   0.574   5.504   2.820  0.2601 -0.1016  0.4512
 1599SOL     ow 6393   3.497   7.078   0.638 -0.0783 -0.0052 -0.3528
 1599SOL     hw 6394   3.486   7.058   0.732 -1.6491  1.7984 -0.0949
 1599SOL     hw 6395   3.531   6.996   0.601  0.1804 -0.9121  1.7066
 1599SOL     vw 6396   3.500   7.064   0.646 -0.2515  0.1132 -0.0470
 1600SOL     ow 6397   4.590   2.466   5.002  0.0828 -0.4175 -0.8494
 1600SOL     hw 6398   4.537   2.540   4.971  0.3128 -0.6886 -1.9284
 1600SOL     hw 6399   4.638   2.437   4.924  3.0073  0.7476  0.3536
 1600SOL     vw 6400   4.589   2.472   4.988  0.4990 -0.2995 -0.8330
 1601SOL     ow 6401   5.272   4.492   6.910  0.8080 -0.0957 -0.7994
 1601SOL     hw 6402   5.295   4.452   6.826 -3.1478 -0.6279 -1.8259
 1601SOL     hw 6403   5.237   4.578   6.887 -1.1358 -0.5740  0.1043
 1601SOL     vw 6404   5.270   4.498   6.896  0.0296 -0.2291 -0.8154
 1602SOL     ow 6405   5.989   2.222   0.242  0.1431  0.2485 -0.6855
 1602SOL     hw 6406   5.896   2.219   0.265 -0.6276 -0.4763 -3.4719
 1602SOL     hw 6407   6.017   2.310   0.267 -0.4343 -0.3871  2.7659
 1602SOL     vw 6408   5.981   2.233   0.248 -0.0348  0.0691 -0.5977
 1603SOL     ow 6409   2.181   2.420   2.633 -0.2314  0.1975  0.4723
 1603SOL     hw 6410   2.262   2.470   2.634  0.8268 -1.3947  1.9088
 1603SOL     hw 6411   2.208   2.332   2.607 -1.1760 -0.7619  2.4812
 1603SOL     vw 6412   2.196   2.415   2.630 -0.2165 -0.1391  0.9269
 1604SOL     ow 6413   2.610   6.580   4.850 -0.2367  0.3819  0.0756
 1604SOL     hw 6414   2.632   6.505   4.795 -1.2523  0.3563 -0.3149
 1604SOL     hw 6415   2.695   6.618   4.874  0.2426  0.1093 -1.1184
 1604SOL     vw 6416   2.624   6.575   4.846 -0.3074  0.3424 -0.1335
 1605SOL     ow 6417   6.663   2.389   3.929  0.1478 -0.0219  0.9267
 1605SOL     hw 6418   6.639   2.308   3.972 -0.0519  0.2551  1.3461
 1605SOL     hw 6419   6.615   2.457   3.977 -2.9656  0.0166 -1.8606
 1605SOL     vw 6420   6.653   2.388   3.941 -0.2894  0.0197  0.6143
 1606SOL     ow 6421   3.434   6.520   5.881 -0.1055 -0.0643 -0.0553
 1606SOL     hw 6422   3.409   6.592   5.940 -0.5161  0.5989 -1.0147
 1606SOL     hw 6423   3.510   6.481   5.923  0.9274  1.7403 -0.1394
 1606SOL     vw 6424   3.441   6.524   5.894 -0.0235  0.2611 -0.1929
 1607SOL     ow 6425   5.612   1.546   3.206 -0.4323 -0.4293 -0.0289
 1607SOL     hw 6426   5.606   1.470   3.149 -0.9838 -0.5157  0.1346
 1607SOL     hw 6427   5.602   1.511   3.295 -1.3565 -0.1054  0.0116
 1607SOL     vw 6428   5.610   1.532   3.210 -0.6270 -0.3979 -0.0019
 1608SOL     ow 6429   6.291   0.089   6.248 -0.2359  0.6380 -0.2056
 1608SOL     hw 6430   6.342   0.097   6.168  2.0587 -3.2163  0.6013
 1608SOL     hw 6431   6.208   0.050   6.220 -0.0907  0.7772 -0.8432
 1608SOL     vw 6432   6.287   0.085   6.234  0.0858  0.1478 -0.1836
 1609SOL     ow 6433   3.799   5.079   4.558  0.7628  0.2216  0.0703
 1609SOL     hw 6434   3.852   5.090   4.637 -0.1824 -0.9548  0.9046
 1609SOL     hw 6435   3.722   5.135   4.573  0.2552 -0.5230  0.3117
 1609SOL     vw 6436   3.795   5.088   4.570  0.5713 -0.0317  0.2122
 1610SOL     ow 6437   2.916   6.463   1.610 -0.0999  0.1085  0.1072
 1610SOL     hw 6438   2.915   6.387   1.667 -0.2803  0.4068  0.5106
 1610SOL     hw 6439   2.910   6.428   1.521  1.4660 -0.4387  0.1895
 1610SOL     vw 6440   2.915   6.449   1.606  0.0829  0.0761  0.1712
 1611SOL     ow 6441   4.172   4.580   0.505  0.1689 -0.0655 -0.1767
 1611SOL     hw 6442   4.148   4.583   0.412 -1.9073  0.1821  0.3038
 1611SOL     hw 6443   4.141   4.494   0.535 -1.0574  0.6311  0.6839
 1611SOL     vw 6444   4.164   4.569   0.497 -0.2670  0.0589  0.0003
 1612SOL     ow 6445   2.081   2.459   0.887  0.9521 -0.3493  0.0220
 1612SOL     hw 6446   2.088   2.539   0.835  1.6194 -0.1276  0.4436
 1612SOL     hw 6447   2.115   2.390   0.829 -2.3693 -0.8933 -1.4919
 1612SOL     vw 6448   2.087   2.460   0.872  0.6019 -0.3918 -0.1221
 1613SOL     ow 6449   1.299   1.664   2.914 -0.2063  0.3915 -0.4481
 1613SOL     hw 6450   1.270   1.592   2.970  1.0903 -0.1655 -0.4548
 1613SOL     hw 6451   1.360   1.713   2.968 -0.9713  1.4169 -0.4972
 1613SOL     vw 6452   1.303   1.661   2.928 -0.1361  0.4534 -0.4554
 1614SOL     ow 6453   1.797   6.349   5.467 -0.5615  0.3909  0.5479
 1614SOL     hw 6454   1.720   6.293   5.456 -1.1513  1.2601  0.0949
 1614SOL     hw 6455   1.868   6.288   5.487 -0.8470 -0.6933 -1.4451
 1614SOL     vw 6456   1.796   6.333   5.468 -0.6770  0.3626  0.2253
 1615SOL     ow 6457   5.223   5.362   2.954  0.3167 -0.5387 -0.0343
 1615SOL     hw 6458   5.135   5.344   2.989  0.2539  1.9204  1.3316
 1615SOL     hw 6459   5.280   5.302   3.002 -0.3210 -0.3447  1.0063
 1615SOL     vw 6460   5.219   5.352   2.965  0.2241 -0.1884  0.2832
 1616SOL     ow 6461   0.505   5.247   2.630  0.1987  0.3982 -0.3973
 1616SOL     hw 6462   0.507   5.325   2.685 -1.3802  0.2089 -0.0060
 1616SOL     hw 6463   0.466   5.179   2.685 -1.2721  0.1597 -1.6542
 1616SOL     vw 6464   0.500   5.248   2.645 -0.2037  0.3419 -0.5114
 1617SOL     ow 6465   2.402   6.288   5.937 -0.2578 -0.4742 -0.4889
 1617SOL     hw 6466   2.320   6.284   5.889 -1.6082  1.2313  1.4701
 1617SOL     hw 6467   2.386   6.239   6.018  0.7609 -0.3613 -0.1932
 1617SOL     vw 6468   2.389   6.281   5.941 -0.3015 -0.2341 -0.1915
 1618SOL     ow 6469   4.054   0.806   1.251 -0.1433 -0.2392 -0.6563
 1618SOL     hw 6470   3.970   0.849   1.270  0.8129  1.5147 -0.1559
 1618SOL     hw 6471   4.117   0.878   1.247  1.4028 -1.5427 -0.7467
 1618SOL     vw 6472   4.051   0.821   1.253  0.1872 -0.1797 -0.6021
 1619SOL     ow 6473   5.265   3.490   5.773 -0.1120  0.2377 -0.3585
 1619SOL     hw 6474   5.239   3.403   5.742 -1.1887  0.6537 -0.6416
 1619SOL     hw 6475   5.299   3.534   5.696  0.3707  0.1074 -0.2280
 1619SOL     vw 6476   5.266   3.484   5.759 -0.1903  0.2754 -0.3786
 1620SOL     ow 6477   0.388   1.485   4.479  0.5409 -0.7426 -0.2463
 1620SOL     hw 6478   0.385   1.404   4.530 -0.2450  0.0534  1.0376
 1620SOL     hw 6479   0.362   1.459   4.390  1.1017 -2.0180 -0.0578
 1620SOL     vw 6480   0.384   1.471   4.474  0.5112 -0.8058 -0.0522
 1621poe    c31 6481   0.404   4.168   5.027  0.1615  0.4471 -0.2627
 1621poe     o2 6482   0.341   4.275   5.095 -0.1635  0.1656 -0.1194
 1621poe    c23 6483   0.296   4.375   5.007  0.0038  0.1747 -0.1948
 1621poe    c23 6484   0.280   4.508   5.083 -0.0297  0.2980 -0.4158
 1621poe     o2 6485   0.210   4.482   5.203 -0.3150  0.5765 -0.5189
 1621poe    c23 6486   0.168   4.607   5.252  0.4550  0.4146  0.5873
 1621poe    c23 6487   0.122   4.574   5.396 -0.0317 -0.1591  0.3023
 1621poe     o2 6488   0.010   4.488   5.392 -0.0532 -0.1229  0.0976
 1621poe    c23 6489  -0.032   4.460   5.524 -0.0910 -0.3301  0.0418
 1621poe    c23 6490  -0.122   4.336   5.543 -0.2643 -0.2691 -0.3664
 1621poe     o2 6491  -0.075   4.217   5.484  0.0529  0.0153 -0.6986
 1621poe    c31 6492  -0.142   4.099   5.523 -0.2262  0.1179 -0.8706
 1622poe    c31 6493   5.419   3.938   1.618  0.4241 -0.5270 -0.5839
 1622poe     o2 6494   5.322   4.030   1.573  0.4350 -0.3778 -0.3057
 1622poe    c23 6495   5.194   3.972   1.584  0.6298 -0.7056  0.2659
 1622poe    c23 6496   5.078   4.071   1.566  0.9953 -0.4002 -0.4723
 1622poe     o2 6497   5.061   4.102   1.430 -0.5934 -0.0589 -0.2176
 1622poe    c23 6498   4.940   4.174   1.416 -0.6869 -0.1674  0.0333
 1622poe    c23 6499   4.937   4.204   1.265 -0.0410 -0.3648 -0.0210
 1622poe     o2 6500   5.061   4.254   1.221 -0.3424  0.6237  0.2259
 1622poe    c23 6501   5.087   4.238   1.083 -0.4655 -0.1649  0.2871
 1622poe    c23 6502   5.220   4.303   1.042 -0.5368 -0.1983  0.0010
 1622poe     o2 6503   5.317   4.220   1.102 -0.2020  0.2834  0.1365
 1622poe    c31 6504   5.443   4.283   1.097 -0.1402  0.1290 -0.4139
 1623poe    c31 6505   0.781   1.186   6.330  0.7102  0.4332 -0.0630
 1623poe     o2 6506   0.782   1.103   6.216  0.0436 -0.6572  0.7033
 1623poe    c23 6507   0.662   1.055   6.160 -0.4461 -0.0068  1.1848
 1623poe    c23 6508   0.704   0.951   6.055 -0.4617  0.6669  0.4967
 1623poe     o2 6509   0.819   0.995   5.987 -0.4788  0.1960  0.1519
 1623poe    c23 6510   0.857   0.901   5.890 -0.6314  0.0490  0.2338
 1623poe    c23 6511   0.974   0.965   5.811 -0.7921  0.3982  0.2763
 1623poe     o2 6512   1.070   1.017   5.900  0.6314 -0.9968 -0.3948
 1623poe    c23 6513   1.170   1.086   5.828  0.3611 -0.1469  0.0370
 1623poe    c23 6514   1.264   1.146   5.935  0.1375  1.1000 -0.4400
 1623poe     o2 6515   1.204   1.239   6.022 -0.0838  0.6915 -0.1482
 1623poe    c31 6516   1.288   1.255   6.134 -0.0953  0.5651 -0.1213
 1624poe    c31 6517   1.502   3.703   1.946  0.2838 -0.2151 -0.3259
 1624poe     o2 6518   1.566   3.577   1.956 -0.0998 -0.3997 -0.1705
 1624poe    c23 6519   1.555   3.503   1.836 -0.1927 -0.4959 -0.1025
 1624poe    c23 6520   1.562   3.349   1.845 -0.4936 -0.4906  0.2370
 1624poe     o2 6521   1.460   3.292   1.924 -0.6276 -0.1472  0.3165
 1624poe    c23 6522   1.447   3.155   1.893 -0.0540 -0.1892  0.2509
 1624poe    c23 6523   1.319   3.102   1.961  0.1882 -0.8418  0.2113
 1624poe     o2 6524   1.302   3.167   2.085  0.2618 -0.2681 -0.0733
 1624poe    c23 6525   1.200   3.089   2.143  0.3211  0.1522  0.5976
 1624poe    c23 6526   1.148   3.142   2.278 -0.4550  0.0519  0.3465
 1624poe     o2 6527   1.070   3.256   2.253  0.0364  0.2994 -0.0782
 1624poe    c31 6528   1.000   3.283   2.372  0.2895  0.5837  0.0057
 1625poe    c31 6529   0.209   0.245   5.571 -0.3676  0.1785  0.5041
 1625poe     o2 6530   0.318   0.267   5.486 -0.3043 -0.6229  0.3771
 1625poe    c23 6531   0.391   0.147   5.497  0.1414 -0.3926 -0.0026
 1625poe    c23 6532   0.475   0.130   5.369  0.0733 -0.7386 -0.0024
 1625poe     o2 6533   0.398   0.184   5.264  0.3117 -0.3110  0.0440
 1625poe    c23 6534   0.466   0.166   5.141  0.4456  0.4998 -0.0068
 1625poe    c23 6535   0.429   0.297   5.069 -0.3059  0.2683 -0.0477
 1625poe     o2 6536   0.442   0.407   5.155  0.3188  0.1027  0.0734
 1625poe    c23 6537   0.404   0.533   5.104 -0.2049 -0.0235  0.1432
 1625poe    c23 6538   0.389   0.619   5.231 -0.2760 -0.2015  0.2551
 1625poe     o2 6539   0.313   0.544   5.323 -0.2307  0.0779  0.5223
 1625poe    c31 6540   0.285   0.611   5.443 -0.3415  0.5731  0.2235
 1626poe    c31 6541   2.088   2.422   3.991  0.2536  0.2219 -0.1751
 1626poe     o2 6542   2.202   2.387   3.915  0.3588  0.0918  0.0435
 1626poe    c23 6543   2.215   2.247   3.918 -0.1605  0.0359 -0.2147
 1626poe    c23 6544   2.364   2.209   3.910 -0.0288  0.5649 -0.2830
 1626poe     o2 6545   2.443   2.233   4.025  0.0484  0.8837 -0.4018
 1626poe    c23 6546   2.548   2.140   4.017 -0.2174  0.5380  0.1001
 1626poe    c23 6547   2.657   2.145   4.126 -0.2265  0.4051  0.1153
 1626poe     o2 6548   2.725   2.268   4.124 -0.3362  0.4630 -0.0305
 1626poe    c23 6549   2.854   2.250   4.178 -0.4193  0.0906  0.0428
 1626poe    c23 6550   2.955   2.365   4.167 -0.3981  0.0313 -0.4409
 1626poe     o2 6551   2.883   2.483   4.197 -0.3297  0.0191 -0.2270
 1626poe    c31 6552   2.957   2.564   4.285 -0.3617 -0.1445 -0.0470
 1627poe    c31 6553   3.973   3.867   1.657 -0.2547  0.1917  0.0993
 1627poe     o2 6554   4.070   3.952   1.714 -0.2811 -0.0135  0.4492
 1627poe    c23 6555   4.011   4.065   1.774 -0.3122  0.4194 -0.3966
 1627poe    c23 6556   4.128   4.142   1.838 -0.1068 -0.2938  0.0932
 1627poe     o2 6557   4.219   4.067   1.916  0.3484  0.2307  0.0690
 1627poe    c23 6558   4.333   4.142   1.951  0.4614  0.0413  0.1069
 1627poe    c23 6559   4.462   4.058   1.951  0.6057  0.2633  0.2977
 1627poe     o2 6560   4.476   3.989   1.830 -0.3367  0.5498  0.0184
 1627poe    c23 6561   4.596   3.916   1.816 -0.7161  0.0258 -0.5879
 1627poe    c23 6562   4.636   3.880   1.672 -0.0265 -0.5834 -0.2509
 1627poe     o2 6563   4.535   3.793   1.626 -0.1604 -0.2625 -0.5681
 1627poe    c31 6564   4.574   3.748   1.499  0.3756  0.0506 -0.5157
 1628poe    c31 6565   3.969   5.245   1.888 -0.3506 -0.4582  0.2111
 1628poe     o2 6566   3.896   5.131   1.852 -0.3879 -0.2593 -0.3521
 1628poe    c23 6567   3.774   5.178   1.798 -0.2879  0.5045  0.0667
 1628poe    c23 6568   3.725   5.067   1.702  0.2386 -0.1029  0.4894
 1628poe     o2 6569   3.755   4.944   1.764  0.8024 -0.3375 -0.2368
 1628poe    c23 6570   3.698   4.837   1.693  0.0028  0.2006 -0.4245
 1628poe    c23 6571   3.731   4.711   1.777 -0.4548  0.2808 -0.1221
 1628poe     o2 6572   3.868   4.714   1.809 -0.5773 -0.4430  0.4931
 1628poe    c23 6573   3.947   4.615   1.748 -0.1822 -0.1029  0.4498
 1628poe    c23 6574   4.093   4.597   1.793 -0.0431 -0.2132 -0.0360
 1628poe     o2 6575   4.150   4.726   1.792 -0.0050 -0.2275  0.3582
 1628poe    c31 6576   4.284   4.730   1.839 -0.0091  0.0401  0.3472
 1629poe    c31 6577   0.778   2.341   5.198  0.7030  0.4861 -0.0932
 1629poe     o2 6578   0.834   2.397   5.081 -0.1774  0.1049 -0.7085
 1629poe    c23 6579   0.952   2.346   5.023  0.1772  0.2207 -0.1094
 1629poe    c23 6580   1.030   2.451   4.942 -0.0740 -0.1843 -0.8842
 1629poe     o2 6581   1.051   2.555   5.035 -0.6604 -0.6465 -0.2269
 1629poe    c23 6582   1.152   2.643   4.992  0.0759 -1.0867  0.5713
 1629poe    c23 6583   1.173   2.748   5.103 -0.0427  0.4745 -0.8321
 1629poe     o2 6584   1.057   2.827   5.104 -0.2908  0.1126 -0.7320
 1629poe    c23 6585   1.073   2.949   5.173 -0.1640 -0.4354  0.2280
 1629poe    c23 6586   0.971   2.985   5.282 -0.0477  0.3745  0.0785
 1629poe     o2 6587   0.976   2.877   5.373 -0.0983 -0.3493 -0.7691
 1629poe    c31 6588   0.930   2.925   5.497  0.5182 -0.1608 -0.6101
 1630poe    c31 6589   6.613   2.476   1.925  0.2195  0.4141 -0.3496
 1630poe     o2 6590   6.588   2.467   2.063 -0.3033  0.3023 -0.4512
 1630poe    c23 6591   6.464   2.510   2.115 -0.0812  0.7212 -0.2621
 1630poe    c23 6592   6.460   2.493   2.268  0.4188  0.6499 -0.2559
 1630poe     o2 6593   6.447   2.615   2.337  0.0276  0.4643 -0.0009
 1630poe    c23 6594   6.316   2.638   2.384 -0.1955 -0.1423 -0.3178
 1630poe    c23 6595   6.322   2.649   2.538  0.2449  0.1567 -0.3573
 1630poe     o2 6596   6.390   2.771   2.557 -0.0089  0.2109  0.2237
 1630poe    c23 6597   6.400   2.825   2.686 -0.3052  0.4437  0.1511
 1630poe    c23 6598   6.515   2.928   2.701 -0.0970  0.2331  0.0005
 1630poe     o2 6599   6.515   3.036   2.611 -0.1511  0.1134 -0.1437
 1630poe    c31 6600   6.647   3.058   2.565 -0.1620  0.8554  0.1673
 1631poe    c31 6601   3.128   5.076   6.333 -1.5990  0.5747  0.0948
 1631poe     o2 6602   3.198   5.198   6.342  1.0321 -0.8690  0.1163
 1631poe    c23 6603   3.224   5.242   6.473 -0.1575 -0.4076  0.2099
 1631poe    c23 6604   3.310   5.370   6.467  0.4708 -0.8460 -0.3348
 1631poe     o2 6605   3.228   5.474   6.417  0.3419 -0.7291  0.1179
 1631poe    c23 6606   3.277   5.601   6.381  0.2778 -0.6870  0.1780
 1631poe    c23 6607   3.351   5.597   6.246 -0.1494  0.3015 -0.0939
 1631poe     o2 6608   3.258   5.590   6.141 -0.3553 -0.8598  0.1451
 1631poe    c23 6609   3.332   5.589   6.021 -0.2972  0.3799  0.1490
 1631poe    c23 6610   3.242   5.612   5.898 -0.1801  0.1287  0.0141
 1631poe     o2 6611   3.125   5.535   5.918 -0.0489 -0.1338 -0.2242
 1631poe    c31 6612   3.020   5.587   5.840 -0.5706 -0.4184  0.2812
 1632poe    c31 6613   5.791   4.118   4.706 -0.1302 -0.2057  0.6040
 1632poe     o2 6614   5.770   4.091   4.569  0.4904  0.6148  0.3386
 1632poe    c23 6615   5.638   4.043   4.555  0.9331 -0.4617 -0.3165
 1632poe    c23 6616   5.615   4.018   4.405 -0.1506  0.8827 -0.3979
 1632poe     o2 6617   5.480   3.999   4.371 -0.2852  0.1447  0.5200
 1632poe    c23 6618   5.480   3.964   4.235  0.3371 -0.3819  0.6499
 1632poe    c23 6619   5.367   3.866   4.197  0.1769 -0.2018  0.6626
 1632poe     o2 6620   5.239   3.925   4.196  0.2753  0.0154 -0.4845
 1632poe    c23 6621   5.136   3.831   4.174  0.2425 -0.0137 -0.2042
 1632poe    c23 6622   5.106   3.800   4.027  0.6026 -0.1881 -0.2427
 1632poe     o2 6623   5.090   3.901   3.930 -0.0746 -0.2997 -0.2533
 1632poe    c31 6624   5.171   3.887   3.815  0.1814 -0.1496 -0.0904
 1633poe    c31 6625   3.976   5.668   0.908  0.7049 -0.4732  0.2215
 1633poe     o2 6626   3.850   5.606   0.896  0.4124  0.1278  0.1561
 1633poe    c23 6627   3.799   5.525   0.999  0.1842  0.0755  0.0025
 1633poe    c23 6628   3.651   5.515   0.959  0.3065  1.0639 -0.7011
 1633poe     o2 6629   3.644   5.468   0.826  0.3735 -0.7045 -0.0944
 1633poe    c23 6630   3.529   5.385   0.821 -0.5847  0.5885  0.0372
 1633poe    c23 6631   3.496   5.342   0.677  0.1955 -0.2607  0.1059
 1633poe     o2 6632   3.517   5.452   0.592 -0.1807 -0.1923  0.0989
 1633poe    c23 6633   3.399   5.506   0.537 -0.0836 -0.4900 -0.4110
 1633poe    c23 6634   3.440   5.622   0.445  0.3688  0.1239  0.5499
 1633poe     o2 6635   3.517   5.721   0.510  0.2098  0.1203  0.7412
 1633poe    c31 6636   3.512   5.838   0.431  0.0368 -0.2031  0.2678
 1634poe    c31 6637   3.385   5.597   4.272 -0.1835 -0.5434  0.0117
 1634poe     o2 6638   3.483   5.663   4.349 -0.3965  0.1071 -0.2600
 1634poe    c23 6639   3.609   5.643   4.289 -0.1803 -0.1352  0.2643
 1634poe    c23 6640   3.699   5.703   4.399 -0.0796  0.0335  0.0902
 1634poe     o2 6641   3.637   5.818   4.451 -0.0827  0.1850 -0.2488
 1634poe    c23 6642   3.703   5.889   4.553 -0.4575  0.0903  0.0604
 1634poe    c23 6643   3.662   6.032   4.594  0.1455  0.3602 -0.2694
 1634poe     o2 6644   3.530   6.027   4.642  0.1138  0.0861 -0.3787
 1634poe    c23 6645   3.499   6.145   4.714  0.0553 -0.4464  0.4750
 1634poe    c23 6646   3.347   6.135   4.736 -0.0224 -0.4944 -0.0628
 1634poe     o2 6647   3.267   6.164   4.623 -0.1489 -0.0049  0.1465
 1634poe    c31 6648   3.134   6.192   4.660 -0.3431 -0.2375 -0.3644
 1635poe    c31 6649   4.379   6.470   0.708  0.0253 -1.3536 -0.1871
 1635poe     o2 6650   4.387   6.496   0.570 -0.0464 -0.0212  0.0465
 1635poe    c23 6651   4.314   6.394   0.505 -0.0601 -0.1856  0.3211
 1635poe    c23 6652   4.335   6.398   0.352 -0.0039  0.1475  0.3367
 1635poe     o2 6653   4.277   6.515   0.298 -0.5907 -0.4221 -0.2834
 1635poe    c23 6654   4.318   6.524   0.163  0.6492  0.3876  0.1313
 1635poe    c23 6655   4.295   6.668   0.113 -0.1624  0.2555  0.1140
 1635poe     o2 6656   4.172   6.719   0.162 -0.1028  0.3140  0.2033
 1635poe    c23 6657   4.160   6.857   0.138  0.1019  0.2394 -0.3571
 1635poe    c23 6658   4.017   6.902   0.177 -0.0151 -0.2306 -0.2317
 1635poe     o2 6659   3.984   6.886   0.313 -0.6168  0.0001 -0.3479
 1635poe    c31 6660   3.963   7.007   0.381  0.7860 -0.2353  0.5515
 1636poe    c31 6661   3.987   0.693   3.079 -0.4444 -0.1777 -0.8935
 1636poe     o2 6662   4.098   0.609   3.096 -0.4071 -0.0534 -0.5028
 1636poe    c23 6663   4.194   0.664   3.008  0.0728  0.4334  0.3108
 1636poe    c23 6664   4.300   0.555   2.991 -0.0493  0.3499  0.0853
 1636poe     o2 6665   4.321   0.513   3.124  0.1762  0.2629  0.0238
 1636poe    c23 6666   4.433   0.428   3.132 -0.1232 -0.1592 -0.2245
 1636poe    c23 6667   4.484   0.389   3.272 -0.0583 -0.4083 -0.3175
 1636poe     o2 6668   4.388   0.332   3.358  0.4130  0.0086  0.4935
 1636poe    c23 6669   4.414   0.353   3.495  1.1309  0.0223  0.3556
 1636poe    c23 6670   4.318   0.295   3.600  0.1643  0.3480 -0.3408
 1636poe     o2 6671   4.190   0.354   3.607 -0.0844 -0.1381 -0.7013
 1636poe    c31 6672   4.120   0.285   3.707  0.2816  0.1649 -0.2345
 1637poe    c31 6673   4.368   4.905   1.302  0.4879  0.2763  0.3632
 1637poe     o2 6674   4.399   4.770   1.328  0.0356  0.0291 -0.3520
 1637poe    c23 6675   4.310   4.680   1.265 -0.1510 -0.1644  0.1827
 1637poe    c23 6676   4.332   4.540   1.326  0.0845 -0.2892 -0.1874
 1637poe     o2 6677   4.464   4.492   1.334  0.3106  0.3368 -0.1187
 1637poe    c23 6678   4.519   4.404   1.238  0.0856  0.0777 -0.0130
 1637poe    c23 6679   4.505   4.423   1.086 -0.1156  0.0489  0.0013
 1637poe     o2 6680   4.556   4.552   1.059 -0.0440  0.0539  0.1625
 1637poe    c23 6681   4.539   4.588   0.924  0.1480 -0.0950  0.0992
 1637poe    c23 6682   4.585   4.730   0.887  0.5478 -0.3716 -0.4739
 1637poe     o2 6683   4.716   4.760   0.930  0.2857  0.3277 -0.1545
 1637poe    c31 6684   4.787   4.824   0.826  1.1771 -0.5743 -0.1172
 1638poe    c31 6685   1.915   1.252   3.355 -0.3575 -0.1891  0.6124
 1638poe     o2 6686   1.821   1.216   3.255 -0.2895  0.0993  0.4431
 1638poe    c23 6687   1.698   1.212   3.324 -0.4622 -0.2923  0.1151
 1638poe    c23 6688   1.599   1.184   3.210 -0.3632  0.1432 -0.0792
 1638poe     o2 6689   1.649   1.079   3.132 -0.1577  0.1286  0.0721
 1638poe    c23 6690   1.555   1.031   3.038 -0.2934  0.2773  0.1331
 1638poe    c23 6691   1.600   0.891   2.992  0.1277  0.2171  0.7190
 1638poe     o2 6692   1.733   0.887   2.944  0.1111  0.2116  0.6736
 1638poe    c23 6693   1.766   0.752   2.924 -0.3984  0.2462 -0.4628
 1638poe    c23 6694   1.919   0.733   2.922 -0.4529 -0.4227  0.9785
 1638poe     o2 6695   1.997   0.769   3.034 -0.8396 -0.0085  1.1168
 1638poe    c31 6696   2.077   0.669   3.091 -0.4275  0.0569  0.6591
 1639poe    c31 6697   4.259   2.925   0.738 -0.3769  0.2475 -0.0814
 1639poe     o2 6698   4.258   2.913   0.598  0.0479 -0.3628 -0.0320
 1639poe    c23 6699   4.355   2.816   0.564  0.0402 -0.3362 -0.1325
 1639poe    c23 6700   4.339   2.808   0.411  0.1233 -0.1814 -0.1500
 1639poe     o2 6701   4.320   2.938   0.359 -0.3278 -0.1066  0.1940
 1639poe    c23 6702   4.288   2.911   0.225 -0.6958 -0.3653  0.3320
 1639poe    c23 6703   4.239   3.051   0.183  0.5441  0.1028  0.4230
 1639poe     o2 6704   4.129   3.087   0.263  0.8362  0.5639  0.6237
 1639poe    c23 6705   4.031   3.154   0.187  0.4152 -0.2975  0.3905
 1639poe    c23 6706   3.949   3.237   0.288  0.0702 -0.0088 -0.1250
 1639poe     o2 6707   4.025   3.338   0.352  0.2567  0.2732 -0.7776
 1639poe    c31 6708   3.968   3.463   0.319  0.1328  0.2968 -0.4763
 1640poe    c31 6709   0.704   5.010   6.594 -0.1109 -0.2167 -0.6976
 1640poe     o2 6710   0.574   5.065   6.583 -0.1103  0.1361  0.7876
 1640poe    c23 6711   0.576   5.206   6.591 -0.2635  0.1909 -0.0412
 1640poe    c23 6712   0.590   5.286   6.461 -0.1388  0.5455  0.1908
 1640poe     o2 6713   0.721   5.279   6.408 -0.1556  0.0775  0.2097
 1640poe    c23 6714   0.816   5.357   6.477  0.1199 -0.2439  0.1957
 1640poe    c23 6715   0.947   5.376   6.399 -0.1370  0.1439 -0.1430
 1640poe     o2 6716   0.989   5.244   6.373  0.2285  0.1102  0.6019
 1640poe    c23 6717   1.115   5.234   6.312 -0.0916 -0.0613 -0.0372
 1640poe    c23 6718   1.157   5.086   6.325  0.8414  0.1567 -0.4725
 1640poe     o2 6719   1.078   4.989   6.261  0.2267  0.4460 -0.1632
 1640poe    c31 6720   1.161   4.894   6.197  0.2265  0.3839 -0.0721
 1641poe    c31 6721   3.134   0.320   5.205 -0.0630  0.3961 -0.5986
 1641poe     o2 6722   3.067   0.266   5.316  0.1358  0.0460 -0.6487
 1641poe    c23 6723   2.955   0.211   5.250  0.1100 -1.1449  0.3377
 1641poe    c23 6724   2.858   0.182   5.366 -0.0423 -0.3593  0.4129
 1641poe     o2 6725   2.854   0.302   5.440  0.2117 -0.3292  0.3767
 1641poe    c23 6726   2.729   0.294   5.504  0.0141 -0.2317  0.0009
 1641poe    c23 6727   2.722   0.356   5.645  0.1650 -0.3441  0.0580
 1641poe     o2 6728   2.767   0.490   5.650  0.1522 -0.3684  0.8725
 1641poe    c23 6729   2.764   0.561   5.772 -0.2885  0.2110  0.5252
 1641poe    c23 6730   2.845   0.693   5.770  0.2364 -0.1129  0.1110
 1641poe     o2 6731   2.978   0.685   5.726  0.3226 -0.2667  0.3946
 1641poe    c31 6732   3.062   0.764   5.808  0.0902  0.5874 -0.1679
 1642poe    c31 6733   4.546   4.906   0.476  0.4352  0.0251  0.2562
 1642poe     o2 6734   4.406   4.915   0.462  0.4356  0.0177  0.2459
 1642poe    c23 6735   4.349   4.856   0.347  0.2122  0.3225  0.2000
 1642poe    c23 6736   4.206   4.910   0.329 -0.0132 -0.4108 -0.2706
 1642poe     o2 6737   4.118   4.867   0.431 -0.0406  0.0235 -0.1057
 1642poe    c23 6738   3.989   4.923   0.428  0.4075  1.0888 -0.1153
 1642poe    c23 6739   3.947   4.921   0.576 -0.4850 -0.3375 -0.3601
 1642poe     o2 6740   3.953   4.791   0.629  0.1218 -0.3174 -0.3666
 1642poe    c23 6741   3.893   4.786   0.757  0.3474  0.5886 -0.2168
 1642poe    c23 6742   3.931   4.645   0.806 -0.0172  0.2188 -0.9793
 1642poe     o2 6743   4.069   4.627   0.785 -0.0435 -0.6452 -0.4683
 1642poe    c31 6744   4.126   4.527   0.866  0.0846 -0.3302 -0.1661
 1643poe    c31 6745   1.557   6.819   1.165  0.2577  0.2230 -0.2425
 1643poe     o2 6746   1.487   6.697   1.160  0.1605  0.2665  0.0113
 1643poe    c23 6747   1.519   6.631   1.039 -0.0744  0.0300  0.0779
 1643poe    c23 6748   1.451   6.493   1.038 -0.0861  0.0355 -0.8065
 1643poe     o2 6749   1.310   6.507   1.031 -0.1181  0.3689  0.2930
 1643poe    c23 6750   1.229   6.394   1.055  0.0493  0.1392 -0.2143
 1643poe    c23 6751   1.079   6.427   1.045  0.0918  0.5086  0.3272
 1643poe     o2 6752   1.021   6.516   1.137  0.2086  0.2912  0.6166
 1643poe    c23 6753   0.880   6.525   1.132  0.1922 -0.2449 -0.1221
 1643poe    c23 6754   0.839   6.654   1.206  0.0315 -0.2245 -0.2445
 1643poe     o2 6755   0.928   6.644   1.316 -0.4541  0.3827  0.2066
 1643poe    c31 6756   0.904   6.761   1.393  0.1089  0.5578  0.1165
 1644poe    c31 6757   6.304   4.672   3.663 -0.0858 -0.4460 -0.7095
 1644poe     o2 6758   6.189   4.649   3.741  0.0895 -0.2585 -0.3879
 1644poe    c23 6759   6.216   4.670   3.877 -0.0327 -0.6279 -0.3066
 1644poe    c23 6760   6.082   4.647   3.949 -0.0832  0.1064 -0.1589
 1644poe     o2 6761   5.973   4.718   3.895 -0.4323 -0.0721  0.3063
 1644poe    c23 6762   5.854   4.691   3.966 -0.2363  0.2722  0.7684
 1644poe    c23 6763   5.753   4.772   3.882  0.3128  0.1266 -0.0394
 1644poe     o2 6764   5.738   4.741   3.745  0.5667  0.0539 -0.0509
 1644poe    c23 6765   5.645   4.825   3.681  0.3740  0.2752  0.5168
 1644poe    c23 6766   5.645   4.792   3.531 -0.0891 -0.1740  0.6111
 1644poe     o2 6767   5.755   4.858   3.471 -0.0751 -0.2606  0.5394
 1644poe    c31 6768   5.738   4.879   3.333 -0.6127 -0.3029  0.5931
 1645poe    c31 6769   1.745   0.041   1.906  0.1038  0.4820  0.3862
 1645poe     o2 6770   1.651   0.129   1.849 -0.6507 -0.6476 -0.1261
 1645poe    c23 6771   1.532   0.157   1.920 -0.3640 -0.2721  0.2135
 1645poe    c23 6772   1.543   0.247   2.044  0.1058 -0.9073  0.6346
 1645poe     o2 6773   1.577   0.203   2.174  0.0099 -0.2944  0.8654
 1645poe    c23 6774   1.638   0.306   2.250 -0.1585  0.2799  0.2375
 1645poe    c23 6775   1.785   0.337   2.220 -0.1322 -0.1140 -0.0564
 1645poe     o2 6776   1.826   0.413   2.109  0.0774  0.1647  0.2089
 1645poe    c23 6777   1.959   0.379   2.078 -0.1614 -0.6371  0.0443
 1645poe    c23 6778   2.007   0.487   1.979 -0.2304 -0.1415  0.5502
 1645poe     o2 6779   1.948   0.469   1.853  0.2859  0.0878  0.2707
 1645poe    c31 6780   1.945   0.587   1.775 -0.3746 -0.1034 -0.0070
 1646poe    c31 6781   6.551   4.182   0.689  0.2689 -0.1130  0.1414
 1646poe     o2 6782   6.583   4.180   0.827  0.2654  0.2565  0.1506
 1646poe    c23 6783   6.492   4.268   0.888 -0.5180  0.0760 -0.7314
 1646poe    c23 6784   6.493   4.249   1.041  0.9761 -0.4393 -0.7875
 1646poe     o2 6785   6.452   4.117   1.069  0.4479 -0.0868  0.1267
 1646poe    c23 6786   6.443   4.101   1.209  0.2399  0.0966  0.1350
 1646poe    c23 6787   6.409   3.954   1.239  0.4241  0.2706  1.2319
 1646poe     o2 6788   6.512   3.863   1.209 -0.0606  0.1484 -0.1521
 1646poe    c23 6789   6.475   3.728   1.214 -0.5045  0.2554 -0.5291
 1646poe    c23 6790   6.527   3.658   1.087  0.1307  0.0041 -0.1374
 1646poe     o2 6791   6.667   3.675   1.082  0.1400  0.0177  0.1814
 1646poe    c31 6792   6.727   3.594   0.984 -0.2663  0.3171 -0.3176
 1647poe    c31 6793   1.416   0.285   4.087 -0.1260  0.1671  0.2927
 1647poe     o2 6794   1.438   0.222   4.212  0.2983  0.1366  0.2050
 1647poe    c23 6795   1.354   0.109   4.216  0.5426 -0.0443  0.2432
 1647poe    c23 6796   1.265   0.093   4.341  0.4182 -0.1521  0.1409
 1647poe     o2 6797   1.350   0.063   4.449  0.3206 -0.2864  0.1809
 1647poe    c23 6798   1.289   0.057   4.576  0.0059  0.1827  0.0520
 1647poe    c23 6799   1.388   0.041   4.693 -0.7095  0.2489  0.6747
 1647poe     o2 6800   1.482   0.147   4.699 -0.4584  0.0641  0.1235
 1647poe    c23 6801   1.585   0.131   4.794  0.3403 -0.0260 -0.7445
 1647poe    c23 6802   1.676   0.254   4.787  0.3249  0.0134 -0.2896
 1647poe     o2 6803   1.738   0.244   4.661  0.1737 -0.0560 -0.3584
 1647poe    c31 6804   1.869   0.296   4.665  0.4765 -0.8255 -0.0500
 1648poe    c31 6805   6.904   3.299   2.009  0.5330 -0.7850  0.5847
 1648poe     o2 6806   7.022   3.259   2.074  0.6757 -0.1762  0.7119
 1648poe    c23 6807   7.103   3.362   2.125  0.2131  0.4939  0.1103
 1648poe    c23 6808   7.197   3.280   2.215  0.1881  0.5775  0.2125
 1648poe     o2 6809   7.243   3.163   2.151 -0.3151  0.4873  0.0111
 1648poe    c23 6810   7.345   3.093   2.218 -0.5428  0.3644  0.2327
 1648poe    c23 6811   7.357   2.961   2.139 -0.0844 -0.0353  0.9658
 1648poe     o2 6812   7.231   2.899   2.148 -0.2272  0.1329  0.1365
 1648poe    c23 6813   7.235   2.762   2.182 -0.6282  0.2059  0.4892
 1648poe    c23 6814   7.117   2.693   2.252 -0.3591 -0.2286  0.5184
 1648poe     o2 6815   6.988   2.716   2.199  0.0553  0.3639 -0.2651
 1648poe    c31 6816   6.920   2.599   2.159  0.1150  0.1382  0.2778
 1649poe    c31 6817   6.433   3.648   0.075  0.7286 -0.7585 -0.3215
 1649poe     o2 6818   6.531   3.682   0.170  0.1413  0.2042 -0.0548
 1649poe    c23 6819   6.482   3.781   0.259 -0.1026 -0.3828  0.4711
 1649poe    c23 6820   6.591   3.815   0.363  0.1818  0.1072  0.0188
 1649poe     o2 6821   6.655   3.700   0.413  0.4469  0.0609 -0.4223
 1649poe    c23 6822   6.769   3.720   0.494  0.3077 -0.3174 -0.1273
 1649poe    c23 6823   6.788   3.598   0.586 -0.2193 -0.1503  0.2056
 1649poe     o2 6824   6.788   3.495   0.490  0.2802  0.1236 -0.0938
 1649poe    c23 6825   6.844   3.377   0.541  0.0456  0.2192  0.3947
 1649poe    c23 6826   6.893   3.287   0.425 -0.2573  0.4052  0.1208
 1649poe     o2 6827   6.792   3.247   0.336 -0.1842  0.0178  0.2119
 1649poe    c31 6828   6.702   3.152   0.390 -0.1231  0.2476  0.7235
 1650poe    c31 6829   1.797   3.487   5.068  0.4595  0.0489  0.4856
 1650poe     o2 6830   1.680   3.537   5.128 -0.2304 -0.7744 -0.1459
 1650poe    c23 6831   1.613   3.615   5.031  0.3876 -0.4510 -0.3185
 1650poe    c23 6832   1.465   3.653   5.052  0.4893  0.3483 -0.9969
 1650poe     o2 6833   1.364   3.563   5.012  0.0719  0.3958 -0.0849
 1650poe    c23 6834   1.331   3.467   5.110 -0.2477 -0.0258 -0.5975
 1650poe    c23 6835   1.226   3.369   5.055  0.0843 -0.5101 -0.3694
 1650poe     o2 6836   1.140   3.441   4.970  0.2536 -0.4515 -0.4923
 1650poe    c23 6837   1.035   3.356   4.929 -0.4390  0.0675  0.2038
 1650poe    c23 6838   0.964   3.436   4.818 -0.3083 -0.1024 -0.0004
 1650poe     o2 6839   1.059   3.519   4.756 -0.6215  0.0391 -0.2969
 1650poe    c31 6840   1.024   3.564   4.627 -0.1044  0.1920 -0.3901
 1651poe    c31 6841   6.499   6.861   0.341 -0.2883  0.6977 -0.1904
 1651poe     o2 6842   6.626   6.899   0.295 -0.1225  0.3895  0.0071
 1651poe    c23 6843   6.664   6.815   0.188  0.0560 -0.0429  0.4121
 1651poe    c23 6844   6.809   6.841   0.144 -0.1555  0.2802 -0.0930
 1651poe     o2 6845   6.811   6.973   0.095 -0.2077  0.2673 -0.1307
 1651poe    c23 6846   6.947   7.006   0.115 -0.1589 -0.1679  0.2551
 1651poe    c23 6847   6.973   7.145   0.054 -0.5462 -0.0758  0.2971
 1651poe     o2 6848   6.884   7.237   0.114 -0.4085  0.2755 -0.0379
 1651poe    c23 6849   6.941   7.366   0.119 -0.1924  0.1645  0.4341
 1651poe    c23 6850   6.877   7.457   0.226 -0.4784  0.4470  0.0278
 1651poe     o2 6851   6.750   7.408   0.262 -0.1881 -0.0838  0.3493
 1651poe    c31 6852   6.680   7.508   0.333 -0.4851  0.0210 -0.0899
 1652poe    c31 6853   4.942   1.970   3.668  0.4985  0.4475 -0.0911
 1652poe     o2 6854   4.968   2.024   3.541 -0.4216  0.1598 -0.4121
 1652poe    c23 6855   5.033   2.149   3.552 -0.1365 -0.0156 -0.0978
 1652poe    c23 6856   5.039   2.222   3.417  0.1653  0.3365  0.1038
 1652poe     o2 6857   5.115   2.146   3.325  0.4408 -0.0829  0.6686
 1652poe    c23 6858   5.104   2.206   3.198 -0.0486 -0.2922  0.6117
 1652poe    c23 6859   5.213   2.160   3.099 -0.0328  0.2957  0.3520
 1652poe     o2 6860   5.190   2.022   3.087  0.4158  0.2646 -0.1956
 1652poe    c23 6861   5.263   1.981   2.973 -0.1084 -0.0128 -0.4389
 1652poe    c23 6862   5.298   1.833   2.992 -0.0557 -0.0011 -0.4451
 1652poe     o2 6863   5.188   1.753   3.029  0.2442  0.0700  0.6233
 1652poe    c31 6864   5.238   1.638   3.095  0.7877 -0.0035  0.0925
 1653poe    c31 6865   1.956   5.627   0.107 -0.0905  0.0047  0.0538
 1653poe     o2 6866   1.861   5.728   0.132 -0.3337 -0.2130  0.0138
 1653poe    c23 6867   1.812   5.778   0.010 -0.3946  0.0466  0.1444
 1653poe    c23 6868   1.760   5.919   0.043  0.0911  0.2919 -0.1449
 1653poe     o2 6869   1.857   6.004   0.101  0.2037  0.0892 -0.0333
 1653poe    c23 6870   1.825   6.139   0.127 -0.0265 -0.0120  0.1995
 1653poe    c23 6871   1.920   6.190   0.237  0.1985 -0.2286  0.1051
 1653poe     o2 6872   1.889   6.146   0.367  0.4776 -0.4129  0.1118
 1653poe    c23 6873   1.999   6.153   0.454  0.8396 -0.1646 -0.3628
 1653poe    c23 6874   1.963   6.196   0.598  0.1864  0.0019 -0.5757
 1653poe     o2 6875   1.960   6.337   0.607 -0.1865 -0.0389 -0.0685
 1653poe    c31 6876   1.837   6.391   0.563 -0.1654  0.2386  0.2067
 1654poe    c31 6877   3.877   1.424   4.811  0.7792  0.1947  0.1253
 1654poe     o2 6878   3.969   1.368   4.901  0.0639 -0.2308  0.6059
 1654poe    c23 6879   4.087   1.442   4.924 -0.1028  0.3416 -0.3617
 1654poe    c23 6880   4.211   1.359   4.962 -0.3368  0.2408  0.1880
 1654poe     o2 6881   4.154   1.257   5.041 -0.1257 -0.1091 -0.1047
 1654poe    c23 6882   4.254   1.180   5.103 -0.2338 -0.5210 -0.4414
 1654poe    c23 6883   4.186   1.079   5.198  0.0334 -0.5948 -0.3265
 1654poe     o2 6884   4.078   1.003   5.147 -0.2983 -0.3006 -0.0622
 1654poe    c23 6885   4.040   0.914   5.250 -0.3409 -0.7093 -0.4314
 1654poe    c23 6886   3.889   0.886   5.251 -0.4957  0.0935 -0.0849
 1654poe     o2 6887   3.827   1.009   5.281 -0.2368  0.0264  0.7380
 1654poe    c31 6888   3.690   0.995   5.308 -0.4489  0.3188 -0.1523
 1655poe    c31 6889   3.166   3.596   1.609 -0.0748  0.2958 -0.1924
 1655poe     o2 6890   3.254   3.599   1.500  0.3029 -0.3832  0.0846
 1655poe    c23 6891   3.383   3.632   1.545  0.1244 -0.1911  0.4598
 1655poe    c23 6892   3.478   3.654   1.425 -0.7565 -0.7341 -0.3433
 1655poe     o2 6893   3.529   3.533   1.372  0.4724 -0.4059  0.0702
 1655poe    c23 6894   3.605   3.540   1.253  0.3400  0.4360  0.0264
 1655poe    c23 6895   3.666   3.403   1.220  0.2894  0.4781 -0.2420
 1655poe     o2 6896   3.556   3.314   1.212  0.2216  0.4991  0.3909
 1655poe    c23 6897   3.607   3.207   1.135 -0.6531  0.5065 -0.2111
 1655poe    c23 6898   3.506   3.091   1.145 -0.0724  0.0207  0.0446
 1655poe     o2 6899   3.388   3.128   1.078  0.4374 -0.0191 -0.8798
 1655poe    c31 6900   3.312   3.020   1.029 -0.6819  0.0743  0.5915
 1656poe    c31 6901   5.838   2.264   3.459  0.2846 -0.2604 -0.0011
 1656poe     o2 6902   5.869   2.401   3.477  0.2313 -0.2401 -0.0667
 1656poe    c23 6903   5.897   2.440   3.609  0.0329  0.2062 -0.1541
 1656poe    c23 6904   5.836   2.581   3.608 -0.2517  0.0877  0.1375
 1656poe     o2 6905   5.891   2.653   3.499 -0.0208  0.6741  0.6332
 1656poe    c23 6906   5.793   2.738   3.445 -0.0010  0.3423  0.0647
 1656poe    c23 6907   5.871   2.813   3.336  0.1046 -0.6167 -0.5257
 1656poe     o2 6908   5.905   2.715   3.240 -0.3786 -0.6919 -0.6234
 1656poe    c23 6909   5.955   2.766   3.118 -0.7741 -0.0709 -0.5303
 1656poe    c23 6910   6.089   2.842   3.123 -0.6683 -0.3085  0.4280
 1656poe     o2 6911   6.189   2.742   3.130  0.3434  0.6405 -0.1371
 1656poe    c31 6912   6.319   2.778   3.090  0.2463  0.7229 -0.3802
 1657poe    c31 6913   0.540   1.584   4.916 -0.6579  0.6491 -0.1490
 1657poe     o2 6914   0.495   1.572   5.049 -0.4543  0.2414 -0.1155
 1657poe    c23 6915   0.356   1.552   5.037 -0.4674  0.7391 -0.8522
 1657poe    c23 6916   0.292   1.513   5.171 -0.1711  0.0284 -0.9122
 1657poe     o2 6917   0.329   1.382   5.207 -0.2453  0.2648  0.0607
 1657poe    c23 6918   0.252   1.327   5.311  0.1691  0.0696  0.2658
 1657poe    c23 6919   0.330   1.202   5.355 -0.0271 -0.1281  0.0563
 1657poe     o2 6920   0.454   1.242   5.409  0.0804 -0.1952 -0.1390
 1657poe    c23 6921   0.504   1.140   5.492  0.1805 -0.3015 -0.3285
 1657poe    c23 6922   0.648   1.113   5.446  0.6128  0.1993  0.7161
 1657poe     o2 6923   0.718   1.236   5.433  0.1051  0.4115 -0.0631
 1657poe    c31 6924   0.854   1.228   5.469  0.0796  0.1469 -0.0198
 1658poe    c31 6925   6.710   1.216   3.251  0.2615  0.3178  0.3888
 1658poe     o2 6926   6.597   1.299   3.265  0.0303  0.0970 -0.1701
 1658poe    c23 6927   6.484   1.225   3.223 -0.1894 -0.1910  0.9088
 1658poe    c23 6928   6.360   1.315   3.232 -0.4372 -0.5247  0.8644
 1658poe     o2 6929   6.391   1.410   3.331 -0.3333  0.2265  0.1276
 1658poe    c23 6930   6.288   1.496   3.376 -0.1480  0.2853  0.4412
 1658poe    c23 6931   6.335   1.636   3.420  0.6935  0.2522 -0.3043
 1658poe     o2 6932   6.424   1.620   3.528  0.1993 -0.0082  0.0709
 1658poe    c23 6933   6.436   1.738   3.605 -0.3468  0.3540 -0.3915
 1658poe    c23 6934   6.513   1.850   3.531  0.2305  0.1945 -0.0340
 1658poe     o2 6935   6.638   1.814   3.475  0.0094  0.0420 -0.4279
 1658poe    c31 6936   6.666   1.886   3.356  0.3879  0.6812  0.0435
 1659poe    c31 6937   7.129   5.453   1.294 -0.1168 -0.0946 -0.7826
 1659poe     o2 6938   7.048   5.556   1.346 -0.2098 -0.4791 -0.1547
 1659poe    c23 6939   7.039   5.556   1.487 -0.8454  0.0001 -0.1923
 1659poe    c23 6940   6.917   5.485   1.548 -0.6089  0.5223  0.9003
 1659poe     o2 6941   6.796   5.543   1.504 -0.4674 -0.2285 -0.5108
 1659poe    c23 6942   6.687   5.530   1.592  0.2278  0.0087  0.4008
 1659poe    c23 6943   6.567   5.607   1.533  0.2946 -0.0249  0.2214
 1659poe     o2 6944   6.549   5.556   1.402 -0.1310  0.4702  0.0846
 1659poe    c23 6945   6.474   5.641   1.319 -0.4378  0.2584  0.1439
 1659poe    c23 6946   6.434   5.552   1.199  0.2132  0.0017  0.1147
 1659poe     o2 6947   6.555   5.501   1.149 -0.1230 -0.2623 -0.4365
 1659poe    c31 6948   6.547   5.426   1.030 -0.1860  0.1341 -0.6853
 1660poe    c31 6949   4.634   0.147   2.496  0.0120  0.3231  0.0514
 1660poe     o2 6950   4.753   0.156   2.572 -0.1480  0.2666  0.3112
 1660poe    c23 6951   4.726   0.166   2.710  0.2467  0.2974  0.3880
 1660poe    c23 6952   4.842   0.241   2.779  0.4029 -0.1636  0.6289
 1660poe     o2 6953   4.962   0.175   2.747 -0.0217 -0.4008 -0.5456
 1660poe    c23 6954   5.078   0.225   2.810 -0.3291 -0.1015 -0.2135
 1660poe    c23 6955   5.185   0.116   2.790  0.5375  0.5607  0.7204
 1660poe     o2 6956   5.187   0.085   2.653  0.1747  0.1103  0.8116
 1660poe    c23 6957   5.297  -0.001   2.632 -0.0201  0.0983 -0.2275
 1660poe    c23 6958   5.315  -0.033   2.483 -0.7878 -0.6856 -0.1593
 1660poe     o2 6959   5.225  -0.132   2.437 -0.7325 -0.6475 -0.3532
 1660poe    c31 6960   5.244  -0.150   2.298  0.1497  0.1945 -0.3570
 1661poe    c31 6961   4.262   0.279   2.798  1.1706  0.3613  0.6460
 1661poe     o2 6962   4.327   0.154   2.794  0.2203 -0.1200 -0.1796
 1661poe    c23 6963   4.249   0.054   2.732 -0.2533  0.1503 -0.0187
 1661poe    c23 6964   4.117   0.009   2.797 -0.5987  0.6912 -0.3384
 1661poe     o2 6965   4.139  -0.035   2.929 -0.2459  0.2550 -0.5377
 1661poe    c23 6966   4.022  -0.109   2.958  0.1838 -0.5091 -0.7353
 1661poe    c23 6967   4.051  -0.241   3.032  0.2710 -0.0127  0.1350
 1661poe     o2 6968   4.089  -0.211   3.164  0.3190  0.8239 -0.0574
 1661poe    c23 6969   4.223  -0.250   3.182  0.2116  0.4502 -0.0473
 1661poe    c23 6970   4.288  -0.212   3.317  0.0716  0.0967  0.1225
 1661poe     o2 6971   4.295  -0.072   3.331 -0.3565  0.1414 -0.0992
 1661poe    c31 6972   4.337  -0.061   3.465  0.0878  0.5108 -0.2653
 1662poe    c31 6973   4.439   1.175   0.273 -0.4661 -0.6462  0.2323
 1662poe     o2 6974   4.410   1.130   0.403  0.1339 -0.1148  0.5536
 1662poe    c23 6975   4.481   1.011   0.429 -0.0592 -0.2545  0.4464
 1662poe    c23 6976   4.448   0.951   0.567  0.3165 -0.4068  0.4734
 1662poe     o2 6977   4.455   1.048   0.670  0.5179 -0.1101  0.1817
 1662poe    c23 6978   4.394   0.992   0.784 -0.4941  0.2070 -0.1940
 1662poe    c23 6979   4.389   1.097   0.897  0.2637 -0.2409  0.2680
 1662poe     o2 6980   4.347   1.212   0.828 -0.3914 -0.3089  0.5442
 1662poe    c23 6981   4.320   1.316   0.920  0.0147  0.2167  0.0752
 1662poe    c23 6982   4.280   1.454   0.864  0.6768  0.3366 -0.1050
 1662poe     o2 6983   4.336   1.478   0.737  0.1366  0.2020 -0.3705
 1662poe    c31 6984   4.305   1.613   0.711 -0.0551  0.2411  0.0693
 1663poe    c31 6985   3.383   5.236   4.100 -0.0343  0.5458 -0.0217
 1663poe     o2 6986   3.288   5.339   4.085  0.2557  0.8227  0.0572
 1663poe    c23 6987   3.255   5.350   3.949 -0.8634  0.0851  0.2528
 1663poe    c23 6988   3.169   5.476   3.928 -0.9915 -0.2262 -1.2051
 1663poe     o2 6989   3.042   5.462   3.987 -0.4398 -0.5874 -0.0888
 1663poe    c23 6990   2.976   5.580   3.950 -0.3347 -0.5840 -0.2669
 1663poe    c23 6991   2.828   5.555   3.984 -0.2303 -0.5585  0.2141
 1663poe     o2 6992   2.832   5.492   4.110 -0.0615 -0.4771  0.2509
 1663poe    c23 6993   2.705   5.431   4.119 -0.0377 -0.5915 -0.1707
 1663poe    c23 6994   2.688   5.349   4.248 -0.1300 -0.2402  0.0399
 1663poe     o2 6995   2.816   5.292   4.263  0.0788  0.0867 -0.4651
 1663poe    c31 6996   2.836   5.210   4.376 -0.2408  0.0865 -0.4073
 1664poe    c31 6997   6.182   5.668   1.599 -0.3389  0.0808  0.3855
 1664poe     o2 6998   6.071   5.750   1.627 -0.2873  0.2373  0.1281
 1664poe    c23 6999   6.057   5.867   1.549  0.1880  0.1188 -0.1387
 1664poe    c23 7000   5.943   5.955   1.602  0.0097  0.2604 -0.7480
 1664poe     o2 7001   5.819   5.893   1.580 -0.2217  0.2465  0.4952
 1664poe    c23 7002   5.770   5.799   1.672 -0.1708 -0.6438 -0.3674
 1664poe    c23 7003   5.785   5.651   1.631  0.3705 -0.6570 -0.1294
 1664poe     o2 7004   5.686   5.606   1.542  0.2838 -0.2560 -0.2353
 1664poe    c23 7005   5.678   5.675   1.419  0.0858 -0.4105 -0.3085
 1664poe    c23 7006   5.779   5.634   1.309  0.3430 -0.1272 -0.1769
 1664poe     o2 7007   5.787   5.505   1.253  0.1465 -0.4794  0.5959
 1664poe    c31 7008   5.668   5.466   1.188  0.4256 -0.2083 -0.0842
 1665poe    c31 7009   7.083   3.015   0.916 -0.2562  0.4718  0.2438
 1665poe     o2 7010   6.980   2.919   0.926  0.3374 -0.2281 -0.2059
 1665poe    c23 7011   6.939   2.872   0.800  0.2635 -0.4837 -0.0858
 1665poe    c23 7012   6.832   2.958   0.732  0.4548 -0.0149  0.2048
 1665poe     o2 7013   6.731   3.008   0.817 -0.0115 -0.5001 -0.0613
 1665poe    c23 7014   6.649   3.107   0.759  0.4668  0.2547  0.5358
 1665poe    c23 7015   6.582   3.181   0.877 -0.8047  0.0810 -0.0499
 1665poe     o2 7016   6.505   3.094   0.958  0.2918 -0.8363  0.0377
 1665poe    c23 7017   6.458   3.142   1.081  0.5055 -0.2755 -0.0957
 1665poe    c23 7018   6.403   3.024   1.164  0.1414  0.2562  0.4271
 1665poe     o2 7019   6.507   2.930   1.173 -0.0113  0.0436 -0.0304
 1665poe    c31 7020   6.442   2.810   1.211 -0.0936 -0.0808 -0.5466
 1666poe    c31 7021   2.162   4.679   0.388 -0.2195 -0.1380  0.5798
 1666poe     o2 7022   2.242   4.697   0.273  0.2473  0.2524  0.9639
 1666poe    c23 7023   2.351   4.607   0.263  0.1930  0.2756  0.1060
 1666poe    c23 7024   2.414   4.636   0.126 -0.3719  0.1814 -0.1798
 1666poe     o2 7025   2.389   4.770   0.090  0.6565  0.4420  0.0409
 1666poe    c23 7026   2.472   4.809  -0.018  0.2785 -0.0958 -0.4528
 1666poe    c23 7027   2.389   4.810  -0.147 -0.6886 -0.4539  0.1540
 1666poe     o2 7028   2.286   4.906  -0.151  0.4635  0.8045 -0.1694
 1666poe    c23 7029   2.207   4.902  -0.268  0.0653  0.1359  0.1141
 1666poe    c23 7030   2.073   4.973  -0.242 -0.2552 -0.1934 -0.6045
 1666poe     o2 7031   1.985   4.893  -0.167  0.4621 -0.4756 -0.0504
 1666poe    c31 7032   1.909   4.804  -0.246 -0.1870  0.0285 -0.0029
 1667poe    c31 7033   6.300   4.224   6.106 -0.3514 -1.0272  0.6279
 1667poe     o2 7034   6.383   4.215   6.219 -0.0855  0.2743  0.5558
 1667poe    c23 7035   6.518   4.233   6.181 -0.1833  0.7930  0.4493
 1667poe    c23 7036   6.626   4.196   6.284  0.2853 -1.1273 -0.6672
 1667poe     o2 7037   6.608   4.077   6.357 -0.1812 -0.5804  0.1273
 1667poe    c23 7038   6.683   4.097   6.475 -0.1928 -0.2288  0.0755
 1667poe    c23 7039   6.715   3.957   6.530 -0.2072 -0.3545 -0.2342
 1667poe     o2 7040   6.614   3.896   6.607  0.1123  0.0770  0.5452
 1667poe    c23 7041   6.667   3.766   6.620 -0.0259 -0.0063  0.2940
 1667poe    c23 7042   6.583   3.683   6.720  0.0419 -0.3346  0.0798
 1667poe     o2 7043   6.450   3.700   6.678  0.2749 -0.1564 -0.6131
 1667poe    c31 7044   6.379   3.595   6.740  0.5379 -0.5232 -0.9259
 1668poe    c31 7045   5.910   2.454   5.906  0.2928 -0.2781  0.5823
 1668poe     o2 7046   5.884   2.320   5.872  0.6371 -0.1906 -0.0349
 1668poe    c23 7047   5.922   2.235   5.978  0.1936 -0.4581 -0.0876
 1668poe    c23 7048   5.845   2.102   5.979  0.0323 -0.3620  0.3640
 1668poe     o2 7049   5.706   2.128   5.970  0.1709  0.3248  0.1764
 1668poe    c23 7050   5.638   2.032   6.048 -0.2980  0.1596 -0.4254
 1668poe    c23 7051   5.628   1.882   6.017 -0.3855 -0.0094  0.3816
 1668poe     o2 7052   5.535   1.859   5.913 -0.2874  0.5114  0.1725
 1668poe    c23 7053   5.449   1.747   5.912 -0.0821  0.3397  0.8571
 1668poe    c23 7054   5.508   1.605   5.910 -0.1149  0.3306 -0.0459
 1668poe     o2 7055   5.561   1.562   6.034 -0.1953  0.2392 -0.0424
 1668poe    c31 7056   5.606   1.430   6.049  0.2212  0.4252  0.3620
 1669poe    c31 7057   6.814   1.771   4.499  0.1647  0.9357 -0.4931
 1669poe     o2 7058   6.953   1.765   4.524 -0.0275 -0.0879  0.3972
 1669poe    c23 7059   6.970   1.816   4.654  0.3764  0.2092  0.2276
 1669poe    c23 7060   7.105   1.763   4.706  0.2079 -0.1896  0.2574
 1669poe     o2 7061   7.217   1.819   4.642  0.0599 -0.1293  0.0502
 1669poe    c23 7062   7.269   1.928   4.715  0.1852  0.0984 -0.3750
 1669poe    c23 7063   7.261   2.045   4.615 -0.1843  0.1072 -0.3361
 1669poe     o2 7064   7.351   2.018   4.510 -0.0853 -0.4592 -0.1111
 1669poe    c23 7065   7.390   2.131   4.434 -0.8314 -0.3710 -0.3669
 1669poe    c23 7066   7.464   2.076   4.310 -0.4764  0.3654 -0.4828
 1669poe     o2 7067   7.403   1.952   4.284  0.2584  0.0310 -0.6171
 1669poe    c31 7068   7.390   1.945   4.144 -0.3824 -0.6660 -0.5310
 1670poe    c31 7069   6.556   0.193   4.001 -0.4928 -0.0533  0.2759
 1670poe     o2 7070   6.537   0.138   4.130  0.1132 -0.1662  0.3223
 1670poe    c23 7071   6.512   0.228   4.235  0.0964  0.1926  0.0134
 1670poe    c23 7072   6.553   0.177   4.374  0.3821  0.1625 -0.0814
 1670poe     o2 7073   6.565   0.280   4.469 -0.1051  0.4652 -0.3464
 1670poe    c23 7074   6.452   0.326   4.539 -0.2544  0.1070 -0.3513
 1670poe    c23 7075   6.446   0.477   4.572  0.3155 -0.0060  0.2993
 1670poe     o2 7076   6.554   0.549   4.627  0.5272  0.1153 -0.2744
 1670poe    c23 7077   6.545   0.688   4.604  0.1376  0.2718  0.8046
 1670poe    c23 7078   6.666   0.760   4.666  0.2910  0.7706 -0.0635
 1670poe     o2 7079   6.775   0.674   4.643  0.1800  0.5403  0.2648
 1670poe    c31 7080   6.880   0.744   4.704  0.1284  0.2973  0.6390
 1671poe    c31 7081   0.467   0.415   5.831  0.1426  0.3310 -0.6381
 1671poe     o2 7082   0.399   0.380   5.950  0.1815 -0.0146 -0.7151
 1671poe    c23 7083   0.481   0.390   6.065  0.4956 -0.3278 -0.9114
 1671poe    c23 7084   0.421   0.478   6.176  1.0776 -0.5132 -0.4420
 1671poe     o2 7085   0.507   0.571   6.237  0.5197 -0.0203 -0.3997
 1671poe    c23 7086   0.424   0.681   6.267  0.1912 -0.4775  0.3721
 1671poe    c23 7087   0.479   0.789   6.363  1.0848 -0.0853 -0.5621
 1671poe     o2 7088   0.478   0.741   6.496 -0.3542  0.1662 -0.4596
 1671poe    c23 7089   0.506   0.834   6.598  0.4591 -0.0793 -0.4496
 1671poe    c23 7090   0.504   0.750   6.728  0.2928  0.5025 -0.0729
 1671poe     o2 7091   0.604   0.651   6.735  0.2736  0.4677 -0.2700
 1671poe    c31 7092   0.633   0.633   6.872 -0.7808  0.2265 -0.0686
 1672poe    c31 7093   4.680   0.288   6.660  0.2185 -0.2372  0.4039
 1672poe     o2 7094   4.705   0.425   6.637  0.7443 -0.3629  0.2182
 1672poe    c23 7095   4.789   0.436   6.524  0.4673  0.5919  0.1004
 1672poe    c23 7096   4.789   0.584   6.480 -0.1631  0.6261  0.2058
 1672poe     o2 7097   4.820   0.654   6.598  0.2555  0.2762  0.3080
 1672poe    c23 7098   4.808   0.791   6.569  0.2716  0.1838 -0.1418
 1672poe    c23 7099   4.789   0.871   6.699  0.1295  0.9935 -0.6501
 1672poe     o2 7100   4.690   0.800   6.771  0.0003  0.8214 -0.9965
 1672poe    c23 7101   4.616   0.876   6.863  0.2724 -0.2206  0.0998
 1672poe    c23 7102   4.533   0.785   6.956  0.4090 -0.1973  0.2443
 1672poe     o2 7103   4.407   0.736   6.915  0.1014  0.6374  0.1867
 1672poe    c31 7104   4.338   0.717   7.036  0.0893  0.0136  0.0819
 1673poe    c31 7105   5.756   2.758   6.311  0.4084  0.1543  0.3416
 1673poe     o2 7106   5.780   2.620   6.327 -0.0601 -0.0236 -0.4308
 1673poe    c23 7107   5.705   2.541   6.239 -0.8956 -0.0099  0.2537
 1673poe    c23 7108   5.690   2.403   6.306 -0.2258 -0.1941  0.0375
 1673poe     o2 7109   5.825   2.379   6.337 -0.3240 -0.0448  0.5937
 1673poe    c23 7110   5.847   2.252   6.395 -0.1637 -0.2846  0.0240
 1673poe    c23 7111   5.990   2.237   6.450 -0.1076 -0.0412 -0.0530
 1673poe     o2 7112   6.014   2.364   6.507  0.0904  0.1828 -0.6297
 1673poe    c23 7113   6.152   2.369   6.535 -0.0530 -0.3510  0.2115
 1673poe    c23 7114   6.213   2.479   6.624  0.0226  0.2046 -0.5176
 1673poe     o2 7115   6.141   2.487   6.745 -0.1024 -0.4345 -0.5440
 1673poe    c31 7116   6.198   2.581   6.834 -0.5000 -0.1286 -0.6096
 1674poe    c31 7117   4.959   2.189   7.056 -0.9419  0.5194  0.7071
 1674poe     o2 7118   4.969   2.328   7.041 -0.5391  0.4329  0.1427
 1674poe    c23 7119   4.937   2.354   6.906 -0.2426 -0.2240 -0.0571
 1674poe    c23 7120   4.955   2.505   6.879 -0.0806 -0.1892  0.2423
 1674poe     o2 7121   4.853   2.566   6.954 -0.2488 -0.1627 -0.0083
 1674poe    c23 7122   4.830   2.694   6.900  0.2264 -0.1611 -0.2052
 1674poe    c23 7123   4.713   2.768   6.966  0.1892 -0.6035  0.2290
 1674poe     o2 7124   4.580   2.737   6.929  0.3873 -0.3686 -0.6927
 1674poe    c23 7125   4.538   2.614   6.983 -0.6307  0.3078  0.0817
 1674poe    c23 7126   4.408   2.566   6.916  0.1413 -0.1472 -1.1172
 1674poe     o2 7127   4.318   2.675   6.913  0.1761 -0.0725  0.0185
 1674poe    c31 7128   4.196   2.654   6.843  0.2266  0.4722 -0.2353
 1675poe    c31 7129   1.571   3.581   5.485  0.0765  0.5739 -0.5545
 1675poe     o2 7130   1.677   3.664   5.526 -0.1337  0.4732  0.2079
 1675poe    c23 7131   1.605   3.768   5.590 -0.6839  0.3891 -0.2684
 1675poe    c23 7132   1.709   3.867   5.644 -0.3245 -0.0853 -0.0794
 1675poe     o2 7133   1.825   3.859   5.564 -0.1503  0.2248  0.1369
 1675poe    c23 7134   1.935   3.935   5.610 -0.2253 -0.1355  0.9282
 1675poe    c23 7135   2.058   3.842   5.617 -0.3050 -0.3627 -0.4256
 1675poe     o2 7136   2.095   3.780   5.496 -0.0438 -0.1987 -0.4321
 1675poe    c23 7137   2.232   3.749   5.485  0.0114 -0.0613 -0.1382
 1675poe    c23 7138   2.252   3.620   5.403 -0.2444  0.0406 -0.3630
 1675poe     o2 7139   2.201   3.504   5.464  0.4317 -0.1484 -0.1459
 1675poe    c31 7140   2.284   3.429   5.550  0.2556  0.1553  0.2953
 1676poe    c31 7141   2.519   6.770   6.532 -0.9454  0.5832  0.1286
 1676poe     o2 7142   2.471   6.737   6.404  0.7019  0.1633 -0.4168
 1676poe    c23 7143   2.475   6.598   6.380 -0.2447  0.0228  0.1824
 1676poe    c23 7144   2.371   6.557   6.273  0.0209 -0.3836  0.0810
 1676poe     o2 7145   2.246   6.618   6.292  0.2168 -0.0494  0.3014
 1676poe    c23 7146   2.186   6.632   6.166  0.8836  0.1694  0.0013
 1676poe    c23 7147   2.035   6.663   6.170  0.8274  0.0049 -0.6714
 1676poe     o2 7148   1.965   6.556   6.229  0.1005  0.0614 -1.4119
 1676poe    c23 7149   1.831   6.582   6.266  0.4516  0.0465 -0.0913
 1676poe    c23 7150   1.804   6.657   6.398  0.1694  0.1641 -0.2167
 1676poe     o2 7151   1.837   6.571   6.504 -0.0557 -0.0910 -0.3501
 1676poe    c31 7152   1.812   6.603   6.639  1.0267 -0.8198  0.0372
 1677poe    c31 7153   4.257   2.441   3.978  0.0162  0.3367  0.8448
 1677poe     o2 7154   4.267   2.324   4.056 -0.9264 -0.1752  0.2094
 1677poe    c23 7155   4.152   2.304   4.134 -0.8899 -0.6117  0.1570
 1677poe    c23 7156   4.188   2.181   4.219  0.4948 -0.1245  0.2977
 1677poe     o2 7157   4.255   2.075   4.154 -0.4931 -0.4709 -0.1764
 1677poe    c23 7158   4.317   1.983   4.242 -0.1753 -0.5183 -0.4482
 1677poe    c23 7159   4.352   1.868   4.146  0.4129 -0.3922 -0.3884
 1677poe     o2 7160   4.415   1.912   4.028 -0.5874  1.2332 -0.3476
 1677poe    c23 7161   4.416   1.812   3.929  0.6141  0.0856  0.7663
 1677poe    c23 7162   4.503   1.856   3.810 -0.1894 -0.7252 -0.1362
 1677poe     o2 7163   4.442   1.948   3.723  0.4062 -0.3117 -0.1191
 1677poe    c31 7164   4.519   1.976   3.608  0.2346  0.3711 -0.0742
 1678poe    c31 7165   6.222   6.522   0.409  0.5102  0.1834 -0.0019
 1678poe     o2 7166   6.316   6.527   0.513  0.2558  0.4075  0.2188
 1678poe    c23 7167   6.376   6.400   0.522  0.1754  0.3309 -0.3002
 1678poe    c23 7168   6.494   6.397   0.621 -0.1790  0.4390  0.1289
 1678poe     o2 7169   6.475   6.433   0.756  0.0322  0.1898  0.2272
 1678poe    c23 7170   6.366   6.377   0.825  0.2173 -0.2983  0.1256
 1678poe    c23 7171   6.383   6.416   0.973  0.0608 -0.2164  0.1228
 1678poe     o2 7172   6.326   6.542   0.997 -0.0863 -0.2451 -0.0798
 1678poe    c23 7173   6.388   6.594   1.113 -0.5322  0.0925  0.0133
 1678poe    c23 7174   6.333   6.736   1.138  0.0578  0.2132  0.6479
 1678poe     o2 7175   6.349   6.810   1.019 -0.3691 -0.0079  0.4513
 1678poe    c31 7176   6.296   6.941   1.024  0.1728  0.2014  0.7553
 1679poe    c31 7177   2.597   6.782   2.823  0.1196  0.0225 -0.1616
 1679poe     o2 7178   2.652   6.912   2.835 -0.0692  0.1708 -0.8237
 1679poe    c23 7179   2.779   6.921   2.775  0.0881 -0.0048 -0.5205
 1679poe    c23 7180   2.849   7.048   2.827 -0.2075  0.4072 -1.1231
 1679poe     o2 7181   2.747   7.137   2.867  0.5206  0.8270 -0.1653
 1679poe    c23 7182   2.796   7.233   2.958  0.2939  0.6929  0.0985
 1679poe    c23 7183   2.697   7.351   2.946  0.2434  0.6542  0.1330
 1679poe     o2 7184   2.570   7.293   2.967  0.5057 -0.1031 -0.3242
 1679poe    c23 7185   2.475   7.398   2.967  0.5989 -0.0141  0.4090
 1679poe    c23 7186   2.324   7.374   2.955  0.7427 -0.7050 -0.1695
 1679poe     o2 7187   2.280   7.304   2.841 -0.0973 -0.3035 -0.1013
 1679poe    c31 7188   2.139   7.298   2.837 -0.0945 -1.0641  0.6370
 1680poe    c31 7189   2.412   1.323   3.814 -0.6437  0.3581  0.3194
 1680poe     o2 7190   2.371   1.196   3.858 -0.1672  0.0071 -0.2275
 1680poe    c23 7191   2.460   1.087   3.844 -0.0426  0.1053 -0.1997
 1680poe    c23 7192   2.394   0.988   3.942 -0.2712  0.5322  0.0875
 1680poe     o2 7193   2.254   0.978   3.929 -0.2064 -0.0027 -0.2457
 1680poe    c23 7194   2.212   0.843   3.940  0.4727 -0.1983  0.0160
 1680poe    c23 7195   2.060   0.854   3.917  0.5842  0.4214 -0.4515
 1680poe     o2 7196   2.005   0.928   4.023  0.3351 -0.6066  0.1481
 1680poe    c23 7197   1.868   0.948   3.999  0.3146 -0.4713  0.3716
 1680poe    c23 7198   1.806   1.042   4.104  0.5156 -0.4371  0.4608
 1680poe     o2 7199   1.802   0.989   4.234 -0.0683 -0.3055  0.5002
 1680poe    c31 7200   1.794   1.090   4.332  0.0402 -0.0171  0.2145
 1681poe    c31 7201   4.808   5.349   0.685  0.6711 -0.3128  0.2691
 1681poe     o2 7202   4.818   5.488   0.708 -0.0402 -0.2410  0.1643
 1681poe    c23 7203   4.955   5.517   0.715 -0.0078 -0.4463  0.3845
 1681poe    c23 7204   4.961   5.669   0.743 -0.3333 -0.3387 -0.1291
 1681poe     o2 7205   4.859   5.687   0.839 -0.0205 -0.6791  0.2692
 1681poe    c23 7206   4.873   5.806   0.912  0.1320 -0.1162 -0.6603
 1681poe    c23 7207   4.750   5.899   0.902  0.1209  0.0959  1.1226
 1681poe     o2 7208   4.637   5.835   0.957 -0.2928 -0.2483 -0.1011
 1681poe    c23 7209   4.555   5.933   1.016  0.1893 -0.2632  0.6120
 1681poe    c23 7210   4.403   5.906   1.023  0.0733  0.2374  0.0914
 1681poe     o2 7211   4.341   5.997   1.111 -0.0210  0.4258 -0.1681
 1681poe    c31 7212   4.205   6.018   1.081 -0.3055  0.0569  0.8403
 1682poe    c31 7213   6.125   0.322   0.726  0.3107 -0.2525  0.6486
 1682poe     o2 7214   6.069   0.342   0.853 -0.3660 -0.3702  0.3733
 1682poe    c23 7215   6.140   0.258   0.942 -0.3732 -0.2702  0.4740
 1682poe    c23 7216   6.132   0.321   1.082  0.7859  0.9089  0.0276
 1682poe     o2 7217   6.005   0.281   1.131  0.9643  0.4269  0.1032
 1682poe    c23 7218   5.948   0.364   1.230  0.6049 -0.5014  0.6898
 1682poe    c23 7219   5.823   0.299   1.291 -0.4351  0.6798 -0.1203
 1682poe     o2 7220   5.743   0.250   1.186  0.0741  0.6086 -0.4819
 1682poe    c23 7221   5.690   0.127   1.232  0.4515  0.5466 -0.2048
 1682poe    c23 7222   5.582   0.102   1.125  0.4329 -0.2535  0.0013
 1682poe     o2 7223   5.620   0.098   0.990 -0.2710  0.1310 -0.2115
 1682poe    c31 7224   5.541   0.007   0.917 -0.2940 -0.0272  0.0118
 1683poe    c31 7225   2.298   0.790   0.216 -0.3333  0.0338  0.5370
 1683poe     o2 7226   2.438   0.797   0.208 -0.3568  0.3074  0.3525
 1683poe    c23 7227   2.483   0.925   0.167 -0.0778  0.0703 -0.0846
 1683poe    c23 7228   2.635   0.948   0.184 -0.0241 -0.1714 -0.2282
 1683poe     o2 7229   2.717   0.862   0.109 -0.0525 -0.1154 -0.3237
 1683poe    c23 7230   2.850   0.910   0.114 -0.0101 -0.2507 -0.1424
 1683poe    c23 7231   2.950   0.812   0.052  0.5411  0.0232  0.3041
 1683poe     o2 7232   2.924   0.678   0.085  0.4580  0.1136  0.6061
 1683poe    c23 7233   3.022   0.593   0.030 -0.3685 -0.0272 -0.7024
 1683poe    c23 7234   2.965   0.462   0.088 -0.3324  0.6496  0.9111
 1683poe     o2 7235   2.829   0.454   0.052 -0.0336  0.1988 -0.1443
 1683poe    c31 7236   2.767   0.329   0.075  0.0729  0.2041  0.1776
 1684poe    c31 7237   0.183   3.111   6.485 -0.0657  0.5731 -0.1942
 1684poe     o2 7238   0.192   3.003   6.395 -0.3876  0.2215  0.1920
 1684poe    c23 7239   0.224   3.058   6.269 -0.1640  0.0582  0.1768
 1684poe    c23 7240   0.220   2.939   6.170  0.0017  0.2537 -0.0653
 1684poe     o2 7241   0.094   2.876   6.177  0.0003  0.2470 -0.1497
 1684poe    c23 7242   0.072   2.761   6.098  0.0667  0.0078  0.1754
 1684poe    c23 7243  -0.060   2.705   6.153 -0.1830  0.7857  0.3882
 1684poe     o2 7244  -0.029   2.691   6.290 -0.2307 -0.4873  0.2812
 1684poe    c23 7245  -0.083   2.569   6.337 -0.2257 -0.5520  0.1193
 1684poe    c23 7246  -0.068   2.563   6.490  0.1070 -0.0412  0.1100
 1684poe     o2 7247  -0.155   2.648   6.560 -0.3389 -0.6233  0.2676
 1684poe    c31 7248  -0.166   2.599   6.692 -0.7234  0.3342  0.5990
 1685poe    c31 7249   5.710   6.924   2.701 -0.3759 -0.4180 -0.3280
 1685poe     o2 7250   5.822   6.962   2.625 -0.1216 -0.1451  0.1771
 1685poe    c23 7251   5.887   7.071   2.686  0.0974 -0.1105 -0.1180
 1685poe    c23 7252   5.919   7.183   2.585 -0.3368 -0.3718 -0.5509
 1685poe     o2 7253   6.006   7.125   2.491  0.5594 -0.0417  0.0599
 1685poe    c23 7254   6.052   7.218   2.396  0.2281  0.3341  0.2632
 1685poe    c23 7255   6.120   7.156   2.272 -0.9530  0.5677 -0.5186
 1685poe     o2 7256   6.041   7.052   2.217 -0.6199  0.0375 -0.0115
 1685poe    c23 7257   6.033   7.072   2.078  0.4590  1.0021  0.0507
 1685poe    c23 7258   6.136   6.992   1.997 -0.0510  0.2242  0.1665
 1685poe     o2 7259   6.154   6.853   2.016 -0.3798  0.1817  0.1682
 1685poe    c31 7260   6.241   6.810   1.914 -0.2087  0.1688  0.3179
 1686poe    c31 7261   2.925   2.471   0.624  0.5101  0.0514 -0.7020
 1686poe     o2 7262   3.036   2.394   0.585  0.4584 -0.4250  0.0865
 1686poe    c23 7263   3.034   2.269   0.651 -0.3867 -0.1822  0.5359
 1686poe    c23 7264   3.151   2.183   0.601 -0.5417  0.1312 -0.3715
 1686poe     o2 7265   3.178   2.182   0.462 -0.7021 -0.2388 -0.4002
 1686poe    c23 7266   3.314   2.150   0.444 -0.5143  0.1841  0.2427
 1686poe    c23 7267   3.373   2.181   0.306 -0.6299  0.7731  0.3239
 1686poe     o2 7268   3.381   2.320   0.280  0.4782  0.6768  0.0952
 1686poe    c23 7269   3.422   2.338   0.147 -0.2757 -0.0636 -0.2428
 1686poe    c23 7270   3.442   2.488   0.119  0.1030 -0.1004 -0.1622
 1686poe     o2 7271   3.353   2.568   0.046  0.0014 -0.1463 -0.0880
 1686poe    c31 7272   3.413   2.622  -0.070 -0.5396 -0.4533 -0.5194
 1687poe    c31 7273   2.855   3.958   2.848  0.1147  0.2076  0.4112
 1687poe     o2 7274   2.715   3.972   2.837  0.1959  0.2673 -0.6665
 1687poe    c23 7275   2.650   3.847   2.834  0.5564  0.0333  0.6824
 1687poe    c23 7276   2.498   3.872   2.840  0.5199 -0.0873  0.2487
 1687poe     o2 7277   2.433   3.881   2.715  0.0344 -0.4578  0.4730
 1687poe    c23 7278   2.317   3.962   2.714  0.3903  0.0597 -0.4174
 1687poe    c23 7279   2.243   3.966   2.580 -0.6146 -0.0387  0.1233
 1687poe     o2 7280   2.322   4.028   2.480 -0.2711 -0.5806  0.0545
 1687poe    c23 7281   2.249   4.044   2.360  0.0431 -0.0234 -0.0619
 1687poe    c23 7282   2.344   4.106   2.256  0.1854  0.0409  0.1051
 1687poe     o2 7283   2.469   4.041   2.243  0.3876  0.3517  0.4485
 1687poe    c31 7284   2.530   4.095   2.129 -0.0924 -0.6502 -0.3072
 1688poe    c31 7285   3.924   6.880   5.431 -0.3657  0.2767 -0.4595
 1688poe     o2 7286   4.016   6.933   5.338  0.2865 -0.2330 -0.1119
 1688poe    c23 7287   3.946   7.021   5.252  0.3207 -0.5148 -0.4333
 1688poe    c23 7288   4.043   7.063   5.140  0.2702 -0.3606 -0.4193
 1688poe     o2 7289   4.072   6.952   5.058 -0.1019 -0.5722 -0.2677
 1688poe    c23 7290   4.168   6.987   4.960  0.1604  0.2223  0.2624
 1688poe    c23 7291   4.194   6.855   4.885  0.3074  0.3034  0.1712
 1688poe     o2 7292   4.216   6.741   4.965 -0.2624 -0.0085 -0.1089
 1688poe    c23 7293   4.230   6.622   4.891 -0.6479 -0.0481 -0.1168
 1688poe    c23 7294   4.199   6.502   4.983 -0.7527  0.3873  0.4212
 1688poe     o2 7295   4.298   6.499   5.083 -0.3780  0.2410  0.0514
 1688poe    c31 7296   4.332   6.364   5.106 -0.5463  0.1808 -0.0610
 1689poe    c31 7297   6.407   6.991   6.502  0.1784  0.8012 -0.8542
 1689poe     o2 7298   6.545   7.012   6.483  0.4032  0.0768 -0.0834
 1689poe    c23 7299   6.590   6.947   6.367  0.0586  0.7704 -0.6134
 1689poe    c23 7300   6.743   6.940   6.348  0.0707  0.2306 -0.3484
 1689poe     o2 7301   6.796   7.070   6.336  0.4831  0.0601 -0.3869
 1689poe    c23 7302   6.936   7.058   6.322  0.4587 -0.4128 -0.2184
 1689poe    c23 7303   7.004   7.158   6.228 -0.0761  0.5713  0.4257
 1689poe     o2 7304   6.946   7.157   6.100  0.8249 -0.5783  0.0102
 1689poe    c23 7305   7.054   7.168   6.009  0.6780 -0.0456 -0.1054
 1689poe    c23 7306   6.992   7.125   5.875 -0.0446  0.1789  0.1498
 1689poe     o2 7307   6.876   7.201   5.848  0.1544  0.5944  0.4634
 1689poe    c31 7308   6.834   7.179   5.715  0.1079 -0.5724  0.6621
 1690poe    c31 7309   1.622   0.049   3.627 -0.7740  0.2802  0.2408
 1690poe     o2 7310   1.628   0.061   3.768  0.1753  0.0087  0.2286
 1690poe    c23 7311   1.764   0.077   3.803  0.1253  0.4642  0.2234
 1690poe    c23 7312   1.788   0.074   3.955  0.3896 -0.0258  0.1725
 1690poe     o2 7313   1.757  -0.048   4.018  0.3175  0.2841  0.7462
 1690poe    c23 7314   1.621  -0.085   4.006  0.3768  0.3940 -0.3163
 1690poe    c23 7315   1.586  -0.226   4.056  0.3036  0.4543 -0.1982
 1690poe     o2 7316   1.669  -0.323   3.997 -0.3254 -0.1590 -0.0954
 1690poe    c23 7317   1.648  -0.443   4.067 -0.1888 -0.2260 -0.1700
 1690poe    c23 7318   1.723  -0.557   3.996  0.1535 -0.0076 -0.1594
 1690poe     o2 7319   1.861  -0.531   4.010  0.2088  0.1441 -0.9637
 1690poe    c31 7320   1.921  -0.659   4.007 -0.1438 -0.0214 -1.0135
 1691poe    c31 7321   5.868   0.848   0.635 -0.1572 -0.3677  0.3759
 1691poe     o2 7322   5.914   0.748   0.547  0.2661  0.1231  0.0350
 1691poe    c23 7323   6.035   0.798   0.496  0.2359 -0.0160 -0.1729
 1691poe    c23 7324   6.102   0.697   0.401 -0.0597 -0.7649  0.4039
 1691poe     o2 7325   6.029   0.662   0.286 -0.6437 -0.1589  0.5814
 1691poe    c23 7326   6.102   0.564   0.215  0.2218  0.8819  0.0068
 1691poe    c23 7327   6.051   0.580   0.071  0.5568  0.4659 -0.1609
 1691poe     o2 7328   5.912   0.604   0.078  0.4789 -0.0698  0.1561
 1691poe    c23 7329   5.844   0.570  -0.041 -0.3140  0.3195  0.4962
 1691poe    c23 7330   5.702   0.520  -0.007 -0.4393  0.2148 -0.1736
 1691poe     o2 7331   5.629   0.625   0.052  0.2677  0.7843 -0.2979
 1691poe    c31 7332   5.490   0.618   0.029  0.2693 -0.1489 -0.0810
 1692poe    c31 7333   6.446   3.402   1.687  0.2601  0.3807 -0.6135
 1692poe     o2 7334   6.372   3.520   1.712 -0.6697 -0.4476  0.6919
 1692poe    c23 7335   6.239   3.492   1.749 -0.6352 -0.9284  0.4581
 1692poe    c23 7336   6.205   3.599   1.855  0.0256 -0.1262 -0.1299
 1692poe     o2 7337   6.226   3.737   1.835  0.0026 -0.0426  0.4198
 1692poe    c23 7338   6.170   3.823   1.932 -0.2049  0.0555  0.2137
 1692poe    c23 7339   6.164   3.963   1.870 -0.3980 -0.1213 -0.1691
 1692poe     o2 7340   6.276   3.985   1.787 -0.6731 -0.1009 -0.5379
 1692poe    c23 7341   6.330   4.113   1.768  0.3488 -0.4359  0.0358
 1692poe    c23 7342   6.408   4.097   1.636  0.4851  0.5783 -0.0177
 1692poe     o2 7343   6.489   3.982   1.647  0.0305  0.2285 -0.2667
 1692poe    c31 7344   6.594   3.974   1.554  0.0653 -0.4209 -0.1767
 1693poe    c31 7345   3.168   4.871   5.035 -0.0178 -0.4141 -0.2936
 1693poe     o2 7346   3.062   4.950   5.085  0.0710 -0.6099  0.2052
 1693poe    c23 7347   3.102   5.050   5.176 -0.0386 -0.1317 -0.2731
 1693poe    c23 7348   2.999   5.108   5.274  0.4613  0.1754  0.0762
 1693poe     o2 7349   2.888   5.172   5.216 -0.0152 -0.4112  0.3306
 1693poe    c23 7350   2.805   5.227   5.316  0.0740 -0.5816  0.4994
 1693poe    c23 7351   2.689   5.298   5.244  0.7605 -0.2040 -0.2435
 1693poe     o2 7352   2.639   5.211   5.145 -0.3466 -0.3058  0.3978
 1693poe    c23 7353   2.521   5.266   5.090  0.4704  0.9693 -0.1031
 1693poe    c23 7354   2.477   5.196   4.961  0.1246 -0.1155  0.5985
 1693poe     o2 7355   2.593   5.181   4.884 -0.1832 -0.1987  0.1465
 1693poe    c31 7356   2.552   5.160   4.751 -0.1570  0.2929  0.0614
 1694poe    c31 7357   0.581   0.400   0.948 -0.0263 -0.1937  0.2123
 1694poe     o2 7358   0.443   0.378   0.927  0.0137  0.0158 -0.2854
 1694poe    c23 7359   0.425   0.294   0.815  0.0166 -0.2670 -0.0758
 1694poe    c23 7360   0.275   0.260   0.807 -0.1330  0.3844 -0.1184
 1694poe     o2 7361   0.219   0.380   0.855 -0.2606  0.1765  0.2585
 1694poe    c23 7362   0.082   0.395   0.828 -0.3329 -0.3855  0.3173
 1694poe    c23 7363   0.051   0.533   0.890  0.1757  0.0062 -0.2967
 1694poe     o2 7364   0.103   0.534   1.021 -0.4216  0.1762 -0.0592
 1694poe    c23 7365   0.033   0.615   1.113 -0.3011  0.1379  0.0660
 1694poe    c23 7366   0.050   0.767   1.099  0.0129  0.0679 -0.3210
 1694poe     o2 7367   0.185   0.801   1.072  0.1155  0.0688  0.1804
 1694poe    c31 7368   0.212   0.934   1.033 -0.3980  0.3278  0.6933
 1695poe    c31 7369   6.341   1.786   0.268  0.7229  0.3287  0.1718
 1695poe     o2 7370   6.314   1.918   0.309  0.2591  0.3034 -0.0469
 1695poe    c23 7371   6.415   2.006   0.264  0.5357  0.1257  0.2263
 1695poe    c23 7372   6.383   2.147   0.317 -0.1610  0.0853 -0.0845
 1695poe     o2 7373   6.376   2.153   0.458 -0.0744  0.0524 -0.0790
 1695poe    c23 7374   6.382   2.289   0.493 -0.1692  0.0930 -0.2193
 1695poe    c23 7375   6.348   2.338   0.635 -0.3619 -0.0934 -0.2016
 1695poe     o2 7376   6.210   2.323   0.662 -0.4597 -0.2449 -0.7743
 1695poe    c23 7377   6.180   2.407   0.771  0.0010 -0.9218 -0.1169
 1695poe    c23 7378   6.039   2.404   0.834 -0.1313 -0.6713 -0.3998
 1695poe     o2 7379   5.999   2.287   0.902  0.2126 -0.5577  0.0083
 1695poe    c31 7380   5.859   2.302   0.917  0.3749  0.1107  0.9255
 1696poe    c31 7381   3.397   3.945   4.401  0.1155  0.5423 -0.3839
 1696poe     o2 7382   3.371   3.993   4.271 -0.0827  0.4354 -0.3839
 1696poe    c23 7383   3.496   4.043   4.229  0.1804  0.0804 -0.0361
 1696poe    c23 7384   3.460   4.090   4.086 -0.1800 -0.6715 -0.1962
 1696poe     o2 7385   3.387   3.996   4.011  0.1968 -0.7672 -0.4443
 1696poe    c23 7386   3.369   4.059   3.886 -0.0479 -0.2792 -0.1634
 1696poe    c23 7387   3.282   3.975   3.791 -0.4360  0.4711 -0.4771
 1696poe     o2 7388   3.303   3.969   3.652 -0.1810 -0.5127 -0.4010
 1696poe    c23 7389   3.225   3.895   3.561 -0.3641 -0.0790 -0.5956
 1696poe    c23 7390   3.237   3.742   3.571 -0.0496 -0.0099  0.1294
 1696poe     o2 7391   3.155   3.683   3.669 -0.3665 -0.0013 -0.1291
 1696poe    c31 7392   3.139   3.546   3.641  0.2169 -0.0034 -0.4694
 1697poe    c31 7393   5.312   2.625   0.684 -0.4920 -0.4094  0.0088
 1697poe     o2 7394   5.186   2.574   0.646 -0.2171 -0.6724 -0.5682
 1697poe    c23 7395   5.117   2.672   0.572  0.2015 -0.1463 -0.2723
 1697poe    c23 7396   4.963   2.667   0.579  0.1865  0.0015 -0.4936
 1697poe     o2 7397   4.909   2.549   0.523  0.1083 -0.1362 -0.1291
 1697poe    c23 7398   4.769   2.548   0.537  0.1460  0.3435  0.3210
 1697poe    c23 7399   4.728   2.402   0.564  0.2788  0.2844  0.2024
 1697poe     o2 7400   4.790   2.337   0.455  0.7120 -0.0344  0.6315
 1697poe    c23 7401   4.754   2.201   0.453 -0.1164  0.1873  0.0111
 1697poe    c23 7402   4.850   2.133   0.353  0.1123  0.2475  0.1877
 1697poe     o2 7403   4.982   2.176   0.377  0.1006  0.3231  0.1197
 1697poe    c31 7404   5.057   2.105   0.282 -0.3339  0.5148 -0.3718
 1698poe    c31 7405   4.531   4.296   2.985 -0.4915 -0.4087 -0.5979
 1698poe     o2 7406   4.573   4.175   3.043  0.1417  0.2971  0.4507
 1698poe    c23 7407   4.459   4.105   3.086  0.2922 -0.1567  0.1204
 1698poe    c23 7408   4.485   4.011   3.205  1.0116  0.2415  0.2806
 1698poe     o2 7409   4.584   3.913   3.184  0.6082  0.0604 -0.8225
 1698poe    c23 7410   4.614   3.834   3.297 -0.4480  0.2622 -0.3887
 1698poe    c23 7411   4.712   3.726   3.247  0.1309  0.1645  0.9129
 1698poe     o2 7412   4.813   3.797   3.180 -0.3928  0.2934  0.2459
 1698poe    c23 7413   4.933   3.722   3.172 -0.3047  0.4109  0.4544
 1698poe    c23 7414   5.012   3.790   3.059 -0.4130 -0.2904 -0.0485
 1698poe     o2 7415   4.919   3.819   2.956  0.0662  0.3472 -0.3142
 1698poe    c31 7416   4.983   3.881   2.847  0.8865 -0.7709 -0.4855
 1699poe    c31 7417   5.894   1.329   6.576 -0.4914 -0.2665 -0.7172
 1699poe     o2 7418   5.913   1.262   6.453 -0.7172 -0.1625 -0.8088
 1699poe    c23 7419   5.989   1.345   6.368  0.2604 -0.1463  0.0650
 1699poe    c23 7420   5.924   1.326   6.230  0.4166 -0.1536 -0.0077
 1699poe     o2 7421   5.901   1.187   6.226  0.3618 -0.1374 -0.2757
 1699poe    c23 7422   5.805   1.156   6.127 -0.3741 -0.2630  0.4681
 1699poe    c23 7423   5.792   1.004   6.108  0.2134 -0.2802  0.1847
 1699poe     o2 7424   5.783   0.931   6.228 -0.0682 -0.6258 -0.0469
 1699poe    c23 7425   5.780   0.791   6.208 -0.0690 -0.5740 -0.4250
 1699poe    c23 7426   5.774   0.724   6.347 -0.4711 -0.0425 -0.1806
 1699poe     o2 7427   5.882   0.764   6.428 -0.5443 -0.5808  0.1923
 1699poe    c31 7428   5.931   0.657   6.505 -0.5580 -0.5794  0.2027
 1700poe    c31 7429   6.628   5.248   6.541 -0.1203 -0.2248  0.4001
 1700poe     o2 7430   6.556   5.192   6.434 -0.0364  0.0741  0.1827
 1700poe    c23 7431   6.602   5.251   6.315  0.5285 -0.9213 -0.1038
 1700poe    c23 7432   6.495   5.221   6.208  0.3306  0.3309 -0.2753
 1700poe     o2 7433   6.492   5.087   6.165  0.0923  0.4630 -0.6702
 1700poe    c23 7434   6.357   5.048   6.147 -0.0130  0.2322  0.5398
 1700poe    c23 7435   6.352   4.911   6.078 -0.1272  0.1333  0.7446
 1700poe     o2 7436   6.401   4.815   6.169  0.3125 -0.1405  0.2225
 1700poe    c23 7437   6.420   4.691   6.105 -0.0752  0.1543 -0.4774
 1700poe    c23 7438   6.459   4.590   6.214  0.3329  0.5967 -0.2108
 1700poe     o2 7439   6.555   4.659   6.291  0.0181  0.4071  0.3622
 1700poe    c31 7440   6.636   4.582   6.376 -0.1486 -0.3752 -0.1709
 1701poe    c31 7441   0.315   5.654   1.987 -0.0033 -0.1436  0.7301
 1701poe     o2 7442   0.369   5.781   2.016 -0.1645  0.0957  0.0177
 1701poe    c23 7443   0.273   5.868   2.071  0.0610  0.0695  0.4623
 1701poe    c23 7444   0.289   6.014   2.027 -0.2420 -0.0850 -0.1848
 1701poe     o2 7445   0.411   6.061   2.080 -0.2726 -0.1720 -0.0366
 1701poe    c23 7446   0.443   6.184   2.020 -0.3603  0.0061  0.2797
 1701poe    c23 7447   0.578   6.181   1.945 -0.4350 -0.8899  0.1791
 1701poe     o2 7448   0.691   6.139   2.018  0.2384  0.3747 -0.1108
 1701poe    c23 7449   0.816   6.164   1.958  0.5232  0.6164  0.5704
 1701poe    c23 7450   0.920   6.079   2.032  0.2521 -0.3390 -0.1260
 1701poe     o2 7451   0.852   5.963   2.074 -0.0563 -0.1624 -0.1378
 1701poe    c31 7452   0.951   5.892   2.145  0.3075  0.3767 -0.1006
 1702poe    c31 7453   1.949   5.280   0.925  0.5193  0.4163 -0.6531
 1702poe     o2 7454   2.065   5.279   1.004  0.2170 -0.6901 -0.2037
 1702poe    c23 7455   2.034   5.265   1.141  0.1909 -0.5035 -0.1898
 1702poe    c23 7456   2.169   5.255   1.213  0.1600 -0.2217 -0.0923
 1702poe     o2 7457   2.249   5.350   1.146 -0.3448  0.5953  0.4379
 1702poe    c23 7458   2.369   5.331   1.217 -0.2322 -0.0830  0.0808
 1702poe    c23 7459   2.469   5.436   1.162  0.3887 -0.7690 -0.1165
 1702poe     o2 7460   2.481   5.418   1.023  0.3133  0.4459 -0.2912
 1702poe    c23 7461   2.614   5.408   0.976  0.3285 -0.3733 -0.1017
 1702poe    c23 7462   2.607   5.389   0.823 -0.2850  0.5883 -0.2055
 1702poe     o2 7463   2.531   5.280   0.776 -0.2168  0.3654  0.1924
 1702poe    c31 7464   2.568   5.255   0.642  0.0808  0.4468  0.2597
 1703poe    c31 7465   3.753   0.162   4.245 -0.5938  0.6969 -0.4038
 1703poe     o2 7466   3.727   0.055   4.156  0.8016 -0.1734  0.2003
 1703poe    c23 7467   3.796  -0.064   4.183  0.6750 -0.1615  0.5866
 1703poe    c23 7468   3.723  -0.169   4.269  0.6763 -0.6372  0.0178
 1703poe     o2 7469   3.603  -0.211   4.209  0.3763 -0.3458  0.4084
 1703poe    c23 7470   3.627  -0.331   4.139 -1.0252 -0.3989 -0.0081
 1703poe    c23 7471   3.531  -0.356   4.021  0.0136  0.3282 -1.0282
 1703poe     o2 7472   3.523  -0.483   3.960 -0.7060  0.1479 -0.5627
 1703poe    c23 7473   3.620  -0.522   3.865 -0.5860  0.1882 -0.4564
 1703poe    c23 7474   3.612  -0.669   3.821 -0.4274 -0.1223  0.5233
 1703poe     o2 7475   3.483  -0.673   3.763 -0.0123  0.7658 -0.4772
 1703poe    c31 7476   3.475  -0.778   3.670 -0.1227  0.1747  0.1970
 1704poe    c31 7477   6.768   4.821   3.011  0.1745  0.2705 -0.1829
 1704poe     o2 7478   6.893   4.861   3.062 -0.0146  0.3162  0.2508
 1704poe    c23 7479   6.990   4.794   2.984 -0.1273  0.1482  0.2546
 1704poe    c23 7480   7.122   4.847   3.043  0.1271 -0.1004 -0.0905
 1704poe     o2 7481   7.110   4.851   3.183 -0.6182  0.5981 -0.1689
 1704poe    c23 7482   7.241   4.887   3.222 -0.7305  0.7074  0.1128
 1704poe    c23 7483   7.245   4.872   3.375 -0.1165 -0.5553 -0.0135
 1704poe     o2 7484   7.166   4.974   3.432  0.0276 -0.1148 -0.5892
 1704poe    c23 7485   7.254   5.076   3.475 -0.6163 -0.0361  0.5998
 1704poe    c23 7486   7.172   5.200   3.512 -0.4893  0.1407  0.2929
 1704poe     o2 7487   7.139   5.252   3.385 -0.7229 -0.5324  0.0775
 1704poe    c31 7488   7.093   5.385   3.385 -0.4467 -0.4353 -0.1746
 1705poe    c31 7489   4.505   6.934   1.323  0.6133 -0.1903  0.2080
 1705poe     o2 7490   4.389   6.984   1.384  0.4115 -0.4495  0.0392
 1705poe    c23 7491   4.368   7.116   1.338 -0.1316 -0.3874  0.4490
 1705poe    c23 7492   4.235   7.127   1.261 -0.2059 -0.1519  0.6081
 1705poe     o2 7493   4.119   7.115   1.339 -0.4167 -0.0359  0.3126
 1705poe    c23 7494   3.997   7.121   1.268 -0.1653 -0.6689 -0.1819
 1705poe    c23 7495   3.889   7.138   1.376 -0.0172 -0.3168 -0.0895
 1705poe     o2 7496   3.891   7.022   1.455 -0.6071 -0.0561  0.3188
 1705poe    c23 7497   3.843   7.051   1.584  0.5961 -0.3195  0.8420
 1705poe    c23 7498   3.818   6.915   1.653 -0.1566 -0.3267  0.5594
 1705poe     o2 7499   3.942   6.850   1.642 -0.3692 -0.5701 -0.4135
 1705poe    c31 7500   3.954   6.727   1.711 -0.5763 -0.5091 -0.2699
 1706poe    c31 7501   2.807   6.752   5.275 -0.1801  0.5215  0.7465
 1706poe     o2 7502   2.708   6.772   5.176  0.3152 -0.2064  0.0987
 1706poe    c23 7503   2.699   6.904   5.128 -0.8411 -0.1108  0.5646
 1706poe    c23 7504   2.641   6.915   4.986  0.3904 -0.4519  0.0203
 1706poe     o2 7505   2.516   6.856   4.959  0.2761 -0.4124  0.4434
 1706poe    c23 7506   2.447   6.923   4.856  0.0931 -0.0242  0.8177
 1706poe    c23 7507   2.305   6.865   4.842  0.1980 -0.0934 -0.0704
 1706poe     o2 7508   2.326   6.726   4.839 -0.3228 -0.1713 -0.1671
 1706poe    c23 7509   2.200   6.668   4.813 -0.5178  0.2370 -0.1277
 1706poe    c23 7510   2.251   6.524   4.792 -0.2364  0.3051  0.0783
 1706poe     o2 7511   2.324   6.492   4.908 -0.5654 -0.2095  0.1476
 1706poe    c31 7512   2.326   6.352   4.926  0.1653 -0.2150  0.0626
 1707poe    c31 7513   6.779   1.352   6.582  0.1723  0.8209  0.0419
 1707poe     o2 7514   6.842   1.285   6.476 -0.0859  0.4527  0.1203
 1707poe    c23 7515   6.847   1.385   6.377 -0.5742 -0.1592 -0.5327
 1707poe    c23 7516   6.880   1.303   6.250  0.4776  0.5936 -0.7529
 1707poe     o2 7517   6.984   1.210   6.273 -0.4909 -0.4198 -0.4088
 1707poe    c23 7518   7.010   1.139   6.154 -0.3864 -0.4557 -0.3647
 1707poe    c23 7519   7.137   1.065   6.200 -0.2678 -0.0551 -0.0441
 1707poe     o2 7520   7.102   0.993   6.316  0.0770 -0.3304 -0.1095
 1707poe    c23 7521   7.205   0.908   6.361 -0.0740 -0.4898 -0.0651
 1707poe    c23 7522   7.181   0.797   6.465  0.1777 -0.0240  0.4965
 1707poe     o2 7523   7.094   0.827   6.572 -0.5116  0.5593 -0.2184
 1707poe    c31 7524   7.133   0.754   6.686  0.0970  0.1617 -0.6805
 1708poe    c31 7525   1.312   5.959   4.348 -0.5905 -0.1861 -0.0820
 1708poe     o2 7526   1.390   5.851   4.301 -0.0215  0.2353 -0.1161
 1708poe    c23 7527   1.518   5.839   4.359 -0.2774  0.6210  0.5542
 1708poe    c23 7528   1.553   5.694   4.318 -0.6700  0.5742  0.3774
 1708poe     o2 7529   1.512   5.682   4.184 -0.0891  0.0050  0.2445
 1708poe    c23 7530   1.554   5.555   4.139  0.0003  0.2196 -0.2889
 1708poe    c23 7531   1.518   5.558   3.990 -0.1144 -0.6038 -0.2810
 1708poe     o2 7532   1.384   5.602   3.996  0.0298 -0.1830 -0.1480
 1708poe    c23 7533   1.326   5.586   3.869  0.0970  0.0335 -0.2069
 1708poe    c23 7534   1.173   5.575   3.858 -0.0104  0.2571  0.9600
 1708poe     o2 7535   1.109   5.699   3.879 -0.1156  0.2536  0.6637
 1708poe    c31 7536   0.969   5.686   3.877 -0.1588  0.7450 -0.0294
 1709poe    c31 7537   6.964   6.687   0.613 -0.0047  0.3888  0.1880
 1709poe     o2 7538   7.081   6.641   0.677 -0.1011 -0.1810 -0.0422
 1709poe    c23 7539   7.094   6.501   0.668 -0.0442 -0.1581 -0.3313
 1709poe    c23 7540   7.214   6.462   0.756  0.0683  0.1086 -0.3662
 1709poe     o2 7541   7.303   6.568   0.726  0.1015  0.4206  0.7589
 1709poe    c23 7542   7.426   6.540   0.788  0.3158  0.7154  0.4694
 1709poe    c23 7543   7.528   6.630   0.717  0.2919 -0.1780 -0.7137
 1709poe     o2 7544   7.466   6.753   0.685 -0.1251 -0.2557 -0.2129
 1709poe    c23 7545   7.569   6.834   0.633 -0.0649  0.2277  0.6446
 1709poe    c23 7546   7.542   6.985   0.614  0.2840  0.1199 -0.8512
 1709poe     o2 7547   7.431   7.004   0.530 -0.3709  0.1401  0.0123
 1709poe    c31 7548   7.422   7.137   0.484 -0.2012 -0.2032 -1.0192
 1710poe    c31 7549   3.734   6.633   2.172  0.0232  0.0285  0.2865
 1710poe     o2 7550   3.593   6.626   2.159  0.0236 -0.3310  0.4610
 1710poe    c23 7551   3.546   6.499   2.196  0.0379 -0.2436  0.7815
 1710poe    c23 7552   3.393   6.508   2.199  0.0296 -0.0480 -0.0552
 1710poe     o2 7553   3.358   6.589   2.309 -0.1278  0.1441 -0.2455
 1710poe    c23 7554   3.223   6.631   2.313 -0.1636  0.0340 -0.3067
 1710poe    c23 7555   3.194   6.704   2.445  0.3620 -0.1962 -0.0584
 1710poe     o2 7556   3.292   6.804   2.455  0.2335 -0.0765  0.0127
 1710poe    c23 7557   3.300   6.864   2.583  0.0826 -0.2677  0.1128
 1710poe    c23 7558   3.433   6.942   2.596  0.2440 -0.6384  0.7286
 1710poe     o2 7559   3.533   6.855   2.548 -0.1296 -0.4948 -0.3494
 1710poe    c31 7560   3.658   6.920   2.558 -0.3470 -0.0173 -0.6908
 1711poe    c31 7561   6.403   3.917   3.025 -0.1744 -0.5962 -0.5162
 1711poe     o2 7562   6.542   3.940   3.023 -0.2326 -0.1589  0.2760
 1711poe    c23 7563   6.601   3.850   2.933  0.6425 -0.1633  0.8452
 1711poe    c23 7564   6.744   3.899   2.901  0.4344 -0.1164 -0.0526
 1711poe     o2 7565   6.807   3.830   2.795  0.3209 -0.3373  0.0233
 1711poe    c23 7566   6.915   3.906   2.747  0.2063 -0.1019  0.1369
 1711poe    c23 7567   6.937   3.875   2.598  0.4987  0.1986  0.1159
 1711poe     o2 7568   6.821   3.882   2.519  0.4922 -0.4124  0.0716
 1711poe    c23 7569   6.850   3.853   2.384  0.3747 -0.1802 -0.0046
 1711poe    c23 7570   6.729   3.800   2.305  0.2956 -0.5047  0.3309
 1711poe     o2 7571   6.648   3.711   2.377 -0.0050 -0.1007  0.4937
 1711poe    c31 7572   6.540   3.662   2.300  0.0472  0.4694  0.0535
 1712poe    c31 7573   1.655   5.013   3.215  0.0778  0.4714 -0.6113
 1712poe     o2 7574   1.681   4.985   3.079 -0.2593 -0.0072 -0.5784
 1712poe    c23 7575   1.740   5.101   3.025 -0.1583  0.1543 -0.1295
 1712poe    c23 7576   1.711   5.088   2.874  0.3324 -0.0481 -0.2090
 1712poe     o2 7577   1.727   4.951   2.843  0.5691 -0.2074  0.5964
 1712poe    c23 7578   1.778   4.945   2.712  0.3796  0.1211  0.5064
 1712poe    c23 7579   1.753   4.804   2.657  0.2031  0.4789 -0.3426
 1712poe     o2 7580   1.798   4.714   2.756  0.1088  0.1496 -0.5964
 1712poe    c23 7581   1.772   4.582   2.713 -0.3806  0.0705 -0.0654
 1712poe    c23 7582   1.775   4.461   2.808 -0.3183  0.0469 -0.0970
 1712poe     o2 7583   1.663   4.453   2.893  0.2841 -0.0654  0.6989
 1712poe    c31 7584   1.616   4.320   2.897 -0.4426  0.1614 -0.1066
 1713poe    c31 7585   1.518   1.028   3.934 -0.2029  0.2096  0.1172
 1713poe     o2 7586   1.462   1.013   3.806 -0.0632 -0.2132  0.1052
 1713poe    c23 7587   1.504   0.896   3.739  0.7387  0.3212 -0.3337
 1713poe    c23 7588   1.442   0.864   3.601  0.1044  0.1299 -0.0039
 1713poe     o2 7589   1.301   0.864   3.604  0.0924 -0.7541 -0.1235
 1713poe    c23 7590   1.255   0.837   3.474 -0.0102 -0.0010 -0.2478
 1713poe    c23 7591   1.103   0.854   3.458 -0.0295  0.0880  0.0324
 1713poe     o2 7592   1.094   0.993   3.485  0.6660  0.2492 -0.5571
 1713poe    c23 7593   0.969   1.045   3.446  0.5726  0.3885 -0.0765
 1713poe    c23 7594   0.941   1.191   3.489 -0.1180 -0.1583  1.3952
 1713poe     o2 7595   1.055   1.262   3.531  0.1341 -0.3436  1.0371
 1713poe    c31 7596   1.020   1.366   3.620  0.4672  0.7588 -0.0881
 1714poe    c31 7597   5.473   5.969   2.545 -0.0955 -0.8455 -0.4613
 1714poe     o2 7598   5.353   6.030   2.588  0.1009 -0.3987 -0.5353
 1714poe    c23 7599   5.339   6.158   2.531  0.2771 -0.0432  0.2184
 1714poe    c23 7600   5.207   6.227   2.574  0.5494  0.6173  0.0046
 1714poe     o2 7601   5.212   6.249   2.713 -0.1134  0.7324  0.0100
 1714poe    c23 7602   5.079   6.265   2.757 -0.0366  0.9995  0.1462
 1714poe    c23 7603   5.049   6.224   2.902 -0.1426  0.4541 -0.0291
 1714poe     o2 7604   5.075   6.093   2.949 -0.0233  0.3214 -0.4632
 1714poe    c23 7605   5.021   6.082   3.078 -0.4809 -0.1539 -0.6896
 1714poe    c23 7606   4.977   5.940   3.118 -0.8789  0.2891  0.5228
 1714poe     o2 7607   5.087   5.857   3.149 -0.2251  0.9847  0.1161
 1714poe    c31 7608   5.054   5.728   3.198 -0.1673  0.9224 -0.0090
 1715poe    c31 7609   2.842   4.162   5.631 -0.0475  0.2805  0.1241
 1715poe     o2 7610   2.896   4.278   5.573  0.0843  0.2667  0.2172
 1715poe    c23 7611   3.010   4.245   5.497  0.1250  0.3999  0.2201
 1715poe    c23 7612   3.066   4.366   5.420 -0.1197  0.2910 -0.1324
 1715poe     o2 7613   2.946   4.415   5.364 -0.3782 -0.4233 -0.2057
 1715poe    c23 7614   2.964   4.477   5.239 -0.6858  0.6831  0.2872
 1715poe    c23 7615   2.971   4.630   5.255  0.0124  0.7665 -0.7369
 1715poe     o2 7616   2.876   4.667   5.352 -0.0104 -0.3386 -0.3215
 1715poe    c23 7617   2.918   4.780   5.425 -0.0991 -0.7314  0.3480
 1715poe    c23 7618   2.818   4.841   5.525 -0.2760 -0.6618  0.1271
 1715poe     o2 7619   2.694   4.895   5.484 -0.1090 -0.2692  0.1333
 1715poe    c31 7620   2.605   4.806   5.421 -0.1840 -0.0753 -0.0336
 1716poe    c31 7621   3.390   4.157   0.721  0.6324 -0.1952 -0.2878
 1716poe     o2 7622   3.271   4.212   0.774  1.1687  0.7705 -0.0639
 1716poe    c23 7623   3.178   4.238   0.671  0.2665 -0.4718  0.4109
 1716poe    c23 7624   3.072   4.325   0.741  0.5144  0.0957  0.0929
 1716poe     o2 7625   3.025   4.262   0.858  0.0890 -0.1234 -0.1896
 1716poe    c23 7626   2.972   4.364   0.941 -0.3386 -0.2586 -0.2973
 1716poe    c23 7627   2.959   4.298   1.079  0.1304 -0.2828 -0.2638
 1716poe     o2 7628   3.063   4.203   1.089  0.3672  0.0298  0.2711
 1716poe    c23 7629   3.038   4.130   1.207 -0.0432  0.7153  0.6168
 1716poe    c23 7630   3.159   4.049   1.259 -0.1771 -0.2951 -0.6039
 1716poe     o2 7631   3.176   3.938   1.174 -0.4552 -0.0612 -0.9706
 1716poe    c31 7632   3.191   3.816   1.244 -0.5982  0.2197 -0.4492
 1717poe    c31 7633   1.530   3.114   1.019  0.5143 -0.2112  0.1115
 1717poe     o2 7634   1.439   3.040   0.941  0.2928  0.2013 -0.0226
 1717poe    c23 7635   1.344   3.124   0.879  0.4647  0.5222  0.1457
 1717poe    c23 7636   1.271   3.056   0.762  0.5339  0.1084  0.3425
 1717poe     o2 7637   1.373   3.004   0.678 -0.0684  0.0503 -0.3626
 1717poe    c23 7638   1.329   2.979   0.547 -0.0510  0.2690 -0.4103
 1717poe    c23 7639   1.270   2.840   0.517 -0.0145  0.0440  0.5443
 1717poe     o2 7640   1.340   2.718   0.531 -0.0617 -0.0048  0.3591
 1717poe    c23 7641   1.445   2.696   0.439 -0.1157  0.0724  0.2784
 1717poe    c23 7642   1.536   2.585   0.496  0.0552 -0.3256 -0.7472
 1717poe     o2 7643   1.436   2.487   0.512 -0.1598  0.0986  0.6589
 1717poe    c31 7644   1.485   2.357   0.534  0.1106  0.0674 -0.0936
 1718poe    c31 7645   5.144   1.276   4.998 -0.0547  0.3420  0.1889
 1718poe     o2 7646   5.023   1.314   4.937 -0.1435 -0.2640 -0.0174
 1718poe    c23 7647   4.911   1.231   4.961 -0.3077  0.0524  0.3276
 1718poe    c23 7648   4.795   1.292   4.881 -0.0254  0.1260 -0.0309
 1718poe     o2 7649   4.747   1.410   4.942 -0.0926 -0.1136  0.3786
 1718poe    c23 7650   4.642   1.466   4.867  0.1900  0.3527  0.3332
 1718poe    c23 7651   4.560   1.586   4.918 -0.0985  0.0124  0.6658
 1718poe     o2 7652   4.609   1.709   4.869 -0.1738 -0.2518 -0.0859
 1718poe    c23 7653   4.506   1.799   4.835 -0.0131 -0.0143  0.0600
 1718poe    c23 7654   4.578   1.902   4.745 -0.3772  0.3448  0.1765
 1718poe     o2 7655   4.636   1.993   4.835 -0.4666  0.4140  0.1634
 1718poe    c31 7656   4.717   2.092   4.775 -0.1673 -0.1652 -0.3990
 1719poe    c31 7657   0.820   0.717   1.755 -0.5501 -0.4743 -0.0811
 1719poe     o2 7658   0.738   0.642   1.667 -0.3224 -0.2743 -0.4660
 1719poe    c23 7659   0.774   0.507   1.653  0.1942 -0.2375  0.4020
 1719poe    c23 7660   0.766   0.437   1.516 -0.2675 -0.0866  0.3517
 1719poe     o2 7661   0.885   0.447   1.441 -0.4857 -0.0972  0.0012
 1719poe    c23 7662   0.854   0.464   1.304 -0.4440  0.0075  0.0041
 1719poe    c23 7663   0.974   0.469   1.208 -0.0191 -0.4729  0.5007
 1719poe     o2 7664   1.062   0.562   1.266  0.0375 -0.4249  0.3375
 1719poe    c23 7665   1.169   0.559   1.174  0.0967 -0.0285  0.3917
 1719poe    c23 7666   1.292   0.638   1.224  0.0890  0.1173  0.1823
 1719poe     o2 7667   1.343   0.599   1.350 -0.3644 -0.3398  0.2335
 1719poe    c31 7668   1.440   0.698   1.378 -0.5293 -0.1828  0.2552
 1720poe    c31 7669   2.343   1.268   5.418 -0.1703 -0.1275  0.4687
 1720poe     o2 7670   2.429   1.157   5.436 -0.2831 -0.3251 -0.1800
 1720poe    c23 7671   2.527   1.146   5.336 -0.2262 -0.3699 -0.1184
 1720poe    c23 7672   2.644   1.059   5.386  0.1153  0.2048  0.1027
 1720poe     o2 7673   2.677   1.108   5.514 -0.0956 -0.2350  0.3324
 1720poe    c23 7674   2.795   1.051   5.565  0.5059  0.4799 -0.2263
 1720poe    c23 7675   2.833   1.093   5.709  0.4224 -0.2033 -0.0018
 1720poe     o2 7676   2.737   1.056   5.806 -0.2051 -0.3276 -0.6542
 1720poe    c23 7677   2.762   1.098   5.938 -0.3773 -0.1685 -0.6728
 1720poe    c23 7678   2.679   1.023   6.043  0.1561 -0.2109 -0.2731
 1720poe     o2 7679   2.543   1.059   6.055  0.0886 -0.6824  0.4725
 1720poe    c31 7680   2.474   1.011   6.168  0.6156  0.1412  1.1509
 1721poe    c31 7681   5.650   0.447   3.473  0.1720  0.2251 -0.0445
 1721poe     o2 7682   5.618   0.584   3.481 -0.3208  0.1372 -0.4720
 1721poe    c23 7683   5.619   0.637   3.351  0.3739  0.5096 -0.3199
 1721poe    c23 7684   5.604   0.790   3.346 -0.0338  0.4907  0.2091
 1721poe     o2 7685   5.682   0.862   3.438  0.5869  0.0007  0.0742
 1721poe    c23 7686   5.660   1.001   3.430  0.6256 -0.0341 -0.6249
 1721poe    c23 7687   5.741   1.064   3.544 -0.8630 -0.0129  0.4518
 1721poe     o2 7688   5.713   1.006   3.670 -0.3288  0.2143  0.6801
 1721poe    c23 7689   5.768   1.080   3.776  0.6773  0.3986  0.0471
 1721poe    c23 7690   5.737   1.021   3.915  0.3946  0.6806  0.1062
 1721poe     o2 7691   5.603   1.020   3.957  0.4131  0.1015  0.1662
 1721poe    c31 7692   5.589   0.928   4.062  0.0978  0.6841  0.6479
 1722poe    c31 7693   4.062   0.254   6.071 -0.0044 -0.1004  0.0306
 1722poe     o2 7694   4.071   0.219   5.934  0.3820 -0.2599  0.0940
 1722poe    c23 7695   4.072   0.079   5.921 -0.3437 -0.3078  0.4975
 1722poe    c23 7696   4.047   0.053   5.771  0.5408  0.0457  0.2847
 1722poe     o2 7697   4.141   0.121   5.690 -0.2298  0.0719 -0.5960
 1722poe    c23 7698   4.131   0.073   5.558 -0.0263  0.1800 -0.6508
 1722poe    c23 7699   4.220   0.164   5.472  0.6613 -0.3869 -0.5448
 1722poe     o2 7700   4.202   0.290   5.532  0.4913 -0.4753 -0.4085
 1722poe    c23 7701   4.272   0.391   5.462  0.1041 -0.1976 -0.3982
 1722poe    c23 7702   4.230   0.437   5.321  0.0989  0.4714 -0.1808
 1722poe     o2 7703   4.310   0.535   5.258  0.0670  0.2758 -0.5259
 1722poe    c31 7704   4.258   0.568   5.131 -1.1133 -0.1938 -0.1810
 1723poe    c31 7705   2.405   4.304   1.004  0.0645 -0.4054  0.1227
 1723poe     o2 7706   2.372   4.439   1.025  0.1931 -0.3320 -0.1444
 1723poe    c23 7707   2.487   4.505   1.073 -0.0365  0.0577 -0.1156
 1723poe    c23 7708   2.449   4.654   1.074 -0.0962  0.0410  0.1506
 1723poe     o2 7709   2.308   4.661   1.082 -0.1472  0.5559 -0.9494
 1723poe    c23 7710   2.260   4.793   1.074  0.1006  0.7043 -0.0801
 1723poe    c23 7711   2.109   4.771   1.095  0.1898 -0.1151 -0.2541
 1723poe     o2 7712   2.071   4.668   1.007  0.0693 -0.6900  0.4695
 1723poe    c23 7713   1.934   4.676   0.973  0.1972 -0.1829  0.0723
 1723poe    c23 7714   1.914   4.664   0.821  0.2880  0.2713  0.0219
 1723poe     o2 7715   1.959   4.537   0.778  0.2966  0.4096 -0.3885
 1723poe    c31 7716   1.871   4.485   0.681  0.0845  0.3949 -0.1902
 1724poe    c31 7717   3.337   3.269   2.531  0.2966  0.9963 -0.7167
 1724poe     o2 7718   3.444   3.180   2.508 -0.0911  0.4186 -0.3160
 1724poe    c23 7719   3.573   3.236   2.493  0.2134 -0.1956 -0.0117
 1724poe    c23 7720   3.651   3.290   2.614 -0.2537  0.2646  0.0876
 1724poe     o2 7721   3.702   3.181   2.687 -0.1981  0.2794  0.0708
 1724poe    c23 7722   3.797   3.231   2.779 -0.0502  0.0134  0.0629
 1724poe    c23 7723   3.788   3.151   2.911  0.0312  0.2364  0.2039
 1724poe     o2 7724   3.656   3.163   2.959 -0.0916 -0.0902 -0.0477
 1724poe    c23 7725   3.640   3.067   3.061  1.0809 -0.2163  0.0367
 1724poe    c23 7726   3.504   3.003   3.094  0.7127  0.2149 -0.6138
 1724poe     o2 7727   3.447   2.919   2.996  0.0967 -0.2572  0.1307
 1724poe    c31 7728   3.456   2.782   3.028  0.1663 -0.1535  0.5640
 1725poe    c31 7729   6.512   6.191   2.556  0.2154 -0.5044 -0.2779
 1725poe     o2 7730   6.378   6.190   2.512  0.0907 -0.0372  0.0891
 1725poe    c23 7731   6.302   6.266   2.604 -0.1682  0.0791 -0.2210
 1725poe    c23 7732   6.149   6.249   2.611 -0.0995 -0.4003  0.1529
 1725poe     o2 7733   6.086   6.300   2.496 -0.4205 -0.0690  0.4714
 1725poe    c23 7734   5.953   6.251   2.500 -0.5056  0.1713  0.5678
 1725poe    c23 7735   5.860   6.311   2.394  0.2041 -0.3212 -0.3519
 1725poe     o2 7736   5.854   6.452   2.395  0.2770 -0.3205  0.5542
 1725poe    c23 7737   5.752   6.494   2.307  1.0470  0.4458  0.0080
 1725poe    c23 7738   5.759   6.645   2.280  0.4792  0.5709  0.5417
 1725poe     o2 7739   5.867   6.689   2.201  0.2717  0.1884  0.0453
 1725poe    c31 7740   5.848   6.676   2.062  0.2361  0.4440  0.0252
 1726poe    c31 7741   2.623   1.474   6.288 -0.1485 -0.2227 -0.5171
 1726poe     o2 7742   2.498   1.535   6.304  0.0464  0.1390 -0.3676
 1726poe    c23 7743   2.448   1.565   6.175  0.5946  0.5509 -0.4912
 1726poe    c23 7744   2.340   1.675   6.172  0.6402  0.6185  0.1581
 1726poe     o2 7745   2.229   1.647   6.254  0.1511  0.4276 -0.5533
 1726poe    c23 7746   2.135   1.752   6.268 -0.4504 -0.1973  0.1489
 1726poe    c23 7747   2.025   1.716   6.369 -0.5175 -0.6350 -0.0745
 1726poe     o2 7748   2.080   1.690   6.496 -0.3090 -0.2852 -0.0918
 1726poe    c23 7749   1.975   1.671   6.588 -0.3070 -0.0316 -0.0358
 1726poe    c23 7750   2.049   1.660   6.722  0.4905 -0.2495 -0.4869
 1726poe     o2 7751   2.143   1.561   6.687  0.2705 -0.4181 -0.6023
 1726poe    c31 7752   2.175   1.465   6.784  0.4906  0.4488  0.1972
 1727poe    c31 7753   3.176   4.200   2.025  0.9216 -0.0715  0.1860
 1727poe     o2 7754   3.183   4.270   2.148  0.1660  0.4031 -0.0358
 1727poe    c23 7755   3.312   4.256   2.203  0.2962  0.8283 -0.2267
 1727poe    c23 7756   3.322   4.349   2.325  0.3253  0.2049  0.2487
 1727poe     o2 7757   3.247   4.306   2.437  0.2220 -0.2865 -0.0069
 1727poe    c23 7758   3.250   4.378   2.558 -0.3592 -0.4122  0.0853
 1727poe    c23 7759   3.158   4.318   2.665 -0.2453 -0.1008  0.3607
 1727poe     o2 7760   3.145   4.390   2.786 -0.1937  0.4886  0.0156
 1727poe    c23 7761   3.074   4.313   2.881 -0.1220  0.1267 -0.2219
 1727poe    c23 7762   2.923   4.296   2.860 -0.2528  0.1646  0.6786
 1727poe     o2 7763   2.845   4.394   2.925 -0.5415  0.2601  0.1919
 1727poe    c31 7764   2.840   4.523   2.869 -0.1231  0.2646  0.1621
 1728poe    c31 7765   1.354   6.910   2.800  0.5803 -0.1085  0.3897
 1728poe     o2 7766   1.384   7.048   2.802 -0.4191  0.1429 -0.7839
 1728poe    c23 7767   1.487   7.089   2.715  0.2774  0.4477  0.1651
 1728poe    c23 7768   1.430   7.105   2.573  0.3299  0.0662  0.1011
 1728poe     o2 7769   1.352   7.222   2.568  0.2470  0.0095  0.0563
 1728poe    c23 7770   1.311   7.264   2.440 -0.8354 -0.0983  0.3552
 1728poe    c23 7771   1.176   7.338   2.440 -0.5645  0.4036 -0.1642
 1728poe     o2 7772   1.078   7.254   2.497 -0.3115 -0.2826 -0.7306
 1728poe    c23 7773   0.953   7.319   2.493  0.1482  0.6687 -0.0532
 1728poe    c23 7774   0.854   7.253   2.591  0.2432  0.0202 -0.3902
 1728poe     o2 7775   0.826   7.118   2.559  0.2328 -0.2526  0.7343
 1728poe    c31 7776   0.690   7.098   2.530  0.3666  0.6765 -0.6132
 1729poe    c31 7777   0.052   5.711   6.546 -0.9420  0.2961  0.3419
 1729poe     o2 7778   0.026   5.772   6.421  0.0958  0.2120  0.0786
 1729poe    c23 7779   0.111   5.720   6.321 -0.1839  0.7795 -0.4559
 1729poe    c23 7780   0.120   5.815   6.200  0.3939  0.6329 -0.5302
 1729poe     o2 7781   0.004   5.893   6.180  0.0319  0.2221 -0.0787
 1729poe    c23 7782   0.010   5.968   6.060 -0.0706  0.1194 -0.1481
 1729poe    c23 7783  -0.131   5.962   5.998 -0.2788 -0.2852  0.3574
 1729poe     o2 7784  -0.212   6.070   6.039 -0.4822 -0.0041 -0.7599
 1729poe    c23 7785  -0.306   6.047   6.142  0.3333  0.5354  0.1180
 1729poe    c23 7786  -0.273   6.087   6.287 -0.0177 -0.1220  0.3859
 1729poe     o2 7787  -0.190   6.003   6.364  0.3828  0.0032  0.0989
 1729poe    c31 7788  -0.177   6.037   6.501 -0.3908  0.3006  0.1051
 1730poe    c31 7789   2.706   0.935   4.657  0.1070 -0.0156 -0.0179
 1730poe     o2 7790   2.778   1.055   4.676  0.1723 -0.1645  0.6925
 1730poe    c23 7791   2.706   1.158   4.741 -0.1756 -0.6037  1.0163
 1730poe    c23 7792   2.805   1.246   4.820  0.0942  0.0494 -0.0277
 1730poe     o2 7793   2.912   1.284   4.736 -0.1514  0.0457 -0.3410
 1730poe    c23 7794   3.032   1.324   4.797 -0.0043 -0.1603 -0.4969
 1730poe    c23 7795   3.135   1.391   4.704  0.7059 -0.0736  0.3361
 1730poe     o2 7796   3.194   1.310   4.605  0.4419  0.2104 -0.0555
 1730poe    c23 7797   3.276   1.205   4.651  0.4457  0.2083 -0.0670
 1730poe    c23 7798   3.224   1.068   4.603  0.6881  0.2324 -0.4005
 1730poe     o2 7799   3.086   1.040   4.608  0.9133 -0.7795  0.5696
 1730poe    c31 7800   3.064   0.912   4.551 -0.8547 -0.2626  0.0125
 1731poe    c31 7801   1.159   4.401   6.957 -1.2242  0.1105 -0.1351
 1731poe     o2 7802   1.130   4.445   7.088  0.1013 -0.2323  0.2805
 1731poe    c23 7803   1.127   4.345   7.187  0.5165 -0.3161  0.2107
 1731poe    c23 7804   1.166   4.420   7.315 -0.4490  0.8017 -0.1392
 1731poe     o2 7805   1.063   4.503   7.364 -0.3503  0.4195  0.7391
 1731poe    c23 7806   1.061   4.517   7.504 -0.2193  0.3380  0.7490
 1731poe    c23 7807   0.939   4.598   7.552 -0.4589  0.3602  0.1131
 1731poe     o2 7808   0.957   4.722   7.488  0.2559  0.4080  0.3941
 1731poe    c23 7809   0.844   4.803   7.509 -0.2383 -0.0778 -0.3459
 1731poe    c23 7810   0.862   4.920   7.410 -0.1367  0.0976 -0.1209
 1731poe     o2 7811   0.856   4.856   7.285 -0.7543 -0.0964  0.0031
 1731poe    c31 7812   0.876   4.937   7.171 -0.2249 -0.2827 -0.0386
 1732poe    c31 7813   6.205   0.363   2.591  0.1537  1.3971 -0.1221
 1732poe     o2 7814   6.064   0.364   2.577  0.0688  0.1662  0.5049
 1732poe    c23 7815   6.022   0.430   2.460  0.0830  0.3132  0.5838
 1732poe    c23 7816   5.869   0.420   2.444  0.2289 -0.4662 -0.3538
 1732poe     o2 7817   5.808   0.498   2.544 -0.2925 -0.1541 -0.9073
 1732poe    c23 7818   5.798   0.638   2.527 -0.3123 -0.0853 -0.3415
 1732poe    c23 7819   5.764   0.703   2.663  0.1394 -0.5165 -0.0177
 1732poe     o2 7820   5.648   0.646   2.718  0.1444  0.0938  0.6305
 1732poe    c23 7821   5.528   0.706   2.675  0.2276  0.0651  0.3571
 1732poe    c23 7822   5.407   0.617   2.710  0.1582 -0.0069 -0.0585
 1732poe     o2 7823   5.413   0.504   2.626  0.4465  0.2732 -0.4144
 1732poe    c31 7824   5.309   0.517   2.532 -0.0104 -0.1079  0.0355
 1733poe    c31 7825   5.797   5.055   0.351 -0.3370 -0.1279 -0.6313
 1733poe     o2 7826   5.926   5.019   0.394 -0.2348  0.9627  0.0207
 1733poe    c23 7827   5.955   4.881   0.397 -1.0675  0.7905  0.3011
 1733poe    c23 7828   6.099   4.851   0.442 -0.9239  0.2197 -0.5336
 1733poe     o2 7829   6.198   4.869   0.343  0.0571 -0.2567  0.3422
 1733poe    c23 7830   6.275   4.751   0.330  0.0246 -0.2369 -0.0481
 1733poe    c23 7831   6.387   4.754   0.225 -0.1311 -0.6216 -0.2283
 1733poe     o2 7832   6.501   4.835   0.245 -0.9369  0.4866 -0.0652
 1733poe    c23 7833   6.599   4.826   0.145 -0.6851 -0.4063  0.2522
 1733poe    c23 7834   6.738   4.882   0.178 -0.8895  0.3762 -0.1796
 1733poe     o2 7835   6.745   5.022   0.197  0.4040  0.3656 -0.4799
 1733poe    c31 7836   6.878   5.068   0.181  0.3967  0.4490 -0.3083
 1734poe    c31 7837   4.593   1.534   5.665  0.2494  0.9709 -0.0349
 1734poe     o2 7838   4.657   1.539   5.540 -0.2866 -0.6766 -0.4064
 1734poe    c23 7839   4.576   1.596   5.439 -0.4676 -0.1433  0.0347
 1734poe    c23 7840   4.662   1.604   5.312 -0.7816  0.4697 -0.1418
 1734poe     o2 7841   4.795   1.608   5.361 -0.8548 -0.0299  0.1062
 1734poe    c23 7842   4.882   1.625   5.252 -0.2507  0.0596  0.5997
 1734poe    c23 7843   5.031   1.621   5.293  0.2261  0.0169 -1.0546
 1734poe     o2 7844   5.064   1.491   5.335  0.2496  0.4254  0.2352
 1734poe    c23 7845   5.202   1.488   5.364  0.3492 -0.3087 -0.2804
 1734poe    c23 7846   5.247   1.377   5.462  0.1461 -0.3075 -0.1845
 1734poe     o2 7847   5.205   1.400   5.594  0.0632 -0.2285 -0.2245
 1734poe    c31 7848   5.282   1.322   5.682 -0.0190 -0.0434  0.0148
 1735poe    c31 7849   0.221   7.080   4.291 -0.6395  0.3256 -0.4603
 1735poe     o2 7850   0.129   6.979   4.257 -0.0170 -0.3044 -0.3058
 1735poe    c23 7851   0.148   6.953   4.120  0.1468 -0.1646 -0.3106
 1735poe    c23 7852   0.027   6.880   4.059  0.0180  0.0614 -0.3264
 1735poe     o2 7853   0.020   6.740   4.077 -0.6577  0.0435 -0.6803
 1735poe    c23 7854  -0.057   6.687   4.182  0.9625 -0.4694  0.2888
 1735poe    c23 7855   0.006   6.687   4.323  0.5252 -0.1091  0.4897
 1735poe     o2 7856  -0.035   6.793   4.406 -0.0296 -0.0775  0.1809
 1735poe    c23 7857   0.032   6.788   4.530 -0.3044  0.0544  0.3349
 1735poe    c23 7858  -0.048   6.865   4.637 -0.4043 -0.2990  0.5151
 1735poe     o2 7859  -0.158   6.792   4.685 -0.1374 -0.9224  0.1845
 1735poe    c31 7860  -0.279   6.819   4.617  0.3942  0.0969 -0.3673
 1736poe    c31 7861   3.537   6.196   5.663  0.3025  0.2986 -0.5605
 1736poe     o2 7862   3.435   6.274   5.720  0.0026 -0.0922 -0.5608
 1736poe    c23 7863   3.312   6.210   5.694  0.0534 -0.7487  0.7321
 1736poe    c23 7864   3.186   6.292   5.729  0.8580  0.5585  0.6204
 1736poe     o2 7865   3.190   6.425   5.681  0.0061  0.3589 -0.0153
 1736poe    c23 7866   3.068   6.490   5.708 -0.1168  0.2055 -0.1964
 1736poe    c23 7867   3.086   6.635   5.660 -0.0967  0.1480 -0.3629
 1736poe     o2 7868   3.212   6.681   5.705 -0.1142  0.4861 -0.6536
 1736poe    c23 7869   3.218   6.821   5.710  0.8029  0.4379 -0.0410
 1736poe    c23 7870   3.184   6.871   5.851 -0.1357 -0.4546  0.0559
 1736poe     o2 7871   3.063   6.827   5.911  0.1916 -0.8776  0.4171
 1736poe    c31 7872   3.043   6.901   6.029 -0.2204 -0.2863 -0.0160
 1737poe    c31 7873   0.643   3.725   6.059 -0.3627  0.3445 -0.3574
 1737poe     o2 7874   0.715   3.786   5.954  0.1117  0.1222 -0.1675
 1737poe    c23 7875   0.641   3.814   5.837  0.6074 -0.1237 -0.5437
 1737poe    c23 7876   0.742   3.882   5.742  0.6216  0.0378 -0.4142
 1737poe     o2 7877   0.771   4.011   5.790 -0.4299  0.1074  0.0740
 1737poe    c23 7878   0.815   4.092   5.683 -0.0863 -0.0818  0.0698
 1737poe    c23 7879   0.883   4.206   5.761 -0.3840  0.0449  0.1482
 1737poe     o2 7880   0.799   4.252   5.864 -0.5833  0.0773 -0.0294
 1737poe    c23 7881   0.789   4.392   5.878 -0.3694  0.0097  0.8623
 1737poe    c23 7882   0.852   4.443   6.009 -0.3918  0.0577  0.8542
 1737poe     o2 7883   0.993   4.442   6.000 -0.4242 -0.5602  0.3042
 1737poe    c31 7884   1.058   4.484   6.118 -0.4544 -0.4588  0.2848
 1738poe    c31 7885   7.086   4.934   2.065 -0.2410  0.3121  0.0535
 1738poe     o2 7886   7.137   4.824   2.136 -0.2132  0.3777  0.1348
 1738poe    c23 7887   7.263   4.865   2.186  0.2469  0.1327 -0.7995
 1738poe    c23 7888   7.315   4.767   2.293 -0.2155  0.3516 -0.3681
 1738poe     o2 7889   7.200   4.732   2.365  0.0101 -0.3261 -0.3346
 1738poe    c23 7890   7.238   4.639   2.464 -0.0819  0.1556  0.1574
 1738poe    c23 7891   7.120   4.640   2.563 -0.0297  0.9968  0.2167
 1738poe     o2 7892   7.000   4.637   2.489 -0.0228 -0.1761  0.2497
 1738poe    c23 7893   6.912   4.616   2.597 -0.6061  0.8074 -0.0194
 1738poe    c23 7894   6.770   4.671   2.575 -0.5267  0.8045 -0.5337
 1738poe     o2 7895   6.686   4.600   2.487 -0.1339 -0.2324 -0.0764
 1738poe    c31 7896   6.555   4.634   2.524  0.1122 -0.2896  0.8668
 1739poe    c31 7897   1.909   2.732   7.045 -0.6051  0.2839  0.1138
 1739poe     o2 7898   1.985   2.615   7.063 -0.2205  0.4685 -0.3141
 1739poe    c23 7899   2.115   2.649   7.106 -0.3143 -0.0081  0.3578
 1739poe    c23 7900   2.174   2.516   7.157  0.5100  0.1662 -0.1182
 1739poe     o2 7901   2.117   2.481   7.281 -0.1870 -0.3532 -0.5694
 1739poe    c23 7902   2.163   2.359   7.334 -0.0137 -0.0595 -0.0301
 1739poe    c23 7903   2.092   2.329   7.468 -0.3862  0.8684 -0.0138
 1739poe     o2 7904   1.952   2.327   7.449 -0.3394  0.2647 -0.3277
 1739poe    c23 7905   1.885   2.285   7.566 -0.4927  0.3972 -0.3675
 1739poe    c23 7906   1.759   2.214   7.515  0.0430 -0.7197 -0.1769
 1739poe     o2 7907   1.713   2.302   7.414 -0.2677 -0.1747  0.4301
 1739poe    c31 7908   1.616   2.241   7.332 -0.0487 -0.1595  0.1581
 1740poe    c31 7909   4.007   5.932   6.342 -0.7293 -0.3288  0.2567
 1740poe     o2 7910   4.109   6.000   6.272 -0.7960  0.0759  0.5465
 1740poe    c23 7911   4.048   6.085   6.177  0.4262 -0.1354 -0.4523
 1740poe    c23 7912   4.141   6.146   6.070  0.0536  0.3193 -0.5181
 1740poe     o2 7913   4.239   6.047   6.046  0.1450  0.4273 -0.5884
 1740poe    c23 7914   4.283   6.050   5.912  0.0072  0.2241 -0.6395
 1740poe    c23 7915   4.425   6.110   5.917 -0.1089  0.4249  0.6230
 1740poe     o2 7916   4.510   6.063   6.019  0.0316 -0.1089  0.2642
 1740poe    c23 7917   4.647   6.082   5.990  0.1086 -0.2553  0.5332
 1740poe    c23 7918   4.736   6.066   6.114  0.2123 -0.2017  0.4659
 1740poe     o2 7919   4.701   6.185   6.182  0.5529  0.6702 -0.8437
 1740poe    c31 7920   4.776   6.190   6.301 -0.6163 -0.6845 -0.0139
 1741poe    c31 7921   6.308   0.846   3.433 -0.1446  0.3997 -0.1714
 1741poe     o2 7922   6.378   0.738   3.492 -0.3653  0.5058  0.2887
 1741poe    c23 7923   6.450   0.786   3.604  0.6797  0.8729 -0.5223
 1741poe    c23 7924   6.571   0.697   3.638 -0.5383 -0.2525  1.0064
 1741poe     o2 7925   6.532   0.563   3.662 -0.4929 -0.5065 -0.2864
 1741poe    c23 7926   6.650   0.487   3.662 -0.2922 -0.2006 -0.5368
 1741poe    c23 7927   6.593   0.343   3.660 -0.4265 -0.1554 -0.0451
 1741poe     o2 7928   6.491   0.331   3.563 -0.5897  0.2148  0.0753
 1741poe    c23 7929   6.433   0.202   3.562  0.1326 -0.1140 -0.5048
 1741poe    c23 7930   6.318   0.185   3.462 -0.0057  0.5841 -0.4699
 1741poe     o2 7931   6.207   0.268   3.489 -0.4695 -0.2744  0.3241
 1741poe    c31 7932   6.098   0.245   3.403 -0.1893 -0.2799 -0.0363
 1742poe    c31 7933   4.765   2.848   3.966  0.1160  0.3957 -0.1089
 1742poe     o2 7934   4.874   2.834   4.054  0.0583 -0.0538 -0.1067
 1742poe    c23 7935   4.896   2.941   4.143 -0.2706 -0.2634  0.2303
 1742poe    c23 7936   4.917   2.900   4.290  0.6220 -0.4536  0.0560
 1742poe     o2 7937   5.033   2.822   4.299  0.6811 -0.3128  0.5208
 1742poe    c23 7938   5.035   2.756   4.424 -0.9129 -0.2933  0.5673
 1742poe    c23 7939   5.172   2.686   4.426 -0.6035  0.2623 -0.3411
 1742poe     o2 7940   5.175   2.580   4.333  0.3934  0.4220 -0.5000
 1742poe    c23 7941   5.276   2.486   4.361  0.0057  0.2269  0.2767
 1742poe    c23 7942   5.287   2.428   4.219  0.1498  0.0151  0.3748
 1742poe     o2 7943   5.161   2.378   4.180  0.1043  0.7287 -0.4013
 1742poe    c31 7944   5.158   2.311   4.056  0.6288  0.6261 -0.3594
 1743poe    c31 7945   4.940   3.822   6.676 -0.1670 -0.2841 -0.4861
 1743poe     o2 7946   4.965   3.890   6.797  0.0365 -0.7777 -0.2453
 1743poe    c23 7947   5.033   3.826   6.902  0.4664  0.0330 -0.0180
 1743poe    c23 7948   5.182   3.796   6.879  0.3126 -0.2999 -0.5950
 1743poe     o2 7949   5.251   3.915   6.908 -0.1274 -0.2430  0.2649
 1743poe    c23 7950   5.336   3.885   7.016 -0.3329 -0.8050  0.2752
 1743poe    c23 7951   5.309   3.950   7.153 -0.8831  0.1932 -0.2982
 1743poe     o2 7952   5.357   4.083   7.161 -0.0657 -0.1036 -0.1720
 1743poe    c23 7953   5.325   4.139   7.286 -0.3816  0.4847 -0.5118
 1743poe    c23 7954   5.361   4.288   7.299  0.5439  0.2083  0.1902
 1743poe     o2 7955   5.310   4.377   7.202  0.3398 -0.1421 -0.0243
 1743poe    c31 7956   5.319   4.511   7.244 -0.2522 -0.1936  0.2833
 1744poe    c31 7957   1.427   0.606   0.816  0.1610  0.3083  0.4754
 1744poe     o2 7958   1.436   0.598   0.676 -0.2943  0.0925  0.4599
 1744poe    c23 7959   1.339   0.507   0.629 -0.1846  0.1992  0.0174
 1744poe    c23 7960   1.365   0.459   0.485  0.3536 -0.5751  0.3646
 1744poe     o2 7961   1.342   0.561   0.391 -0.0250 -0.4882  0.5493
 1744poe    c23 7962   1.335   0.504   0.262 -0.6116  0.0148  0.3483
 1744poe    c23 7963   1.367   0.611   0.156 -0.5659 -0.3496 -0.0090
 1744poe     o2 7964   1.308   0.734   0.191 -0.1725 -0.1055 -0.1970
 1744poe    c23 7965   1.316   0.833   0.091  1.4870  0.1290  0.1301
 1744poe    c23 7966   1.255   0.954   0.164  0.1093 -0.5426  0.1260
 1744poe     o2 7967   1.364   1.021   0.222  0.1735 -0.2673 -0.3074
 1744poe    c31 7968   1.351   1.155   0.262 -0.4977 -0.5256  0.3552
 1745poe    c31 7969   0.409   5.876   4.129  0.1260 -0.0315  0.0074
 1745poe     o2 7970   0.410   5.749   4.190  0.0137  0.2224  0.5447
 1745poe    c23 7971   0.299   5.671   4.152  0.2408  0.0862  0.1563
 1745poe    c23 7972   0.341   5.563   4.050 -0.2343  0.1078 -0.0642
 1745poe     o2 7973   0.427   5.464   4.102  0.1467  0.2935 -0.3391
 1745poe    c23 7974   0.444   5.362   4.006  0.1199  0.0353 -0.0680
 1745poe    c23 7975   0.534   5.244   4.048 -0.1674 -0.2090 -0.1312
 1745poe     o2 7976   0.490   5.183   4.167  0.3067 -0.2802  0.0107
 1745poe    c23 7977   0.585   5.082   4.191  0.3498 -0.2241  0.0750
 1745poe    c23 7978   0.551   5.004   4.319  0.0810 -0.1162  0.0676
 1745poe     o2 7979   0.549   5.073   4.442  0.0055 -0.4790  0.2715
 1745poe    c31 7980   0.574   4.983   4.548  0.0089 -0.2874  0.4337
 1746poe    c31 7981   4.087   2.293   3.303  1.1160 -0.6644  0.2544
 1746poe     o2 7982   3.998   2.254   3.405 -0.0434  0.2625 -0.3814
 1746poe    c23 7983   3.864   2.255   3.363 -0.4239 -0.6030  0.7494
 1746poe    c23 7984   3.792   2.389   3.390 -0.1265 -0.1755 -0.5078
 1746poe     o2 7985   3.835   2.497   3.310  0.1152 -0.1144 -0.2969
 1746poe    c23 7986   3.812   2.613   3.387  1.1825  0.0363 -0.2016
 1746poe    c23 7987   3.851   2.742   3.314 -0.3505  0.5188 -0.1826
 1746poe     o2 7988   3.989   2.767   3.303 -0.2218  0.0816  0.4176
 1746poe    c23 7989   4.020   2.881   3.226  0.1350 -0.1531  0.2109
 1746poe    c23 7990   4.167   2.915   3.199 -0.0317  0.2782 -0.1823
 1746poe     o2 7991   4.245   2.956   3.310  0.4522 -0.5372 -0.2098
 1746poe    c31 7992   4.377   2.987   3.272  0.2654  0.4694 -0.0571
 1747poe    c31 7993   5.622   3.229   0.281  1.3364 -0.6276  0.0686
 1747poe     o2 7994   5.659   3.223   0.417 -0.1516  0.2261  0.5336
 1747poe    c23 7995   5.768   3.309   0.442  0.6092 -0.6002  0.1047
 1747poe    c23 7996   5.787   3.307   0.595  0.3123 -0.0511  0.1506
 1747poe     o2 7997   5.800   3.176   0.644  0.1572 -0.1341 -0.0291
 1747poe    c23 7998   5.890   3.165   0.752  0.4922 -0.1400 -0.3078
 1747poe    c23 7999   5.919   3.027   0.812 -0.1139 -0.2885 -0.3533
 1747poe     o2 8000   5.931   2.950   0.694  0.4834 -0.2132 -0.3454
 1747poe    c23 8001   5.981   2.826   0.740 -0.1197 -0.2526  0.2188
 1747poe    c23 8002   5.926   2.714   0.650 -0.8398  0.2230  0.0558
 1747poe     o2 8003   5.786   2.698   0.644 -0.7822 -0.1247 -0.3510
 1747poe    c31 8004   5.747   2.575   0.587 -0.0053 -0.6628  0.2541
 1748poe    c31 8005   0.836   2.428   2.393  0.0888 -0.1900  0.3134
 1748poe     o2 8006   0.968   2.410   2.441  0.2551 -0.1286 -0.1140
 1748poe    c23 8007   1.051   2.350   2.344 -0.2287 -0.5917 -0.2527
 1748poe    c23 8008   1.193   2.369   2.403 -0.0764 -1.1694 -0.4349
 1748poe     o2 8009   1.197   2.315   2.533  0.2693 -0.4168 -0.1327
 1748poe    c23 8010   1.332   2.334   2.570  0.1273 -0.1140  0.2353
 1748poe    c23 8011   1.357   2.331   2.722 -0.1372  0.3030  0.2877
 1748poe     o2 8012   1.303   2.446   2.783 -0.0453  0.4683  0.0573
 1748poe    c23 8013   1.361   2.490   2.904 -0.1685 -0.0845  0.3188
 1748poe    c23 8014   1.309   2.632   2.932 -0.1002 -0.0307  0.1751
 1748poe     o2 8015   1.387   2.710   2.844 -0.0099 -0.0248  0.2593
 1748poe    c31 8016   1.341   2.842   2.829 -0.4220 -0.2208 -0.2357
 1749poe    c31 8017   5.980   4.942   1.796  0.4126 -0.7826 -0.2120
 1749poe     o2 8018   6.067   4.860   1.871  0.1614 -0.6014  0.2840
 1749poe    c23 8019   6.188   4.923   1.906  0.2301 -0.8044  0.4145
 1749poe    c23 8020   6.259   4.863   2.029  0.6398 -0.5370  0.3118
 1749poe     o2 8021   6.308   4.737   1.986  0.2618 -0.4476 -0.3971
 1749poe    c23 8022   6.399   4.682   2.078 -0.4205 -0.3106  0.3765
 1749poe    c23 8023   6.468   4.552   2.033 -0.2965 -0.0854 -0.0823
 1749poe     o2 8024   6.490   4.559   1.893  0.0318  0.7677  0.0013
 1749poe    c23 8025   6.562   4.444   1.854 -0.8481  0.2676 -0.1605
 1749poe    c23 8026   6.581   4.443   1.701 -0.0182  0.5966 -0.0649
 1749poe     o2 8027   6.449   4.448   1.652 -0.2689 -0.4701  0.4561
 1749poe    c31 8028   6.471   4.452   1.512 -0.0589  0.1992  0.5039
 1750poe    c31 8029   6.543   5.511   5.093  0.3653 -0.2276 -0.0275
 1750poe     o2 8030   6.444   5.598   5.044  0.0228 -0.4836  0.2003
 1750poe    c23 8031   6.386   5.567   4.919  0.3747  0.2058 -0.1456
 1750poe    c23 8032   6.234   5.590   4.930  0.3191  0.3920 -1.1781
 1750poe     o2 8033   6.202   5.723   4.964 -0.3725  0.0093 -0.2830
 1750poe    c23 8034   6.062   5.742   4.970 -0.3792  0.0358 -0.5027
 1750poe    c23 8035   6.037   5.894   4.958 -0.3575  0.1671  0.8772
 1750poe     o2 8036   6.155   5.955   5.004  0.0798  0.2612 -0.3140
 1750poe    c23 8037   6.171   6.084   4.950  0.1467  0.2969 -0.2106
 1750poe    c23 8038   6.254   6.179   5.038  0.2310  0.6355 -0.6537
 1750poe     o2 8039   6.379   6.120   5.067 -0.2501 -0.3350 -0.5450
 1750poe    c31 8040   6.489   6.206   5.051  0.1847 -0.7729  0.0261
 1751poe    c31 8041   4.753   6.549   0.273 -0.0916 -1.0352  0.3272
 1751poe     o2 8042   4.748   6.523   0.135  0.0772  0.0835  0.1083
 1751poe    c23 8043   4.860   6.573   0.065 -0.1144  0.3772  0.0059
 1751poe    c23 8044   4.842   6.548  -0.086  0.2796  0.1691 -0.0079
 1751poe     o2 8045   4.792   6.420  -0.116 -0.3859  0.4246  0.0132
 1751poe    c23 8046   4.832   6.389  -0.248 -0.9464  0.2830 -0.1264
 1751poe    c23 8047   4.830   6.238  -0.276  0.1951  0.2796 -0.2153
 1751poe     o2 8048   4.708   6.185  -0.229  0.5634 -0.0966  0.3293
 1751poe    c23 8049   4.718   6.046  -0.210  0.4218 -0.1520 -0.0008
 1751poe    c23 8050   4.622   6.010  -0.095  0.3290 -0.2597 -0.1125
 1751poe     o2 8051   4.659   6.081   0.021 -0.3389  0.1066 -0.1204
 1751poe    c31 8052   4.581   6.029   0.126  0.2674 -0.4611  0.0544
 1752poe    c31 8053   0.852   5.526   0.927 -0.3468 -0.1493 -0.0941
 1752poe     o2 8054   0.880   5.390   0.954  0.3202  0.0127  0.0273
 1752poe    c23 8055   0.996   5.356   0.882  0.7520  0.1422  0.6454
 1752poe    c23 8056   0.993   5.205   0.850 -0.2908  0.2495  0.1869
 1752poe     o2 8057   0.971   5.147   0.976  0.1273 -0.1876  0.0639
 1752poe    c23 8058   0.959   5.007   0.980 -0.2105 -0.1658 -0.1998
 1752poe    c23 8059   1.087   4.952   1.045  0.0379  0.3560 -0.2420
 1752poe     o2 8060   1.091   4.994   1.180  0.2149 -0.2937 -0.0411
 1752poe    c23 8061   1.197   4.915   1.229  0.1339 -0.6170 -0.3874
 1752poe    c23 8062   1.242   4.958   1.369 -0.4844 -0.1578 -0.3245
 1752poe     o2 8063   1.155   4.915   1.472  0.5441  0.2436  0.7396
 1752poe    c31 8064   1.122   5.021   1.559  0.2005  0.0038  0.8985
 1753poe    c31 8065   4.131   1.283   1.839  0.3660  0.1079  0.3961
 1753poe     o2 8066   4.206   1.270   1.958  0.4075 -0.2673  0.3281
 1753poe    c23 8067   4.130   1.207   2.058 -0.1447 -0.3137 -0.1192
 1753poe    c23 8068   4.209   1.190   2.189 -0.6021  0.2999  0.2402
 1753poe     o2 8069   4.264   1.318   2.214  0.1767  0.0993 -0.3916
 1753poe    c23 8070   4.348   1.321   2.327 -0.2636  0.7098 -0.0780
 1753poe    c23 8071   4.500   1.301   2.313 -0.2914  0.1128  0.4233
 1753poe     o2 8072   4.556   1.398   2.227 -0.4784  0.3845  0.6031
 1753poe    c23 8073   4.691   1.374   2.194 -0.5116  0.2969  0.5307
 1753poe    c23 8074   4.759   1.481   2.107 -0.5717 -0.0163  0.0921
 1753poe     o2 8075   4.670   1.529   2.009 -0.4110  0.1482  0.0266
 1753poe    c31 8076   4.693   1.663   1.972  0.7588  0.2258  0.9925
 1754poe    c31 8077   0.102   3.687   4.562 -0.1938 -0.1960  0.0777
 1754poe     o2 8078  -0.021   3.650   4.504 -0.2113  0.3898 -0.2667
 1754poe    c23 8079  -0.127   3.735   4.538  0.4290  0.6306  1.1912
 1754poe    c23 8080  -0.253   3.661   4.586  0.2682  0.1048 -0.0185
 1754poe     o2 8081  -0.251   3.555   4.493  0.1759 -0.3369  0.4763
 1754poe    c23 8082  -0.363   3.473   4.515 -0.2240  0.2217  0.5353
 1754poe    c23 8083  -0.373   3.367   4.403  0.5683  0.4346  0.2544
 1754poe     o2 8084  -0.260   3.285   4.416  0.2487 -0.0845 -0.1931
 1754poe    c23 8085  -0.252   3.164   4.344 -0.1716 -0.3687  0.2364
 1754poe    c23 8086  -0.108   3.112   4.336 -0.1164 -0.2025  0.1504
 1754poe     o2 8087  -0.038   3.202   4.253 -0.4583 -0.2197 -0.1567
 1754poe    c31 8088   0.090   3.152   4.222 -0.0151  0.2884  0.8170
 1755poe    c31 8089   4.869   1.197   3.645 -0.7824 -0.6987 -0.4986
 1755poe     o2 8090   4.805   1.140   3.757 -0.7228  0.2308  0.0199
 1755poe    c23 8091   4.850   1.009   3.787  0.4017  0.6793  0.3351
 1755poe    c23 8092   4.768   0.944   3.900  0.4855 -0.0842 -0.0368
 1755poe     o2 8093   4.786   0.990   4.032  0.1708 -0.3716  0.1073
 1755poe    c23 8094   4.700   0.924   4.122  0.2701 -0.0543  0.4391
 1755poe    c23 8095   4.705   1.002   4.255 -0.5906 -0.0112  0.4521
 1755poe     o2 8096   4.679   1.139   4.231 -0.1221 -0.0082 -0.0585
 1755poe    c23 8097   4.657   1.209   4.351  0.2506  0.3884 -0.2180
 1755poe    c23 8098   4.629   1.359   4.336  0.0140  0.4542  0.7834
 1755poe     o2 8099   4.735   1.426   4.272 -0.3323  0.0693 -0.2162
 1755poe    c31 8100   4.749   1.561   4.312  0.5884  0.0603 -0.4795
 1756poe    c31 8101   6.353   4.419   6.695  0.0315  0.3107 -0.0314
 1756poe     o2 8102   6.242   4.335   6.673  0.5293 -0.4087  0.1577
 1756poe    c23 8103   6.265   4.250   6.563  0.5773 -0.4227  0.1787
 1756poe    c23 8104   6.137   4.188   6.506  0.3470 -0.2449  0.4994
 1756poe     o2 8105   6.030   4.279   6.495  0.3345 -0.3658 -0.5056
 1756poe    c23 8106   5.901   4.234   6.462  0.1504 -0.3196  0.1477
 1756poe    c23 8107   5.807   4.355   6.469  0.5625  0.0334 -0.3744
 1756poe     o2 8108   5.784   4.400   6.601  0.1556  0.0473 -0.4466
 1756poe    c23 8109   5.668   4.477   6.584  0.1825  0.1453 -0.1901
 1756poe    c23 8110   5.617   4.496   6.728 -0.3920  0.0583 -0.3790
 1756poe     o2 8111   5.711   4.581   6.789 -0.8634  0.7078 -0.5432
 1756poe    c31 8112   5.682   4.592   6.926 -0.3373  0.9240 -0.4474
 1757poe    c31 8113   4.129   4.245   6.701 -0.3417 -0.2300 -0.2569
 1757poe     o2 8114   4.230   4.164   6.757  0.3264  0.7560 -0.0061
 1757poe    c23 8115   4.171   4.060   6.831  0.3181  0.2778 -0.6756
 1757poe    c23 8116   4.268   3.942   6.851 -0.4636 -0.2063  0.3956
 1757poe     o2 8117   4.390   3.988   6.906 -0.3498 -0.2850  0.2109
 1757poe    c23 8118   4.464   3.872   6.933 -0.0838 -0.1034  0.2692
 1757poe    c23 8119   4.612   3.905   6.908 -0.2228  0.4878  0.2151
 1757poe     o2 8120   4.637   4.018   6.988 -0.3971  0.2353  0.6310
 1757poe    c23 8121   4.764   4.079   6.990 -0.2380 -0.0855  0.3102
 1757poe    c23 8122   4.746   4.195   7.089  0.1379  0.3677 -0.1491
 1757poe     o2 8123   4.627   4.263   7.055 -0.0853 -0.2648 -0.6526
 1757poe    c31 8124   4.628   4.398   7.097 -0.2979 -0.6793  0.7221
 1758poe    c31 8125   6.137   2.982   4.171 -0.3523  0.0557 -0.1508
 1758poe     o2 8126   6.165   2.964   4.308  0.0577  0.3671 -0.1929
 1758poe    c23 8127   6.056   2.968   4.397  0.1084 -0.8537 -0.0606
 1758poe    c23 8128   6.096   2.880   4.516  0.0774 -0.2763  0.3792
 1758poe     o2 8129   6.160   2.949   4.622 -0.1498 -0.3007  0.5335
 1758poe    c23 8130   6.057   2.979   4.713 -0.1239 -0.6249  0.6724
 1758poe    c23 8131   6.137   3.046   4.827  0.4451  0.0758 -0.1243
 1758poe     o2 8132   6.203   2.943   4.898 -0.4065 -0.1160  0.4033
 1758poe    c23 8133   6.254   3.001   5.015 -0.3034  0.6128  0.0046
 1758poe    c23 8134   6.299   2.895   5.117 -0.0199  0.1071 -0.6421
 1758poe     o2 8135   6.198   2.826   5.187 -0.1883  0.4132 -0.5810
 1758poe    c31 8136   6.242   2.706   5.246 -0.3599 -0.0007 -1.2882
 1759poe    c31 8137   5.227   1.798   4.231  0.5080 -0.1792  0.2073
 1759poe     o2 8138   5.320   1.882   4.166 -0.4119  0.2332 -0.5970
 1759poe    c23 8139   5.332   2.010   4.225  0.0034 -0.2620  0.4262
 1759poe    c23 8140   5.458   2.086   4.178 -0.2418 -0.2211 -0.1765
 1759poe     o2 8141   5.438   2.134   4.047  0.2033 -0.0400 -0.1795
 1759poe    c23 8142   5.559   2.179   3.991  0.1941 -0.0398 -0.1993
 1759poe    c23 8143   5.526   2.274   3.874 -0.0040  0.1451  0.0074
 1759poe     o2 8144   5.470   2.202   3.766  0.0062 -0.2042  0.2328
 1759poe    c23 8145   5.473   2.275   3.646 -0.2391 -0.3042  0.1668
 1759poe    c23 8146   5.379   2.201   3.549 -0.1385 -0.1732 -0.0329
 1759poe     o2 8147   5.397   2.061   3.542 -0.5668 -0.2612  0.5458
 1759poe    c31 8148   5.476   2.032   3.429 -0.1676 -0.1674  0.8030
 1760poe    c31 8149   1.940   6.197   6.652  1.0362  1.2075 -0.4882
 1760poe     o2 8150   1.966   6.183   6.514  1.0060  0.0669 -0.3904
 1760poe    c23 8151   2.025   6.299   6.459 -0.0274  0.5626 -0.4814
 1760poe    c23 8152   2.072   6.271   6.315  0.6617  0.1818 -0.1868
 1760poe     o2 8153   1.984   6.167   6.279  0.2834  0.3804  0.1516
 1760poe    c23 8154   2.021   6.138   6.146  0.3140  0.1207  0.2151
 1760poe    c23 8155   1.961   6.008   6.091 -0.2492  0.3428  0.2933
 1760poe     o2 8156   1.821   6.023   6.094 -0.2639  0.3124 -0.0745
 1760poe    c23 8157   1.754   5.900   6.109 -0.1808  0.3484  0.6287
 1760poe    c23 8158   1.610   5.895   6.055  0.0003  0.3580  0.1388
 1760poe     o2 8159   1.616   5.873   5.916 -0.0947 -0.1971  0.2178
 1760poe    c31 8160   1.483   5.877   5.869  0.0949  0.1878 -0.2957
 1761poe    c31 8161   4.648   2.834   2.613 -0.9673  0.2272 -0.0808
 1761poe     o2 8162   4.613   2.730   2.701  0.0358 -0.2354 -0.2202
 1761poe    c23 8163   4.537   2.781   2.808  0.0746 -0.3060 -0.1586
 1761poe    c23 8164   4.457   2.668   2.875  0.0482 -0.2691 -0.1276
 1761poe     o2 8165   4.400   2.586   2.775  0.2093 -0.3935 -0.1184
 1761poe    c23 8166   4.317   2.485   2.827 -0.5294  0.3574  0.1948
 1761poe    c23 8167   4.322   2.359   2.738  0.4661  0.2459  0.3962
 1761poe     o2 8168   4.321   2.391   2.600  0.2148 -0.5015  0.2225
 1761poe    c23 8169   4.276   2.284   2.520 -0.0158  0.0049 -0.3278
 1761poe    c23 8170   4.271   2.313   2.369  0.3846  0.2490 -0.2977
 1761poe     o2 8171   4.396   2.332   2.306  0.4886 -0.1823 -0.2274
 1761poe    c31 8172   4.377   2.361   2.169 -0.4454 -0.8567 -0.2532
 1762poe    c31 8173   1.471   5.483   6.136  0.3598  0.6463  0.6900
 1762poe     o2 8174   1.378   5.589   6.144  0.0940  0.4689  0.0451
 1762poe    c23 8175   1.251   5.574   6.085  0.2451 -0.2604 -0.1018
 1762poe    c23 8176   1.184   5.711   6.110  0.5049 -0.1204 -0.1715
 1762poe     o2 8177   1.190   5.747   6.246  0.3354  0.7445 -0.3907
 1762poe    c23 8178   1.071   5.816   6.279 -0.2639 -0.2966 -0.3366
 1762poe    c23 8179   1.053   5.828   6.431 -0.1582 -0.5230 -0.3049
 1762poe     o2 8180   1.032   5.698   6.482 -0.3173 -0.5203 -0.3646
 1762poe    c23 8181   1.029   5.695   6.622  0.6325 -0.4462 -0.3405
 1762poe    c23 8182   1.061   5.554   6.675 -0.1621 -0.2621  0.6712
 1762poe     o2 8183   1.198   5.534   6.646 -0.2384 -0.1455  0.2187
 1762poe    c31 8184   1.262   5.441   6.731  0.5786  0.2264  0.0192
 1763poe    c31 8185   4.056   2.592   0.856 -0.3387  0.1099 -0.1650
 1763poe     o2 8186   3.965   2.584   0.748  0.0406 -0.6119 -0.4379
 1763poe    c23 8187   4.022   2.620   0.624 -0.0218 -0.4917 -0.4317
 1763poe    c23 8188   3.906   2.639   0.525 -0.3347  0.1589  0.0571
 1763poe     o2 8189   3.807   2.540   0.540  0.2489 -0.4901 -0.3238
 1763poe    c23 8190   3.700   2.570   0.453  0.0276  0.0643  0.1337
 1763poe    c23 8191   3.594   2.469   0.502  0.3408 -0.4823 -0.3090
 1763poe     o2 8192   3.578   2.501   0.638 -0.1430 -0.8407 -0.2814
 1763poe    c23 8193   3.465   2.424   0.674  0.2232 -0.9170  0.7521
 1763poe    c23 8194   3.398   2.453   0.809 -0.7236 -0.2205  0.1469
 1763poe     o2 8195   3.483   2.431   0.919  0.1541  0.2596 -0.4178
 1763poe    c31 8196   3.425   2.493   1.032  0.0248  0.7725 -0.7623
 1764poe    c31 8197   3.766   5.008   7.025  0.1478  0.0965 -0.2526
 1764poe     o2 8198   3.636   5.061   7.012 -0.0088 -0.1752  0.1641
 1764poe    c23 8199   3.651   5.201   7.025 -0.6293 -0.0463 -0.4803
 1764poe    c23 8200   3.541   5.258   7.117  0.0093 -0.5347  0.6006
 1764poe     o2 8201   3.415   5.218   7.070  0.1620  0.0362 -0.3316
 1764poe    c23 8202   3.314   5.291   7.136 -0.0827 -0.6066  0.0213
 1764poe    c23 8203   3.181   5.299   7.059 -0.2359  0.1406  0.3508
 1764poe     o2 8204   3.119   5.173   7.064 -0.1220  0.0817  0.2837
 1764poe    c23 8205   3.025   5.155   7.168  0.4760 -0.0818  0.8065
 1764poe    c23 8206   2.986   5.008   7.146 -0.4974  0.3871 -0.7749
 1764poe     o2 8207   3.100   4.927   7.125 -0.8326 -0.1700 -0.4946
 1764poe    c31 8208   3.058   4.796   7.095  0.0179 -0.6491  0.3991
 1765poe    c31 8209   4.293   1.338   3.839 -0.5003  0.3204 -0.4263
 1765poe     o2 8210   4.410   1.336   3.760 -0.6372 -0.3017 -0.6240
 1765poe    c23 8211   4.373   1.319   3.625  0.1141  0.5559 -0.9535
 1765poe    c23 8212   4.437   1.195   3.561 -0.0725 -0.2891  0.4535
 1765poe     o2 8213   4.391   1.067   3.598 -0.2965 -0.2432  0.3353
 1765poe    c23 8214   4.476   0.965   3.551 -0.4829 -0.1159 -0.2761
 1765poe    c23 8215   4.400   0.839   3.505 -0.0609 -0.3903 -0.2292
 1765poe     o2 8216   4.323   0.800   3.617  0.2125 -0.9388 -0.2295
 1765poe    c23 8217   4.212   0.719   3.590 -0.0228 -0.6922 -0.0075
 1765poe    c23 8218   4.141   0.693   3.724 -0.5457  0.2570 -0.0900
 1765poe     o2 8219   4.098   0.814   3.781 -0.0439  0.4890 -0.1990
 1765poe    c31 8220   4.011   0.785   3.889 -0.1893  0.0095 -0.4418
 1766poe    c31 8221   6.432   4.481   5.345  0.1464  0.1401 -0.0355
 1766poe     o2 8222   6.392   4.517   5.215 -0.1107  0.3452  0.0972
 1766poe    c23 8223   6.303   4.414   5.177  0.4496  0.0384 -0.4215
 1766poe    c23 8224   6.230   4.456   5.048 -0.2600 -0.2634 -0.1267
 1766poe     o2 8225   6.282   4.420   4.922  0.3303 -0.5939  0.2075
 1766poe    c23 8226   6.182   4.442   4.826  0.6676  0.3603  0.0612
 1766poe    c23 8227   6.247   4.432   4.687  0.0810  0.3145 -0.2132
 1766poe     o2 8228   6.325   4.314   4.684 -0.5281 -0.0985 -0.0124
 1766poe    c23 8229   6.359   4.281   4.551  0.0757  0.3941  0.0183
 1766poe    c23 8230   6.472   4.178   4.535  0.4007  0.6913  0.3854
 1766poe     o2 8231   6.443   4.072   4.624 -0.7887  0.2710 -0.4839
 1766poe    c31 8232   6.542   3.973   4.607 -0.6027  0.2902  0.4309
 1767poe    c31 8233   2.782   2.480   2.292 -0.3753  0.1810  0.1412
 1767poe     o2 8234   2.673   2.487   2.203  0.1134  0.3404 -0.4562
 1767poe    c23 8235   2.694   2.390   2.104 -0.0331 -0.4645  0.2848
 1767poe    c23 8236   2.562   2.347   2.036  0.2903 -0.3894 -0.3990
 1767poe     o2 8237   2.489   2.431   1.950  0.1018 -0.1798 -0.0333
 1767poe    c23 8238   2.352   2.399   1.939 -0.0897  0.4443  0.4261
 1767poe    c23 8239   2.282   2.496   1.842 -0.1136 -0.1364 -0.1465
 1767poe     o2 8240   2.324   2.487   1.708  0.6534  0.0520  0.0790
 1767poe    c23 8241   2.280   2.590   1.623  0.1010 -0.4500 -0.2453
 1767poe    c23 8242   2.380   2.600   1.506  0.1484 -0.1185 -0.1784
 1767poe     o2 8243   2.502   2.654   1.551  0.2956 -0.2424 -0.4268
 1767poe    c31 8244   2.579   2.704   1.444  0.7379 -0.0942 -0.0436
 1768poe    c31 8245   4.377   1.260   2.802 -0.3244  0.0514  0.7341
 1768poe     o2 8246   4.421   1.391   2.772 -0.1407  0.0920  1.1760
 1768poe    c23 8247   4.553   1.386   2.723 -0.4056  0.0675  0.4595
 1768poe    c23 8248   4.608   1.528   2.702  0.2032 -0.3012 -0.5041
 1768poe     o2 8249   4.496   1.590   2.644 -0.1166 -0.3911  0.0157
 1768poe    c23 8250   4.537   1.722   2.618 -0.0024 -0.4040  0.1314
 1768poe    c23 8251   4.529   1.746   2.466 -0.3654  0.1457  0.2361
 1768poe     o2 8252   4.390   1.758   2.441 -0.2927 -0.0446 -0.2665
 1768poe    c23 8253   4.368   1.799   2.308  0.1563  0.0317 -0.3184
 1768poe    c23 8254   4.222   1.836   2.276 -0.0673 -0.2480  0.3627
 1768poe     o2 8255   4.144   1.720   2.263  0.0750 -0.3245  0.1845
 1768poe    c31 8256   4.008   1.750   2.283  0.0562 -0.0496 -0.3538
 1769poe    c31 8257   6.493   0.211   3.036 -0.2732  0.4064 -0.5910
 1769poe     o2 8258   6.586   0.284   3.113 -0.2967  0.0560 -0.2301
 1769poe    c23 8259   6.646   0.203   3.211 -0.5847 -0.2268 -0.2868
 1769poe    c23 8260   6.713   0.304   3.306 -0.1191 -0.5992 -0.2156
 1769poe     o2 8261   6.834   0.366   3.272 -0.5021 -0.0641 -0.6132
 1769poe    c23 8262   6.949   0.285   3.259 -0.1204  0.3622  0.0308
 1769poe    c23 8263   7.079   0.363   3.232  0.0496  0.1428  0.2029
 1769poe     o2 8264   7.051   0.426   3.109 -0.1685 -0.3592 -0.0070
 1769poe    c23 8265   7.157   0.508   3.064 -0.3920  0.1325  0.3580
 1769poe    c23 8266   7.088   0.572   2.943 -0.3838  0.0135  0.2901
 1769poe     o2 8267   6.956   0.613   2.972 -0.1265  0.9512  0.1841
 1769poe    c31 8268   6.909   0.698   2.869 -0.2776  0.0607 -0.4973
 1770poe    c31 8269   2.292   6.006   2.244 -0.5409 -0.3798  0.1841
 1770poe     o2 8270   2.255   6.138   2.274  0.0268 -0.2127  0.1591
 1770poe    c23 8271   2.241   6.149   2.414  0.4978  0.4712  0.1573
 1770poe    c23 8272   2.146   6.256   2.472  0.3715  0.6283 -0.3355
 1770poe     o2 8273   2.008   6.233   2.453  0.3368  1.0747 -0.6392
 1770poe    c23 8274   1.924   6.323   2.522 -0.2811  0.0809 -0.0835
 1770poe    c23 8275   1.780   6.271   2.540 -0.1257 -0.3165  0.0207
 1770poe     o2 8276   1.767   6.165   2.632  0.0536 -0.3854 -0.0332
 1770poe    c23 8277   1.772   6.195   2.770 -0.8058  0.2883 -0.1442
 1770poe    c23 8278   1.745   6.085   2.874  0.5826  0.4265  0.3771
 1770poe     o2 8279   1.832   5.975   2.864  0.2235  0.1964 -0.2686
 1770poe    c31 8280   1.780   5.863   2.932 -0.2133  0.5675  0.0125
 1771poe    c31 8281   0.142   5.791   2.996  0.1235 -0.2640 -0.6401
 1771poe     o2 8282   0.254   5.867   2.955  0.2758 -0.0328  0.1865
 1771poe    c23 8283   0.298   5.783   2.851 -0.3292  0.1095 -0.1897
 1771poe    c23 8284   0.388   5.856   2.749 -0.2336  0.0929 -0.1170
 1771poe     o2 8285   0.296   5.930   2.672 -0.1643 -0.1279 -0.4135
 1771poe    c23 8286   0.330   6.061   2.633 -0.0574 -0.1222 -0.3023
 1771poe    c23 8287   0.209   6.156   2.631  0.3840  0.4416 -0.4705
 1771poe     o2 8288   0.114   6.101   2.543  0.0135 -0.0681  0.2348
 1771poe    c23 8289   0.045   6.210   2.486  0.2813 -0.0437 -0.0488
 1771poe    c23 8290  -0.106   6.187   2.507  0.2532 -0.0496 -0.2514
 1771poe     o2 8291  -0.141   6.175   2.643  0.5639  0.8203 -0.0924
 1771poe    c31 8292  -0.271   6.229   2.651  0.5893  0.9516 -0.5379
 1772poe    c31 8293   4.527   5.534   5.885 -0.1823 -0.0794  0.2946
 1772poe     o2 8294   4.476   5.403   5.881 -0.0640 -0.1121 -0.3439
 1772poe    c23 8295   4.472   5.342   6.008 -0.1701  0.8162  0.1061
 1772poe    c23 8296   4.424   5.196   6.003  0.0019  0.7674 -0.1155
 1772poe     o2 8297   4.500   5.110   5.921 -0.2825  0.3268  0.0771
 1772poe    c23 8298   4.441   4.982   5.910  0.3268  0.0566 -0.0516
 1772poe    c23 8299   4.529   4.892   5.820 -0.0469 -0.2566 -0.1039
 1772poe     o2 8300   4.567   4.959   5.702  0.5410  0.5553  0.5372
 1772poe    c23 8301   4.655   4.883   5.623  0.1202  0.6340 -0.0151
 1772poe    c23 8302   4.671   4.968   5.495  0.5685  0.3352 -0.1608
 1772poe     o2 8303   4.683   5.103   5.534  0.2124  0.2755  0.1557
 1772poe    c31 8304   4.777   5.174   5.457 -0.1928  0.0535 -0.5544
 1773poe    c31 8305   4.854   0.892   4.779 -0.3353 -0.1775  0.8168
 1773poe     o2 8306   4.987   0.908   4.824  0.0550 -0.2736 -0.2764
 1773poe    c23 8307   5.079   0.872   4.724  0.0699  0.3271 -0.4840
 1773poe    c23 8308   5.229   0.875   4.756  0.0840 -0.3284 -0.4644
 1773poe     o2 8309   5.285   0.800   4.862  0.0624 -0.2074 -0.3675
 1773poe    c23 8310   5.382   0.705   4.824  0.1950 -0.1462 -0.1840
 1773poe    c23 8311   5.382   0.618   4.951 -0.3476  0.5855  0.3242
 1773poe     o2 8312   5.353   0.690   5.068 -0.4425  0.4171  0.4050
 1773poe    c23 8313   5.355   0.620   5.191 -1.3846 -0.2396  0.0628
 1773poe    c23 8314   5.351   0.703   5.320 -0.0786 -0.2073  0.1028
 1773poe     o2 8315   5.227   0.771   5.331  0.4344  0.7122  0.3270
 1773poe    c31 8316   5.222   0.850   5.447 -0.7831  0.8026  0.2215
 1774poe    c31 8317   2.193   2.303   6.393  0.1367  0.5349 -0.3530
 1774poe     o2 8318   2.060   2.341   6.419  0.2055  0.2533  0.4415
 1774poe    c23 8319   1.988   2.223   6.446  0.4505  0.2235  0.9738
 1774poe    c23 8320   1.841   2.240   6.489  0.2295 -0.3551  0.4538
 1774poe     o2 8321   1.834   2.341   6.587  0.4829 -0.2936  0.4084
 1774poe    c23 8322   1.706   2.401   6.578  0.7640  0.2650  0.0562
 1774poe    c23 8323   1.678   2.495   6.697 -0.6820  0.4152 -0.3854
 1774poe     o2 8324   1.748   2.615   6.677 -0.9017  0.5534 -0.3219
 1774poe    c23 8325   1.707   2.738   6.733  0.1398  0.6091  0.3365
 1774poe    c23 8326   1.793   2.852   6.676  0.3101  0.3794  0.1288
 1774poe     o2 8327   1.924   2.800   6.674  0.0111 -0.3488 -0.4122
 1774poe    c31 8328   2.011   2.893   6.615 -1.0604  0.7000 -0.3740
 1775poe    c31 8329   0.748   1.841   2.646 -0.6477  0.3546  0.3796
 1775poe     o2 8330   0.678   1.964   2.640 -0.2520  0.5244 -1.1290
 1775poe    c23 8331   0.762   2.064   2.587  0.2608  0.4703 -0.4345
 1775poe    c23 8332   0.666   2.185   2.587  0.1190  0.3594 -0.3709
 1775poe     o2 8333   0.673   2.260   2.706  0.2397  0.4288 -0.4213
 1775poe    c23 8334   0.607   2.385   2.709 -0.5313  0.0198 -0.0105
 1775poe    c23 8335   0.472   2.404   2.780 -0.4149 -0.2352  0.2828
 1775poe     o2 8336   0.499   2.422   2.917  0.0260 -0.6218  0.2506
 1775poe    c23 8337   0.373   2.431   2.981 -0.0880  0.4233 -0.0940
 1775poe    c23 8338   0.407   2.385   3.124  0.7220  0.0860 -0.3866
 1775poe     o2 8339   0.467   2.488   3.200  0.2413 -0.0658  0.2049
 1775poe    c31 8340   0.489   2.430   3.327 -0.0072 -0.0431  0.2591
 1776poe    c31 8341   0.162   5.675   5.230 -0.6557 -0.6964 -0.2603
 1776poe     o2 8342   0.281   5.633   5.292 -0.4316  0.0161 -0.1992
 1776poe    c23 8343   0.263   5.636   5.432 -0.4483  0.4664 -0.2072
 1776poe    c23 8344   0.359   5.539   5.504 -0.7067 -0.4086 -1.0105
 1776poe     o2 8345   0.494   5.564   5.473 -0.5513 -0.1392 -0.1540
 1776poe    c23 8346   0.585   5.482   5.544 -0.0240  0.2724 -0.3540
 1776poe    c23 8347   0.719   5.462   5.471  0.5048 -0.2642  0.7387
 1776poe     o2 8348   0.770   5.586   5.426  0.0079 -0.1366  0.5181
 1776poe    c23 8349   0.903   5.581   5.379 -0.2904  0.1430 -0.3838
 1776poe    c23 8350   0.922   5.712   5.299  0.1945  0.2775 -0.0609
 1776poe     o2 8351   0.803   5.740   5.229 -0.1740 -0.7542  0.1285
 1776poe    c31 8352   0.813   5.816   5.110 -0.6122 -0.5015  0.2501
 1777poe    c31 8353   4.098   1.785   5.783 -0.1179  0.1108 -0.0720
 1777poe     o2 8354   4.081   1.902   5.860 -0.2095  0.4937 -0.6673
 1777poe    c23 8355   4.173   1.900   5.967 -0.2191  0.3452 -0.6621
 1777poe    c23 8356   4.142   2.015   6.065  0.5033 -0.2094  0.2265
 1777poe     o2 8357   4.132   2.125   5.978 -0.1983 -0.2573  0.2426
 1777poe    c23 8358   4.122   2.239   6.061 -0.4399  0.0459 -0.1970
 1777poe    c23 8359   4.125   2.362   5.970  0.0058  0.0367 -0.1950
 1777poe     o2 8360   4.018   2.354   5.879 -0.2103 -0.0896  0.0718
 1777poe    c23 8361   4.071   2.396   5.755 -0.4485 -0.0928 -0.0314
 1777poe    c23 8362   4.026   2.294   5.648  0.1102 -0.2367 -0.1283
 1777poe     o2 8363   4.052   2.162   5.688  0.8733  0.1268  0.6347
 1777poe    c31 8364   4.148   2.106   5.602  0.2240  0.3457 -0.2490
 1778poe    c31 8365   3.731   2.993   3.934  0.1997  0.0064  0.3809
 1778poe     o2 8366   3.596   2.971   3.969  0.0806  0.0773 -0.0351
 1778poe    c23 8367   3.577   2.943   4.105 -0.1831  0.1317 -0.0617
 1778poe    c23 8368   3.428   2.904   4.117 -0.0504 -0.3825 -0.0587
 1778poe     o2 8369   3.401   2.798   4.028  0.0492 -0.3507 -0.1270
 1778poe    c23 8370   3.266   2.757   4.035 -0.1571  0.3416  0.1125
 1778poe    c23 8371   3.209   2.699   3.904  0.4494  0.0207 -0.0149
 1778poe     o2 8372   3.264   2.766   3.792  0.2287 -0.2492 -0.2834
 1778poe    c23 8373   3.213   2.710   3.673 -0.3309 -0.1351 -0.1026
 1778poe    c23 8374   3.259   2.762   3.535  0.0530 -0.6654 -0.1773
 1778poe     o2 8375   3.389   2.745   3.484 -0.2171 -0.5553 -0.9121
 1778poe    c31 8376   3.385   2.623   3.412 -0.0336 -0.4517 -1.1022
 1779poe    c31 8377   5.183   6.822   6.400  0.4623 -0.4170 -0.0349
 1779poe     o2 8378   5.234   6.793   6.271  0.3301 -0.2414 -0.1271
 1779poe    c23 8379   5.374   6.791   6.258  0.3275 -0.1391 -0.1688
 1779poe    c23 8380   5.396   6.752   6.111 -0.7264 -0.3514 -0.2775
 1779poe     o2 8381   5.364   6.618   6.085 -0.6072 -0.4048 -0.1476
 1779poe    c23 8382   5.401   6.578   5.955 -0.0011 -0.1022 -0.0729
 1779poe    c23 8383   5.373   6.429   5.930  0.4037 -0.1991  0.0456
 1779poe     o2 8384   5.462   6.359   6.013  0.3749  0.3040  0.5038
 1779poe    c23 8385   5.464   6.221   5.986  0.1104  0.2962  0.5207
 1779poe    c23 8386   5.570   6.159   6.080 -0.0224 -0.7825 -0.0237
 1779poe     o2 8387   5.554   6.210   6.210  0.0955 -0.5171 -0.1130
 1779poe    c31 8388   5.580   6.113   6.309 -0.1663 -0.3992  0.0707
 1780poe    c31 8389   4.906   5.674   5.044  0.1552 -0.0102 -0.4414
 1780poe     o2 8390   4.937   5.811   5.035  0.7139 -0.0569  0.6620
 1780poe    c23 8391   4.824   5.883   5.080  0.2352  0.1464 -0.8122
 1780poe    c23 8392   4.866   6.022   5.132  0.3378 -0.0897 -0.2610
 1780poe     o2 8393   4.892   6.111   5.027 -0.1510  0.0847 -0.2340
 1780poe    c23 8394   4.968   6.213   5.088 -0.2387 -0.0912  0.1710
 1780poe    c23 8395   4.982   6.335   4.995  0.0678 -0.1375  0.1556
 1780poe     o2 8396   5.059   6.296   4.884  0.0993  0.3046  0.0210
 1780poe    c23 8397   5.075   6.404   4.794  0.0686  0.1240 -0.2025
 1780poe    c23 8398   4.997   6.391   4.661 -0.1085 -0.1147 -0.0772
 1780poe     o2 8399   5.038   6.292   4.570 -0.0371 -0.2908  0.1445
 1780poe    c31 8400   5.149   6.334   4.494 -0.2257  0.4878  0.2947
 1781poe    c31 8401   0.742   4.715   2.190 -0.1256  0.1926  0.3800
 1781poe     o2 8402   0.683   4.842   2.176  0.5652  0.5032  0.2739
 1781poe    c23 8403   0.584   4.864   2.274 -0.3305  0.2021 -0.5458
 1781poe    c23 8404   0.491   4.974   2.221 -0.3557  0.2757 -0.3486
 1781poe     o2 8405   0.575   5.071   2.163  0.0772 -0.0511 -0.2677
 1781poe    c23 8406   0.499   5.167   2.094 -0.2394  0.3058  0.5681
 1781poe    c23 8407   0.598   5.276   2.051  0.1062 -0.0189  0.5402
 1781poe     o2 8408   0.701   5.222   1.970 -0.1316  0.1784  0.1011
 1781poe    c23 8409   0.787   5.333   1.964  0.8167 -0.4590  1.3548
 1781poe    c23 8410   0.919   5.296   1.895  0.2230  0.2237 -0.2012
 1781poe     o2 8411   1.005   5.234   1.988  0.0655  0.5028  0.1292
 1781poe    c31 8412   1.136   5.202   1.947 -0.0746 -0.1902  0.2166
 1782poe    c31 8413   5.044   0.542   1.192  0.1884  0.1315  0.2704
 1782poe     o2 8414   5.182   0.545   1.161  0.1658  0.3582  0.1862
 1782poe    c23 8415   5.214   0.466   1.048  0.2289  0.7515 -0.0704
 1782poe    c23 8416   5.359   0.464   0.996  0.0436  0.0683 -0.5710
 1782poe     o2 8417   5.411   0.591   0.964  0.1357  0.1623 -0.0512
 1782poe    c23 8418   5.527   0.569   0.887 -0.0711 -0.1990 -0.2619
 1782poe    c23 8419   5.645   0.643   0.953 -0.3591  0.5352 -0.5571
 1782poe     o2 8420   5.603   0.774   0.985 -0.3621  0.3469  0.2319
 1782poe    c23 8421   5.687   0.835   1.081 -0.0368 -0.3709  0.4085
 1782poe    c23 8422   5.614   0.970   1.097  0.1377 -0.2177 -0.1023
 1782poe     o2 8423   5.474   0.960   1.106  0.0935  0.7627  0.3821
 1782poe    c31 8424   5.412   1.083   1.136 -0.4776  0.6141 -0.1550
 1783poe    c31 8425   1.678   4.515   5.497 -0.0769 -0.3464  0.4334
 1783poe     o2 8426   1.717   4.638   5.554  0.3344 -0.3240  0.1138
 1783poe    c23 8427   1.795   4.625   5.671  0.0383 -0.8369  0.2594
 1783poe    c23 8428   1.705   4.635   5.795  0.0056 -0.2850  0.1924
 1783poe     o2 8429   1.666   4.767   5.828  0.3491 -0.0966 -0.1456
 1783poe    c23 8430   1.666   4.784   5.968  0.0989  0.1813 -0.1795
 1783poe    c23 8431   1.624   4.926   6.012 -0.8634 -0.1215 -0.1065
 1783poe     o2 8432   1.726   5.020   5.984 -0.4673 -0.5205 -0.0182
 1783poe    c23 8433   1.687   5.137   6.051 -0.1582 -0.1683 -0.4543
 1783poe    c23 8434   1.755   5.265   5.998  0.3873 -0.2449  0.0476
 1783poe     o2 8435   1.895   5.263   6.013  0.4478  0.2566 -0.4286
 1783poe    c31 8436   1.944   5.395   6.027 -0.1795  0.4210  0.2577
 1784poe    c31 8437   2.466   6.771   6.929 -0.6767 -0.5943  0.4660
 1784poe     o2 8438   2.522   6.762   7.058  0.1764 -0.2147  0.1316
 1784poe    c23 8439   2.637   6.683   7.078  0.5263  0.3242  0.2661
 1784poe    c23 8440   2.602   6.611   7.210 -0.3181 -0.0020 -0.1240
 1784poe     o2 8441   2.570   6.701   7.314 -0.5674 -0.3314  0.0831
 1784poe    c23 8442   2.569   6.640   7.441 -0.2314  0.1264  0.3083
 1784poe    c23 8443   2.519   6.750   7.537 -0.4287 -0.0799  0.4430
 1784poe     o2 8444   2.385   6.795   7.539 -0.5489 -0.4092  0.0992
 1784poe    c23 8445   2.285   6.700   7.567 -0.4670 -0.5142  0.0376
 1784poe    c23 8446   2.148   6.770   7.565 -0.1456  0.1219  0.0357
 1784poe     o2 8447   2.105   6.800   7.434 -0.2366  0.8838  0.2337
 1784poe    c31 8448   1.982   6.868   7.447 -0.8048 -0.1576  0.4014
 1785poe    c31 8449   1.796   0.909   6.890  0.0300  0.0390  0.6551
 1785poe     o2 8450   1.741   1.037   6.868  0.4867  0.1237 -0.0130
 1785poe    c23 8451   1.816   1.128   6.945  0.2497 -0.0025  0.3673
 1785poe    c23 8452   1.839   1.253   6.858 -0.9109 -0.3679 -0.4912
 1785poe     o2 8453   1.719   1.324   6.840 -0.5153  0.5917  0.5657
 1785poe    c23 8454   1.719   1.420   6.736 -0.6056  0.1847  0.1907
 1785poe    c23 8455   1.576   1.429   6.678 -0.4665  0.1768 -0.1496
 1785poe     o2 8456   1.486   1.444   6.785 -0.2133 -0.2519  0.1253
 1785poe    c23 8457   1.353   1.442   6.738  0.0469 -0.3991 -0.6256
 1785poe    c23 8458   1.269   1.458   6.866  0.1097 -0.4015 -0.5835
 1785poe     o2 8459   1.343   1.392   6.966  0.3313  0.7626  0.0433
 1785poe    c31 8460   1.257   1.360   7.073 -0.4485  0.1256 -0.7566
 1786poe    c31 8461   5.111   6.696   0.442 -0.2520  0.7149 -0.1641
 1786poe     o2 8462   5.218   6.605   0.427 -0.3296  0.5333  0.3566
 1786poe    c23 8463   5.324   6.655   0.349 -0.0567 -0.2468  0.2110
 1786poe    c23 8464   5.420   6.536   0.341 -0.2364 -0.3775 -0.0260
 1786poe     o2 8465   5.458   6.489   0.469  0.1039  0.4133  0.1660
 1786poe    c23 8466   5.588   6.436   0.467  0.0244  0.1969  0.6209
 1786poe    c23 8467   5.612   6.327   0.574 -0.6095 -0.4074  0.1588
 1786poe     o2 8468   5.586   6.394   0.695 -0.3840 -0.0403  0.0058
 1786poe    c23 8469   5.595   6.304   0.804  0.7391 -0.6107 -0.5481
 1786poe    c23 8470   5.485   6.200   0.832 -0.0296  0.4527  0.4661
 1786poe     o2 8471   5.449   6.134   0.713 -0.2865  0.2005  0.6837
 1786poe    c31 8472   5.351   6.034   0.731 -0.5541  0.4012  0.3518
 1787poe    c31 8473   3.436   2.269   1.757 -0.0073  0.3556  0.8051
 1787poe     o2 8474   3.569   2.312   1.774  0.0686  0.3017  0.3810
 1787poe    c23 8475   3.665   2.210   1.775  0.2002  0.4217 -0.0507
 1787poe    c23 8476   3.734   2.208   1.637 -0.2768  0.0477 -0.2856
 1787poe     o2 8477   3.665   2.139   1.535 -0.1087 -0.4494 -0.0660
 1787poe    c23 8478   3.703   2.004   1.518  0.0379 -0.3569 -0.4881
 1787poe    c23 8479   3.847   1.984   1.467  0.2413 -0.2280  0.0229
 1787poe     o2 8480   3.868   2.036   1.337 -0.3606 -0.4054 -0.1475
 1787poe    c23 8481   4.002   2.052   1.298 -0.4050  0.3137 -0.0236
 1787poe    c23 8482   4.031   2.129   1.168  0.7567 -0.0540  0.0059
 1787poe     o2 8483   3.955   2.247   1.158 -0.2947 -0.6972  0.2522
 1787poe    c31 8484   4.018   2.359   1.216 -0.6155 -0.3600 -0.0425
 1788poe    c31 8485   4.323   0.132   6.740  0.5248 -0.5966  0.4888
 1788poe     o2 8486   4.248   0.031   6.676 -0.0763  0.1054  0.0748
 1788poe    c23 8487   4.209   0.056   6.542  0.4053 -0.7691 -0.2349
 1788poe    c23 8488   4.128  -0.063   6.487 -0.4776 -0.1560 -0.2783
 1788poe     o2 8489   4.034  -0.107   6.582 -0.2442  0.1838  0.1143
 1788poe    c23 8490   3.954  -0.199   6.512 -0.1651  0.1345  0.0893
 1788poe    c23 8491   3.892  -0.270   6.635 -0.4203  0.4202  0.1282
 1788poe     o2 8492   3.835  -0.185   6.732 -1.2532  0.1786 -0.1433
 1788poe    c23 8493   3.770  -0.256   6.835  0.0211 -0.5655  0.1803
 1788poe    c23 8494   3.725  -0.162   6.949  0.1478 -0.6034  0.2608
 1788poe     o2 8495   3.830  -0.086   7.004 -0.3447  0.3627 -0.1221
 1788poe    c31 8496   3.772  -0.005   7.103  0.3114 -0.2254  0.7509
 1789poe    c31 8497   0.842   3.466   6.874 -0.0967  0.3954 -0.2045
 1789poe     o2 8498   0.702   3.457   6.883 -0.0324  0.1265  0.5880
 1789poe    c23 8499   0.640   3.369   6.791 -0.2005  0.8458  0.0000
 1789poe    c23 8500   0.490   3.344   6.813 -0.1392 -0.0171 -0.5271
 1789poe     o2 8501   0.405   3.454   6.792  0.1530  0.2195 -0.4765
 1789poe    c23 8502   0.271   3.418   6.818  0.2180  0.2388 -0.1103
 1789poe    c23 8503   0.172   3.526   6.772 -0.4334  0.1248  0.9746
 1789poe     o2 8504   0.224   3.652   6.808  0.2261  0.3795 -0.7537
 1789poe    c23 8505   0.121   3.748   6.804 -0.3525 -0.1870  0.0062
 1789poe    c23 8506   0.189   3.878   6.852 -0.1157 -0.1892 -0.3189
 1789poe     o2 8507   0.329   3.861   6.845 -0.1708 -0.7504 -0.1152
 1789poe    c31 8508   0.396   3.977   6.891 -0.7631 -0.4783  0.0660
 1790poe    c31 8509   3.645   3.730   6.388  0.0761  0.2252  0.2181
 1790poe     o2 8510   3.561   3.671   6.484 -0.0452 -0.1954 -0.1449
 1790poe    c23 8511   3.433   3.729   6.482 -0.0811 -0.2541  0.3282
 1790poe    c23 8512   3.331   3.634   6.549 -0.7283  0.2350  0.0566
 1790poe     o2 8513   3.412   3.551   6.629 -0.1299 -0.3808 -1.1421
 1790poe    c23 8514   3.346   3.478   6.730 -0.0480  0.4310 -0.4893
 1790poe    c23 8515   3.421   3.346   6.757 -0.0973  0.3472 -0.7601
 1790poe     o2 8516   3.559   3.373   6.752  0.0320 -0.1603 -0.1890
 1790poe    c23 8517   3.629   3.269   6.817 -0.1405  0.0790  0.3837
 1790poe    c23 8518   3.783   3.273   6.812 -0.1483  0.1151  0.1164
 1790poe     o2 8519   3.801   3.318   6.680  0.2180 -0.0604  0.1066
 1790poe    c31 8520   3.929   3.374   6.655  0.2404 -0.2019 -0.0978
 1791poe    c31 8521   3.294   4.419   4.173  0.0566  0.0886 -0.0634
 1791poe     o2 8522   3.205   4.462   4.273  0.2655 -0.3038  0.2936
 1791poe    c23 8523   3.082   4.397   4.250  0.1683 -0.0784  0.1848
 1791poe    c23 8524   2.992   4.415   4.374 -0.1100 -0.1150 -0.0112
 1791poe     o2 8525   3.081   4.409   4.482 -0.0338 -0.1617 -0.0764
 1791poe    c23 8526   3.032   4.318   4.578 -0.3883  0.0454 -0.0631
 1791poe    c23 8527   3.091   4.176   4.571  0.0651  0.2262  0.0794
 1791poe     o2 8528   3.230   4.185   4.594 -0.0108  0.4989  0.4334
 1791poe    c23 8529   3.262   4.159   4.729  0.2413  0.1583  0.3083
 1791poe    c23 8530   3.397   4.214   4.780  0.2358  0.3845  0.0837
 1791poe     o2 8531   3.418   4.352   4.767 -0.7092  0.4571 -0.8260
 1791poe    c31 8532   3.544   4.398   4.810 -0.5671 -0.2654 -0.4649
 1792poe    c31 8533   1.104   5.405   1.442 -0.6011 -0.2752 -0.3709
 1792poe     o2 8534   1.092   5.545   1.426  0.1393 -0.1907 -0.2397
 1792poe    c23 8535   1.216   5.603   1.393  0.0967  0.0190 -0.0256
 1792poe    c23 8536   1.195   5.736   1.319  0.4264  0.2533  0.2929
 1792poe     o2 8537   1.080   5.804   1.365  0.4906  0.4768  0.1262
 1792poe    c23 8538   1.088   5.923   1.290  0.3960  0.3265 -0.1235
 1792poe    c23 8539   0.957   5.993   1.249  0.0090 -0.4727 -0.2654
 1792poe     o2 8540   0.865   5.905   1.187 -0.6161 -0.4586  0.6183
 1792poe    c23 8541   0.754   5.981   1.144  0.0377  0.2552  0.1553
 1792poe    c23 8542   0.660   5.889   1.064 -0.3620  0.6129  0.2144
 1792poe     o2 8543   0.626   5.771   1.132 -0.4813  0.6485  0.2184
 1792poe    c31 8544   0.522   5.695   1.074 -0.4538  0.6671  0.1453
 1793poe    c31 8545   4.291   1.924   6.871 -0.0178 -0.1874 -0.3782
 1793poe     o2 8546   4.188   1.895   6.963  0.6228 -0.3670  0.2942
 1793poe    c23 8547   4.136   2.006   7.032 -0.8115 -0.2843 -0.8722
 1793poe    c23 8548   4.050   1.971   7.155 -0.5140 -0.2816 -0.6631
 1793poe     o2 8549   4.111   1.884   7.248  0.2362  0.7998 -0.1131
 1793poe    c23 8550   4.022   1.867   7.356  0.3175  0.3388 -0.1148
 1793poe    c23 8551   4.074   1.761   7.455 -0.0806 -0.0756 -0.3488
 1793poe     o2 8552   4.094   1.644   7.380  0.0067 -0.0279 -0.4001
 1793poe    c23 8553   4.141   1.538   7.460  0.1960  0.0385 -0.4234
 1793poe    c23 8554   4.179   1.420   7.369  0.4733 -0.4118  0.2641
 1793poe     o2 8555   4.226   1.484   7.252  0.1350  0.2555  0.4870
 1793poe    c31 8556   4.279   1.383   7.169  0.3509  0.0946  0.8141
 1794poe    c31 8557   4.656   1.237   5.814 -0.6455 -0.3795 -1.1508
 1794poe     o2 8558   4.573   1.160   5.897 -0.1241  0.0391 -0.2268
 1794poe    c23 8559   4.617   1.031   5.862 -0.1462  0.0115 -0.1543
 1794poe    c23 8560   4.520   0.927   5.922  0.1724 -0.0509  0.2522
 1794poe     o2 8561   4.515   0.936   6.063 -0.6443  0.4255  0.2021
 1794poe    c23 8562   4.608   0.846   6.119 -0.9944  0.2666  0.5308
 1794poe    c23 8563   4.617   0.899   6.264  0.2904  0.5105  0.3802
 1794poe     o2 8564   4.491   0.952   6.298  0.0684  0.4644 -0.3484
 1794poe    c23 8565   4.463   0.933   6.435 -0.1550 -0.1915 -0.4783
 1794poe    c23 8566   4.312   0.954   6.455 -0.0643  0.2026 -0.1774
 1794poe     o2 8567   4.233   0.903   6.350 -0.2278  0.2549 -0.0812
 1794poe    c31 8568   4.099   0.908   6.393  0.0598 -0.4921  0.9459
 1795poe    c31 8569   1.137   6.605   6.216 -0.0114  0.5096  0.4077
 1795poe     o2 8570   1.166   6.673   6.097  0.1476  0.0333  0.1732
 1795poe    c23 8571   1.241   6.600   6.002 -0.4910 -0.8202  0.3128
 1795poe    c23 8572   1.316   6.686   5.899  0.0783 -1.1556  0.4426
 1795poe     o2 8573   1.234   6.735   5.795  0.0065 -0.2029  0.9387
 1795poe    c23 8574   1.284   6.844   5.722 -0.6711 -0.2033  0.4641
 1795poe    c23 8575   1.177   6.914   5.636 -0.2951  0.0663  0.2123
 1795poe     o2 8576   1.099   7.003   5.713 -0.3095 -0.2975  0.6205
 1795poe    c23 8577   1.139   7.138   5.713  0.3184 -0.4816  0.7121
 1795poe    c23 8578   1.032   7.238   5.758 -0.0183 -0.0540 -0.9699
 1795poe     o2 8579   0.941   7.271   5.655 -0.4955  0.1654 -0.4874
 1795poe    c31 8580   0.936   7.409   5.629  0.8403  0.2457 -0.4210
 1796poe    c31 8581   3.057   5.495   1.815  0.2084  0.2328  0.2822
 1796poe     o2 8582   2.947   5.411   1.841  0.2971 -0.1471 -0.5196
 1796poe    c23 8583   2.998   5.284   1.875  0.1576 -0.2502 -0.6939
 1796poe    c23 8584   2.896   5.169   1.875 -0.3271  0.1733 -0.0129
 1796poe     o2 8585   2.779   5.185   1.951 -0.1264  0.3379  0.2651
 1796poe    c23 8586   2.799   5.196   2.090  0.3570 -0.0016  0.2246
 1796poe    c23 8587   2.678   5.214   2.184 -0.0815 -0.4938 -0.2416
 1796poe     o2 8588   2.605   5.324   2.136  0.6040  0.3505  0.6248
 1796poe    c23 8589   2.505   5.367   2.226  0.0969 -0.8645  0.6652
 1796poe    c23 8590   2.505   5.521   2.233  0.5101 -0.7919 -0.6174
 1796poe     o2 8591   2.493   5.568   2.101  0.1205 -0.1787 -0.3678
 1796poe    c31 8592   2.502   5.709   2.109 -0.5113 -0.1239 -0.5681
 1797poe    c31 8593   5.272   6.361   1.610 -0.3096 -0.5564 -0.1394
 1797poe     o2 8594   5.261   6.496   1.571  0.6228 -0.4421 -0.0137
 1797poe    c23 8595   5.382   6.564   1.598  0.2981  0.0960  0.1005
 1797poe    c23 8596   5.381   6.713   1.557 -0.1732 -0.0197 -0.3094
 1797poe     o2 8597   5.342   6.715   1.421 -0.2247  0.0670 -0.2933
 1797poe    c23 8598   5.321   6.847   1.375 -0.2248  0.1405 -0.0841
 1797poe    c23 8599   5.319   6.852   1.221 -0.1924  0.9644 -0.0588
 1797poe     o2 8600   5.205   6.785   1.173  0.4141  0.0091 -0.1818
 1797poe    c23 8601   5.151   6.837   1.054  0.1507  0.1387 -0.0059
 1797poe    c23 8602   5.035   6.751   1.000  0.1542  0.1561 -0.0422
 1797poe     o2 8603   4.967   6.698   1.111  0.5230  0.8114  0.5010
 1797poe    c31 8604   4.842   6.637   1.086  1.0645 -0.0847 -0.0605
 1798poe    c31 8605   3.619   4.102   6.140 -0.6932  0.2684 -0.0958
 1798poe     o2 8606   3.587   4.219   6.067  0.3336  0.6275  0.0120
 1798poe    c23 8607   3.613   4.208   5.929  0.3073 -0.0333  0.0560
 1798poe    c23 8608   3.580   4.348   5.875  0.2125 -0.1217 -0.1162
 1798poe     o2 8609   3.480   4.402   5.958  0.3525 -0.0774  0.0247
 1798poe    c23 8610   3.425   4.513   5.891  0.1814 -0.1714  0.0082
 1798poe    c23 8611   3.316   4.564   5.987  0.1521  0.4028 -0.3237
 1798poe     o2 8612   3.362   4.568   6.120 -0.7374  0.3811 -0.0105
 1798poe    c23 8613   3.261   4.577   6.218 -0.0684  0.3328  0.6921
 1798poe    c23 8614   3.307   4.663   6.338  0.2199  0.8924  0.1837
 1798poe     o2 8615   3.415   4.598   6.400  0.1826  0.3132 -0.3366
 1798poe    c31 8616   3.469   4.690   6.493 -0.5089  0.5292 -0.1404
 1799poe    c31 8617   3.639   0.943   4.949  0.0227 -0.5494 -0.0459
 1799poe     o2 8618   3.755   0.904   4.879 -0.1836  0.1479 -0.7921
 1799poe    c23 8619   3.763   0.770   4.836 -0.5176 -0.1539  0.0533
 1799poe    c23 8620   3.907   0.728   4.875 -0.2123  0.2925 -0.5781
 1799poe     o2 8621   4.019   0.780   4.807  0.3269 -0.5668 -0.3539
 1799poe    c23 8622   4.148   0.742   4.851  0.3001  0.0402  0.2720
 1799poe    c23 8623   4.260   0.764   4.747  0.0759  0.2815  0.0776
 1799poe     o2 8624   4.237   0.701   4.624  0.3821 -0.1183  0.2204
 1799poe    c23 8625   4.328   0.720   4.518 -0.5905  0.1324 -0.5878
 1799poe    c23 8626   4.302   0.610   4.413  0.5790 -0.2950 -0.4369
 1799poe     o2 8627   4.169   0.616   4.367  0.5334 -0.0864 -0.2759
 1799poe    c31 8628   4.139   0.523   4.266  0.5026  0.1993 -0.5342
 1800poe    c31 8629   4.800   5.806   1.905  0.2832  0.2966  0.1899
 1800poe     o2 8630   4.826   5.944   1.901  0.1437  0.3253  0.2679
 1800poe    c23 8631   4.867   5.992   1.775 -0.6016  0.0065 -0.0997
 1800poe    c23 8632   4.807   6.123   1.722 -0.9740 -0.0195  0.2527
 1800poe     o2 8633   4.869   6.239   1.773  0.1649 -0.3800 -0.2862
 1800poe    c23 8634   4.812   6.356   1.719  0.0397 -0.5809 -0.5897
 1800poe    c23 8635   4.922   6.462   1.738  0.0685 -0.7290  0.1051
 1800poe     o2 8636   4.961   6.462   1.873  0.2411 -0.1784  0.0568
 1800poe    c23 8637   5.003   6.589   1.918  0.3462  0.0768 -0.7435
 1800poe    c23 8638   5.045   6.576   2.066  0.0359  0.8655 -0.5839
 1800poe     o2 8639   5.091   6.444   2.084 -0.3101  0.8314  0.0969
 1800poe    c31 8640   5.202   6.438   2.171  0.1189  0.4756 -0.4651
 1801poe    c31 8641   6.175   5.286   2.885 -0.2495  0.4765  0.1476
 1801poe     o2 8642   6.304   5.310   2.936 -0.2311 -0.5069  0.5905
 1801poe    c23 8643   6.376   5.406   2.862 -0.1747 -0.6465  0.4616
 1801poe    c23 8644   6.512   5.447   2.922 -0.1447  0.5026 -0.3613
 1801poe     o2 8645   6.488   5.511   3.045 -0.1299  0.2734 -0.2381
 1801poe    c23 8646   6.607   5.540   3.114 -0.3914 -0.1436  0.3927
 1801poe    c23 8647   6.591   5.555   3.267  0.6557  0.6418  0.4396
 1801poe     o2 8648   6.539   5.434   3.318  0.7005  0.5363  0.2359
 1801poe    c23 8649   6.629   5.378   3.410  0.2669 -0.5149  0.0358
 1801poe    c23 8650   6.647   5.226   3.391 -0.4869 -0.5853 -0.1367
 1801poe     o2 8651   6.690   5.191   3.262  0.0961  0.2059 -0.1660
 1801poe    c31 8652   6.616   5.073   3.243  0.7989 -0.2541 -0.0876
 1802poe    c31 8653   6.308   6.808   6.005  0.3662 -0.8550  0.4349
 1802poe     o2 8654   6.369   6.734   5.902  0.8352  0.0786  0.0266
 1802poe    c23 8655   6.480   6.807   5.855  0.6821  0.5192  0.3490
 1802poe    c23 8656   6.553   6.736   5.740 -0.1561  0.4293 -0.1275
 1802poe     o2 8657   6.640   6.629   5.769 -0.2264  0.3380 -0.2483
 1802poe    c23 8658   6.706   6.571   5.659 -0.3408 -0.6232  0.1721
 1802poe    c23 8659   6.802   6.460   5.705  0.0814 -0.2157  0.2833
 1802poe     o2 8660   6.721   6.347   5.730 -0.0686 -0.1901 -0.0684
 1802poe    c23 8661   6.813   6.244   5.760  0.4591  0.2688 -0.1028
 1802poe    c23 8662   6.747   6.109   5.731  0.1693  0.3581  0.1422
 1802poe     o2 8663   6.644   6.066   5.818 -0.0799  0.2381 -0.2055
 1802poe    c31 8664   6.581   5.948   5.776  0.3549  0.2210 -0.8292
 1803poe    c31 8665   3.584   3.187   1.538 -0.0823 -1.2387  0.2122
 1803poe     o2 8666   3.518   3.207   1.661 -0.5570  0.7086 -0.3126
 1803poe    c23 8667   3.612   3.224   1.765 -0.3068  0.7097 -0.5358
 1803poe    c23 8668   3.551   3.328   1.860 -0.6639 -0.6250  0.7397
 1803poe     o2 8669   3.428   3.304   1.925 -1.0812 -0.1292  0.1382
 1803poe    c23 8670   3.418   3.415   2.011  0.8508  0.1175  0.0740
 1803poe    c23 8671   3.296   3.420   2.105 -0.1193  0.3489 -1.1791
 1803poe     o2 8672   3.177   3.455   2.037 -0.5604  0.3987 -0.3922
 1803poe    c23 8673   3.071   3.369   2.073  0.3141 -0.3902  0.3832
 1803poe    c23 8674   2.962   3.379   1.965  0.3038 -0.1536  0.4141
 1803poe     o2 8675   3.013   3.315   1.850 -0.4089  0.0592 -0.0303
 1803poe    c31 8676   2.911   3.278   1.760 -0.5679  0.6526 -0.0991
 1804poe    c31 8677   3.855   4.981   5.432 -0.6144  0.2399  0.3844
 1804poe     o2 8678   3.963   5.061   5.473  0.1781 -0.3563 -0.4880
 1804poe    c23 8679   3.972   5.083   5.612 -0.0476 -0.2159 -0.4951
 1804poe    c23 8680   4.010   5.223   5.665 -0.8239 -0.0454 -0.3804
 1804poe     o2 8681   4.135   5.267   5.616 -0.5601 -0.0373  0.2942
 1804poe    c23 8682   4.192   5.386   5.665 -0.5391  0.2605 -0.4434
 1804poe    c23 8683   4.270   5.476   5.568  0.0351  0.1093 -0.1204
 1804poe     o2 8684   4.389   5.418   5.520  0.2441  0.4586 -0.0296
 1804poe    c23 8685   4.449   5.482   5.409  0.4368  0.2641 -0.0380
 1804poe    c23 8686   4.375   5.471   5.274 -0.1047  0.6036  0.2260
 1804poe     o2 8687   4.437   5.538   5.166  0.1232 -0.0804 -0.0725
 1804poe    c31 8688   4.525   5.445   5.108  0.4587 -0.0583  0.3971
 1805poe    c31 8689   0.260   4.453   4.382  0.7807  0.1630  0.2555
 1805poe     o2 8690   0.180   4.430   4.267  0.9508 -0.5438  0.2715
 1805poe    c23 8691   0.064   4.356   4.299  0.3164  0.3354  0.0621
 1805poe    c23 8692  -0.003   4.302   4.172 -0.1452  0.2879  0.3236
 1805poe     o2 8693  -0.083   4.403   4.116  0.3800  0.3871 -0.2732
 1805poe    c23 8694  -0.147   4.363   3.997 -0.0533  0.3537 -0.0334
 1805poe    c23 8695  -0.212   4.484   3.927  0.0786  0.4717  0.0461
 1805poe     o2 8696  -0.111   4.563   3.869 -0.1983  0.4063 -0.5405
 1805poe    c23 8697  -0.114   4.548   3.729 -0.4573  0.2068 -0.5145
 1805poe    c23 8698  -0.029   4.442   3.657 -0.1319 -0.0332  0.2051
 1805poe     o2 8699  -0.044   4.307   3.696 -0.0276  0.0870  0.6576
 1805poe    c31 8700   0.081   4.244   3.711  0.3112  0.4523 -0.5433
 1806poe    c31 8701   1.632   5.511   4.768  0.0223  0.6361  0.2085
 1806poe     o2 8702   1.505   5.452   4.774  0.2847  0.0254 -0.1287
 1806poe    c23 8703   1.455   5.498   4.898  0.1803  0.1499 -0.2155
 1806poe    c23 8704   1.364   5.398   4.971 -0.2510  0.2326 -0.6366
 1806poe     o2 8705   1.257   5.373   4.883 -0.5736  0.0364 -0.1956
 1806poe    c23 8706   1.152   5.301   4.943 -0.7097  0.3683 -0.0333
 1806poe    c23 8707   1.036   5.254   4.852 -0.5120 -0.3623  0.0839
 1806poe     o2 8708   1.085   5.160   4.759  0.1124  0.0582 -0.0208
 1806poe    c23 8709   0.981   5.128   4.670  0.0385 -0.1866  0.1526
 1806poe    c23 8710   0.924   4.987   4.697 -0.2350 -0.1681 -0.2962
 1806poe     o2 8711   1.017   4.882   4.715  0.1784  0.2000 -0.2434
 1806poe    c31 8712   0.958   4.775   4.786 -0.0761  0.1859 -0.4742
 1807poe    c31 8713   5.964   6.713   0.074  0.5908 -0.1889  0.0172
 1807poe     o2 8714   5.900   6.838   0.063  0.2660 -0.3895 -0.4199
 1807poe    c23 8715   5.946   6.913   0.173  0.1564  0.1752 -0.7590
 1807poe    c23 8716   5.878   7.051   0.165 -0.0348  0.1656  0.4992
 1807poe     o2 8717   5.749   7.036   0.109  0.3179 -0.4492 -0.1601
 1807poe    c23 8718   5.682   7.156   0.079 -0.0716 -0.5780  0.1830
 1807poe    c23 8719   5.533   7.135   0.112 -0.0820  0.1284  0.6136
 1807poe     o2 8720   5.489   7.010   0.064 -0.2681  0.2953  0.3509
 1807poe    c23 8721   5.348   7.005   0.068 -0.2801  0.1658 -0.0948
 1807poe    c23 8722   5.302   6.880  -0.008  0.1926  0.0566 -0.2080
 1807poe     o2 8723   5.363   6.759   0.030  0.5242  0.3162  0.0855
 1807poe    c31 8724   5.302   6.650  -0.034  0.4626 -0.3027  1.1653
 1808poe    c31 8725   1.682   2.539   4.173 -0.4441  0.2342 -0.1947
 1808poe     o2 8726   1.700   2.409   4.123 -0.1388  0.2326 -0.0805
 1808poe    c23 8727   1.652   2.396   3.991 -0.1395  0.0285 -0.0596
 1808poe    c23 8728   1.723   2.276   3.923 -0.2633 -0.3320  0.4405
 1808poe     o2 8729   1.686   2.152   3.977 -0.5742 -0.4023  0.0715
 1808poe    c23 8730   1.768   2.045   3.935  0.0508  0.1866 -0.2257
 1808poe    c23 8731   1.701   1.910   3.969  1.0061 -0.0401  0.8151
 1808poe     o2 8732   1.662   1.919   4.104 -0.5361 -0.4752  0.4140
 1808poe    c23 8733   1.651   1.795   4.171  0.3260 -0.7402  0.0700
 1808poe    c23 8734   1.651   1.827   4.321  0.1610 -0.7992  0.0826
 1808poe     o2 8735   1.538   1.907   4.348  0.1987 -0.9550  0.7345
 1808poe    c31 8736   1.554   1.960   4.477  0.3059 -0.0287  0.3475
 1809poe    c31 8737   6.194   2.768   3.684  0.5442 -0.6341 -0.0695
 1809poe     o2 8738   6.296   2.685   3.632  0.5796 -0.6913  0.0893
 1809poe    c23 8739   6.353   2.748   3.520 -0.8992 -0.2974 -0.4632
 1809poe    c23 8740   6.466   2.670   3.450 -0.5701  0.4058 -0.7310
 1809poe     o2 8741   6.400   2.551   3.411  0.2694 -0.0828 -0.6835
 1809poe    c23 8742   6.474   2.472   3.321  0.6213  0.0158 -0.4864
 1809poe    c23 8743   6.434   2.324   3.312  0.3696  0.0657 -0.2017
 1809poe     o2 8744   6.305   2.289   3.268 -0.0094  0.4222  0.6100
 1809poe    c23 8745   6.274   2.155   3.300  0.5065  0.0812 -0.2893
 1809poe    c23 8746   6.128   2.122   3.267  0.5037  0.0247 -0.2213
 1809poe     o2 8747   6.101   2.112   3.129 -0.1977  0.1644 -0.1005
 1809poe    c31 8748   6.106   2.237   3.064  0.3549  0.1515 -0.0894
 1810poe    c31 8749   1.937   5.519   3.106  0.8217 -0.1921 -0.1919
 1810poe     o2 8750   2.017   5.407   3.139  0.7210 -0.1263  0.2893
 1810poe    c23 8751   1.988   5.350   3.264  0.6040  0.5182  0.5620
 1810poe    c23 8752   2.080   5.228   3.281 -0.5916 -0.5067 -0.0786
 1810poe     o2 8753   2.109   5.174   3.155  0.0326  0.2394 -0.2608
 1810poe    c23 8754   2.224   5.092   3.164  0.1885  0.4458 -0.3509
 1810poe    c23 8755   2.231   5.005   3.037  0.7374 -0.1572  0.0856
 1810poe     o2 8756   2.216   5.101   2.935  0.0819  0.1502  0.4666
 1810poe    c23 8757   2.244   5.044   2.809  0.0040 -0.1813  0.5998
 1810poe    c23 8758   2.299   5.135   2.699 -0.1682 -0.4156  0.3178
 1810poe     o2 8759   2.210   5.232   2.649  0.0286 -0.3849  0.0210
 1810poe    c31 8760   2.283   5.332   2.581  0.2211 -0.1250  0.6065
 1811poe    c31 8761   0.390   1.099   2.142  0.5749  0.0190 -0.2054
 1811poe     o2 8762   0.426   1.075   2.007  0.2210 -0.5233 -0.2042
 1811poe    c23 8763   0.562   1.041   2.005  0.2883 -0.3105  0.4351
 1811poe    c23 8764   0.562   0.935   1.893 -0.0462  0.2037 -0.0576
 1811poe     o2 8765   0.494   0.999   1.787 -0.2900  0.0025 -0.0228
 1811poe    c23 8766   0.482   0.923   1.669 -0.1807 -0.3311  0.1768
 1811poe    c23 8767   0.415   1.015   1.565 -0.1717 -0.2447  0.2473
 1811poe     o2 8768   0.297   1.065   1.625 -0.0212 -0.1139  0.4347
 1811poe    c23 8769   0.231   1.144   1.529  0.2452 -0.0848  0.2724
 1811poe    c23 8770   0.098   1.199   1.585 -0.0731 -0.6658  0.0896
 1811poe     o2 8771   0.124   1.306   1.673 -0.4332 -0.0079 -0.5895
 1811poe    c31 8772   0.008   1.371   1.718 -0.1684  0.0524  0.0245
 1812poe    c31 8773   6.334   1.182   1.466 -0.1055 -0.4168 -0.2479
 1812poe     o2 8774   6.456   1.244   1.430  0.0095 -0.4064  0.1560
 1812poe    c23 8775   6.472   1.238   1.290 -0.4095  0.0817  0.0853
 1812poe    c23 8776   6.494   1.107   1.212 -0.1673 -0.1093  0.4725
 1812poe     o2 8777   6.628   1.063   1.201 -0.1551  0.1417 -0.4706
 1812poe    c23 8778   6.636   0.934   1.146  0.5912 -0.1146  0.2261
 1812poe    c23 8779   6.777   0.880   1.115  0.5817 -0.1505  0.2468
 1812poe     o2 8780   6.836   0.845   1.238 -0.0194 -0.2951  0.4944
 1812poe    c23 8781   6.910   0.944   1.305 -0.0596 -0.0607  0.1912
 1812poe    c23 8782   7.003   0.915   1.425  0.4607  0.0563 -0.1789
 1812poe     o2 8783   7.128   0.857   1.394  0.3593 -0.1980 -0.1117
 1812poe    c31 8784   7.210   0.811   1.498  0.1563  0.3906  0.3157
 1813poe    c31 8785   1.554   6.507   4.743  0.0590  0.1050 -0.3145
 1813poe     o2 8786   1.492   6.380   4.749  0.0987  0.0963 -0.0723
 1813poe    c23 8787   1.589   6.279   4.767 -0.0630  0.0290  0.4149
 1813poe    c23 8788   1.540   6.152   4.696  0.1640 -0.0421  0.3833
 1813poe     o2 8789   1.510   6.159   4.558 -0.0727  0.2957  0.4499
 1813poe    c23 8790   1.627   6.145   4.480 -0.2738  0.3196  0.1444
 1813poe    c23 8791   1.609   6.198   4.337 -0.4379 -0.4132 -0.1121
 1813poe     o2 8792   1.720   6.179   4.251 -0.3724 -0.0040 -0.1205
 1813poe    c23 8793   1.675   6.200   4.119  0.6739  0.1901 -0.4545
 1813poe    c23 8794   1.640   6.079   4.031 -0.5622  0.3477 -0.1934
 1813poe     o2 8795   1.753   5.999   4.004 -1.0557 -0.3381 -0.2618
 1813poe    c31 8796   1.825   6.030   3.887 -0.1179 -0.6172  0.2338
 1814poe    c31 8797   6.635   2.027   2.416 -0.5833  0.3086 -0.5232
 1814poe     o2 8798   6.532   1.974   2.334 -0.7712  0.1781 -0.2059
 1814poe    c23 8799   6.557   1.837   2.314 -0.4464  0.1712  0.2280
 1814poe    c23 8800   6.483   1.768   2.198 -0.7636  0.2178  0.3999
 1814poe     o2 8801   6.371   1.851   2.174 -0.4466  0.3802 -0.5818
 1814poe    c23 8802   6.271   1.789   2.097  0.1003  0.1344 -1.0991
 1814poe    c23 8803   6.133   1.809   2.162  0.6579  0.4439  0.0006
 1814poe     o2 8804   6.095   1.943   2.142  0.2439  0.3159 -0.0655
 1814poe    c23 8805   5.963   1.969   2.186  0.3498  0.3099  0.2574
 1814poe    c23 8806   5.907   2.106   2.145 -0.3315 -0.0640 -0.0795
 1814poe     o2 8807   5.974   2.202   2.224 -0.2862 -0.2082  0.0571
 1814poe    c31 8808   5.944   2.331   2.176 -0.2999 -0.3564 -0.3342
 1815poe    c31 8809   0.741   0.931   0.662  0.3265 -0.2945  0.6772
 1815poe     o2 8810   0.618   0.872   0.627  0.3066 -0.1262  0.4632
 1815poe    c23 8811   0.583   0.746   0.681  0.3848 -0.3539 -0.0135
 1815poe    c23 8812   0.449   0.681   0.640  0.2727 -0.1794  0.0743
 1815poe     o2 8813   0.355   0.784   0.619  0.6093  0.1836  0.3342
 1815poe    c23 8814   0.219   0.752   0.628  0.5644  0.1076 -0.5054
 1815poe    c23 8815   0.130   0.871   0.587  0.1981  0.0697  0.1586
 1815poe     o2 8816   0.138   0.983   0.672 -0.0029  0.1486  0.0727
 1815poe    c23 8817   0.075   1.095   0.613 -0.1945 -0.1143 -0.2220
 1815poe    c23 8818   0.090   1.211   0.713  0.1890 -0.5388  0.2151
 1815poe     o2 8819   0.228   1.233   0.735  0.0722  0.2495  0.1922
 1815poe    c31 8820   0.258   1.322   0.840 -0.6818  0.6480  0.0741
 1816poe    c31 8821   5.855   6.994   1.735  0.0047  1.3119 -0.8854
 1816poe     o2 8822   5.730   7.057   1.758 -0.3266  0.2870  0.2627
 1816poe    c23 8823   5.634   6.964   1.801 -0.1167  0.0079  0.1365
 1816poe    c23 8824   5.502   7.041   1.826 -0.3545 -0.3472 -0.0128
 1816poe     o2 8825   5.428   7.089   1.716  0.0944  0.1369 -0.1093
 1816poe    c23 8826   5.336   7.184   1.765  0.4319  0.1640  0.4903
 1816poe    c23 8827   5.291   7.247   1.632  0.4326 -0.4013  0.2180
 1816poe     o2 8828   5.397   7.294   1.551  0.0350 -0.2287 -0.2063
 1816poe    c23 8829   5.356   7.375   1.443 -0.6802 -0.4967 -0.1431
 1816poe    c23 8830   5.356   7.528   1.460  0.1593 -0.5137  0.0802
 1816poe     o2 8831   5.482   7.587   1.482  0.1135 -0.1585 -0.5632
 1816poe    c31 8832   5.495   7.718   1.433  0.2101  0.1205  0.1983
 1817poe    c31 8833   0.110   2.052   6.697 -0.2230  0.3563 -0.1663
 1817poe     o2 8834   0.024   2.094   6.801 -0.1083  0.2423 -0.0266
 1817poe    c23 8835  -0.018   1.977   6.868 -0.0143  0.2989  0.1323
 1817poe    c23 8836  -0.146   1.981   6.953  0.3937  0.4858  0.7499
 1817poe     o2 8837  -0.134   2.051   7.074  0.5283  0.7347  0.5929
 1817poe    c23 8838  -0.244   2.025   7.159  0.3503 -0.6386 -0.0344
 1817poe    c23 8839  -0.212   2.117   7.278 -0.1905 -0.0264 -0.3514
 1817poe     o2 8840  -0.198   2.247   7.227 -0.4849  0.2330  0.2114
 1817poe    c23 8841  -0.207   2.350   7.323  0.4836  0.0232  0.5435
 1817poe    c23 8842  -0.188   2.480   7.243  0.2588 -0.0685  0.3373
 1817poe     o2 8843  -0.080   2.456   7.155  0.3152  0.2501  0.3193
 1817poe    c31 8844  -0.006   2.569   7.113  0.0038  0.4917  0.4161
 1818poe    c31 8845   1.621   0.457   6.943 -0.6918  0.8782 -0.1266
 1818poe     o2 8846   1.566   0.364   6.851 -0.1538  0.6452 -0.2187
 1818poe    c23 8847   1.582   0.403   6.717  0.6708  0.2647 -0.2383
 1818poe    c23 8848   1.553   0.302   6.605 -0.0326  0.1536  0.0410
 1818poe     o2 8849   1.634   0.186   6.603  0.1585  0.2882  0.0381
 1818poe    c23 8850   1.580   0.095   6.510 -0.0837  0.1095  0.3547
 1818poe    c23 8851   1.671  -0.029   6.502 -0.5631 -0.2166 -0.1402
 1818poe     o2 8852   1.729  -0.041   6.630  0.0959  0.2201 -0.3867
 1818poe    c23 8853   1.788  -0.168   6.647  0.2326  0.3627  0.2200
 1818poe    c23 8854   1.861  -0.170   6.782 -0.4435 -0.1558  0.5870
 1818poe     o2 8855   1.957  -0.067   6.793 -0.4127 -0.1451  0.2054
 1818poe    c31 8856   2.021  -0.090   6.916 -0.2276 -0.2576  0.0872
 1819poe    c31 8857   5.969   4.818   6.596  0.4929 -0.3842  0.6684
 1819poe     o2 8858   6.086   4.809   6.517  0.3195  0.5461  0.2918
 1819poe    c23 8859   6.188   4.877   6.586 -0.3468  0.9977  0.8484
 1819poe    c23 8860   6.231   5.009   6.520  0.4740  0.6116  0.6019
 1819poe     o2 8861   6.182   5.134   6.563 -0.2075  0.5089  0.1428
 1819poe    c23 8862   6.198   5.151   6.702  0.5996  0.1505  0.0975
 1819poe    c23 8863   6.277   5.272   6.754  0.0334  0.3877  0.4119
 1819poe     o2 8864   6.211   5.396   6.756  0.1474  0.4505  0.3342
 1819poe    c23 8865   6.266   5.474   6.860  0.0210 -0.2502  0.9261
 1819poe    c23 8866   6.178   5.596   6.893  0.3538  0.2809 -0.1097
 1819poe     o2 8867   6.112   5.655   6.783  0.2064 -0.2222 -0.2932
 1819poe    c31 8868   6.066   5.785   6.812 -0.0497 -0.3740 -0.0108
 1820poe    c31 8869   4.073   2.935   1.480  0.0137 -0.6528 -0.2274
 1820poe     o2 8870   4.201   2.876   1.484  0.0636 -0.5276  0.0188
 1820poe    c23 8871   4.305   2.942   1.414 -0.4814 -0.2594 -0.5456
 1820poe    c23 8872   4.341   3.078   1.478 -0.1891 -0.6156  0.0564
 1820poe     o2 8873   4.402   3.074   1.605  0.3382  0.2596 -0.1614
 1820poe    c23 8874   4.452   3.198   1.651 -0.3162  0.5913 -0.3323
 1820poe    c23 8875   4.576   3.261   1.585  0.1512  0.0505  0.0164
 1820poe     o2 8876   4.698   3.198   1.617  0.1488 -0.0978 -0.2621
 1820poe    c23 8877   4.799   3.294   1.636 -0.3788  0.3720  0.1847
 1820poe    c23 8878   4.937   3.233   1.662 -0.5266  0.1597  0.4817
 1820poe     o2 8879   4.981   3.181   1.539 -0.5277  0.1422  0.4889
 1820poe    c31 8880   5.120   3.170   1.557 -0.4700  0.0323  0.0050
 1821poe    c31 8881   4.205   3.435   0.994  0.4492  0.3633 -0.3035
 1821poe     o2 8882   4.265   3.523   0.902  0.3972  0.0467 -0.6453
 1821poe    c23 8883   4.171   3.623   0.871 -0.4030 -0.4665  0.0930
 1821poe    c23 8884   4.207   3.685   0.735 -0.0189 -0.8274  0.0287
 1821poe     o2 8885   4.272   3.581   0.666  0.4207 -0.6561  0.1796
 1821poe    c23 8886   4.301   3.625   0.535  0.2460 -0.0466  0.3439
 1821poe    c23 8887   4.382   3.516   0.462 -0.0520 -0.2254  0.2748
 1821poe     o2 8888   4.492   3.484   0.544  0.1060  0.5151  0.3666
 1821poe    c23 8889   4.601   3.456   0.460  0.4125  0.4531  0.7809
 1821poe    c23 8890   4.734   3.478   0.535  0.6769 -0.1546  0.4972
 1821poe     o2 8891   4.744   3.584   0.627  0.5608  0.6776 -0.4326
 1821poe    c31 8892   4.871   3.584   0.688  0.5116  1.1011 -0.3274
 1822poe    c31 8893   6.969   4.372   0.470 -0.3131  1.4998 -0.8544
 1822poe     o2 8894   7.089   4.328   0.410 -0.3323  0.5488 -0.2096
 1822poe    c23 8895   7.174   4.258   0.497 -0.6579 -0.4951 -0.7074
 1822poe    c23 8896   7.312   4.245   0.429 -0.0151  0.2165  0.4280
 1822poe     o2 8897   7.293   4.171   0.311  0.3132  0.4053  0.2573
 1822poe    c23 8898   7.408   4.189   0.231  0.3491 -0.9507 -0.0219
 1822poe    c23 8899   7.367   4.147   0.089 -0.1660 -0.1713 -0.1110
 1822poe     o2 8900   7.265   4.222   0.026  0.3714 -0.4283 -1.3137
 1822poe    c23 8901   7.147   4.154  -0.012 -0.2758 -0.0408 -0.0238
 1822poe    c23 8902   7.113   4.142  -0.161  0.5134 -0.1668 -0.1989
 1822poe     o2 8903   7.078   4.266  -0.221 -0.2261 -0.4820 -0.4329
 1822poe    c31 8904   7.030   4.251  -0.352  0.1358 -0.9469 -0.5151
 1823poe    c31 8905   6.979   1.468   4.044 -0.3056  0.1418  0.2944
 1823poe     o2 8906   6.954   1.453   4.182 -0.3882  0.0886  0.2743
 1823poe    c23 8907   7.079   1.442   4.247 -0.3353  0.2723  0.2038
 1823poe    c23 8908   7.062   1.479   4.396 -0.1713 -0.3200  0.3708
 1823poe     o2 8909   6.990   1.378   4.463 -0.4152 -0.3708  0.0362
 1823poe    c23 8910   6.970   1.409   4.599 -0.0625 -0.1728  0.0443
 1823poe    c23 8911   6.898   1.286   4.657  0.0168 -0.0561  0.3942
 1823poe     o2 8912   6.778   1.283   4.582  0.1750  0.2528  0.1244
 1823poe    c23 8913   6.703   1.171   4.625  0.1610 -0.0077 -0.5631
 1823poe    c23 8914   6.598   1.144   4.517  0.1355  0.0134 -0.5431
 1823poe     o2 8915   6.656   1.126   4.390  0.5283 -0.2867 -0.3234
 1823poe    c31 8916   6.564   1.102   4.285  0.3399 -0.3541 -0.1423
 1824poe    c31 8917   5.690   0.397   5.820 -0.3740 -0.5921  0.2404
 1824poe     o2 8918   5.554   0.415   5.851 -0.2376  0.2294  0.4124
 1824poe    c23 8919   5.469   0.375   5.745  0.5040  0.8169 -0.4125
 1824poe    c23 8920   5.322   0.409   5.775  0.3358 -0.4926  0.3005
 1824poe     o2 8921   5.302   0.390   5.914 -0.2856 -0.1457  0.2610
 1824poe    c23 8922   5.186   0.321   5.952 -0.1454 -0.2210  0.5540
 1824poe    c23 8923   5.147   0.368   6.093  0.1059  0.2435  0.4714
 1824poe     o2 8924   5.251   0.343   6.185  0.2693 -0.0307  0.2149
 1824poe    c23 8925   5.201   0.385   6.310 -0.0438  0.0157  0.0744
 1824poe    c23 8926   5.297   0.318   6.410  0.1428 -0.8424 -0.6711
 1824poe     o2 8927   5.432   0.358   6.416  0.0429 -0.6161  0.1120
 1824poe    c31 8928   5.498   0.261   6.494  0.0656 -0.3160  0.4683
 1825poe    c31 8929   0.865   5.428   3.161  0.1445  0.6715  0.0105
 1825poe     o2 8930   0.931   5.408   3.038  0.2413  0.2629  0.1265
 1825poe    c23 8931   1.063   5.455   3.045  0.4338 -0.2929  0.3126
 1825poe    c23 8932   1.159   5.452   2.925  0.5648  0.2170  0.4004
 1825poe     o2 8933   1.213   5.324   2.899 -0.2372 -0.0993  0.2488
 1825poe    c23 8934   1.320   5.291   2.986 -0.3514  0.1772  0.4966
 1825poe    c23 8935   1.328   5.139   3.009  0.0321  0.1845  0.4109
 1825poe     o2 8936   1.226   5.083   3.088  0.1605 -0.2014  0.3058
 1825poe    c23 8937   1.159   4.976   3.023  1.4749 -0.5200 -0.5630
 1825poe    c23 8938   1.092   4.873   3.116  0.1450  0.1315 -0.7813
 1825poe     o2 8939   1.171   4.769   3.169  0.1172  0.2825 -0.4379
 1825poe    c31 8940   1.210   4.672   3.075 -0.3004 -0.2819 -0.0360
 1826poe    c31 8941   2.128   4.911   5.093  0.1909 -0.6061 -0.4178
 1826poe     o2 8942   2.106   4.786   5.155 -0.1497 -0.4385 -0.1987
 1826poe    c23 8943   2.210   4.719   5.222  0.0306  0.1448  0.1108
 1826poe    c23 8944   2.314   4.658   5.126 -0.0365  0.1484  0.0365
 1826poe     o2 8945   2.275   4.551   5.043  0.0524  0.0102  0.1728
 1826poe    c23 8946   2.373   4.533   4.943  0.6702  0.1528  0.7489
 1826poe    c23 8947   2.325   4.452   4.822  0.2668  1.2447  0.1694
 1826poe     o2 8948   2.194   4.490   4.784 -0.0462  0.1067  0.0867
 1826poe    c23 8949   2.136   4.413   4.681  0.4346 -0.6541  0.3748
 1826poe    c23 8950   2.016   4.493   4.626  0.8043 -0.3949 -0.0630
 1826poe     o2 8951   1.912   4.497   4.721  0.2024 -0.6452 -0.7033
 1826poe    c31 8952   1.805   4.569   4.664 -0.2103 -0.2751  0.5003
 1827poe    c31 8953   1.515   5.916   0.632 -0.6364 -0.8349  0.2444
 1827poe     o2 8954   1.551   5.779   0.633  0.3328 -0.5902 -0.0564
 1827poe    c23 8955   1.680   5.769   0.689  0.3598 -0.1675 -0.0342
 1827poe    c23 8956   1.731   5.624   0.706  0.5294 -0.0580  0.3889
 1827poe     o2 8957   1.719   5.562   0.580  0.9703  0.8752 -0.1292
 1827poe    c23 8958   1.732   5.422   0.569 -0.0914  0.7411  0.1992
 1827poe    c23 8959   1.724   5.381   0.421  0.8758  0.8268  0.1131
 1827poe     o2 8960   1.615   5.450   0.364  0.5440 -0.1805 -0.5091
 1827poe    c23 8961   1.608   5.410   0.229  0.3850 -0.2343 -0.4850
 1827poe    c23 8962   1.486   5.480   0.166  0.4219  0.2190 -0.0566
 1827poe     o2 8963   1.470   5.620   0.159  0.1012  0.2071  0.3641
 1827poe    c31 8964   1.344   5.655   0.105  0.1690  0.2351  0.2237
 1828poe    c31 8965   4.682   4.425   5.583  0.1660  0.1212 -0.0039
 1828poe     o2 8966   4.755   4.412   5.704 -0.2043 -0.1011  0.1962
 1828poe    c23 8967   4.676   4.359   5.808  0.2191 -0.3500  0.3911
 1828poe    c23 8968   4.741   4.380   5.946  0.2052 -0.0057  0.3461
 1828poe     o2 8969   4.871   4.330   5.927 -0.1060 -0.5733 -0.3407
 1828poe    c23 8970   4.972   4.392   6.003  0.1688  0.0016 -1.1596
 1828poe    c23 8971   5.102   4.311   5.988  0.2855 -0.0513  0.0536
 1828poe     o2 8972   5.114   4.294   5.849  0.1277  0.1969  0.0083
 1828poe    c23 8973   5.224   4.207   5.832  0.1086  0.1315  0.2107
 1828poe    c23 8974   5.327   4.247   5.724  0.7981 -0.3935  0.6654
 1828poe     o2 8975   5.263   4.237   5.599  0.3121  0.3885  0.8421
 1828poe    c31 8976   5.367   4.262   5.506 -0.3126 -0.1261 -0.0105
 1829poe    c31 8977   0.260   0.602   4.689  0.1920 -0.6428 -0.0523
 1829poe     o2 8978   0.396   0.619   4.655 -0.0789  0.4886 -0.6189
 1829poe    c23 8979   0.442   0.494   4.609  0.1829  0.5688 -0.5743
 1829poe    c23 8980   0.595   0.513   4.608  0.2133  0.3444 -0.2510
 1829poe     o2 8981   0.623   0.616   4.516  0.1079  0.0864 -0.5730
 1829poe    c23 8982   0.760   0.649   4.505  0.0463  0.8669  0.7557
 1829poe    c23 8983   0.791   0.785   4.438 -0.1024  0.3351 -0.4243
 1829poe     o2 8984   0.775   0.902   4.514 -0.4486 -0.3268  0.5528
 1829poe    c23 8985   0.871   0.922   4.615  0.1869 -0.5136 -0.0089
 1829poe    c23 8986   0.809   0.890   4.752  0.2773 -0.7619 -0.0244
 1829poe     o2 8987   0.686   0.959   4.762  0.5274 -0.3347  0.1597
 1829poe    c31 8988   0.632   0.965   4.893 -0.3821 -0.7973 -0.1858
 1830poe    c31 8989   5.821   5.200   2.547  0.0512  0.0103  0.5048
 1830poe     o2 8990   5.858   5.072   2.501 -0.1136  0.1895 -0.1447
 1830poe    c23 8991   5.989   5.055   2.452  0.1973  0.0250  0.7280
 1830poe    c23 8992   6.038   4.910   2.465 -1.0386 -0.4180  0.5064
 1830poe     o2 8993   5.958   4.814   2.400 -0.2728 -0.7459  0.0336
 1830poe    c23 8994   6.025   4.691   2.381  0.5607 -0.1908 -0.6747
 1830poe    c23 8995   5.902   4.598   2.373  0.2098  0.1836  0.1950
 1830poe     o2 8996   5.816   4.658   2.278  0.3374 -0.1535 -0.1379
 1830poe    c23 8997   5.707   4.576   2.245  0.2310 -0.0899  0.0571
 1830poe    c23 8998   5.624   4.659   2.145 -0.2414 -0.7716 -0.1266
 1830poe     o2 8999   5.604   4.788   2.199 -0.3120 -0.7511 -0.2012
 1830poe    c31 9000   5.527   4.876   2.121 -0.5736 -0.1759  0.6882
 1831poe    c31 9001   4.154   6.099   0.156  0.0988 -1.1403 -0.2781
 1831poe     o2 9002   4.019   6.057   0.146 -0.2831  0.0720 -0.3895
 1831poe    c23 9003   3.971   6.016   0.272  0.0771  0.0137 -0.2688
 1831poe    c23 9004   3.847   5.925   0.258  0.1217 -0.1182  0.1875
 1831poe     o2 9005   3.896   5.795   0.235 -0.4270 -0.2412 -0.3037
 1831poe    c23 9006   3.794   5.698   0.239 -0.0683 -0.6257 -0.2766
 1831poe    c23 9007   3.823   5.551   0.206  0.5177 -0.4654 -0.4825
 1831poe     o2 9008   3.877   5.489   0.320  0.0446  0.3234  0.1802
 1831poe    c23 9009   3.907   5.354   0.292 -0.7167  0.1825  0.0246
 1831poe    c23 9010   3.834   5.238   0.363  0.3092 -0.3847  0.1738
 1831poe     o2 9011   3.705   5.208   0.316  0.3957 -0.4194 -0.0472
 1831poe    c31 9012   3.706   5.077   0.263 -0.0636 -0.2037 -0.6036
 1832poe    c31 9013   5.771   3.292   4.433 -0.1679 -0.1146 -0.2424
 1832poe     o2 9014   5.738   3.320   4.299 -0.0483  0.5645 -0.1361
 1832poe    c23 9015   5.774   3.454   4.273  0.0717  0.7020  0.7121
 1832poe    c23 9016   5.762   3.485   4.123 -0.0046  0.2735  0.6270
 1832poe     o2 9017   5.630   3.464   4.077  0.2228  0.3259 -0.0678
 1832poe    c23 9018   5.615   3.489   3.939  0.0905 -0.5361 -0.2176
 1832poe    c23 9019   5.501   3.589   3.913  0.3219  0.0829  1.0365
 1832poe     o2 9020   5.536   3.719   3.952 -0.2763  0.5493  0.0583
 1832poe    c23 9021   5.580   3.788   3.837 -0.2815 -0.0851 -0.3248
 1832poe    c23 9022   5.599   3.937   3.869  0.1895  0.0476 -1.1883
 1832poe     o2 9023   5.481   4.013   3.860  0.0292 -0.1309 -0.6573
 1832poe    c31 9024   5.497   4.151   3.881  1.1106 -0.3382 -0.0854
 1833poe    c31 9025   6.574   1.935   0.687 -0.0430  0.2313  0.0613
 1833poe     o2 9026   6.463   1.865   0.739  0.0752 -0.3429 -0.4434
 1833poe    c23 9027   6.497   1.735   0.782 -0.1002 -0.3648 -0.3664
 1833poe    c23 9028   6.368   1.671   0.835  0.0810  0.0922  0.6392
 1833poe     o2 9029   6.316   1.730   0.952 -0.1153  0.0540  0.5727
 1833poe    c23 9030   6.179   1.700   0.967 -0.1283 -0.1785  0.0005
 1833poe    c23 9031   6.120   1.741   1.103  0.1117  0.1522  0.0073
 1833poe     o2 9032   6.135   1.881   1.119 -0.8318  0.2986 -0.3250
 1833poe    c23 9033   6.085   1.920   1.245  0.0492  0.3842 -0.0010
 1833poe    c23 9034   6.072   2.073   1.246  0.3555  0.4085  0.7306
 1833poe     o2 9035   6.184   2.131   1.183  0.2670 -0.1095  0.0852
 1833poe    c31 9036   6.175   2.271   1.162 -0.6856 -0.0706  0.6532
 1834poe    c31 9037   5.427   3.423   5.510  0.4692 -0.6160 -0.5525
 1834poe     o2 9038   5.477   3.546   5.556 -0.1857 -0.5084 -0.1075
 1834poe    c23 9039   5.439   3.649   5.468 -0.6860 -0.1787  0.4826
 1834poe    c23 9040   5.531   3.771   5.488  0.0981 -0.6568 -0.0982
 1834poe     o2 9041   5.505   3.844   5.607  0.2447  0.1635 -0.5580
 1834poe    c23 9042   5.592   3.954   5.595  0.9769 -0.3905 -0.4042
 1834poe    c23 9043   5.641   4.001   5.733 -0.0625 -0.4122 -0.0200
 1834poe     o2 9044   5.734   3.906   5.781 -0.1500 -0.6185 -0.2626
 1834poe    c23 9045   5.784   3.936   5.909 -0.2151  0.2899 -0.4373
 1834poe    c23 9046   5.737   3.842   6.022  0.0248  0.2530 -0.3671
 1834poe     o2 9047   5.613   3.856   6.089 -0.0006 -0.2589 -0.3060
 1834poe    c31 9048   5.592   3.953   6.188 -0.2858 -0.3472 -0.2789
 1835poe    c31 9049   3.000   4.800   4.004  0.2550  0.6488 -0.7549
 1835poe     o2 9050   2.911   4.893   4.061 -0.1272 -0.3997  0.4099
 1835poe    c23 9051   2.777   4.853   4.052 -0.3616  0.5217 -0.3794
 1835poe    c23 9052   2.678   4.948   4.122 -0.2416  0.5910 -0.3056
 1835poe     o2 9053   2.541   4.914   4.121 -0.0379 -0.2416 -0.5377
 1835poe    c23 9054   2.458   4.937   4.009  0.2442 -0.2749 -0.7572
 1835poe    c23 9055   2.408   5.083   4.011 -0.2769 -0.4533  0.7439
 1835poe     o2 9056   2.324   5.096   4.124 -1.3405 -0.7515 -0.0046
 1835poe    c23 9057   2.298   5.234   4.133 -0.2042 -0.4879 -0.5092
 1835poe    c23 9058   2.155   5.275   4.094 -0.0676  0.2307 -0.2674
 1835poe     o2 9059   2.129   5.300   3.957 -0.9619  0.2181 -0.1107
 1835poe    c31 9060   2.071   5.189   3.893  0.0995 -0.3570 -0.1012
 1836poe    c31 9061   6.738   6.895   4.239  0.4375  0.2821 -0.3281
 1836poe     o2 9062   6.737   6.793   4.143 -0.2432 -0.1129  0.0898
 1836poe    c23 9063   6.743   6.836   4.009  0.4082 -0.4681 -0.0005
 1836poe    c23 9064   6.856   6.784   3.918  0.9516  0.2096  0.2879
 1836poe     o2 9065   6.840   6.647   3.891  0.1557  0.1461  1.0449
 1836poe    c23 9066   6.966   6.600   3.847 -0.4206 -0.2136 -0.2610
 1836poe    c23 9067   6.981   6.589   3.694  0.1142 -0.0195 -0.2224
 1836poe     o2 9068   6.923   6.473   3.640  0.5893 -0.1757 -0.4069
 1836poe    c23 9069   6.962   6.465   3.505  0.4541  0.3193 -0.4761
 1836poe    c23 9070   6.985   6.332   3.432  0.3282  0.1286 -0.1685
 1836poe     o2 9071   7.090   6.259   3.491  0.3571 -0.1137 -0.5170
 1836poe    c31 9072   7.160   6.177   3.399  0.4981 -0.3093 -0.2369
 1837poe    c31 9073   5.552   3.442   1.454  0.4046  0.3218  0.4411
 1837poe     o2 9074   5.548   3.308   1.497  0.0413  0.2455  0.1801
 1837poe    c23 9075   5.556   3.298   1.637  0.2226  0.4442  0.1859
 1837poe    c23 9076   5.476   3.185   1.705  0.4168  0.1719 -0.0380
 1837poe     o2 9077   5.522   3.051   1.700 -0.1806 -0.0324 -0.1058
 1837poe    c23 9078   5.438   2.958   1.765  0.1845 -0.0888  0.2895
 1837poe    c23 9079   5.520   2.834   1.803  0.6861  0.1601  0.0409
 1837poe     o2 9080   5.599   2.779   1.700  0.3818  0.0855 -0.1542
 1837poe    c23 9081   5.702   2.692   1.741  0.1045 -0.0750  0.2075
 1837poe    c23 9082   5.783   2.651   1.616 -0.1120  0.4316 -0.1018
 1837poe     o2 9083   5.720   2.563   1.527  0.0237  0.1523  0.0779
 1837poe    c31 9084   5.765   2.432   1.554  0.5290  0.3035 -0.0292
 1838poe    c31 9085   2.094   5.822   6.918 -0.5973 -0.7712  0.4161
 1838poe     o2 9086   2.199   5.786   6.831 -0.9631  0.3776 -0.5370
 1838poe    c23 9087   2.161   5.670   6.761 -0.2009 -0.3331  0.2063
 1838poe    c23 9088   2.266   5.604   6.670  0.1926 -0.0137  0.4235
 1838poe     o2 9089   2.368   5.524   6.726  0.3128  0.6005  1.0980
 1838poe    c23 9090   2.338   5.400   6.785  0.9333 -0.3091 -0.4314
 1838poe    c23 9091   2.473   5.328   6.805  0.7785 -0.4572  0.1115
 1838poe     o2 9092   2.569   5.414   6.863  0.7477 -0.1020 -0.3594
 1838poe    c23 9093   2.662   5.351   6.947  0.4286  0.6098  0.5391
 1838poe    c23 9094   2.603   5.326   7.088 -0.6451 -0.3812 -0.0662
 1838poe     o2 9095   2.522   5.436   7.125 -0.9562 -0.4297 -0.5842
 1838poe    c31 9096   2.416   5.410   7.214  0.0121 -0.7649  0.5012
 1839poe    c31 9097   6.084   4.447   1.098  0.4066  0.4618  0.5731
 1839poe     o2 9098   6.135   4.339   1.023 -0.3462  0.2140  0.4046
 1839poe    c23 9099   6.049   4.228   1.029 -0.6106  0.4154  0.3476
 1839poe    c23 9100   6.075   4.119   0.924  0.3610  0.9041  0.0728
 1839poe     o2 9101   6.056   4.160   0.790 -0.1994 -0.0089 -0.1365
 1839poe    c23 9102   6.179   4.209   0.742 -0.0932 -0.1729 -0.0359
 1839poe    c23 9103   6.159   4.259   0.597  0.0191  0.1966  0.0744
 1839poe     o2 9104   6.132   4.154   0.508 -1.1390  0.5479 -0.0085
 1839poe    c23 9105   6.116   4.213   0.381 -0.3878  0.4405 -0.1613
 1839poe    c23 9106   6.125   4.095   0.283  0.1395  0.4948 -0.1776
 1839poe     o2 9107   6.023   4.000   0.297  0.0110  0.6570 -0.0172
 1839poe    c31 9108   6.070   3.895   0.216 -0.2895  0.7764 -0.3463
 1840poe    c31 9109   2.624   6.045   2.775 -0.8400 -0.0863  0.0895
 1840poe     o2 9110   2.511   6.083   2.699 -0.5019  0.1711 -0.2871
 1840poe    c23 9111   2.463   5.971   2.628  0.0777 -0.1858 -0.1254
 1840poe    c23 9112   2.358   5.876   2.687 -0.3916  0.0795 -0.5235
 1840poe     o2 9113   2.389   5.825   2.815 -0.2008  0.4705 -0.4138
 1840poe    c23 9114   2.266   5.791   2.875 -0.1441 -0.0679 -0.5953
 1840poe    c23 9115   2.277   5.759   3.025 -0.1316  0.6347 -0.4405
 1840poe     o2 9116   2.355   5.646   3.056 -0.2692  0.4929 -0.6119
 1840poe    c23 9117   2.477   5.684   3.116 -0.4492 -0.1285  0.1689
 1840poe    c23 9118   2.558   5.565   3.169 -0.2802 -0.3156 -0.5003
 1840poe     o2 9119   2.506   5.505   3.286  0.5304  0.4197  0.2480
 1840poe    c31 9120   2.604   5.412   3.325 -0.0426 -0.0997  0.4618
 1841poe    c31 9121   5.157   0.337   3.550  0.6883 -0.4309  0.2095
 1841poe     o2 9122   5.221   0.266   3.655  0.1188 -0.4060  0.5761
 1841poe    c23 9123   5.122   0.216   3.743 -0.3916  0.4209  0.4801
 1841poe    c23 9124   5.185   0.129   3.853 -0.3303 -0.6360 -0.3778
 1841poe     o2 9125   5.268   0.030   3.797  0.1856 -0.3307 -0.1630
 1841poe    c23 9126   5.339  -0.042   3.895  0.2173  0.7387  0.6116
 1841poe    c23 9127   5.481  -0.080   3.847 -0.1359 -0.1289  0.2462
 1841poe     o2 9128   5.490  -0.193   3.763 -0.2047  0.4444 -0.5338
 1841poe    c23 9129   5.616  -0.251   3.786 -0.3191  0.3113 -0.2298
 1841poe    c23 9130   5.627  -0.381   3.705 -0.5183  0.0466  0.1713
 1841poe     o2 9131   5.608  -0.338   3.572 -0.6273  0.2907  0.2662
 1841poe    c31 9132   5.510  -0.420   3.513 -0.1521 -0.2609  0.2367
 1842poe    c31 9133   2.658   7.077   0.626  0.0991  0.0651  0.2566
 1842poe     o2 9134   2.692   7.003   0.511  0.3786  0.2260  0.2346
 1842poe    c23 9135   2.829   6.968   0.519  0.1113 -0.8797  0.1510
 1842poe    c23 9136   2.877   6.898   0.390 -0.2388 -0.0247 -0.4522
 1842poe     o2 9137   2.867   6.971   0.270  0.7936  0.7077 -0.1073
 1842poe    c23 9138   2.910   6.884   0.167 -0.2103  0.2515 -0.1505
 1842poe    c23 9139   2.926   6.955   0.032  0.0018  0.0528 -0.2294
 1842poe     o2 9140   2.805   6.981  -0.035 -0.1146  0.3044  0.0807
 1842poe    c23 9141   2.814   7.086  -0.129 -0.3369  0.7784  0.5823
 1842poe    c23 9142   2.686   7.119  -0.208  0.3985  1.0202 -0.5301
 1842poe     o2 9143   2.585   7.144  -0.112  0.3284  0.0610 -0.3442
 1842poe    c31 9144   2.464   7.177  -0.177 -0.0713 -0.5396  0.0860
 1843poe    c31 9145   2.791   2.727   3.030  0.4942 -0.0552 -0.3511
 1843poe     o2 9146   2.726   2.852   3.045  0.9107  0.0645  0.4893
 1843poe    c23 9147   2.758   2.930   2.933  0.1347 -0.2929  0.0096
 1843poe    c23 9148   2.663   3.050   2.919  0.6826  0.1263 -0.2000
 1843poe     o2 9149   2.676   3.154   3.013  0.0510 -0.0522  0.0928
 1843poe    c23 9150   2.663   3.281   2.953 -0.0479 -0.1831 -0.1689
 1843poe    c23 9151   2.674   3.376   3.074 -0.4243 -0.4032  0.0365
 1843poe     o2 9152   2.583   3.329   3.172 -0.7415  0.0613 -0.0339
 1843poe    c23 9153   2.606   3.399   3.292  0.3253  0.1941 -0.3072
 1843poe    c23 9154   2.469   3.386   3.361  0.0354 -0.3077 -0.9636
 1843poe     o2 9155   2.427   3.253   3.386  0.0215 -0.2549 -0.6992
 1843poe    c31 9156   2.298   3.235   3.438  0.2071 -0.5821 -0.3483
 1844poe    c31 9157   6.926   5.180   1.074 -0.2728 -0.3305  0.0058
 1844poe     o2 9158   6.949   5.057   1.008  0.0335 -0.1829 -0.1640
 1844poe    c23 9159   6.887   4.946   1.068 -0.7198  0.2995 -0.0314
 1844poe    c23 9160   6.886   4.828   0.970  0.2912 -0.2184  0.5585
 1844poe     o2 9161   7.012   4.816   0.909 -0.2064  0.6001 -0.6814
 1844poe    c23 9162   7.011   4.714   0.811 -0.4116  0.0893 -0.1534
 1844poe    c23 9163   7.156   4.699   0.763 -0.2257  0.5723  0.2456
 1844poe     o2 9164   7.215   4.814   0.706 -0.1300  0.1321 -0.5592
 1844poe    c23 9165   7.311   4.763   0.616 -0.0398 -0.1138 -0.3246
 1844poe    c23 9166   7.343   4.879   0.520  0.3915  0.2988  0.3118
 1844poe     o2 9167   7.241   4.904   0.427  0.3469 -0.1744  0.2314
 1844poe    c31 9168   7.273   5.021   0.355  0.0487 -0.1691  0.1040
 1845poe    c31 9169   3.814   2.428   2.199 -0.2695  0.3581 -0.1541
 1845poe     o2 9170   3.824   2.524   2.097 -0.1557  0.2511 -0.2440
 1845poe    c23 9171   3.720   2.499   2.005 -0.1232  0.1614 -0.2562
 1845poe    c23 9172   3.745   2.564   1.868 -0.1449  0.2986 -0.1962
 1845poe     o2 9173   3.782   2.694   1.907  0.1871  0.2305 -0.2783
 1845poe    c23 9174   3.797   2.772   1.790  0.4874  0.4153 -0.1173
 1845poe    c23 9175   3.800   2.920   1.832 -0.2799  0.4317 -0.1043
 1845poe     o2 9176   3.891   2.917   1.939  0.2237  0.2965 -0.5339
 1845poe    c23 9177   3.918   3.043   1.995  0.0818  0.2213 -0.2953
 1845poe    c23 9178   4.023   3.058   2.107 -0.3361  0.5152  0.0607
 1845poe     o2 9179   4.003   2.982   2.223  0.3211  0.3344  0.0560
 1845poe    c31 9180   4.081   3.017   2.335 -0.6134 -0.0445  0.8392
 1846poe    c31 9181   3.948   1.610   3.887 -0.3936  0.4900  0.0982
 1846poe     o2 9182   3.910   1.646   4.019 -1.1902 -0.2108  0.0695
 1846poe    c23 9183   3.847   1.771   4.002 -0.1637  0.3368  0.2145
 1846poe    c23 9184   3.819   1.823   4.144  0.2231 -0.4160  0.5768
 1846poe     o2 9185   3.716   1.750   4.207 -0.3916 -0.0577  0.0017
 1846poe    c23 9186   3.686   1.804   4.334 -0.5535  0.2229 -0.1538
 1846poe    c23 9187   3.587   1.714   4.411 -0.1843 -0.2415 -0.2176
 1846poe     o2 9188   3.652   1.591   4.432  0.0672  0.0049  0.4659
 1846poe    c23 9189   3.566   1.514   4.512  0.3554 -0.3595  0.4291
 1846poe    c23 9190   3.596   1.367   4.479  0.1138 -0.3662  0.2347
 1846poe     o2 9191   3.733   1.360   4.446  0.0672 -0.3537  0.0368
 1846poe    c31 9192   3.762   1.224   4.424 -0.2631 -0.5623  0.8677
 1847poe    c31 9193   3.321   3.668   7.119 -0.1173 -0.1686 -0.1186
 1847poe     o2 9194   3.393   3.565   7.184 -0.1629 -0.2433 -0.1850
 1847poe    c23 9195   3.478   3.501   7.092 -0.0425  0.0564 -0.2837
 1847poe    c23 9196   3.579   3.415   7.170 -0.0600  0.1262 -0.1849
 1847poe     o2 9197   3.515   3.292   7.196 -0.2431  0.2332 -0.1241
 1847poe    c23 9198   3.559   3.231   7.315  0.2649 -0.1403 -0.4985
 1847poe    c23 9199   3.473   3.108   7.349 -0.3733  0.1527 -1.0227
 1847poe     o2 9200   3.353   3.157   7.405 -0.2144 -0.2153 -0.3422
 1847poe    c23 9201   3.270   3.059   7.464  0.1448 -0.3537 -0.0680
 1847poe    c23 9202   3.124   3.101   7.444  0.1718 -0.1456  0.1588
 1847poe     o2 9203   3.109   3.241   7.454  0.0364 -0.1870  0.5707
 1847poe    c31 9204   3.065   3.305   7.572 -0.4011  0.6754 -0.0462
 1848poe    c31 9205   6.884   6.157   1.151 -0.0265 -0.2407  0.6788
 1848poe     o2 9206   6.949   6.150   1.026 -0.4993 -0.0504  0.4196
 1848poe    c23 9207   6.850   6.125   0.929  0.3368 -1.0189 -0.2035
 1848poe    c23 9208   6.910   6.163   0.793 -0.1670  0.0789 -0.1321
 1848poe     o2 9209   7.033   6.093   0.789 -0.5146 -0.5151 -0.7346
 1848poe    c23 9210   7.103   6.096   0.667  0.3274  0.0653 -0.2437
 1848poe    c23 9211   7.253   6.063   0.656  0.3880  0.4231 -0.5390
 1848poe     o2 9212   7.327   6.122   0.760 -0.1240 -0.1247  0.1451
 1848poe    c23 9213   7.464   6.090   0.777 -0.0750  0.0458  0.0698
 1848poe    c23 9214   7.546   6.190   0.861 -0.8835  1.1871 -0.4653
 1848poe     o2 9215   7.505   6.190   0.996  0.6718  0.3575  0.0335
 1848poe    c31 9216   7.558   6.307   1.052  0.5833  0.2778  0.2857
 1849poe    c31 9217   0.196   1.917   0.064 -0.2625 -0.3265 -0.5205
 1849poe     o2 9218   0.130   1.803   0.114 -0.0252 -0.1126  0.3037
 1849poe    c23 9219   0.217   1.693   0.104 -0.0748 -0.2115  0.9530
 1849poe    c23 9220   0.200   1.585   0.212 -0.0504 -0.2600  0.9083
 1849poe     o2 9221   0.222   1.644   0.338  0.0577  0.4669  0.5535
 1849poe    c23 9222   0.315   1.564   0.407 -0.6307 -0.4382  0.4538
 1849poe    c23 9223   0.356   1.630   0.541  0.2977  0.2992 -0.1783
 1849poe     o2 9224   0.249   1.706   0.592  0.1302  0.0539 -0.1602
 1849poe    c23 9225   0.304   1.811   0.669  0.1641 -0.2815  0.2743
 1849poe    c23 9226   0.184   1.888   0.728 -0.2148 -0.4482 -0.2722
 1849poe     o2 9227   0.092   1.885   0.621  0.2336  0.1047 -0.6849
 1849poe    c31 9228  -0.012   1.974   0.653  0.1156 -0.2502 -0.0581
 1850poe    c31 9229   5.400   1.719   0.940  0.3969  0.1399 -0.0774
 1850poe     o2 9230   5.322   1.657   0.840 -0.1149 -0.5200  0.7160
 1850poe    c23 9231   5.185   1.680   0.864  0.0600  1.1092  0.2288
 1850poe    c23 9232   5.105   1.623   0.746  0.6892  0.3303  0.1670
 1850poe     o2 9233   5.121   1.485   0.727 -0.4138  0.2518 -0.3026
 1850poe    c23 9234   5.055   1.448   0.609  0.1262  0.1392 -0.5743
 1850poe    c23 9235   5.049   1.295   0.600  0.1093  0.0643  0.6389
 1850poe     o2 9236   5.182   1.248   0.613  0.0002 -0.4691 -0.1102
 1850poe    c23 9237   5.184   1.112   0.574  0.0107 -0.6214  0.4144
 1850poe    c23 9238   5.333   1.072   0.576  0.4226  0.7552 -0.8704
 1850poe     o2 9239   5.399   1.145   0.677  0.3061 -0.1418 -0.1300
 1850poe    c31 9240   5.524   1.085   0.705  0.5982  0.4195 -0.2128
 1851poe    c31 9241   3.883   0.219   3.415  0.0892  0.0776  0.3599
 1851poe     o2 9242   3.879   0.092   3.478 -0.8230 -0.2334 -0.3066
 1851poe    c23 9243   3.920  -0.015   3.396  0.5776  0.0556 -0.0048
 1851poe    c23 9244   3.934  -0.145   3.477  0.1476  0.4273  0.6751
 1851poe     o2 9245   3.823  -0.173   3.559 -0.2638  0.4886  0.1459
 1851poe    c23 9246   3.831  -0.303   3.613  0.0918  0.2334 -0.5132
 1851poe    c23 9247   3.781  -0.417   3.521  0.4047 -0.1517 -0.2103
 1851poe     o2 9248   3.649  -0.460   3.542  0.4239 -0.1958 -0.1806
 1851poe    c23 9249   3.568  -0.381   3.457  0.1418 -0.8524 -0.5370
 1851poe    c23 9250   3.419  -0.378   3.494  0.3079 -0.6710  0.1321
 1851poe     o2 9251   3.404  -0.332   3.627  0.1445  0.0568 -0.1347
 1851poe    c31 9252   3.301  -0.396   3.698 -0.2090  0.6510 -0.1044
 1852poe    c31 9253   6.782   3.065   6.355 -0.1486  0.1782  0.0502
 1852poe     o2 9254   6.694   2.967   6.405 -0.0413 -0.0066 -0.1206
 1852poe    c23 9255   6.766   2.853   6.446 -0.5499 -0.3814 -0.2507
 1852poe    c23 9256   6.669   2.756   6.517 -0.2726 -0.2153  0.3605
 1852poe     o2 9257   6.617   2.818   6.632  0.6605  0.3745  0.4822
 1852poe    c23 9258   6.561   2.717   6.713  0.1855  0.2488  0.0055
 1852poe    c23 9259   6.540   2.802   6.840 -0.1896 -0.2442  0.2747
 1852poe     o2 9260   6.659   2.838   6.906 -0.0664 -0.0540 -0.0491
 1852poe    c23 9261   6.667   2.766   7.027  0.0432 -0.1963 -0.1410
 1852poe    c23 9262   6.750   2.844   7.131  0.0210 -0.2315 -0.0974
 1852poe     o2 9263   6.889   2.851   7.115  0.0469  0.0268  0.2150
 1852poe    c31 9264   6.951   2.937   7.208 -0.0298 -0.0788  0.3647
 1853poe    c31 9265   4.038   3.549   4.586  0.2947  0.2138 -0.4750
 1853poe     o2 9266   4.048   3.541   4.446  0.1354 -0.0318 -0.4732
 1853poe    c23 9267   4.072   3.406   4.414 -0.7384 -0.3004 -0.0182
 1853poe    c23 9268   4.140   3.405   4.276  0.1559  0.8433  0.3992
 1853poe     o2 9269   4.048   3.476   4.196  0.2116  0.7362  0.2371
 1853poe    c23 9270   4.076   3.459   4.059 -0.0286  0.4548  0.2224
 1853poe    c23 9271   3.985   3.569   4.001  0.3401  0.3791 -0.5117
 1853poe     o2 9272   4.007   3.685   4.079  0.1685 -0.1777  0.3730
 1853poe    c23 9273   4.118   3.767   4.051  0.4269 -0.4648  0.5525
 1853poe    c23 9274   4.138   3.876   4.158  0.3235 -0.1515  0.2514
 1853poe     o2 9275   4.133   3.804   4.279 -0.0965 -0.3111  0.1426
 1853poe    c31 9276   4.091   3.878   4.391  0.3647 -0.4470  0.4102
 1854poe    c31 9277   2.395   4.375   4.431 -0.1272  0.3818 -0.4406
 1854poe     o2 9278   2.324   4.483   4.375 -0.3835  0.5288  0.1583
 1854poe    c23 9279   2.271   4.449   4.248 -0.0542 -0.3550  0.2487
 1854poe    c23 9280   2.228   4.579   4.178  0.3473 -0.3313  0.0419
 1854poe     o2 9281   2.118   4.632   4.249  0.5388  0.2874 -0.1148
 1854poe    c23 9282   2.079   4.761   4.210 -0.1117  0.2948  0.5477
 1854poe    c23 9283   1.966   4.816   4.300 -0.3786  0.6818 -0.0156
 1854poe     o2 9284   2.041   4.855   4.413 -0.1867 -0.5573  0.3002
 1854poe    c23 9285   1.957   4.897   4.518  0.3754  0.1336  0.4791
 1854poe    c23 9286   2.041   4.994   4.604  0.0661  1.2194 -0.4248
 1854poe     o2 9287   2.171   4.939   4.611 -0.3863  0.1807  0.0953
 1854poe    c31 9288   2.233   4.993   4.725 -0.0669  0.0274 -0.0074
 1855poe    c31 9289   0.499   1.950   2.971  0.6473 -0.1952  0.3473
 1855poe     o2 9290   0.503   1.916   3.108 -0.3238 -0.5188  0.2997
 1855poe    c23 9291   0.559   2.030   3.168  0.1880 -0.5016 -0.1991
 1855poe    c23 9292   0.503   2.054   3.309 -0.2444 -0.1620 -0.4253
 1855poe     o2 9293   0.561   1.981   3.415  0.2030  0.3717 -0.2977
 1855poe    c23 9294   0.530   2.046   3.536 -0.6499 -0.2920 -0.1515
 1855poe    c23 9295   0.554   1.946   3.651 -0.8038  0.0269  0.1605
 1855poe     o2 9296   0.545   1.818   3.594  0.2267  0.1362 -0.2674
 1855poe    c23 9297   0.593   1.721   3.684 -0.3103 -0.0371 -0.1654
 1855poe    c23 9298   0.598   1.585   3.611  0.2310 -0.1051 -0.0010
 1855poe     o2 9299   0.626   1.618   3.477  0.4499  0.3391  0.1506
 1855poe    c31 9300   0.612   1.504   3.395 -0.4439 -0.0492  0.8320
 1856poe    c31 9301   4.221   5.969   2.506 -0.3395  0.3648 -0.1795
 1856poe     o2 9302   4.309   6.076   2.482  0.3157 -0.0642  0.2678
 1856poe    c23 9303   4.432   6.011   2.462 -0.0091 -0.6872  0.2623
 1856poe    c23 9304   4.546   6.115   2.467 -0.2954 -0.3766  0.3389
 1856poe     o2 9305   4.532   6.214   2.567  0.0565  0.0297 -0.0120
 1856poe    c23 9306   4.586   6.172   2.690 -0.3845  0.1265  0.2143
 1856poe    c23 9307   4.525   6.271   2.791 -0.0002  0.9736 -0.3716
 1856poe     o2 9308   4.388   6.274   2.758 -0.0569  0.1470 -0.2384
 1856poe    c23 9309   4.306   6.301   2.870  0.2657 -0.4341  0.1440
 1856poe    c23 9310   4.154   6.314   2.850  0.3171 -0.6304 -0.3667
 1856poe     o2 9311   4.064   6.208   2.876 -0.6202  0.3714  0.5506
 1856poe    c31 9312   3.935   6.241   2.830 -0.3686  0.0942 -0.3788
 1857poe    c31 9313   3.249   1.649   6.588  0.5121 -0.5107 -0.4124
 1857poe     o2 9314   3.207   1.569   6.696 -0.0623 -0.1130 -0.3355
 1857poe    c23 9315   3.086   1.497   6.693 -0.1818  0.0671  0.1130
 1857poe    c23 9316   2.954   1.561   6.647 -0.1542 -0.0766 -0.1712
 1857poe     o2 9317   2.902   1.657   6.737  0.5593  0.3366 -0.1880
 1857poe    c23 9318   2.816   1.741   6.664  0.5182  0.2291 -0.2641
 1857poe    c23 9319   2.753   1.865   6.730  0.1477 -0.1964  0.1894
 1857poe     o2 9320   2.640   1.846   6.811 -0.0519 -0.0517 -0.0548
 1857poe    c23 9321   2.563   1.958   6.850  0.2740  0.2146 -0.1760
 1857poe    c23 9322   2.472   2.020   6.742 -0.1230 -0.0130  0.0262
 1857poe     o2 9323   2.347   1.957   6.725  0.0278 -0.0832 -0.8489
 1857poe    c31 9324   2.247   2.043   6.674 -0.1704  0.0438 -0.2589
 1858poe    c31 9325   2.990   1.533   3.519 -0.2430  0.3047 -0.7460
 1858poe     o2 9326   3.050   1.418   3.575 -0.2726  0.6798  0.0733
 1858poe    c23 9327   2.943   1.361   3.647  0.6535 -0.3540  0.6518
 1858poe    c23 9328   2.991   1.258   3.751  0.1359 -0.6397  0.6136
 1858poe     o2 9329   3.090   1.295   3.845  0.2695  0.3616  0.0939
 1858poe    c23 9330   3.121   1.186   3.929 -0.2358  0.0197 -0.1554
 1858poe    c23 9331   3.220   1.252   4.027  0.0384 -0.4423 -0.1191
 1858poe     o2 9332   3.319   1.333   3.968 -0.5638  0.7997  0.5366
 1858poe    c23 9333   3.420   1.374   4.057  0.1165  0.0213  0.1395
 1858poe    c23 9334   3.525   1.450   3.974  0.3330  0.4466  0.7948
 1858poe     o2 9335   3.464   1.549   3.893 -0.2762 -1.0380 -0.6289
 1858poe    c31 9336   3.560   1.604   3.806 -0.0220 -0.0817  0.2280
 1859poe    c31 9337   0.102   3.445   3.829 -0.0046  0.2557 -0.0084
 1859poe     o2 9338   0.217   3.525   3.843  0.1232  0.0253  0.2785
 1859poe    c23 9339   0.195   3.646   3.913 -0.5130  0.2599 -0.3175
 1859poe    c23 9340   0.218   3.641   4.065  0.2462  0.6306 -0.4195
 1859poe     o2 9341   0.352   3.656   4.108  0.1191  0.0481  0.1897
 1859poe    c23 9342   0.354   3.689   4.245 -0.0835 -0.2642  0.2689
 1859poe    c23 9343   0.323   3.835   4.280  0.1248 -0.0326 -0.4925
 1859poe     o2 9344   0.426   3.930   4.260  0.0499  0.1035 -0.2449
 1859poe    c23 9345   0.398   4.060   4.306  0.4761  0.1282 -0.0560
 1859poe    c23 9346   0.399   4.164   4.192 -0.5310  0.4289  0.2003
 1859poe     o2 9347   0.283   4.144   4.114 -0.6107  0.2361  0.3684
 1859poe    c31 9348   0.339   4.148   3.985 -0.4837 -0.3052  0.4035
 1860poe    c31 9349   3.458   4.948   3.769  0.0371  0.0187  0.2657
 1860poe     o2 9350   3.594   4.915   3.779  0.0850 -0.0331 -0.5050
 1860poe    c23 9351   3.612   4.825   3.886  0.3967 -0.0332 -0.5556
 1860poe    c23 9352   3.759   4.806   3.930  0.0424 -0.6604  0.4032
 1860poe     o2 9353   3.838   4.806   3.813  0.2607  0.4406  0.5345
 1860poe    c23 9354   3.975   4.821   3.843  0.1804  0.8152  0.7114
 1860poe    c23 9355   4.064   4.841   3.719  0.1665 -0.1361  0.5428
 1860poe     o2 9356   4.018   4.950   3.642  0.0621 -0.4401  0.1714
 1860poe    c23 9357   4.112   4.997   3.548  0.1429  0.0544  0.4946
 1860poe    c23 9358   4.050   5.109   3.462  0.3842  0.0502  0.3150
 1860poe     o2 9359   3.918   5.066   3.439  0.3555  0.1566  0.2871
 1860poe    c31 9360   3.834   5.161   3.376 -0.4011 -0.4017  0.4499
 1861poe    c31 9361   5.614   2.051   6.617 -0.2167  0.3626 -0.1015
 1861poe     o2 9362   5.708   2.091   6.714 -0.6410 -0.0143  0.4713
 1861poe    c23 9363   5.648   2.183   6.802 -0.3449  0.1611  0.4916
 1861poe    c23 9364   5.759   2.273   6.861  0.0121 -0.0979  0.2207
 1861poe     o2 9365   5.842   2.198   6.946  0.1558  0.0135  0.1778
 1861poe    c23 9366   5.941   2.276   7.009 -0.2461  0.4226  0.3108
 1861poe    c23 9367   6.083   2.220   6.983 -0.3154  0.0329  0.7341
 1861poe     o2 9368   6.091   2.083   7.011  0.2938 -0.0927 -0.0127
 1861poe    c23 9369   6.224   2.049   7.043  0.2386 -0.0570  0.2595
 1861poe    c23 9370   6.212   1.900   7.078 -0.1434 -0.0385  0.2095
 1861poe     o2 9371   6.126   1.823   6.997 -0.0871  0.2314 -0.1065
 1861poe    c31 9372   6.138   1.697   7.059  0.5417  0.4120  0.1406
 1862poe    c31 9373   4.751   3.653   4.217  0.1512 -0.1279 -0.0004
 1862poe     o2 9374   4.694   3.780   4.194 -0.4564 -0.3946  0.0199
 1862poe    c23 9375   4.553   3.779   4.199 -0.4797  0.5571 -0.2890
 1862poe    c23 9376   4.510   3.908   4.271 -0.3909  0.6474 -0.3981
 1862poe     o2 9377   4.568   3.939   4.395  0.1046  0.0653 -0.4812
 1862poe    c23 9378   4.559   4.073   4.439  0.0701  0.1675 -0.7990
 1862poe    c23 9379   4.663   4.101   4.549  0.2646  0.4496 -1.0540
 1862poe     o2 9380   4.791   4.090   4.491  0.5617 -0.2500 -0.2739
 1862poe    c23 9381   4.891   4.091   4.591 -0.0000  0.2410  0.2901
 1862poe    c23 9382   4.953   4.232   4.598  0.9066 -0.1533  0.3224
 1862poe     o2 9383   5.002   4.272   4.473 -0.0807 -0.0712 -0.0463
 1862poe    c31 9384   5.049   4.405   4.465  0.1732 -0.2071 -1.0063
 1863poe    c31 9385   2.375   1.506   2.207  0.7010  0.1223 -0.1734
 1863poe     o2 9386   2.364   1.524   2.346  0.2783 -0.2650 -0.1555
 1863poe    c23 9387   2.457   1.616   2.399 -0.4976  0.8374 -0.6712
 1863poe    c23 9388   2.475   1.589   2.550 -0.6250 -0.3430 -0.8521
 1863poe     o2 9389   2.524   1.460   2.574 -0.5224 -0.1948 -0.2349
 1863poe    c23 9390   2.516   1.426   2.710  0.0077  0.1721 -0.1113
 1863poe    c23 9391   2.616   1.316   2.748  0.3752  0.5227 -0.0512
 1863poe     o2 9392   2.600   1.218   2.648 -0.3164  0.0003  0.5611
 1863poe    c23 9393   2.689   1.110   2.663 -0.5793 -0.2579  0.2740
 1863poe    c23 9394   2.646   1.009   2.554  0.9585 -0.3660 -0.2535
 1863poe     o2 9395   2.593   1.069   2.438  0.2882 -0.2540  0.1015
 1863poe    c31 9396   2.556   0.968   2.348  0.2241 -0.2066  0.0751
 1864poe    c31 9397   5.532   3.556   6.892 -0.4765  0.1776  0.1549
 1864poe     o2 9398   5.485   3.527   6.763 -0.3156 -0.0290  0.1423
 1864poe    c23 9399   5.389   3.426   6.742 -0.5812  0.2609 -0.0377
 1864poe    c23 9400   5.442   3.282   6.753  0.1551  0.5163 -0.1828
 1864poe     o2 9401   5.538   3.231   6.663 -0.5813 -0.2989 -0.5243
 1864poe    c23 9402   5.594   3.111   6.713  0.7537  0.3936 -0.3064
 1864poe    c23 9403   5.672   3.018   6.619  0.2577 -0.4863  0.1443
 1864poe     o2 9404   5.781   3.103   6.595 -0.2508  0.1729  0.1326
 1864poe    c23 9405   5.833   3.109   6.464 -0.1234  0.1249  0.1805
 1864poe    c23 9406   5.948   3.212   6.465 -0.0677  0.0667 -0.2204
 1864poe     o2 9407   5.909   3.336   6.519 -0.0026  0.0677 -0.1758
 1864poe    c31 9408   6.027   3.401   6.560  0.0166 -0.3594  0.4627
 1865poe    c31 9409   6.444   2.135   4.015 -0.0150 -0.8545  0.1019
 1865poe     o2 9410   6.563   2.136   3.938 -0.1496 -0.1046 -0.0992
 1865poe    c23 9411   6.634   2.015   3.930 -0.0926 -0.0821  0.0658
 1865poe    c23 9412   6.770   2.016   3.858  0.0593  0.1434  0.3531
 1865poe     o2 9413   6.772   2.072   3.728 -0.1787  0.0115  0.2919
 1865poe    c23 9414   6.897   2.069   3.663 -0.2691  0.3963  0.1015
 1865poe    c23 9415   7.009   2.153   3.728  0.4075 -0.1580 -0.3361
 1865poe     o2 9416   7.004   2.289   3.693  0.2661 -0.0410  0.1225
 1865poe    c23 9417   7.114   2.367   3.735  0.3460  0.0800 -0.3044
 1865poe    c23 9418   7.081   2.517   3.733  0.1771  0.0509  0.2385
 1865poe     o2 9419   6.966   2.552   3.806 -0.3933 -0.1540 -0.5514
 1865poe    c31 9420   6.993   2.563   3.944 -0.0630 -0.8041 -0.5631
 1866poe    c31 9421   1.526   4.166   0.945 -0.2665 -0.5563  0.0171
 1866poe     o2 9422   1.507   4.218   1.075  0.8595  0.0985 -0.0651
 1866poe    c23 9423   1.430   4.336   1.070 -0.0828 -0.4904  0.2787
 1866poe    c23 9424   1.421   4.439   1.184  0.6744 -0.1649  0.0491
 1866poe     o2 9425   1.541   4.500   1.226  0.4095  0.1812  0.3115
 1866poe    c23 9426   1.524   4.603   1.321 -0.0741  0.2502  0.1513
 1866poe    c23 9427   1.671   4.649   1.326  0.0261 -0.0515  0.0109
 1866poe     o2 9428   1.745   4.533   1.357  0.3964  0.1719 -0.0392
 1866poe    c23 9429   1.837   4.570   1.458  0.3845 -0.5187  0.2259
 1866poe    c23 9430   1.950   4.464   1.450  0.3714 -0.5206  0.0520
 1866poe     o2 9431   2.033   4.485   1.339  0.0827  0.4435  0.0053
 1866poe    c31 9432   2.147   4.404   1.359  0.2323  0.5209 -0.5125
 1867poe    c31 9433   0.839   6.109   6.134 -0.9759  0.9310 -0.2595
 1867poe     o2 9434   0.758   6.033   6.047 -0.2985 -0.0633 -0.0441
 1867poe    c23 9435   0.734   5.905   6.101  0.4871 -0.2464 -0.1137
 1867poe    c23 9436   0.666   5.811   6.000  0.1208  0.0009 -0.1028
 1867poe     o2 9437   0.550   5.873   5.950  0.1278  0.0653 -0.0384
 1867poe    c23 9438   0.479   5.772   5.882 -0.2469 -0.2376  0.7903
 1867poe    c23 9439   0.418   5.825   5.751 -0.2212 -0.2322  0.7810
 1867poe     o2 9440   0.344   5.941   5.779  0.1843  0.1536  0.3032
 1867poe    c23 9441   0.313   6.020   5.667  0.6084 -0.0242  0.0583
 1867poe    c23 9442   0.232   6.139   5.723  0.7509 -0.0249  0.2662
 1867poe     o2 9443   0.283   6.186   5.846  0.8724  0.4674  0.0323
 1867poe    c31 9444   0.210   6.296   5.895  0.3446  0.0613  0.1647
 1868poe    c31 9445   4.929   2.623   4.986  0.7028 -0.0488 -0.0374
 1868poe     o2 9446   4.908   2.760   5.012  0.4343 -0.2173  0.6577
 1868poe    c23 9447   4.834   2.774   5.131  0.2027 -0.5054  0.5491
 1868poe    c23 9448   4.853   2.918   5.183  0.1244 -0.0221 -0.7151
 1868poe     o2 9449   4.984   2.969   5.181  0.3194 -0.4733  0.1552
 1868poe    c23 9450   4.957   3.098   5.232  0.0505 -0.4241 -0.1131
 1868poe    c23 9451   5.090   3.172   5.208 -0.1024  0.0095  0.3868
 1868poe     o2 9452   5.148   3.183   5.081  0.2994  0.3401  0.5973
 1868poe    c23 9453   5.285   3.219   5.083  0.1704  0.8603  0.3538
 1868poe    c23 9454   5.347   3.194   4.944  0.2285 -0.0582  0.5369
 1868poe     o2 9455   5.365   3.061   4.900 -0.6024  0.1440 -0.4472
 1868poe    c31 9456   5.496   3.044   4.851 -0.3533 -0.7218  0.4909
 1869poe    c31 9457   2.939   6.393   0.236 -0.1802 -0.4312 -0.4547
 1869poe     o2 9458   2.886   6.377   0.106 -0.0377 -0.1652 -0.5450
 1869poe    c23 9459   2.820   6.254   0.087  0.4223 -0.4263 -0.4770
 1869poe    c23 9460   2.739   6.254  -0.044 -0.3442  0.8412 -0.0250
 1869poe     o2 9461   2.816   6.254  -0.161 -0.1318 -1.0973  0.0724
 1869poe    c23 9462   2.727   6.298  -0.262 -0.1416 -0.1313  0.4891
 1869poe    c23 9463   2.783   6.368  -0.387 -0.5943  0.4377  0.6038
 1869poe     o2 9464   2.851   6.484  -0.343  0.1467  0.4337 -0.5221
 1869poe    c23 9465   2.932   6.536  -0.447 -0.3840 -0.0156 -1.1710
 1869poe    c23 9466   3.023   6.647  -0.393 -0.1812 -1.2678  1.2095
 1869poe     o2 9467   3.141   6.599  -0.333  0.3228 -0.6224  0.7448
 1869poe    c31 9468   3.250   6.605  -0.423 -0.0017 -0.4062  0.3650
 1870poe    c31 9469   3.209   6.176   0.362 -0.1521  0.9957  0.7804
 1870poe     o2 9470   3.142   6.083   0.445  0.0352  0.0038 -0.1505
 1870poe    c23 9471   3.077   5.982   0.371  0.1767 -0.3179  0.1666
 1870poe    c23 9472   3.016   5.889   0.477 -0.0032  0.0175  0.3583
 1870poe     o2 9473   2.881   5.899   0.518 -0.2411 -0.4052 -0.3056
 1870poe    c23 9474   2.869   5.853   0.651 -0.1195 -0.2024 -0.2247
 1870poe    c23 9475   2.725   5.819   0.695 -0.0500 -0.2760 -0.0524
 1870poe     o2 9476   2.635   5.925   0.669  0.2112  0.1018  0.5530
 1870poe    c23 9477   2.498   5.893   0.665  0.3439 -0.4713  0.5024
 1870poe    c23 9478   2.448   5.805   0.549  0.2641 -0.3298  0.4293
 1870poe     o2 9479   2.437   5.868   0.423  0.0469  0.0207  0.6230
 1870poe    c31 9480   2.390   5.773   0.330  0.3285  0.6118 -0.1316
 1871poe    c31 9481   5.879   3.321   5.978  0.3636 -1.0969  0.2302
 1871poe     o2 9482   5.783   3.325   6.082 -0.3451  0.3537 -0.4481
 1871poe    c23 9483   5.685   3.227   6.056 -0.6517  0.4563  0.3154
 1871poe    c23 9484   5.583   3.232   6.172 -0.3764 -0.9433  0.6372
 1871poe     o2 9485   5.534   3.364   6.171 -0.4961 -0.9858 -0.3761
 1871poe    c23 9486   5.406   3.361   6.230 -0.1047 -0.0580  0.5575
 1871poe    c23 9487   5.361   3.507   6.251  0.0315  0.0377  0.1951
 1871poe     o2 9488   5.442   3.567   6.350  0.5571  0.0835 -0.2628
 1871poe    c23 9489   5.402   3.697   6.388 -0.2042 -0.1235 -0.3551
 1871poe    c23 9490   5.487   3.740   6.508 -0.2832  0.6554 -0.5716
 1871poe     o2 9491   5.624   3.713   6.489 -0.3294  0.0180 -0.0382
 1871poe    c31 9492   5.704   3.791   6.575  0.0764 -0.3296 -0.0948
 1872poe    c31 9493   0.385   0.408   6.698 -0.1768 -0.4333 -0.2061
 1872poe     o2 9494   0.511   0.376   6.642 -0.0115 -0.0940 -0.0311
 1872poe    c23 9495   0.513   0.246   6.587 -0.6354 -0.1666  0.0999
 1872poe    c23 9496   0.642   0.201   6.515 -0.5178 -1.2312  0.9497
 1872poe     o2 9497   0.759   0.194   6.593  0.0286  0.2682  0.3029
 1872poe    c23 9498   0.867   0.134   6.525  0.0435  0.3928  0.2167
 1872poe    c23 9499   0.998   0.134   6.606  0.2182 -0.6629 -0.0551
 1872poe     o2 9500   1.026   0.267   6.642  0.3831 -0.7192  0.0259
 1872poe    c23 9501   1.152   0.275   6.704  0.1809 -0.1359  0.3670
 1872poe    c23 9502   1.169   0.412   6.774  0.2634  0.1298 -0.1702
 1872poe     o2 9503   1.089   0.417   6.890  0.5332 -0.1652  0.0335
 1872poe    c31 9504   1.106   0.539   6.958  0.9352 -0.4396  0.4257
 1873poe    c31 9505   2.722   4.054   6.087  0.2912  0.1974 -0.4898
 1873poe     o2 9506   2.815   4.159   6.098  0.3288  0.1547 -0.4035
 1873poe    c23 9507   2.909   4.120   6.195 -0.1075  0.2943  0.0803
 1873poe    c23 9508   2.979   4.242   6.258 -0.1655 -0.0671  0.8579
 1873poe     o2 9509   2.903   4.302   6.361 -0.8077 -0.6730  0.7466
 1873poe    c23 9510   2.921   4.237   6.485  0.4467 -0.1760  0.8421
 1873poe    c23 9511   2.862   4.302   6.611 -0.0912 -0.4953  0.7566
 1873poe     o2 9512   2.726   4.334   6.592  0.0253 -0.2788  0.2757
 1873poe    c23 9513   2.688   4.398   6.711  0.6391  0.6605 -0.0233
 1873poe    c23 9514   2.541   4.446   6.708  0.2503 -0.5105 -0.1656
 1873poe     o2 9515   2.516   4.540   6.606 -0.1687 -0.4157  0.0257
 1873poe    c31 9516   2.386   4.593   6.616 -0.4366 -1.0074 -0.2481
 1874poe    c31 9517   6.286   5.688   4.577 -0.2754 -0.0574  0.0828
 1874poe     o2 9518   6.283   5.568   4.503  0.0804  0.1044 -0.2002
 1874poe    c23 9519   6.229   5.593   4.375 -0.1071 -0.0711 -0.1556
 1874poe    c23 9520   6.258   5.478   4.277 -0.0997  0.3870 -0.6921
 1874poe     o2 9521   6.155   5.383   4.262  0.1506 -0.0195  0.1261
 1874poe    c23 9522   6.192   5.301   4.153 -0.3971  0.2277 -0.2505
 1874poe    c23 9523   6.062   5.225   4.119 -0.0122 -0.3292 -0.4840
 1874poe     o2 9524   6.014   5.135   4.216  1.0002 -0.2474  0.1153
 1874poe    c23 9525   6.090   5.017   4.224  0.2644 -0.6910  0.7187
 1874poe    c23 9526   6.003   4.913   4.297 -0.3930 -0.1504  0.7067
 1874poe     o2 9527   6.032   4.784   4.248  1.1111  0.2981  0.3736
 1874poe    c31 9528   5.989   4.679   4.331 -0.6117  0.2593 -0.5080
 1875poe    c31 9529   1.422   4.098   6.646  0.7342 -0.0591 -0.2587
 1875poe     o2 9530   1.437   3.987   6.731 -0.0334  0.1974  0.2200
 1875poe    c23 9531   1.326   3.977   6.817 -0.2915 -0.0654 -0.1429
 1875poe    c23 9532   1.331   3.843   6.892 -0.0454  0.2979  0.4963
 1875poe     o2 9533   1.355   3.734   6.806  0.2549  0.0255  0.9168
 1875poe    c23 9534   1.328   3.616   6.878 -0.2894 -0.4534 -0.0438
 1875poe    c23 9535   1.285   3.498   6.789  0.3500 -0.9231  0.2613
 1875poe     o2 9536   1.155   3.518   6.738  0.7443  0.0667 -0.3852
 1875poe    c23 9537   1.160   3.582   6.612  0.6383  0.4615 -0.1920
 1875poe    c23 9538   1.030   3.633   6.549  0.4253  0.4664  0.2486
 1875poe     o2 9539   1.056   3.723   6.443 -0.4640  0.6260  0.1546
 1875poe    c31 9540   0.950   3.715   6.350 -0.0937  0.4575 -0.2571
 1876poe    c31 9541   1.299   0.351   3.681 -0.7946  0.2223 -0.4517
 1876poe     o2 9542   1.357   0.345   3.553 -0.5540  0.5335 -0.3593
 1876poe    c23 9543   1.324   0.227   3.483 -0.2640 -0.1967  0.7046
 1876poe    c23 9544   1.406   0.229   3.352 -0.6870 -0.1603  0.4370
 1876poe     o2 9545   1.363   0.315   3.249  0.1220  0.3681  0.5270
 1876poe    c23 9546   1.375   0.452   3.276 -0.4828  0.3451  0.9446
 1876poe    c23 9547   1.523   0.492   3.259 -0.7101  0.6805 -0.4270
 1876poe     o2 9548   1.576   0.444   3.137  0.8129  0.3875  0.3191
 1876poe    c23 9549   1.714   0.416   3.137  0.7401  0.0229 -0.1723
 1876poe    c23 9550   1.735   0.297   3.042 -0.0223 -0.4902  0.2861
 1876poe     o2 9551   1.633   0.199   3.038 -0.2862 -0.2454  0.9699
 1876poe    c31 9552   1.671   0.089   2.959  0.1020  0.2963  0.3942
 1877poe    c31 9553   2.738   0.510   1.703 -0.3055 -0.2439  0.3702
 1877poe     o2 9554   2.878   0.517   1.687 -0.4145  0.4844 -0.3478
 1877poe    c23 9555   2.935   0.515   1.816 -0.4085 -0.5081 -0.3537
 1877poe    c23 9556   3.089   0.517   1.808 -0.3863  0.3707  0.0880
 1877poe     o2 9557   3.145   0.436   1.707  0.1644  0.3444  0.4143
 1877poe    c23 9558   3.286   0.442   1.712  0.2137 -0.0044 -0.4900
 1877poe    c23 9559   3.337   0.404   1.571  0.1749  0.3310 -0.5961
 1877poe     o2 9560   3.254   0.298   1.532  0.2559 -0.0322  0.1865
 1877poe    c23 9561   3.316   0.204   1.446 -0.1007  0.1333 -0.2580
 1877poe    c23 9562   3.222   0.091   1.402 -0.5218  0.4459 -0.1652
 1877poe     o2 9563   3.178   0.017   1.514  0.0636  0.0893 -0.1679
 1877poe    c31 9564   3.112  -0.100   1.472 -0.6088  0.2911  0.2993
 1878poe    c31 9565   0.689   3.158   5.136  0.5133  0.0238 -0.2405
 1878poe     o2 9566   0.668   3.263   5.228 -0.5089 -0.0226 -0.4118
 1878poe    c23 9567   0.589   3.360   5.163  0.3745  0.6492 -0.5061
 1878poe    c23 9568   0.554   3.483   5.249 -0.0904  0.0319  0.1970
 1878poe     o2 9569   0.460   3.460   5.351 -0.3539  0.1762 -0.0129
 1878poe    c23 9570   0.329   3.501   5.318 -0.4148 -0.1487 -0.1884
 1878poe    c23 9571   0.243   3.529   5.442 -0.1154 -0.2025  0.0323
 1878poe     o2 9572   0.284   3.440   5.544  0.3260 -0.3905 -0.3088
 1878poe    c23 9573   0.185   3.420   5.642 -0.0355  0.6423 -0.4435
 1878poe    c23 9574   0.234   3.401   5.787  0.0388  0.4101 -0.4990
 1878poe     o2 9575   0.329   3.498   5.826  0.2745 -0.2270  0.5560
 1878poe    c31 9576   0.341   3.492   5.966 -0.5656 -0.4036  0.6253
 1879poe    c31 9577   3.970   2.723   4.061  0.1947 -0.2172  0.1608
 1879poe     o2 9578   4.038   2.727   3.938 -0.0882  0.0811  0.0132
 1879poe    c23 9579   3.951   2.702   3.830 -0.5304  0.6826  0.2234
 1879poe    c23 9580   4.017   2.717   3.692 -0.0578  0.0702  0.3766
 1879poe     o2 9581   4.087   2.601   3.652 -0.6171 -0.3156  0.5053
 1879poe    c23 9582   4.153   2.615   3.528 -0.2480 -1.1735  0.6010
 1879poe    c23 9583   4.287   2.690   3.536 -0.6937 -0.2333 -0.5131
 1879poe     o2 9584   4.394   2.634   3.608 -0.3660  0.2162 -0.6473
 1879poe    c23 9585   4.401   2.493   3.610 -0.1819  0.2288  0.3876
 1879poe    c23 9586   4.544   2.441   3.628 -0.1270  0.0967 -0.3888
 1879poe     o2 9587   4.625   2.461   3.514 -0.4282 -0.7775 -0.7600
 1879poe    c31 9588   4.761   2.430   3.535 -0.3554 -0.1902 -0.3513
 1880poe    c31 9589   1.933   0.911   5.656 -0.2983 -0.1183 -0.1921
 1880poe     o2 9590   2.020   0.982   5.571  0.2117 -0.3561  0.1226
 1880poe    c23 9591   2.005   0.980   5.431  0.3475  0.4876  0.0901
 1880poe    c23 9592   2.135   0.943   5.356 -0.0313 -0.3364 -0.1791
 1880poe     o2 9593   2.189   0.817   5.389  0.0974 -0.2177  0.0660
 1880poe    c23 9594   2.277   0.826   5.499  0.0061  0.6243  0.0809
 1880poe    c23 9595   2.375   0.708   5.511  0.0491  0.6727  0.2014
 1880poe     o2 9596   2.504   0.729   5.457  0.0078  0.0036 -0.1630
 1880poe    c23 9597   2.551   0.605   5.410  0.0111 -0.0424 -0.0395
 1880poe    c23 9598   2.655   0.627   5.298  0.1779 -0.3980  0.0407
 1880poe     o2 9599   2.596   0.666   5.176  0.1964 -0.6002 -0.0333
 1880poe    c31 9600   2.695   0.706   5.084 -0.0308  1.0392  0.3908
 1881poe    c31 9601   2.786   3.277   5.044  0.1175  0.2179  0.1861
 1881poe     o2 9602   2.678   3.360   5.082 -0.0422  0.0140  0.1806
 1881poe    c23 9603   2.699   3.495   5.046  0.2704 -0.0796  0.0009
 1881poe    c23 9604   2.567   3.574   5.037  0.3471  0.0136 -0.3122
 1881poe     o2 9605   2.476   3.493   4.967  0.0113  0.1484 -0.0344
 1881poe    c23 9606   2.364   3.578   4.958 -0.0321  0.0471 -0.4412
 1881poe    c23 9607   2.289   3.513   4.840  0.0360  0.0946 -0.5104
 1881poe     o2 9608   2.258   3.381   4.878 -0.0859  0.3135  0.1662
 1881poe    c23 9609   2.153   3.338   4.795  0.2510 -0.0852 -0.0559
 1881poe    c23 9610   2.137   3.184   4.791 -0.1346 -0.0447 -0.1697
 1881poe     o2 9611   2.270   3.138   4.782  0.0305  0.4671 -0.4032
 1881poe    c31 9612   2.266   3.005   4.736  0.5597  0.1156  0.5471
 1882poe    c31 9613   2.477   1.311   4.346  0.2811  0.4290  0.0176
 1882poe     o2 9614   2.364   1.336   4.426  0.3189 -0.8278  0.4912
 1882poe    c23 9615   2.269   1.237   4.395 -0.2978  0.0049 -0.3206
 1882poe    c23 9616   2.145   1.288   4.470  0.0032  0.0887  0.1272
 1882poe     o2 9617   2.164   1.329   4.603 -0.1484 -0.5558  0.3539
 1882poe    c23 9618   2.061   1.417   4.644  0.1896  0.0577 -0.0989
 1882poe    c23 9619   2.122   1.552   4.688 -0.0210  0.1980 -0.2341
 1882poe     o2 9620   2.234   1.589   4.611 -0.1560  0.7152 -0.1830
 1882poe    c23 9621   2.283   1.718   4.643  0.0454  0.4708  0.5187
 1882poe    c23 9622   2.421   1.737   4.578 -0.0291 -0.4507  0.0755
 1882poe     o2 9623   2.483   1.610   4.578  0.2928 -0.2928  0.1834
 1882poe    c31 9624   2.614   1.610   4.524 -0.0246  0.2332 -0.6090
 1883poe    c31 9625   1.013   1.840   3.824  0.0147 -0.0891  0.0730
 1883poe     o2 9626   1.051   1.895   3.700 -0.5571 -0.3091 -0.2025
 1883poe    c23 9627   1.059   1.803   3.594  0.0823 -0.3179 -0.1533
 1883poe    c23 9628   1.202   1.758   3.561  0.4331  0.5454  0.1801
 1883poe     o2 9629   1.273   1.878   3.539 -0.1169  0.7940 -0.2670
 1883poe    c23 9630   1.408   1.844   3.513  0.0986  0.3350  1.3407
 1883poe    c23 9631   1.472   1.964   3.442 -0.2523 -0.3586 -0.1974
 1883poe     o2 9632   1.426   2.082   3.505  0.3135 -0.0187 -0.4122
 1883poe    c23 9633   1.504   2.196   3.477 -0.1015  0.2527 -0.4649
 1883poe    c23 9634   1.419   2.323   3.491  0.0902  0.3299  0.0137
 1883poe     o2 9635   1.372   2.318   3.624 -0.4567 -0.3876 -0.1972
 1883poe    c31 9636   1.303   2.435   3.661 -0.2028 -0.2081 -0.2904
 1884poe    c31 9637   6.494   6.198   6.554 -0.4116 -0.3869 -0.0281
 1884poe     o2 9638   6.530   6.287   6.656  0.3192 -0.4296 -0.2456
 1884poe    c23 9639   6.516   6.232   6.785  0.0294 -0.2935 -0.2194
 1884poe    c23 9640   6.643   6.168   6.843 -0.1631 -0.2523  0.2566
 1884poe     o2 9641   6.764   6.239   6.832 -0.3048 -0.0999 -0.3983
 1884poe    c23 9642   6.878   6.156   6.827 -0.2300  0.0094 -0.5346
 1884poe    c23 9643   7.001   6.240   6.866 -0.7923  0.6500 -0.1227
 1884poe     o2 9644   6.994   6.361   6.793  0.5165  0.6268 -0.2979
 1884poe    c23 9645   7.118   6.425   6.811  0.2235  0.9816  0.4857
 1884poe    c23 9646   7.165   6.500   6.685  0.1562 -0.1107 -0.1946
 1884poe     o2 9647   7.075   6.602   6.649 -0.3799 -0.3701  0.4049
 1884poe    c31 9648   7.147   6.683   6.559 -0.0411 -0.5978  0.4715
 1885poe    c31 9649   0.426   1.513   6.912 -0.3021 -0.3065 -0.0160
 1885poe     o2 9650   0.502   1.396   6.936  0.9831  0.4536 -0.2999
 1885poe    c23 9651   0.571   1.358   6.819  0.6973 -0.0424 -0.3068
 1885poe    c23 9652   0.650   1.240   6.880  0.1605 -0.4341 -0.3576
 1885poe     o2 9653   0.562   1.166   6.962 -0.0191 -0.5832 -0.6783
 1885poe    c23 9654   0.637   1.075   7.039 -0.0423  0.0156  0.0771
 1885poe    c23 9655   0.535   0.988   7.114  0.0098 -0.5897 -0.5389
 1885poe     o2 9656   0.448   1.070   7.189  0.3665  0.1649 -0.9414
 1885poe    c23 9657   0.353   0.989   7.254  0.4731  0.4887 -0.3766
 1885poe    c23 9658   0.226   1.065   7.298  0.3545  0.0160  0.1070
 1885poe     o2 9659   0.148   1.110   7.190  0.1807 -0.0665  0.1981
 1885poe    c31 9660   0.013   1.079   7.215  0.1339  0.1214  0.1767
 1886poe    c31 9661   4.287   5.796   6.972 -0.1054  0.2442  0.2241
 1886poe     o2 9662   4.225   5.775   7.096  0.3909 -0.3401  0.3753
 1886poe    c23 9663   4.203   5.636   7.108  0.2787 -0.3818 -0.3059
 1886poe    c23 9664   4.154   5.612   7.252  0.4949  0.0864 -0.1521
 1886poe     o2 9665   4.258   5.645   7.340  0.0131 -0.2787  0.5599
 1886poe    c23 9666   4.226   5.678   7.474  0.0945 -0.3268  0.5915
 1886poe    c23 9667   4.346   5.762   7.520  0.0974  0.3566 -0.6293
 1886poe     o2 9668   4.460   5.682   7.492 -0.0497 -0.0993  0.0666
 1886poe    c23 9669   4.581   5.711   7.558 -0.0828 -0.2344  0.1858
 1886poe    c23 9670   4.682   5.596   7.545 -0.0203 -0.2428  0.7099
 1886poe     o2 9671   4.710   5.593   7.407  0.1218  0.0665  0.7301
 1886poe    c31 9672   4.834   5.536   7.371  0.2356  0.8907 -0.2180
 1887poe    c31 9673   5.902   0.444   3.785  0.1461  0.5898  0.2217
 1887poe     o2 9674   5.864   0.315   3.827  0.5147  0.5148  0.3252
 1887poe    c23 9675   5.955   0.209   3.807  0.7562  0.6340  0.7794
 1887poe    c23 9676   5.934   0.085   3.895 -0.0495  0.2456  0.0470
 1887poe     o2 9677   5.954   0.111   4.032  0.5006  0.4164 -0.0662
 1887poe    c23 9678   6.088   0.115   4.077  0.4854  0.2188 -0.0037
 1887poe    c23 9679   6.097   0.148   4.227  0.1846  0.4088 -0.0253
 1887poe     o2 9680   6.064   0.036   4.306 -0.2803  0.5567 -0.0111
 1887poe    c23 9681   6.041   0.050   4.445 -0.3000 -0.1762  0.0625
 1887poe    c23 9682   5.911   0.124   4.479 -0.0591  0.2175  0.1328
 1887poe     o2 9683   5.799   0.061   4.421 -0.3178  0.3270  0.5071
 1887poe    c31 9684   5.690   0.057   4.510 -0.4810 -1.0873  0.2649
 1888poe    c31 9685   0.890   4.433   3.481 -0.0464  0.4869 -0.2175
 1888poe     o2 9686   0.777   4.479   3.409 -0.0827  0.2527 -0.3114
 1888poe    c23 9687   0.794   4.605   3.348  0.3448  0.2274 -0.2490
 1888poe    c23 9688   0.656   4.672   3.359  0.4002  0.3030 -0.0239
 1888poe     o2 9689   0.567   4.576   3.307  0.1891  0.5263 -0.0774
 1888poe    c23 9690   0.443   4.568   3.373  0.0603  0.0806 -0.3736
 1888poe    c23 9691   0.413   4.417   3.385 -0.5008  0.2695  0.7531
 1888poe     o2 9692   0.541   4.360   3.400 -0.3289  0.3892 -0.1706
 1888poe    c23 9693   0.519   4.222   3.419  0.0667  0.3704  0.1811
 1888poe    c23 9694   0.651   4.146   3.401 -0.3591 -0.2816 -0.2498
 1888poe     o2 9695   0.736   4.192   3.299  0.2620 -0.2792  0.2565
 1888poe    c31 9696   0.805   4.081   3.244  0.4908  0.0261 -0.0786
 1889poe    c31 9697   6.273   5.400   0.643  0.8628  0.3304  0.2482
 1889poe     o2 9698   6.280   5.509   0.554 -0.0236 -0.1577 -0.4315
 1889poe    c23 9699   6.327   5.619   0.629  0.1019 -0.4731 -0.0463
 1889poe    c23 9700   6.478   5.649   0.631  0.1226 -0.5762 -0.0657
 1889poe     o2 9701   6.534   5.650   0.502  0.1847 -0.5409 -0.0384
 1889poe    c23 9702   6.673   5.670   0.502  0.0988  0.0850  0.6091
 1889poe    c23 9703   6.728   5.762   0.391 -0.5262  0.2500  0.4308
 1889poe     o2 9704   6.660   5.727   0.272  0.1433 -0.0377  0.1240
 1889poe    c23 9705   6.689   5.823   0.173  0.0188  0.0164  0.1399
 1889poe    c23 9706   6.587   5.823   0.058  0.6992  0.2441 -0.4709
 1889poe     o2 9707   6.581   5.700  -0.011  0.2868  0.2852 -0.5062
 1889poe    c31 9708   6.676   5.681  -0.113  0.2971  0.1131 -0.4650
 1890poe    c31 9709   1.101   1.534   0.324 -0.1421 -0.3065  0.1207
 1890poe     o2 9710   1.196   1.454   0.392 -0.2726 -0.6449 -0.0969
 1890poe    c23 9711   1.132   1.397   0.504  0.0203 -0.7020  0.0402
 1890poe    c23 9712   1.239   1.319   0.583  0.2658 -0.4034  0.0030
 1890poe     o2 9713   1.347   1.405   0.613  0.0643 -0.1228 -0.0747
 1890poe    c23 9714   1.344   1.432   0.751 -0.4853  0.0839 -0.1236
 1890poe    c23 9715   1.418   1.560   0.795 -0.0678 -0.2588  0.1787
 1890poe     o2 9716   1.533   1.555   0.715 -0.3347  0.1345 -0.2324
 1890poe    c23 9717   1.591   1.683   0.722  1.0106 -0.5247  1.2143
 1890poe    c23 9718   1.710   1.674   0.624  0.0740 -0.9752  0.0938
 1890poe     o2 9719   1.663   1.621   0.503 -0.1246  0.1146 -0.3199
 1890poe    c31 9720   1.780   1.570   0.441 -0.1461 -0.0218 -0.2488
 1891poe    c31 9721   1.201   1.761   6.072 -0.1662  0.4059 -0.5510
 1891poe     o2 9722   1.067   1.795   6.041 -0.3546 -0.2777 -0.4861
 1891poe    c23 9723   1.048   1.915   5.969 -0.3392 -0.6057 -1.0516
 1891poe    c23 9724   0.901   1.923   5.925 -0.3455 -0.3823 -0.9930
 1891poe     o2 9725   0.797   1.940   6.018  0.3712 -0.0864 -0.2352
 1891poe    c23 9726   0.671   1.953   5.956  0.2764  0.0665 -0.0139
 1891poe    c23 9727   0.561   1.939   6.063  0.3568 -0.3888  0.0112
 1891poe     o2 9728   0.595   1.840   6.158  1.1237  0.1763  0.3423
 1891poe    c23 9729   0.509   1.847   6.270  0.6382  0.5993 -0.0518
 1891poe    c23 9730   0.599   1.804   6.387  0.0223 -0.1668  0.1485
 1891poe     o2 9731   0.735   1.839   6.370  0.2114 -0.9083  0.0747
 1891poe    c31 9732   0.808   1.844   6.491  0.5373 -0.8032 -0.1246
 1892poe    c31 9733   0.164   5.325   5.295  0.4527 -0.0512 -0.3689
 1892poe     o2 9734   0.194   5.253   5.412 -0.3547  0.0250 -0.1151
 1892poe    c23 9735   0.280   5.149   5.371 -0.1960  0.1333 -0.0524
 1892poe    c23 9736   0.304   5.037   5.474  0.2795 -0.3442 -0.6788
 1892poe     o2 9737   0.187   4.980   5.528  0.6979 -0.1384  0.4564
 1892poe    c23 9738   0.212   4.947   5.663  0.1315  0.3843  0.6956
 1892poe    c23 9739   0.099   4.860   5.721  0.6955 -0.5561  0.3992
 1892poe     o2 9740   0.047   4.943   5.822  0.3279 -0.1708 -0.1029
 1892poe    c23 9741  -0.050   4.889   5.909  1.2272 -0.4294  0.7556
 1892poe    c23 9742  -0.077   4.981   6.030  0.5462  0.5566 -0.1241
 1892poe     o2 9743   0.024   5.008   6.124  0.5114  0.1027  0.0513
 1892poe    c31 9744  -0.029   5.066   6.240 -0.1373 -0.3103 -0.0366
 1893poe    c31 9745   1.205   5.829   3.565 -0.3017  0.0819  0.2847
 1893poe     o2 9746   1.231   5.966   3.542  0.5331 -0.0573  0.3722
 1893poe    c23 9747   1.308   5.988   3.426 -0.3310  0.2911 -0.1455
 1893poe    c23 9748   1.291   6.136   3.387 -0.7479  0.5619  1.0426
 1893poe     o2 9749   1.168   6.175   3.332 -0.0194  0.0347 -1.0386
 1893poe    c23 9750   1.168   6.316   3.330  0.1109  0.0616  0.3880
 1893poe    c23 9751   1.032   6.384   3.304  0.1815  0.0051 -0.1348
 1893poe     o2 9752   0.947   6.341   3.408  0.2881  0.0643 -0.0234
 1893poe    c23 9753   0.829   6.418   3.396 -0.3150 -0.8023  0.2590
 1893poe    c23 9754   0.734   6.359   3.502 -1.1489 -0.3696 -0.2380
 1893poe     o2 9755   0.753   6.220   3.483  0.6183 -0.1620 -0.2046
 1893poe    c31 9756   0.660   6.133   3.543  0.6129  0.3966  0.6159
 1894poe    c31 9757   2.938   1.253   1.371 -0.3045 -0.4947  0.3712
 1894poe     o2 9758   2.983   1.360   1.451  0.0035 -0.1503 -0.2576
 1894poe    c23 9759   2.963   1.488   1.395  0.2038 -0.1607 -0.3507
 1894poe    c23 9760   3.052   1.586   1.475  0.7018 -0.6547 -0.2932
 1894poe     o2 9761   3.189   1.601   1.446  0.7871 -0.0680  0.3942
 1894poe    c23 9762   3.241   1.711   1.517 -0.4807  0.4274  0.5746
 1894poe    c23 9763   3.390   1.731   1.484 -0.3709 -0.6649  0.3629
 1894poe     o2 9764   3.400   1.720   1.344  0.5133 -0.0834  0.3737
 1894poe    c23 9765   3.532   1.744   1.301  0.3422 -0.0844 -0.1555
 1894poe    c23 9766   3.520   1.716   1.150 -0.2855 -0.2030 -0.0842
 1894poe     o2 9767   3.448   1.596   1.134  0.1755 -0.5219  0.2171
 1894poe    c31 9768   3.468   1.551   1.002 -0.0779  0.5624 -0.1980
 1895poe    c31 9769   6.247   1.216   2.691  0.6685 -0.0831 -0.7026
 1895poe     o2 9770   6.341   1.206   2.587  0.6367  0.2947 -0.7677
 1895poe    c23 9771   6.409   1.083   2.582  1.0274  0.4690  0.0645
 1895poe    c23 9772   6.483   1.093   2.447 -0.2233  0.1122 -0.6653
 1895poe     o2 9773   6.552   1.213   2.419 -0.2023  0.2057 -0.2124
 1895poe    c23 9774   6.646   1.206   2.315  0.5233  0.8807  0.3823
 1895poe    c23 9775   6.717   1.336   2.276 -0.3052  1.0997 -0.4339
 1895poe     o2 9776   6.765   1.387   2.398  0.3977  0.1344 -0.2991
 1895poe    c23 9777   6.832   1.511   2.387  0.5684  0.0487 -0.2373
 1895poe    c23 9778   6.863   1.567   2.528 -0.0751  0.2174 -0.1586
 1895poe     o2 9779   6.736   1.589   2.585 -0.2995  0.2239 -0.6503
 1895poe    c31 9780   6.745   1.682   2.691  0.6951  0.3909 -0.8667
 1896poe    c31 9781   2.554   3.662   0.040  0.1016 -0.4428 -0.2419
 1896poe     o2 9782   2.483   3.750   0.124  0.4294 -0.0148 -0.4054
 1896poe    c23 9783   2.567   3.851   0.174 -0.3520  0.3784  0.1381
 1896poe    c23 9784   2.506   3.929   0.292 -0.2027  0.0727  0.4165
 1896poe     o2 9785   2.375   3.965   0.256 -0.0585  0.1771 -0.0089
 1896poe    c23 9786   2.325   4.060   0.348  0.3858  0.4572 -0.0538
 1896poe    c23 9787   2.203   4.140   0.298 -0.0586 -0.1066  0.1187
 1896poe     o2 9788   2.128   4.042   0.230  0.0214 -0.4601  0.5327
 1896poe    c23 9789   2.002   4.100   0.200  0.2490 -0.2149  0.0455
 1896poe    c23 9790   1.944   3.983   0.118  0.1471  0.0082 -0.2018
 1896poe     o2 9791   2.039   3.954   0.019 -0.2026  0.1827 -0.5931
 1896poe    c31 9792   1.982   3.863  -0.072 -0.4778 -0.3056  0.0549
 1897poe    c31 9793   7.079   3.415   3.039 -0.5443  1.0024  0.4369
 1897poe     o2 9794   7.115   3.296   3.106  0.1657  0.4004 -0.9604
 1897poe    c23 9795   7.084   3.179   3.034 -0.5535 -0.5051  0.7385
 1897poe    c23 9796   6.935   3.141   3.021 -0.7774  0.5341  0.0710
 1897poe     o2 9797   6.889   3.066   3.132 -0.9898  0.3003 -0.1737
 1897poe    c23 9798   6.775   2.994   3.090 -0.1026 -1.0932 -0.2246
 1897poe    c23 9799   6.722   2.912   3.210  0.0716  0.0607  0.6583
 1897poe     o2 9800   6.788   2.800   3.264 -0.4575 -0.2887  0.5832
 1897poe    c23 9801   6.917   2.816   3.319 -0.2674 -0.1724  0.1085
 1897poe    c23 9802   6.925   2.844   3.471  0.1899  0.6189 -0.0566
 1897poe     o2 9803   6.858   2.958   3.521 -0.5577  0.2383 -0.1791
 1897poe    c31 9804   6.844   2.944   3.661  0.3252  0.8003 -0.0280
 1898poe    c31 9805   2.865   4.060   1.902  0.4700  0.9040  0.1411
 1898poe     o2 9806   2.930   4.146   1.812  0.8708  0.4780  0.0243
 1898poe    c23 9807   3.028   4.093   1.725  0.1427  0.0542 -0.5442
 1898poe    c23 9808   3.097   4.200   1.639 -0.0151  0.1964 -0.4940
 1898poe     o2 9809   3.176   4.275   1.729 -0.3447  0.0491 -0.0780
 1898poe    c23 9810   3.279   4.346   1.663 -0.4818  0.3781  0.0591
 1898poe    c23 9811   3.364   4.416   1.771 -0.1503  0.0428  0.0138
 1898poe     o2 9812   3.268   4.479   1.852 -0.0565  0.0467  0.1227
 1898poe    c23 9813   3.314   4.591   1.924 -0.0096  0.4399 -0.5026
 1898poe    c23 9814   3.201   4.604   2.028  0.5532 -0.0300  0.1757
 1898poe     o2 9815   3.085   4.607   1.949  0.5705  0.5534  0.1656
 1898poe    c31 9816   2.978   4.650   2.030  0.5193  0.6100  0.0673
 1899poe    c31 9817   3.352   0.054   6.090  0.3753 -0.3280 -0.5574
 1899poe     o2 9818   3.457   0.121   6.156 -0.4462  0.6422 -0.2077
 1899poe    c23 9819   3.473   0.086   6.292 -0.1310  0.1161 -0.3763
 1899poe    c23 9820   3.521   0.206   6.376  0.5652 -0.3217 -0.1358
 1899poe     o2 9821   3.608   0.289   6.303  0.2301 -0.1572 -0.3498
 1899poe    c23 9822   3.665   0.398   6.372 -0.2602 -0.1016 -0.0259
 1899poe    c23 9823   3.764   0.474   6.281  0.2784 -0.0320  0.6135
 1899poe     o2 9824   3.708   0.477   6.152 -0.0843  0.0649  0.7695
 1899poe    c23 9825   3.783   0.541   6.051 -0.3941 -0.2442  0.3402
 1899poe    c23 9826   3.708   0.509   5.920  0.0829  0.2600 -0.0636
 1899poe     o2 9827   3.575   0.554   5.905 -0.0744 -0.2625 -0.2414
 1899poe    c31 9828   3.535   0.518   5.774  0.3055  0.2932 -0.5130
 1900poe    c31 9829   1.070   5.811   0.724  0.7687 -0.4022 -0.5082
 1900poe     o2 9830   0.994   5.708   0.666  0.1410 -0.2461  0.0251
 1900poe    c23 9831   1.018   5.691   0.528  0.0177 -0.7188  0.0601
 1900poe    c23 9832   0.939   5.571   0.471 -0.3970 -0.2881 -0.2869
 1900poe     o2 9833   0.802   5.588   0.446 -0.2715  0.2797 -0.6170
 1900poe    c23 9834   0.709   5.568   0.551  0.0327  0.3479 -0.3338
 1900poe    c23 9835   0.558   5.548   0.527 -0.0442  0.1117  0.3210
 1900poe     o2 9836   0.550   5.452   0.424  0.4128  0.3234  0.0810
 1900poe    c23 9837   0.428   5.384   0.445  0.4154  0.2827 -0.0393
 1900poe    c23 9838   0.404   5.277   0.336  0.2929 -0.2224  0.4805
 1900poe     o2 9839   0.535   5.235   0.306  0.1234 -0.1472 -0.3724
 1900poe    c31 9840   0.523   5.128   0.215 -0.3041  0.0682 -0.5700
 1901poe    c31 9841   2.117   4.265   5.122  0.1932  0.1576 -0.7128
 1901poe     o2 9842   1.979   4.249   5.147  0.3428 -0.0657 -0.0016
 1901poe    c23 9843   1.957   4.192   5.274  0.0030  0.0888  0.0111
 1901poe    c23 9844   1.807   4.168   5.298  0.0510  0.4443  0.6992
 1901poe     o2 9845   1.762   4.057   5.224  0.3824  0.6338  0.2056
 1901poe    c23 9846   1.621   4.059   5.223  0.3630 -0.2848  0.0713
 1901poe    c23 9847   1.572   3.989   5.095 -0.0175  0.0716  0.0195
 1901poe     o2 9848   1.628   4.049   4.981 -0.2683  0.6314  0.1859
 1901poe    c23 9849   1.558   4.021   4.861  0.8953 -0.8451 -0.1844
 1901poe    c23 9850   1.629   4.085   4.740 -0.4679 -0.1655 -0.6361
 1901poe     o2 9851   1.622   4.224   4.757 -0.4351 -0.1956 -0.3801
 1901poe    c31 9852   1.582   4.263   4.628  0.0173  0.6427 -0.2819
 1902poe    c31 9853   5.139   6.780   2.790  0.0727 -0.3864 -0.2821
 1902poe     o2 9854   5.054   6.874   2.852  0.5873 -0.1946  0.1331
 1902poe    c23 9855   5.055   6.879   2.993  0.1827  0.4959  0.1141
 1902poe    c23 9856   4.989   6.757   3.060  0.4347  0.3374  0.0725
 1902poe     o2 9857   4.853   6.747   3.024  0.5575  0.1251 -0.3360
 1902poe    c23 9858   4.800   6.632   3.086  0.4000  0.4195  0.0776
 1902poe    c23 9859   4.647   6.650   3.086  0.3142 -0.2107 -0.6268
 1902poe     o2 9860   4.604   6.702   2.963  0.2428 -0.4365 -0.6970
 1902poe    c23 9861   4.467   6.690   2.931 -0.0348  0.3777  0.1343
 1902poe    c23 9862   4.455   6.758   2.793 -0.3745  0.4021  0.1772
 1902poe     o2 9863   4.538   6.872   2.789  0.1222  0.0388  0.1287
 1902poe    c31 9864   4.510   6.928   2.662 -0.1031 -0.1450  0.0958
 1903poe    c31 9865   5.407   5.770   6.081  0.5801  0.1305 -0.2355
 1903poe     o2 9866   5.385   5.680   5.975 -0.4893 -0.4425  0.4449
 1903poe    c23 9867   5.487   5.700   5.880 -0.5913 -0.4370  0.3352
 1903poe    c23 9868   5.467   5.593   5.770 -0.3141 -0.4039  0.2505
 1903poe     o2 9869   5.337   5.591   5.716 -0.3503  0.0453  0.3147
 1903poe    c23 9870   5.304   5.475   5.643  0.3331 -0.1283  0.2732
 1903poe    c23 9871   5.150   5.463   5.644  0.2711  0.6486  0.2750
 1903poe     o2 9872   5.115   5.447   5.779 -0.0128  0.5227  0.1868
 1903poe    c23 9873   4.977   5.421   5.782  0.0770 -0.0330 -0.4026
 1903poe    c23 9874   4.913   5.443   5.920  0.3899  0.0560 -0.2740
 1903poe     o2 9875   4.939   5.572   5.971 -0.6228  0.1948 -0.1034
 1903poe    c31 9876   4.879   5.603   6.095  0.3213 -0.7820  0.6134
 1904poe    c31 9877   5.585   5.400   4.506 -0.9233  0.8981  0.1668
 1904poe     o2 9878   5.624   5.382   4.640  0.8593  0.4770 -0.3694
 1904poe    c23 9879   5.612   5.509   4.700 -0.8613  0.1486  0.0362
 1904poe    c23 9880   5.621   5.498   4.853  0.0982 -0.0066 -0.0270
 1904poe     o2 9881   5.716   5.397   4.880 -0.0253 -0.0655  0.1951
 1904poe    c23 9882   5.742   5.400   5.019 -0.6678 -0.2901  0.3222
 1904poe    c23 9883   5.836   5.280   5.041  0.0811  0.1583 -0.3581
 1904poe     o2 9884   5.766   5.165   4.999  0.0946  0.1534 -0.3672
 1904poe    c23 9885   5.815   5.035   5.022  0.0587  0.2186  0.0822
 1904poe    c23 9886   5.869   4.975   4.891  0.1167  0.3134  0.0618
 1904poe     o2 9887   5.780   4.933   4.790 -0.0740 -0.6928  0.6426
 1904poe    c31 9888   5.834   4.837   4.702  0.5135 -0.0771  0.3195
 1905poe    c31 9889   1.582   0.217   1.272  0.3231 -0.3313 -0.3470
 1905poe     o2 9890   1.653   0.298   1.363 -0.4427  0.1510 -0.1669
 1905poe    c23 9891   1.698   0.409   1.289 -0.7546  0.4413  0.0747
 1905poe    c23 9892   1.762   0.516   1.379  0.0487 -0.1804  0.2577
 1905poe     o2 9893   1.870   0.447   1.437  0.3684  0.1838  0.0935
 1905poe    c23 9894   1.978   0.538   1.429 -0.0012  0.5504 -0.8392
 1905poe    c23 9895   2.104   0.461   1.473 -0.2547  0.3989 -0.3694
 1905poe     o2 9896   2.105   0.343   1.397  0.0902  0.0202  0.2198
 1905poe    c23 9897   2.229   0.274   1.393  0.2810  0.3869 -0.3697
 1905poe    c23 9898   2.237   0.145   1.311 -0.0555 -0.1695  0.4573
 1905poe     o2 9899   2.133   0.056   1.344  0.1769 -0.4857  0.3455
 1905poe    c31 9900   2.112  -0.017   1.225 -0.2607 -0.4007  0.3687
 1906poe    c31 9901   2.917   6.800   3.585 -0.3853 -0.2364 -0.1116
 1906poe     o2 9902   2.873   6.702   3.676 -0.5439  0.1487  0.2326
 1906poe    c23 9903   2.896   6.572   3.625 -0.1380  0.0381  0.6893
 1906poe    c23 9904   2.832   6.483   3.734 -0.3404 -0.0699  0.4832
 1906poe     o2 9905   2.707   6.543   3.759 -0.5737 -0.1343 -0.4716
 1906poe    c23 9906   2.642   6.459   3.852 -0.3117 -0.0719 -0.2278
 1906poe    c23 9907   2.586   6.553   3.960  0.2204 -0.0051 -0.0110
 1906poe     o2 9908   2.610   6.690   3.933  0.4003  0.0562  0.4440
 1906poe    c23 9909   2.601   6.771   4.048 -0.1726 -0.2187  0.5951
 1906poe    c23 9910   2.698   6.882   4.004  0.1171 -0.5177  0.4797
 1906poe     o2 9911   2.805   6.837   3.924  0.1032 -0.1061  0.2272
 1906poe    c31 9912   2.928   6.865   3.988  0.2411  0.2889 -0.2005
 1907poe    c31 9913   6.717   6.470   3.169  0.0671  0.2096 -0.0881
 1907poe     o2 9914   6.627   6.578   3.173  0.0639  0.2089 -0.1282
 1907poe    c23 9915   6.701   6.695   3.198 -0.0698  0.3641 -0.4573
 1907poe    c23 9916   6.623   6.823   3.234  0.0588  0.3348 -0.0680
 1907poe     o2 9917   6.528   6.825   3.130 -0.2189 -0.6097  0.1595
 1907poe    c23 9918   6.420   6.908   3.169 -0.0109 -0.5608  0.6322
 1907poe    c23 9919   6.339   6.950   3.045 -0.0661 -0.1290  0.8157
 1907poe     o2 9920   6.253   6.850   2.996 -0.1156  0.4692 -0.3618
 1907poe    c23 9921   6.222   6.886   2.864  0.0191 -0.3207 -0.6121
 1907poe    c23 9922   6.103   6.798   2.820 -0.1719 -0.4695  0.1820
 1907poe     o2 9923   6.132   6.661   2.822  0.1888 -0.3964 -0.0831
 1907poe    c31 9924   6.046   6.602   2.727 -0.1704 -0.1026  0.0574
 1908poe    c31 9925   2.902   7.099   4.726  0.3496 -0.0458 -0.4162
 1908poe     o2 9926   2.929   7.231   4.767 -0.0053 -0.1384  0.1252
 1908poe    c23 9927   2.861   7.330   4.693 -0.2311 -0.0772  0.4122
 1908poe    c23 9928   2.917   7.469   4.730  0.1201 -0.1474  0.1515
 1908poe     o2 9929   3.058   7.476   4.731  0.1084  0.1823 -0.4417
 1908poe    c23 9930   3.101   7.549   4.618 -0.0512  0.2977 -0.4294
 1908poe    c23 9931   3.205   7.650   4.669 -0.0703 -0.1616  0.5416
 1908poe     o2 9932   3.309   7.578   4.733  0.2416 -0.0390  0.1766
 1908poe    c23 9933   3.371   7.659   4.831 -0.4750  0.1162  0.5093
 1908poe    c23 9934   3.450   7.557   4.915 -0.1515  0.4984  0.6700
 1908poe     o2 9935   3.373   7.441   4.936  0.0288  0.2732  0.1147
 1908poe    c31 9936   3.418   7.390   5.059  0.4248  0.1390 -0.0834
 1909poe    c31 9937   4.787   1.956   6.358 -0.1569  0.6677  0.0038
 1909poe     o2 9938   4.696   1.915   6.458 -0.0527 -0.2837 -0.2768
 1909poe    c23 9939   4.627   1.811   6.393 -0.3402 -0.4384  0.2729
 1909poe    c23 9940   4.522   1.758   6.492 -0.1536  0.2110  0.8207
 1909poe     o2 9941   4.586   1.742   6.617  0.2974  0.0825  0.5740
 1909poe    c23 9942   4.509   1.655   6.696 -0.0274  0.2928  0.4928
 1909poe    c23 9943   4.586   1.614   6.823 -0.2186 -0.4613  0.3688
 1909poe     o2 9944   4.563   1.730   6.899 -0.4553  0.2062 -0.7009
 1909poe    c23 9945   4.660   1.741   7.000 -1.0272  0.7312 -0.2014
 1909poe    c23 9946   4.626   1.861   7.091 -0.1348  0.4998  0.4540
 1909poe     o2 9947   4.627   1.979   7.015  0.1760  0.2617  0.0863
 1909poe    c31 9948   4.535   2.067   7.077 -0.2361 -0.2552  0.2166
 1910poe    c31 9949   1.496   7.084   0.767 -0.1103  0.2772 -0.0850
 1910poe     o2 9950   1.366   7.069   0.715  0.0400 -0.0119 -0.3818
 1910poe    c23 9951   1.284   7.109   0.822 -0.2109 -0.3130 -0.4620
 1910poe    c23 9952   1.168   7.009   0.847 -0.1110 -0.2820  0.1552
 1910poe     o2 9953   1.096   6.976   0.730  0.0222  0.3645 -0.1165
 1910poe    c23 9954   1.028   6.854   0.750 -0.2279  0.4317 -0.5440
 1910poe    c23 9955   0.951   6.833   0.619  0.0460  0.0594 -0.6479
 1910poe     o2 9956   1.056   6.852   0.526  0.2623  0.3171 -0.3528
 1910poe    c23 9957   1.016   6.778   0.413 -0.4806  0.0788  0.0518
 1910poe    c23 9958   1.043   6.857   0.283  0.3721  0.1939  0.2876
 1910poe     o2 9959   1.183   6.855   0.285  0.3857 -0.0719 -0.6210
 1910poe    c31 9960   1.224   6.831   0.152 -0.3577 -0.2561 -0.8171
 1911poe    c31 9961   1.343   3.177   3.638 -0.7002 -0.0475  0.4377
 1911poe     o2 9962   1.359   3.115   3.763  0.2873  0.0739  0.3778
 1911poe    c23 9963   1.289   3.170   3.873 -0.2779 -0.2170  0.1626
 1911poe    c23 9964   1.320   3.091   4.001 -0.2119 -0.8641 -0.2463
 1911poe     o2 9965   1.456   3.059   3.988  0.1364  0.3474  0.2800
 1911poe    c23 9966   1.496   3.003   4.111 -0.0834 -0.9065 -0.1956
 1911poe    c23 9967   1.647   3.006   4.140 -0.0548  0.4325 -0.4035
 1911poe     o2 9968   1.719   2.907   4.070 -0.0991 -0.3603  0.6500
 1911poe    c23 9969   1.848   2.947   4.031 -0.4463  0.1405 -0.0062
 1911poe    c23 9970   1.903   2.855   3.920 -0.1912  0.1579  0.1054
 1911poe     o2 9971   1.826   2.842   3.803 -0.0430  0.4989 -0.0320
 1911poe    c31 9972   1.887   2.761   3.704  0.5841  0.1641  0.6168
 1912poe    c31 9973   3.152   5.360   3.017  0.1519 -0.0128  0.6358
 1912poe     o2 9974   3.136   5.477   2.941 -0.0957 -0.2170  0.3715
 1912poe    c23 9975   3.105   5.586   3.025 -0.0807 -0.2488  0.4176
 1912poe    c23 9976   2.996   5.680   2.969  0.2786  0.0287  0.1811
 1912poe     o2 9977   3.039   5.706   2.837 -0.0210  0.1124  0.0993
 1912poe    c23 9978   2.942   5.763   2.753 -0.3026  0.0885  0.4049
 1912poe    c23 9979   2.996   5.830   2.625 -0.3173 -0.4043  0.1395
 1912poe     o2 9980   3.044   5.727   2.541 -0.0500 -0.3864  0.2700
 1912poe    c23 9981   3.075   5.759   2.408 -0.0046 -0.3810  0.2819
 1912poe    c23 9982   3.121   5.630   2.339  0.0140 -0.3700  0.2735
 1912poe     o2 9983   3.194   5.563   2.439 -0.0722 -0.6284  0.1672
 1912poe    c31 9984   3.262   5.454   2.382  0.3665 -0.3121  0.0714
 1913poe    c31 9985   1.465   3.068   2.530  0.5147 -0.1373  0.4322
 1913poe     o2 9986   1.448   3.190   2.461 -0.1022 -0.3387  0.2247
 1913poe    c23 9987   1.364   3.272   2.540 -0.5412 -0.3282 -0.2487
 1913poe    c23 9988   1.320   3.413   2.495 -0.7683 -0.3871 -0.2083
 1913poe     o2 9989   1.228   3.477   2.581 -0.0838 -0.1057  0.3157
 1913poe    c23 9990   1.196   3.607   2.538 -0.0844  0.0501  0.7737
 1913poe    c23 9991   1.061   3.670   2.576 -0.2230  0.1935  0.0685
 1913poe     o2 9992   1.057   3.739   2.699 -0.2684  0.0733  0.1353
 1913poe    c23 9993   1.085   3.877   2.693  1.0817 -0.1902  0.0401
 1913poe    c23 9994   1.148   3.952   2.812  0.0297 -0.3425  0.7025
 1913poe     o2 9995   1.083   3.950   2.937  0.1532 -0.1789  0.7697
 1913poe    c31 9996   1.162   4.027   3.025 -0.0354  0.4008  0.4337
 1914poe    c31 9997   4.148   0.166   0.463 -0.3492  0.1251 -0.1462
 1914poe     o2 9998   4.029   0.235   0.492 -0.2982 -0.0538  0.5064
 1914poe    c23 9999   3.959   0.164   0.592 -0.4374  0.1006  0.5197
 1914poe    c2310000   3.840   0.257   0.620 -0.0218  0.6185  0.5719
 1914poe     o210001   3.787   0.313   0.502 -0.1534  0.1386  0.4022
 1914poe    c2310002   3.662   0.374   0.526 -0.2191  0.2159 -0.1236
 1914poe    c2310003   3.624   0.449   0.397  0.6476  0.1088 -0.4496
 1914poe     o210004   3.608   0.369   0.282  0.2432  0.2479 -0.4930
 1914poe    c2310005   3.569   0.444   0.169 -0.7551 -0.0207 -0.3340
 1914poe    c2310006   3.619   0.388   0.035 -0.7119 -0.3794 -0.1692
 1914poe     o210007   3.756   0.355   0.031 -0.5795  0.1044  0.3474
 1914poe    c3110008   3.801   0.344  -0.102 -0.1013 -0.4572  0.5510
 1915poe    c3110009   0.854   6.871   7.039  0.1977 -0.0185  0.4403
 1915poe     o210010   0.911   6.983   7.104 -0.1612  0.8195 -0.6603
 1915poe    c2310011   1.012   7.038   7.022  0.4111  0.0373 -0.4908
 1915poe    c2310012   1.040   7.185   7.060 -0.3188  0.1085 -0.2136
 1915poe     o210013   0.925   7.266   7.051 -0.1378  0.3496 -0.3490
 1915poe    c2310014   0.957   7.383   7.122 -0.1219 -0.0721  0.3476
 1915poe    c2310015   0.841   7.485   7.116 -0.0385  0.0176  0.2304
 1915poe     o210016   0.729   7.419   7.172  0.1281  0.0250  0.5745
 1915poe    c2310017   0.623   7.511   7.185  0.2017  0.1528  0.2683
 1915poe    c2310018   0.491   7.440   7.220  0.4526 -0.1793  0.5439
 1915poe     o210019   0.474   7.336   7.126  0.3717 -0.0648  0.4304
 1915poe    c3110020   0.344   7.298   7.087  0.4666  0.2987 -0.2454
 1916poe    c3110021   7.110   1.971   5.822  0.0458 -0.2085 -0.0311
 1916poe     o210022   7.162   1.883   5.920  0.3881 -0.3161 -0.3062
 1916poe    c2310023   7.300   1.900   5.944  0.2202  0.5883  0.0855
 1916poe    c2310024   7.376   1.793   6.026 -0.1016 -0.1289 -0.5339
 1916poe     o210025   7.375   1.660   5.980  0.2400 -0.1479 -0.4854
 1916poe    c2310026   7.469   1.582   6.051 -0.1220  0.2318  0.4246
 1916poe    c2310027   7.450   1.433   6.021  0.7232  0.2026 -0.0046
 1916poe     o210028   7.416   1.410   5.886 -0.5442  0.4930  0.2461
 1916poe    c2310029   7.398   1.272   5.862  1.1129  0.3435 -0.3125
 1916poe    c2310030   7.349   1.276   5.716 -0.0237  0.0611  0.0518
 1916poe     o210031   7.253   1.380   5.717 -0.0772  0.0127  0.0093
 1916poe    c3110032   7.165   1.354   5.610 -0.4381 -0.0087  0.3112
 1917poe    c3110033   1.948   4.324   6.057 -0.0171 -0.0141 -0.3922
 1917poe     o210034   1.875   4.354   6.174  0.1960  0.1230 -0.2959
 1917poe    c2310035   1.747   4.388   6.128  0.1576  0.5736  0.1329
 1917poe    c2310036   1.640   4.409   6.237  0.0419 -0.0379  0.1408
 1917poe     o210037   1.718   4.459   6.342  0.2943 -0.0265 -0.0525
 1917poe    c2310038   1.643   4.505   6.453 -0.0567 -0.1151 -0.2530
 1917poe    c2310039   1.755   4.555   6.546  0.3023  0.0591 -0.7685
 1917poe     o210040   1.868   4.472   6.529  0.4048 -0.0500  0.3575
 1917poe    c2310041   1.986   4.471   6.607  0.5393 -0.0362  0.1541
 1917poe    c2310042   2.036   4.331   6.568 -0.4455 -0.4717  0.4159
 1917poe     o210043   2.006   4.296   6.435 -0.0295 -0.3988  0.3016
 1917poe    c3110044   2.034   4.158   6.424  0.5304 -0.2775  0.1467
 1918poe    c3110045   5.849   3.733   1.823 -0.0917  0.1185 -0.2164
 1918poe     o210046   5.732   3.806   1.853  0.1979  0.4110  0.2089
 1918poe    c2310047   5.688   3.764   1.980 -0.1171 -0.1943 -0.0980
 1918poe    c2310048   5.539   3.787   2.012  0.0183  0.0189  0.3817
 1918poe     o210049   5.499   3.923   2.008 -0.1228 -0.0317  0.0203
 1918poe    c2310050   5.360   3.944   2.000 -0.0785  0.2556 -0.0071
 1918poe    c2310051   5.325   4.093   2.006  0.4592  0.3892 -0.1469
 1918poe     o210052   5.396   4.158   1.903  0.1309  0.1728 -0.5077
 1918poe    c2310053   5.345   4.289   1.898 -0.6015 -0.0608  0.4770
 1918poe    c2310054   5.444   4.387   1.833 -0.2151 -0.7239  0.0466
 1918poe     o210055   5.573   4.363   1.885 -0.2588 -0.7124  0.1609
 1918poe    c3110056   5.663   4.456   1.828 -0.6940 -0.0710  0.5162
 1919poe    c3110057   3.619   3.622   0.836 -0.3045  0.1226  0.1049
 1919poe     o210058   3.561   3.682   0.950  0.1498  0.0782  0.3599
 1919poe    c2310059   3.600   3.817   0.951  0.3471  0.0221  0.3268
 1919poe    c2310060   3.624   3.880   1.090  0.1068 -0.2294  0.4844
 1919poe     o210061   3.731   3.820   1.160  0.4893 -0.2584 -0.1118
 1919poe    c2310062   3.778   3.898   1.267  0.0670  0.2527 -0.2955
 1919poe    c2310063   3.925   3.872   1.304  0.0273  0.2914 -0.1071
 1919poe     o210064   4.018   3.913   1.206  0.2651  0.3822  0.1544
 1919poe    c2310065   4.152   3.881   1.237  0.3257  0.4949  0.0110
 1919poe    c2310066   4.234   3.934   1.356  0.1587  0.2678  0.2302
 1919poe     o210067   4.240   4.075   1.367  0.0885  0.2775  0.1410
 1919poe    c3110068   4.263   4.119   1.499 -0.2034 -0.3157  0.3935
 1920poe    c3110069   1.499   4.473   3.233 -0.1148 -0.4401 -0.6713
 1920poe     o210070   1.527   4.544   3.352 -0.1708 -0.1843 -0.8116
 1920poe    c2310071   1.582   4.671   3.326 -0.6232  0.1579 -0.1155
 1920poe    c2310072   1.632   4.747   3.450 -0.3624  0.6458 -0.5154
 1920poe     o210073   1.516   4.767   3.528 -0.1634 -0.5073  0.0982
 1920poe    c2310074   1.550   4.857   3.632 -0.4958 -0.4954  0.1976
 1920poe    c2310075   1.424   4.914   3.699  0.1496  0.2158  0.8126
 1920poe     o210076   1.360   4.809   3.768 -0.4717 -0.2419 -0.4328
 1920poe    c2310077   1.261   4.827   3.867  0.7456  0.6810  0.6525
 1920poe    c2310078   1.236   4.692   3.936  0.2149  0.3729 -0.1254
 1920poe     o210079   1.251   4.593   3.837  0.3012  0.1657  0.0915
 1920poe    c3110080   1.221   4.470   3.898  0.5774  0.4412  0.7906
 1921poe    c3110081   6.302   0.819   1.465 -0.1175 -0.5530 -0.2897
 1921poe     o210082   6.387   0.710   1.435  0.7658  0.0343  0.0083
 1921poe    c2310083   6.326   0.585   1.409  0.0512  0.2096  0.8014
 1921poe    c2310084   6.395   0.478   1.323  0.1405  0.3489  0.6987
 1921poe     o210085   6.520   0.431   1.369  0.4470  0.4000 -0.0701
 1921poe    c2310086   6.565   0.339   1.272 -0.2813 -0.4790  0.4041
 1921poe    c2310087   6.698   0.378   1.205 -0.4054 -0.9585 -0.1294
 1921poe     o210088   6.765   0.391   1.328  0.2521  0.5972 -0.6189
 1921poe    c2310089   6.898   0.434   1.314  0.6233 -0.3684 -0.1590
 1921poe    c2310090   6.949   0.422   1.459  0.1364 -0.2077  0.0252
 1921poe     o210091   6.847   0.479   1.538  0.4912  0.8969 -0.3036
 1921poe    c3110092   6.894   0.480   1.671  0.2695  0.1656 -0.2133
 1922poe    c3110093   6.885   1.821   6.544 -0.7828  0.5629  0.3094
 1922poe     o210094   6.887   1.919   6.443 -0.1529  0.4418  0.1953
 1922poe    c2310095   7.015   1.978   6.450  0.1984 -0.2912  0.0355
 1922poe    c2310096   6.974   2.114   6.390  0.2540 -0.3554 -0.1468
 1922poe     o210097   6.915   2.074   6.268 -0.6432  0.0104  0.1631
 1922poe    c2310098   6.912   2.178   6.174 -0.2146 -0.1514 -0.0332
 1922poe    c2310099   6.768   2.205   6.128 -0.1778  0.5090  0.2260
 1922poe     o210100   6.706   2.080   6.113  0.1178  0.4424 -0.4867
 1922poe    c2310101   6.600   2.090   6.021 -1.0494  0.4398  0.8247
 1922poe    c2310102   6.594   1.963   5.934  0.5319  0.2704  0.9415
 1922poe     o210103   6.709   1.952   5.853 -0.0661 -0.3995  0.1698
 1922poe    c3110104   6.734   1.822   5.806 -0.0006 -0.1833 -0.4089
 1923poe    c3110105   6.761   2.630   4.199  0.3258  0.0453 -0.5971
 1923poe     o210106   6.664   2.605   4.100 -0.6248 -0.4527  0.4460
 1923poe    c2310107   6.537   2.578   4.157 -1.0605 -0.2312 -0.4052
 1923poe    c2310108   6.445   2.697   4.189 -0.3443  0.3097 -0.3322
 1923poe     o210109   6.450   2.744   4.322  0.3192  0.3112 -0.3536
 1923poe    c2310110   6.383   2.658   4.412  0.2927  0.0871 -0.5864
 1923poe    c2310111   6.454   2.676   4.547  0.2987 -0.0613 -0.5700
 1923poe     o210112   6.443   2.811   4.587  0.4602 -0.2038 -0.0386
 1923poe    c2310113   6.509   2.820   4.712  0.4800 -0.9833  0.0152
 1923poe    c2310114   6.561   2.964   4.731 -0.1183 -0.6211 -0.9901
 1923poe     o210115   6.462   3.061   4.705  0.1801  0.0974  0.4361
 1923poe    c3110116   6.527   3.182   4.737 -0.3568  0.4249  0.3092
 1924poe    c3110117   1.484   6.490   0.452 -0.0756  0.0614  0.1783
 1924poe     o210118   1.594   6.478   0.364  0.1070 -0.1429  0.4362
 1924poe    c2310119   1.655   6.597   0.319 -0.0846 -0.2053  0.0121
 1924poe    c2310120   1.728   6.557   0.190 -0.2322  1.4315 -0.6044
 1924poe     o210121   1.644   6.524   0.082 -0.1642 -0.8486 -0.0214
 1924poe    c2310122   1.706   6.510  -0.044 -0.0943  0.3424 -0.1297
 1924poe    c2310123   1.609   6.463  -0.154 -0.0818  0.1905 -0.0756
 1924poe     o210124   1.568   6.329  -0.148 -0.2503  0.2578  0.3338
 1924poe    c2310125   1.499   6.277  -0.259 -0.7128  0.1644  0.6605
 1924poe    c2310126   1.464   6.127  -0.249  0.4659 -0.1831 -0.0933
 1924poe     o210127   1.378   6.105  -0.139  0.1162  0.4343 -0.2398
 1924poe    c3110128   1.306   5.989  -0.177  0.0173  0.2272  0.5662
 1925poe    c3110129   1.784   0.092   5.522 -0.0577 -0.3958 -0.2021
 1925poe     o210130   1.901   0.041   5.461  0.2062  0.2011 -0.2063
 1925poe    c2310131   2.017   0.086   5.527 -0.1901  0.4511  0.3292
 1925poe    c2310132   2.143   0.034   5.456 -0.5759 -0.3163  0.1925
 1925poe     o210133   2.121  -0.088   5.389 -0.7036 -0.3326  0.2646
 1925poe    c2310134   2.223  -0.130   5.301 -0.3236  0.1993  0.4477
 1925poe    c2310135   2.210  -0.282   5.278 -0.5978  0.3580 -0.4808
 1925poe     o210136   2.083  -0.321   5.230 -0.3332 -0.1449 -0.7708
 1925poe    c2310137   2.097  -0.461   5.220 -0.1378 -0.1968  0.1033
 1925poe    c2310138   1.971  -0.530   5.165 -0.2232 -0.1385  0.2263
 1925poe     o210139   1.965  -0.503   5.027  0.2884 -0.3160  0.1714
 1925poe    c3110140   1.854  -0.572   4.975  0.6068 -0.2482 -0.6120
 1926poe    c3110141   6.161   5.521   3.295  0.3514 -0.6908 -1.2339
 1926poe     o210142   6.192   5.393   3.346  0.0141 -0.3697 -0.2219
 1926poe    c2310143   6.241   5.419   3.476  0.2978 -0.3198 -0.3385
 1926poe    c2310144   6.248   5.291   3.561  0.7081  0.2578  0.5220
 1926poe     o210145   6.288   5.195   3.466 -0.8607  0.0896 -0.0097
 1926poe    c2310146   6.269   5.065   3.517  0.1525 -0.0705 -0.0050
 1926poe    c2310147   6.280   4.976   3.392 -0.1508  0.0399 -0.1134
 1926poe     o210148   6.240   5.033   3.270  0.4291  0.4328 -0.1244
 1926poe    c2310149   6.114   4.982   3.232  0.6045  0.0457 -0.1844
 1926poe    c2310150   6.039   5.087   3.150  0.6216  0.0272 -0.2240
 1926poe     o210151   6.040   5.204   3.229  0.0603 -0.0603 -0.0826
 1926poe    c3110152   5.919   5.274   3.212  0.2003  0.2734  0.2981
 1927poe    c3110153   1.797   3.752   0.375  0.3193 -0.0556 -0.2148
 1927poe     o210154   1.825   3.619   0.411  0.2534 -0.0431 -0.1157
 1927poe    c2310155   1.782   3.537   0.305 -1.1226 -0.6398  0.8663
 1927poe    c2310156   1.809   3.385   0.314 -0.1267 -0.5302  0.0456
 1927poe     o210157   1.945   3.351   0.300  0.0776  0.3179 -0.1094
 1927poe    c2310158   1.978   3.222   0.348  0.0826  0.4972  0.3796
 1927poe    c2310159   2.121   3.187   0.303 -0.1554 -0.1242  0.0939
 1927poe     o210160   2.219   3.279   0.347  0.0471 -0.3115  0.0342
 1927poe    c2310161   2.295   3.218   0.450  0.0213 -0.1739  0.1345
 1927poe    c2310162   2.440   3.182   0.417  0.1503 -0.4114  0.9303
 1927poe     o210163   2.511   3.302   0.396 -0.3982 -0.2947 -0.3643
 1927poe    c3110164   2.651   3.286   0.407 -0.4068  0.1301  0.4127
 1928poe    c3110165   6.582   6.638   3.609  0.7400  0.3833  0.0938
 1928poe     o210166   6.567   6.613   3.747 -0.4512 -0.0251 -0.0968
 1928poe    c2310167   6.447   6.664   3.803 -0.0898  0.3270  0.3686
 1928poe    c2310168   6.401   6.573   3.918  0.1374  0.3968  0.5150
 1928poe     o210169   6.524   6.542   3.980  0.3977 -0.5571 -0.4423
 1928poe    c2310170   6.514   6.506   4.116  0.3111 -0.0384 -0.3058
 1928poe    c2310171   6.654   6.492   4.177  0.0764 -0.2436  0.1935
 1928poe     o210172   6.740   6.476   4.066  0.1441  0.4918  0.1384
 1928poe    c2310173   6.842   6.384   4.096 -0.4253  0.0535  0.7338
 1928poe    c2310174   6.794   6.237   4.097 -0.3531  0.0281  0.2743
 1928poe     o210175   6.759   6.208   3.963  0.1767  0.1896  0.0971
 1928poe    c3110176   6.714   6.074   3.964 -0.4038  0.3861  0.2535
 1929poe    c3110177   0.012   4.500   2.070 -0.4170  0.2128  0.3263
 1929poe     o210178  -0.002   4.402   2.170 -0.6487 -0.0937 -0.0033
 1929poe    c2310179  -0.134   4.352   2.170 -0.5524 -0.3525 -0.5141
 1929poe    c2310180  -0.162   4.290   2.309  0.1482  0.5240  0.0287
 1929poe     o210181  -0.074   4.183   2.334 -0.1663  0.2521 -0.0335
 1929poe    c2310182  -0.021   4.159   2.462  0.2694 -0.4714 -0.3379
 1929poe    c2310183   0.105   4.245   2.481  0.3920 -0.7351  0.0638
 1929poe     o210184   0.217   4.170   2.442  1.0087  0.3226 -0.2260
 1929poe    c2310185   0.328   4.199   2.524  0.0306  0.6138  1.0188
 1929poe    c2310186   0.400   4.329   2.481  0.3765  0.2343  0.4488
 1929poe     o210187   0.518   4.288   2.415  0.0697 -0.0337  0.0521
 1929poe    c3110188   0.607   4.396   2.396 -0.2795  0.2643  0.1158
 1930poe    c3110189   0.475   6.808   2.295  0.6079 -0.4910  0.2278
 1930poe     o210190   0.547   6.868   2.190  0.1048 -0.5647 -0.1590
 1930poe    c2310191   0.458   6.890   2.082 -0.1993  0.5552  0.2979
 1930poe    c2310192   0.502   6.943   1.944  0.2584  0.2709  0.3312
 1930poe     o210193   0.612   6.876   1.887 -0.8023 -0.9347 -0.3404
 1930poe    c2310194   0.647   6.908   1.754  0.4339  0.1791  0.2341
 1930poe    c2310195   0.792   6.958   1.760  0.4858  0.0588 -0.0524
 1930poe     o210196   0.861   6.849   1.819  0.0100 -0.0419  0.3219
 1930poe    c2310197   1.000   6.857   1.800 -0.0518  0.3712  0.0252
 1930poe    c2310198   1.082   6.729   1.825 -0.2017  0.4503  0.9265
 1930poe     o210199   1.100   6.710   1.964  0.4293  0.1568  0.8068
 1930poe    c3110200   1.084   6.572   1.989  0.1099 -0.1139 -0.7861
 1931poe    c3110201   2.808   0.070   3.366  1.1078 -0.4692 -0.6132
 1931poe     o210202   2.911   0.104   3.456  0.1829 -0.4386  0.4592
 1931poe    c2310203   2.892   0.036   3.578 -0.4769  0.0971  0.6620
 1931poe    c2310204   3.009   0.029   3.679  0.0309 -0.5244  0.0414
 1931poe     o210205   3.115  -0.038   3.614  0.6757  0.2343  0.2954
 1931poe    c2310206   3.243  -0.011   3.667  0.6794  0.2189  0.2939
 1931poe    c2310207   3.311   0.125   3.643  0.2597  0.2339 -0.8963
 1931poe     o210208   3.430   0.138   3.718  0.2421  0.5371 -0.9208
 1931poe    c2310209   3.487   0.267   3.717 -0.0013  0.6512 -0.4497
 1931poe    c2310210   3.640   0.250   3.718 -0.0935 -0.2471  0.1169
 1931poe     o210211   3.680   0.143   3.799 -0.5126 -0.5076 -0.0158
 1931poe    c3110212   3.818   0.155   3.829 -0.5137  0.1975 -0.2774
 1932poe    c3110213   0.904   3.058   3.436  0.6090  0.1153  0.3354
 1932poe     o210214   0.991   3.009   3.535  0.9007  0.4985  0.2722
 1932poe    c2310215   0.964   2.871   3.548 -0.1535  0.7119  0.4105
 1932poe    c2310216   1.036   2.807   3.668  0.5893 -0.1834 -0.4955
 1932poe     o210217   1.013   2.862   3.796 -0.4446 -0.3703 -0.5921
 1932poe    c2310218   1.083   2.763   3.868 -0.6594 -0.2720 -0.2479
 1932poe    c2310219   1.029   2.777   4.011 -0.2954 -0.5481 -0.0818
 1932poe     o210220   1.035   2.914   4.044  0.6320 -0.5778 -0.1067
 1932poe    c2310221   0.997   2.956   4.173 -0.3210  0.3931 -0.6850
 1932poe    c2310222   1.018   3.109   4.179 -0.2749  0.3423  0.7858
 1932poe     o210223   0.994   3.152   4.047 -0.5887 -0.7495  0.4768
 1932poe    c3110224   0.940   3.281   4.067  1.2051  0.1683 -0.4525
 1933poe    c3110225   6.032   4.879   5.244 -0.6261 -0.2219 -0.5559
 1933poe     o210226   5.975   4.821   5.359  0.2258  0.0261  0.0099
 1933poe    c2310227   6.059   4.761   5.454  0.1186  0.3969  0.3373
 1933poe    c2310228   5.955   4.669   5.520  0.0099  0.0100 -0.3724
 1933poe     o210229   5.838   4.738   5.557 -0.1624 -0.1132 -0.6806
 1933poe    c2310230   5.731   4.660   5.605  0.0149  0.3092  0.4371
 1933poe    c2310231   5.600   4.739   5.588 -0.0107  0.1509 -0.1110
 1933poe     o210232   5.596   4.823   5.474 -0.3242 -1.0952 -1.0425
 1933poe    c2310233   5.470   4.882   5.451 -0.0658 -0.3452 -0.5629
 1933poe    c2310234   5.466   4.992   5.343  0.0402  0.1222 -0.0991
 1933poe     o210235   5.557   5.088   5.391  0.1850  0.0699 -0.2682
 1933poe    c3110236   5.544   5.215   5.332  0.3065 -0.0773 -0.6147
 1934poe    c3110237   5.012   2.419   1.036 -0.3392 -0.4122 -0.7852
 1934poe     o210238   5.037   2.550   0.991 -0.1384 -0.2303 -0.1583
 1934poe    c2310239   4.931   2.643   0.999 -0.0416 -0.1748  0.5299
 1934poe    c2310240   4.979   2.786   1.031  0.4265 -0.1547 -0.2316
 1934poe     o210241   5.010   2.819   1.164  0.1105 -0.0569 -0.1813
 1934poe    c2310242   5.135   2.775   1.212 -0.0450  0.1513  0.4273
 1934poe    c2310243   5.166   2.808   1.359  0.5005  0.6127  0.2104
 1934poe     o210244   5.042   2.773   1.415  0.3707  0.2710 -0.2838
 1934poe    c2310245   5.037   2.802   1.553 -0.3474 -0.1658 -0.2067
 1934poe    c2310246   4.930   2.713   1.618 -0.2140 -0.2539 -0.1069
 1934poe     o210247   4.806   2.737   1.555 -0.3083  0.2027  0.2490
 1934poe    c3110248   4.723   2.627   1.587 -0.0307  0.0382  0.4097
 1935poe    c3110249   1.241   7.091   3.887 -0.0101  0.0522 -0.0745
 1935poe     o210250   1.147   7.024   3.968  0.2549 -0.2245  0.0018
 1935poe    c2310251   1.017   7.077   3.973  0.3985  0.1385 -0.0643
 1935poe    c2310252   0.929   7.012   4.082 -0.1489  0.1101 -0.5190
 1935poe     o210253   0.894   6.878   4.056  0.5737 -0.3261  0.6660
 1935poe    c2310254   0.793   6.841   4.146  0.5525 -0.1704  0.7066
 1935poe    c2310255   0.711   6.728   4.081  0.4205  0.5549 -0.4134
 1935poe     o210256   0.815   6.658   4.016  0.2412 -0.3158  0.2169
 1935poe    c2310257   0.782   6.523   3.991 -0.3323 -0.1175 -0.1374
 1935poe    c2310258   0.893   6.464   3.902 -0.2742  0.0115 -0.1498
 1935poe     o210259   0.920   6.554   3.796  0.4737  0.2940  0.2699
 1935poe    c3110260   1.022   6.503   3.712  0.2641 -0.0501  0.2198
 1936poe    c3110261   2.578   3.737   6.739 -0.3930  0.0728 -0.3566
 1936poe     o210262   2.445   3.714   6.698 -0.2911  0.1995 -0.7666
 1936poe    c2310263   2.403   3.836   6.641  0.2102  0.9613  0.4371
 1936poe    c2310264   2.251   3.816   6.625  0.2896  0.5844  0.1228
 1936poe     o210265   2.240   3.685   6.574  0.3570  0.5670  0.1525
 1936poe    c2310266   2.105   3.663   6.538  0.4822  0.0768 -0.0267
 1936poe    c2310267   2.056   3.553   6.443 -0.1541  0.3483 -0.0187
 1936poe     o210268   2.126   3.435   6.477 -0.5961  0.1504  0.2232
 1936poe    c2310269   2.108   3.321   6.397  0.3765  0.1497 -0.0106
 1936poe    c2310270   2.214   3.223   6.450  0.5722  0.1017 -0.4869
 1936poe     o210271   2.336   3.294   6.447  0.3565  0.5183  0.2307
 1936poe    c3110272   2.453   3.219   6.420 -0.1421 -0.0535 -0.3795
 1937poe    c3110273   1.228   2.962   6.107  0.6994  0.2404  0.0235
 1937poe     o210274   1.284   2.887   6.001 -0.8975 -0.3651 -0.4271
 1937poe    c2310275   1.319   2.759   6.049  0.7086  0.0452 -0.4294
 1937poe    c2310276   1.339   2.657   5.935 -0.3340  0.0566 -0.6369
 1937poe     o210277   1.427   2.714   5.841  0.1705  0.1470 -0.1156
 1937poe    c2310278   1.469   2.623   5.741 -0.3852 -0.1362 -0.0985
 1937poe    c2310279   1.570   2.701   5.653 -0.1298 -0.0201  0.2964
 1937poe     o210280   1.533   2.837   5.650 -0.0813 -0.0169 -0.1066
 1937poe    c2310281   1.607   2.894   5.544  0.2946  0.0697  0.2008
 1937poe    c2310282   1.546   3.034   5.526 -0.0419 -0.0684  0.2603
 1937poe     o210283   1.413   3.056   5.485 -0.0682  0.2891  0.5261
 1937poe    c3110284   1.386   3.191   5.455 -0.6722  0.1026  0.2202
 1938poe    c3110285   5.283   5.481   5.147  0.5188 -0.3305 -0.1298
 1938poe     o210286   5.323   5.567   5.252  0.2405 -0.4630  0.0833
 1938poe    c2310287   5.204   5.638   5.280  0.3766 -0.2568  0.1343
 1938poe    c2310288   5.229   5.775   5.346  0.5647 -0.2292  0.0076
 1938poe     o210289   5.288   5.874   5.265  0.4957 -0.2706 -0.0930
 1938poe    c2310290   5.251   6.000   5.318 -0.2514 -0.3593 -0.3895
 1938poe    c2310291   5.328   6.120   5.259  0.1480 -0.7064 -0.5800
 1938poe     o210292   5.312   6.120   5.119 -0.5452  0.0598 -0.5095
 1938poe    c2310293   5.420   6.194   5.065  0.2367 -0.7521 -0.0970
 1938poe    c2310294   5.406   6.185   4.912  0.2107 -0.0697 -0.1372
 1938poe     o210295   5.396   6.052   4.866  0.4874 -0.2478  0.3116
 1938poe    c3110296   5.429   6.041   4.730  0.1820  0.3264  0.1841
 1939poe    c3110297   6.457   6.250   5.502 -0.7003  0.0557  0.3105
 1939poe     o210298   6.349   6.178   5.557 -0.6932 -0.4464 -0.3281
 1939poe    c2310299   6.345   6.057   5.485  0.0808 -0.3679 -0.5116
 1939poe    c2310300   6.223   5.976   5.535 -0.1814  0.2081 -0.2099
 1939poe     o210301   6.237   5.941   5.670 -0.6333  0.1948 -0.1669
 1939poe    c2310302   6.115   5.884   5.714 -0.4473  0.0836  0.2064
 1939poe    c2310303   6.113   5.877   5.868 -0.6181 -0.1602  0.1937
 1939poe     o210304   6.109   6.010   5.913 -0.3056 -0.1835  0.2969
 1939poe    c2310305   6.117   6.030   6.053 -0.0766 -0.5012  0.3285
 1939poe    c2310306   6.248   6.070   6.124 -0.2409  0.5284  0.0738
 1939poe     o210307   6.305   6.189   6.075  0.4455  0.1476 -0.0766
 1939poe    c3110308   6.421   6.213   6.150  0.1211  0.2321  0.3980
 1940poe    c3110309   5.400   5.653   6.698  0.2165 -0.3178  0.0941
 1940poe     o210310   5.442   5.726   6.811 -0.0374  0.4082 -0.2724
 1940poe    c2310311   5.572   5.776   6.790  0.0661  0.1279 -0.3020
 1940poe    c2310312   5.605   5.873   6.905  0.4951 -0.1144 -0.2168
 1940poe     o210313   5.576   5.793   7.017 -0.3435  0.3194 -0.1155
 1940poe    c2310314   5.601   5.852   7.143  0.1895 -0.3672  0.1001
 1940poe    c2310315   5.536   5.780   7.262 -0.5167  0.5972  0.3004
 1940poe     o210316   5.398   5.763   7.238 -0.3322 -0.2751 -0.1978
 1940poe    c2310317   5.338   5.779   7.365  0.4182 -0.3127  0.1641
 1940poe    c2310318   5.188   5.792   7.334  0.5244  0.1267 -0.1778
 1940poe     o210319   5.172   5.901   7.246  0.2908  0.4077  0.2064
 1940poe    c3110320   5.041   5.954   7.247 -0.0188 -0.3105 -0.4234
 1941poe    c3110321   2.498   0.952   1.970 -0.7043  0.0483  0.0726
 1941poe     o210322   2.513   1.087   1.934  0.1785 -0.1854 -0.4835
 1941poe    c2310323   2.623   1.110   1.849  0.9592  0.0834  0.5794
 1941poe    c2310324   2.626   1.250   1.785  0.4647 -0.2276 -0.1341
 1941poe     o210325   2.496   1.290   1.747  0.2646 -0.4125  0.3487
 1941poe    c2310326   2.493   1.388   1.646 -0.4213 -0.2093  0.5644
 1941poe    c2310327   2.351   1.415   1.593 -0.0079 -0.0780 -0.4944
 1941poe     o210328   2.267   1.440   1.704  0.5466  0.0054 -0.0923
 1941poe    c2310329   2.147   1.504   1.666  0.2882 -0.1888  0.3960
 1941poe    c2310330   2.100   1.572   1.796  0.4161 -0.2932  0.4975
 1941poe     o210331   2.039   1.489   1.892 -0.9734 -0.2526 -0.3312
 1941poe    c3110332   1.997   1.561   2.006  0.1925  0.0087 -0.0516
 1942poe    c3110333   0.822   2.542   3.056 -0.1989  0.0221  0.2858
 1942poe     o210334   0.823   2.679   3.024  0.1142 -0.1516 -0.4725
 1942poe    c2310335   0.923   2.738   3.106 -0.2490  0.3050 -0.3521
 1942poe    c2310336   0.894   2.889   3.105  0.0618  0.3653 -0.1632
 1942poe     o210337   0.755   2.907   3.091  0.0399  0.3375  0.0151
 1942poe    c2310338   0.725   3.044   3.078  0.3297  0.4360  0.3498
 1942poe    c2310339   0.578   3.054   3.032  0.5910  0.3701 -0.5173
 1942poe     o210340   0.553   2.982   2.914  0.2856 -0.3231 -0.0324
 1942poe    c2310341   0.420   2.974   2.867  0.5937  0.2551 -1.0410
 1942poe    c2310342   0.394   2.914   2.727  0.0996  0.1522 -0.9053
 1942poe     o210343   0.429   2.778   2.722  0.3604  0.1927 -0.3197
 1942poe    c3110344   0.366   2.718   2.610 -0.2391  0.5787 -0.1916
 1943poe    c3110345   0.096   1.940   2.894 -0.2282 -0.2373  0.0723
 1943poe     o210346   0.069   1.988   2.764 -0.0892 -0.2484  0.0386
 1943poe    c2310347  -0.068   2.019   2.780 -0.1623 -0.4162 -0.2509
 1943poe    c2310348  -0.118   2.101   2.660 -0.0030 -0.0883 -0.0972
 1943poe     o210349  -0.060   2.048   2.543 -0.6851 -0.5951 -0.2128
 1943poe    c2310350  -0.110   2.119   2.432  0.5889  0.4487 -0.1413
 1943poe    c2310351  -0.018   2.124   2.308  0.3680 -0.3407 -0.3443
 1943poe     o210352   0.114   2.144   2.352  0.1070  0.3267  0.1556
 1943poe    c2310353   0.183   2.226   2.261 -0.5214  0.4762 -0.1922
 1943poe    c2310354   0.306   2.140   2.227 -0.1809  0.8567  0.0588
 1943poe     o210355   0.377   2.118   2.347  0.2503  0.3753 -0.2792
 1943poe    c3110356   0.489   2.036   2.324 -0.1110 -0.0777 -0.4540
 1944poe    c3110357   4.405   3.170   5.134  0.4007 -0.1265  0.0218
 1944poe     o210358   4.352   3.297   5.104 -0.4189 -0.4687 -0.0049
 1944poe    c2310359   4.318   3.302   4.967 -0.0054 -0.1172 -0.0954
 1944poe    c2310360   4.303   3.454   4.945  0.4124 -0.0960 -0.2427
 1944poe     o210361   4.228   3.514   5.047 -0.4398 -0.6370 -0.5360
 1944poe    c2310362   4.176   3.639   5.005 -0.1138 -0.4545 -0.4020
 1944poe    c2310363   4.136   3.730   5.122  0.3269 -0.2570 -0.4037
 1944poe     o210364   4.046   3.675   5.215  0.5717 -0.1452 -0.0956
 1944poe    c2310365   4.050   3.750   5.334 -0.0380 -0.2485 -0.0018
 1944poe    c2310366   3.925   3.708   5.413  0.0362 -0.3260  0.0751
 1944poe     o210367   3.922   3.567   5.416 -0.1188 -0.3312 -0.2802
 1944poe    c3110368   3.865   3.530   5.539  0.0331  0.2164 -0.0444
 1945poe    c3110369   5.079   2.306   2.418  0.1717 -0.3324  0.1951
 1945poe     o210370   5.219   2.294   2.424  0.2000 -0.1226 -0.0352
 1945poe    c2310371   5.279   2.363   2.532  0.2386  0.3123 -0.3320
 1945poe    c2310372   5.423   2.381   2.481  0.3203  0.1528 -0.1567
 1945poe     o210373   5.478   2.267   2.419  0.0752  0.3586 -0.7556
 1945poe    c2310374   5.617   2.266   2.441 -0.0228  0.3796 -0.1039
 1945poe    c2310375   5.660   2.124   2.481  0.0946  0.3829 -0.2185
 1945poe     o210376   5.593   2.036   2.393 -0.2932  0.1738  0.2810
 1945poe    c2310377   5.665   1.916   2.372  0.0364  0.4203 -0.0013
 1945poe    c2310378   5.599   1.793   2.307  0.1226  0.2284  0.2757
 1945poe     o210379   5.472   1.798   2.370  0.0079  0.2693  0.0413
 1945poe    c3110380   5.386   1.695   2.327  0.7203 -0.1425 -0.4275
 1946poe    c3110381   5.444   2.796   2.502 -0.5787 -0.3586 -0.2617
 1946poe     o210382   5.345   2.878   2.443 -0.1533 -0.0058 -0.4929
 1946poe    c2310383   5.218   2.819   2.454  0.1565 -0.5112  0.4595
 1946poe    c2310384   5.105   2.913   2.411  0.7307  0.1224  0.3198
 1946poe     o210385   5.147   2.975   2.291 -0.1101  0.0949  0.0031
 1946poe    c2310386   5.055   3.066   2.234 -0.0037 -0.0461 -0.3971
 1946poe    c2310387   5.133   3.150   2.131 -0.0042  0.6650  0.1746
 1946poe     o210388   5.234   3.214   2.206 -0.1483  0.3788  0.6206
 1946poe    c2310389   5.265   3.325   2.124  0.1047 -0.1332  0.0109
 1946poe    c2310390   5.396   3.391   2.171  0.0608  0.0469 -0.1173
 1946poe     o210391   5.388   3.423   2.308  0.1227  0.0159 -0.1061
 1946poe    c3110392   5.491   3.512   2.347  0.0039 -0.0672  0.4019
 1947poe    c3110393   5.919   1.079   1.792  0.2341  0.2283  0.0843
 1947poe     o210394   5.902   0.944   1.830 -0.9547  0.1169 -0.7701
 1947poe    c2310395   5.997   0.857   1.773 -0.0622  0.5999 -0.0628
 1947poe    c2310396   6.140   0.875   1.827  0.0574 -0.2650 -0.0779
 1947poe     o210397   6.127   0.866   1.967  0.3838  0.3113 -0.0091
 1947poe    c2310398   6.239   0.805   2.028  0.2361 -0.5240 -0.5622
 1947poe    c2310399   6.219   0.768   2.176  0.0646  0.0544 -0.4366
 1947poe     o210400   6.191   0.867   2.271  0.7303 -0.0594 -0.1188
 1947poe    c2310401   6.149   0.824   2.399 -0.5896 -0.0987 -0.5542
 1947poe    c2310402   6.055   0.923   2.470 -0.0048  0.1473 -0.1162
 1947poe     o210403   5.920   0.919   2.428 -0.0745  0.0422  0.1153
 1947poe    c3110404   5.847   1.024   2.487  0.2189  0.1525  0.2864
 1948poe    c3110405   1.504   3.989   0.597 -0.3693 -0.1933 -0.5909
 1948poe     o210406   1.492   4.039   0.466  0.3914 -0.0738 -0.6160
 1948poe    c2310407   1.429   4.164   0.453 -0.5841 -0.5180 -0.2477
 1948poe    c2310408   1.287   4.191   0.505 -0.1811  0.5947  0.3168
 1948poe     o210409   1.208   4.110   0.421  0.0999 -0.0524  0.6748
 1948poe    c2310410   1.120   4.029   0.494 -0.6037  0.7344  0.7077
 1948poe    c2310411   1.018   3.943   0.417  0.2868 -0.3018  0.6657
 1948poe     o210412   1.093   3.847   0.345  0.4784  0.2112  0.1750
 1948poe    c2310413   1.002   3.741   0.324  0.6094  0.2635 -0.7203
 1948poe    c2310414   1.074   3.611   0.285  0.2343 -0.0781 -0.2959
 1948poe     o210415   1.168   3.648   0.186  0.4105 -0.1848 -0.1695
 1948poe    c3110416   1.259   3.545   0.157  0.1605 -0.4181 -0.1269
 1949poe    c3110417   3.391   3.231   5.339 -0.2532 -0.9082  0.1965
 1949poe     o210418   3.274   3.273   5.273  0.2527 -0.0372 -0.1541
 1949poe    c2310419   3.237   3.400   5.322  0.7351  0.2184 -0.4473
 1949poe    c2310420   3.125   3.481   5.252  0.4215  0.1117 -0.0707
 1949poe     o210421   3.192   3.544   5.145  0.2813  0.1652 -0.1272
 1949poe    c2310422   3.113   3.615   5.054  0.3190  0.3263 -0.0347
 1949poe    c2310423   3.171   3.647   4.915  0.6814  0.6590  0.1927
 1949poe     o210424   3.201   3.528   4.845 -0.7396  0.4642 -0.1024
 1949poe    c2310425   3.278   3.551   4.729 -0.7224  0.1722 -0.1508
 1949poe    c2310426   3.312   3.426   4.647 -0.1596 -0.1074  0.5025
 1949poe     o210427   3.350   3.311   4.720  0.2283 -0.5349 -0.3652
 1949poe    c3110428   3.478   3.274   4.672  0.3870 -0.8976  0.3257
 1950poe    c3110429   3.857   6.382   1.212  0.1955 -0.0640 -0.7567
 1950poe     o210430   3.732   6.320   1.194 -0.3889  0.7933  0.2262
 1950poe    c2310431   3.635   6.366   1.286 -0.3504  0.3472  0.4943
 1950poe    c2310432   3.566   6.498   1.246  0.1585  0.5561  0.2894
 1950poe     o210433   3.495   6.486   1.125  0.1457 -0.2715  0.3728
 1950poe    c2310434   3.502   6.595   1.036 -0.1125 -0.6209 -0.0862
 1950poe    c2310435   3.426   6.571   0.905 -0.5718 -0.1168  0.0802
 1950poe     o210436   3.479   6.466   0.825  0.2506  0.5603 -0.2812
 1950poe    c2310437   3.447   6.465   0.688  0.3044 -0.1676 -0.2897
 1950poe    c2310438   3.537   6.355   0.628  0.9131 -0.2079  0.6807
 1950poe     o210439   3.510   6.242   0.707  0.1967  0.1691  0.9856
 1950poe    c3110440   3.526   6.129   0.623  0.6643  0.5433  0.5619
 1951poe    c3110441   1.466   1.659   5.746 -0.0871 -0.1544  0.7342
 1951poe     o210442   1.390   1.634   5.630  1.0277 -0.0505 -0.0335
 1951poe    c2310443   1.357   1.498   5.620  0.2463  0.1544 -0.3566
 1951poe    c2310444   1.451   1.392   5.558  0.0065  0.2932 -0.9701
 1951poe     o210445   1.391   1.264   5.559 -0.1360  0.3589 -0.3433
 1951poe    c2310446   1.464   1.170   5.483  0.1519  0.1315  0.2047
 1951poe    c2310447   1.376   1.043   5.485  0.2884  0.0382  0.2319
 1951poe     o210448   1.439   0.925   5.442  0.7544  0.3963 -0.0790
 1951poe    c2310449   1.478   0.838   5.546  0.5079 -0.0141 -0.3261
 1951poe    c2310450   1.361   0.765   5.615 -0.0489  0.3495 -0.8805
 1951poe     o210451   1.250   0.718   5.541 -0.5341  0.4282 -0.2106
 1951poe    c3110452   1.192   0.602   5.596  0.1445 -0.1171 -0.6203
 1952poe    c3110453   6.263   5.971   0.370  0.2111  0.2765 -0.2080
 1952poe     o210454   6.253   5.891   0.255 -0.0624 -0.1342  0.0970
 1952poe    c2310455   6.123   5.908   0.203  0.0511  0.1249 -0.1078
 1952poe    c2310456   6.094   5.803   0.094  0.3758 -0.1803  0.0967
 1952poe     o210457   6.054   5.671   0.124 -0.1770  0.0502  0.3901
 1952poe    c2310458   5.922   5.649   0.080  0.0971 -0.0315 -0.4074
 1952poe    c2310459   5.897   5.497   0.091  0.6740 -0.1195 -0.2991
 1952poe     o210460   5.970   5.412   0.005  0.2910 -0.9627  0.2016
 1952poe    c2310461   5.942   5.275   0.026 -0.1555 -0.8216  0.5473
 1952poe    c2310462   6.054   5.186  -0.030  0.3378  0.1811 -0.1012
 1952poe     o210463   6.163   5.204   0.058  0.1365  0.7212  0.0397
 1952poe    c3110464   6.282   5.151   0.004  0.1585  0.5046  0.2998
 1953poe    c3110465   1.767   0.499   3.897 -0.0519  1.2874 -0.6381
 1953poe     o210466   1.894   0.466   3.949 -0.5206  0.3150 -0.0823
 1953poe    c2310467   1.986   0.454   3.843 -0.3403  0.1180  0.0984
 1953poe    c2310468   2.125   0.404   3.885 -0.0823  0.4033 -0.4107
 1953poe     o210469   2.189   0.492   3.974 -0.5059  0.1995  0.1015
 1953poe    c2310470   2.323   0.459   4.002 -0.5545 -0.2478 -0.1926
 1953poe    c2310471   2.395   0.570   4.080 -0.7455  0.1352 -0.5592
 1953poe     o210472   2.343   0.630   4.197 -0.6959  0.0186 -0.4766
 1953poe    c2310473   2.401   0.752   4.239 -0.7421 -0.0749 -0.1432
 1953poe    c2310474   2.303   0.817   4.339 -0.3517  0.5816 -0.1866
 1953poe     o210475   2.173   0.769   4.314 -0.2043  0.2649 -0.3510
 1953poe    c3110476   2.076   0.869   4.332  0.2612  0.6756 -0.0967
 1954poe    c3110477   1.883   0.195   4.272  0.5013  0.4077 -0.2686
 1954poe     o210478   1.880   0.115   4.388  0.2277  0.5368 -0.1875
 1954poe    c2310479   1.981   0.017   4.391 -0.1168  0.1855  0.0996
 1954poe    c2310480   1.973  -0.064   4.522 -0.4192 -0.0950 -0.0911
 1954poe     o210481   1.872  -0.162   4.521 -0.4637 -0.0557  0.3313
 1954poe    c2310482   1.865  -0.234   4.642  0.0516 -0.0366  0.3730
 1954poe    c2310483   1.831  -0.383   4.624 -0.0014  0.0118  0.0677
 1954poe     o210484   1.919  -0.457   4.542 -0.0023 -0.0128  0.0889
 1954poe    c2310485   1.875  -0.590   4.530 -0.1703  0.0606 -0.1161
 1954poe    c2310486   1.977  -0.673   4.450  0.0142  0.3297 -0.1602
 1954poe     o210487   2.102  -0.668   4.514  0.0052 -0.1202 -0.1082
 1954poe    c3110488   2.195  -0.751   4.447  0.3303  0.3749 -0.2754
 1955poe    c3110489   0.760   6.627   6.642  0.4717 -0.1499  0.8219
 1955poe     o210490   0.701   6.747   6.598  0.7668 -0.3242 -0.0675
 1955poe    c2310491   0.786   6.801   6.500 -0.1507 -0.0088 -0.7017
 1955poe    c2310492   0.713   6.923   6.441 -0.1068  0.2123 -0.2999
 1955poe     o210493   0.754   6.981   6.319  0.3093  0.3001 -0.1197
 1955poe    c2310494   0.655   7.060   6.256 -0.0925 -0.3195 -0.2700
 1955poe    c2310495   0.674   7.135   6.124  1.0474 -0.1126  0.0006
 1955poe     o210496   0.646   7.058   6.009 -0.2677 -0.0166  0.2486
 1955poe    c2310497   0.640   7.137   5.892 -0.3930 -0.1677  0.1525
 1955poe    c2310498   0.646   7.057   5.761 -0.5028 -0.3734  0.2716
 1955poe     o210499   0.752   6.967   5.779  0.3118  0.3448 -0.7925
 1955poe    c3110500   0.747   6.856   5.692  0.9020 -0.2280 -0.1097
 1956poe    c3110501   1.388   5.730   5.354 -0.0691 -0.5858  0.3605
 1956poe     o210502   1.503   5.757   5.430 -0.4673  0.0609  0.7356
 1956poe    c2310503   1.507   5.647   5.518 -0.1915 -0.1245  0.4936
 1956poe    c2310504   1.649   5.650   5.578 -0.0627 -0.1419  0.1918
 1956poe     o210505   1.743   5.635   5.474  0.1816  0.0056  0.3913
 1956poe    c2310506   1.837   5.738   5.494 -0.0421  0.2973 -0.0412
 1956poe    c2310507   1.970   5.692   5.431 -0.1692  0.0482 -0.1272
 1956poe     o210508   1.946   5.663   5.295  0.5340  0.4375 -0.3358
 1956poe    c2310509   2.047   5.579   5.241  0.0157 -0.4324  0.0256
 1956poe    c2310510   2.030   5.506   5.107 -0.4040  0.0506 -0.1862
 1956poe     o210511   1.939   5.399   5.115 -0.1065 -0.2022 -0.1897
 1956poe    c3110512   1.888   5.345   4.995  0.0414  0.0833 -0.3813
 1957poe    c3110513   4.693   6.453   5.712 -0.2828 -0.0679  0.5893
 1957poe     o210514   4.771   6.500   5.819  0.2161  0.0761  0.1653
 1957poe    c2310515   4.824   6.392   5.893  0.3111 -0.0065 -0.0218
 1957poe    c2310516   4.859   6.457   6.028  0.1601 -0.4783  0.2432
 1957poe     o210517   4.926   6.575   5.991 -0.4276 -0.2296 -0.0397
 1957poe    c2310518   4.941   6.668   6.096 -0.1552 -0.1814 -0.1216
 1957poe    c2310519   5.034   6.773   6.033 -0.4821 -0.1265 -0.5152
 1957poe     o210520   4.992   6.838   5.915 -0.8308  0.3447 -0.1360
 1957poe    c2310521   5.063   6.958   5.894  0.0448 -0.2152 -0.4230
 1957poe    c2310522   4.987   7.073   5.825  0.0980  0.3473  0.4365
 1957poe     o210523   4.924   7.043   5.703 -0.4199  0.5752  0.6486
 1957poe    c3110524   4.944   7.164   5.632 -0.2608  0.3135  0.2448
 1958poe    c3110525   6.415   3.140   6.901  0.4018  0.8911 -0.5175
 1958poe     o210526   6.362   3.077   6.786 -0.4626 -0.2264  0.4721
 1958poe    c2310527   6.225   3.063   6.756 -0.3100 -0.0778 -0.3029
 1958poe    c2310528   6.183   2.975   6.637 -0.5131 -0.2421 -0.1096
 1958poe     o210529   6.228   3.041   6.520  0.0215 -0.0253  0.2145
 1958poe    c2310530   6.361   3.008   6.487  0.1878  0.6163  0.2363
 1958poe    c2310531   6.400   3.079   6.357  0.2097 -0.2587 -0.2407
 1958poe     o210532   6.331   3.029   6.245 -0.1359  0.2466 -0.2575
 1958poe    c2310533   6.317   3.125   6.142  0.1285  0.0523 -0.4783
 1958poe    c2310534   6.219   3.074   6.036 -0.1386 -0.5062  0.0341
 1958poe     o210535   6.271   2.983   5.942 -0.2031 -0.4176 -0.0867
 1958poe    c3110536   6.218   2.856   5.972  0.8048 -0.9253 -0.4015
 1959poe    c3110537   0.150   5.099   1.084 -0.1239 -0.2809 -0.2355
 1959poe     o210538   0.084   5.051   0.969 -0.7007 -0.0614 -0.0004
 1959poe    c2310539   0.158   5.085   0.854 -0.2616 -0.2493  0.2221
 1959poe    c2310540   0.066   5.189   0.787  0.6331  0.2458 -0.2489
 1959poe     o210541  -0.050   5.116   0.755  0.4530  0.4982 -0.1772
 1959poe    c2310542  -0.149   5.189   0.686 -0.0280  0.2133  0.2049
 1959poe    c2310543  -0.212   5.110   0.570 -0.2309 -0.0399  0.4855
 1959poe     o210544  -0.252   4.978   0.600 -0.0737 -0.1024  0.4209
 1959poe    c2310545  -0.365   4.944   0.524  0.3287 -0.0999 -0.1842
 1959poe    c2310546  -0.409   4.797   0.540  0.1139  0.0032  0.1732
 1959poe     o210547  -0.336   4.702   0.466  0.4416  0.5951 -0.2719
 1959poe    c3110548  -0.419   4.598   0.420 -0.1320  0.8155  0.2484
 1960poe    c3110549   4.937   2.329   2.084 -0.2908  0.4224 -0.3818
 1960poe     o210550   4.900   2.206   2.025 -0.5632  0.4301 -0.2300
 1960poe    c2310551   4.936   2.185   1.890 -0.4753  0.3598 -0.1959
 1960poe    c2310552   4.886   2.060   1.816  0.2350  0.1550 -0.3355
 1960poe     o210553   4.918   2.048   1.679  0.2443 -0.3588 -0.2898
 1960poe    c2310554   4.893   1.914   1.644 -0.3718 -0.2563 -0.2624
 1960poe    c2310555   4.944   1.873   1.504 -0.2177 -0.8012 -0.0482
 1960poe     o210556   4.890   1.943   1.395 -0.0102 -0.0449  0.3267
 1960poe    c2310557   4.985   2.032   1.340  0.0511 -0.3594 -0.0843
 1960poe    c2310558   4.941   2.099   1.209  0.6262 -0.0735 -0.1337
 1960poe     o210559   4.966   2.008   1.104  0.2479 -0.1390 -0.1668
 1960poe    c3110560   5.002   2.062   0.979  0.1780  0.4137  0.0481
 1961poe    c3110561   0.367   6.054   1.316 -0.0128 -0.0243  0.0501
 1961poe     o210562   0.231   6.029   1.345 -0.2068  0.4047 -0.4663
 1961poe    c2310563   0.171   5.918   1.283 -0.1087  0.2884 -0.3537
 1961poe    c2310564   0.190   5.778   1.345  0.0951  0.4029 -0.1605
 1961poe     o210565   0.118   5.762   1.466 -0.0249 -0.0489 -0.2916
 1961poe    c2310566   0.175   5.816   1.583 -0.1344 -0.3492 -0.1006
 1961poe    c2310567   0.076   5.860   1.692 -0.2225 -0.7738 -0.0045
 1961poe     o210568   0.008   5.983   1.674  0.6260 -0.2561  0.2446
 1961poe    c2310569  -0.125   5.963   1.631  0.5152  0.3704  0.2964
 1961poe    c2310570  -0.200   6.096   1.653  0.1988  0.1759  0.3955
 1961poe     o210571  -0.139   6.211   1.599  0.0461  0.2369  0.3540
 1961poe    c3110572  -0.253   6.284   1.557 -0.0248 -0.3362 -0.4762
 1962poe    c3110573   3.406   6.594   4.504  0.5238  0.1605 -0.5591
 1962poe     o210574   3.440   6.676   4.613 -0.1278  0.0932 -0.2980
 1962poe    c2310575   3.565   6.729   4.573  0.0740  0.0960  0.3211
 1962poe    c2310576   3.568   6.882   4.590  0.4860  0.1107  0.1229
 1962poe     o210577   3.555   6.949   4.713  0.1081  0.4120 -0.0771
 1962poe    c2310578   3.664   6.920   4.798  0.1064  1.1088  0.1676
 1962poe    c2310579   3.648   6.998   4.930  0.1109 -0.0414  0.8581
 1962poe     o210580   3.527   6.967   4.995  0.3752 -0.6194  1.0786
 1962poe    c2310581   3.502   7.044   5.110 -0.3929  1.1481 -0.2420
 1962poe    c2310582   3.390   6.965   5.181  0.7037 -0.3026 -0.1058
 1962poe     o210583   3.288   6.946   5.086  0.4909 -0.6215  0.1845
 1962poe    c3110584   3.177   6.875   5.136  0.0996 -0.5461 -0.5579
 1963poe    c3110585   5.916   1.506   5.843 -0.8269 -0.6030 -0.6600
 1963poe     o210586   5.982   1.381   5.835  0.3505 -0.0389  0.0263
 1963poe    c2310587   6.099   1.374   5.912 -0.0727 -0.3879  0.6512
 1963poe    c2310588   6.140   1.226   5.916  0.2584 -0.3203 -0.0607
 1963poe     o210589   6.167   1.173   5.788  0.2752  0.2464 -0.2937
 1963poe    c2310590   6.197   1.035   5.792  0.8950  0.3803 -0.2907
 1963poe    c2310591   6.228   0.986   5.650  0.4536 -1.2302  0.1491
 1963poe     o210592   6.361   1.028   5.627  0.1147  0.2057  0.6802
 1963poe    c2310593   6.403   0.996   5.496  0.1398 -0.1634  0.7772
 1963poe    c2310594   6.522   1.087   5.461 -0.3705 -0.0739 -0.8052
 1963poe     o210595   6.481   1.216   5.425  0.1248  0.5846  0.8934
 1963poe    c3110596   6.598   1.290   5.395  0.3949 -0.1676  0.0694
 1964poe    c3110597   3.062   1.946   5.326  0.3264 -0.2795 -0.0073
 1964poe     o210598   3.091   1.811   5.296 -0.4608 -0.5411  0.3741
 1964poe    c2310599   3.015   1.782   5.181 -0.1061  0.6094 -0.1692
 1964poe    c2310600   3.036   1.640   5.124 -0.7611  0.2842  0.3890
 1964poe     o210601   3.027   1.563   5.242 -0.0008  0.0790  0.3162
 1964poe    c2310602   3.034   1.424   5.222  0.2497  0.0813  0.3843
 1964poe    c2310603   3.058   1.343   5.351 -0.7346  0.1955  0.6471
 1964poe     o210604   3.142   1.418   5.436  0.0134  0.2884 -0.1668
 1964poe    c2310605   3.197   1.331   5.533 -0.0838  0.3416 -0.0642
 1964poe    c2310606   3.338   1.282   5.495  0.0541  0.5148  0.2177
 1964poe     o210607   3.425   1.392   5.488 -0.0197  0.5703  0.1698
 1964poe    c3110608   3.555   1.337   5.492 -0.0303  0.5373  0.0759
 1965poe    c3110609   3.811   6.403   6.111  0.5300 -0.1830 -0.8009
 1965poe     o210610   3.758   6.274   6.129 -0.6067  0.3792 -0.0389
 1965poe    c2310611   3.632   6.279   6.066 -0.4017  0.0701 -0.4748
 1965poe    c2310612   3.569   6.139   6.083  0.0155 -0.0447  0.1916
 1965poe     o210613   3.538   6.123   6.219  0.3818  0.3262  0.3190
 1965poe    c2310614   3.491   5.992   6.238  0.8859  0.0559 -0.2602
 1965poe    c2310615   3.482   5.971   6.391  0.5274 -0.7131 -0.3790
 1965poe     o210616   3.610   5.981   6.450  0.5836 -0.0871 -0.5903
 1965poe    c2310617   3.623   5.888   6.556  0.1100  0.0057 -0.4484
 1965poe    c2310618   3.764   5.866   6.613  0.3208  0.3324 -0.8379
 1965poe     o210619   3.797   5.950   6.721 -0.1407  0.1448 -0.5445
 1965poe    c3110620   3.936   5.947   6.744 -0.1672  0.0650 -0.3946
 1966poe    c3110621   3.990   3.789   6.578 -0.0632 -0.0632  0.1625
 1966poe     o210622   4.107   3.857   6.539 -0.1529 -0.1642 -0.2918
 1966poe    c2310623   4.091   3.896   6.404 -0.2038  0.0164 -0.2338
 1966poe    c2310624   4.217   3.976   6.368  0.0726 -0.0047  0.6676
 1966poe     o210625   4.326   3.887   6.381 -0.0997 -0.2579  0.3703
 1966poe    c2310626   4.454   3.943   6.395  0.0360 -0.4272 -0.1691
 1966poe    c2310627   4.552   3.826   6.412  0.8359  0.3685  0.8216
 1966poe     o210628   4.550   3.770   6.542  0.6360 -0.3498  0.5113
 1966poe    c2310629   4.651   3.671   6.543  0.3155 -0.7018 -0.6165
 1966poe    c2310630   4.619   3.571   6.655 -0.2567 -0.1532 -0.2860
 1966poe     o210631   4.503   3.492   6.649 -0.0591 -0.4558 -0.1408
 1966poe    c3110632   4.533   3.377   6.725  0.4537 -0.3453 -0.1749
 1967poe    c3110633   4.553   4.602   2.462  0.2646 -0.2473  0.2823
 1967poe     o210634   4.682   4.554   2.494  0.1233 -0.7296  0.1362
 1967poe    c2310635   4.754   4.568   2.374 -0.3298  0.1484 -0.0395
 1967poe    c2310636   4.841   4.442   2.384  0.0042  0.3740 -0.0794
 1967poe     o210637   4.914   4.439   2.505 -0.1098  0.2903 -0.0121
 1967poe    c2310638   4.971   4.321   2.556 -0.0211  0.0348 -0.6901
 1967poe    c2310639   5.000   4.319   2.707 -0.3435  1.1805 -0.6035
 1967poe     o210640   4.904   4.374   2.794 -0.3194  0.3634 -0.0453
 1967poe    c2310641   4.932   4.511   2.816  0.1041  0.1005  1.0983
 1967poe    c2310642   4.807   4.580   2.874 -0.2384  0.1154  0.3526
 1967poe     o210643   4.713   4.556   2.772  0.5198  0.6661 -0.4890
 1967poe    c3110644   4.595   4.614   2.823 -0.0226 -0.1307 -0.8284
 1968poe    c3110645   4.570   0.243   4.991 -0.2416  0.1174  0.3018
 1968poe     o210646   4.636   0.360   5.032  0.0654  0.1361 -0.2457
 1968poe    c2310647   4.732   0.404   4.938  0.6725  0.0987  0.3477
 1968poe    c2310648   4.855   0.470   5.002  0.6630  0.4369  0.0252
 1968poe     o210649   4.948   0.385   5.067 -0.2187 -0.3655  0.2494
 1968poe    c2310650   5.003   0.460   5.173  0.1748  0.0430 -0.2410
 1968poe    c2310651   5.088   0.378   5.271  0.3013  0.7748  0.2684
 1968poe     o210652   5.209   0.317   5.233 -0.1404 -0.3740  0.6528
 1968poe    c2310653   5.268   0.257   5.347  0.2767 -1.0054  0.1088
 1968poe    c2310654   5.402   0.188   5.316  0.6935  0.0552 -0.5149
 1968poe     o210655   5.515   0.252   5.370  0.1911  0.3225  0.2428
 1968poe    c3110656   5.609   0.157   5.416 -0.0592 -0.1281 -0.1683
 1969poe    c3110657   4.198   5.948   3.197 -0.4761 -0.2561 -0.1857
 1969poe     o210658   4.239   5.919   3.329 -0.9009  0.1012  0.0248
 1969poe    c2310659   4.263   5.783   3.352 -0.8055  0.1170  0.0166
 1969poe    c2310660   4.348   5.758   3.479 -0.6746  0.0086 -0.0917
 1969poe     o210661   4.294   5.839   3.581 -0.0497  0.3640 -0.0383
 1969poe    c2310662   4.368   5.848   3.701 -0.1482 -0.3005  0.0801
 1969poe    c2310663   4.280   5.918   3.806 -0.1474 -0.1460 -0.0219
 1969poe     o210664   4.244   6.050   3.770  0.0056 -0.1085 -0.0403
 1969poe    c2310665   4.191   6.114   3.884  0.5809  0.0740  0.1272
 1969poe    c2310666   4.087   6.219   3.839  0.3875 -0.1618  0.0183
 1969poe     o210667   3.974   6.160   3.779 -0.3120  0.6233  0.5366
 1969poe    c3110668   3.880   6.242   3.713  0.0532  0.1445 -0.6150
 1970poe    c3110669   0.865   6.566   5.869 -0.2011 -0.4170  0.1172
 1970poe     o210670   0.760   6.592   5.959 -0.6965 -0.1335 -0.5370
 1970poe    c2310671   0.796   6.519   6.074 -0.8113 -0.1642 -0.5200
 1970poe    c2310672   0.718   6.513   6.206 -0.0067 -0.0167 -0.0302
 1970poe     o210673   0.586   6.556   6.180 -0.1198 -0.2616  0.1289
 1970poe    c2310674   0.516   6.545   6.302 -0.0654  0.3980  0.2261
 1970poe    c2310675   0.368   6.588   6.291 -0.1090  0.1280 -0.2741
 1970poe     o210676   0.358   6.706   6.214  0.1672  0.1570 -0.2693
 1970poe    c2310677   0.218   6.720   6.206  0.1251  0.2334  0.5171
 1970poe    c2310678   0.199   6.856   6.137 -0.0467 -0.3407 -0.5976
 1970poe     o210679   0.268   6.851   6.015  0.1959 -0.2161 -0.4658
 1970poe    c3110680   0.205   6.933   5.919 -0.0341  0.2542  0.0787
 1971poe    c3110681   5.828   1.422   1.645 -0.1331 -0.0551  0.4104
 1971poe     o210682   5.869   1.544   1.703  0.0663 -0.0232  0.2016
 1971poe    c2310683   6.007   1.561   1.725  0.2238  0.2623 -0.9435
 1971poe    c2310684   6.049   1.682   1.811 -0.4792  0.1931 -0.4968
 1971poe     o210685   5.968   1.793   1.779 -0.3669  0.2811 -0.4718
 1971poe    c2310686   6.011   1.926   1.799  0.3367  0.0240 -0.2362
 1971poe    c2310687   5.896   2.025   1.775  0.2390  0.0289  0.2451
 1971poe     o210688   5.781   2.024   1.857 -0.0943  0.0319 -0.2199
 1971poe    c2310689   5.667   2.062   1.782 -0.3593 -0.1857  0.0738
 1971poe    c2310690   5.540   2.021   1.860 -0.2092  0.3094  0.5817
 1971poe     o210691   5.534   1.886   1.900 -0.3098  0.0244 -0.3665
 1971poe    c3110692   5.435   1.864   1.998  0.2761  0.4124  0.3235
 1972poe    c3110693   3.879   6.135   2.268 -0.1433 -0.0794  0.0177
 1972poe     o210694   3.957   6.194   2.167 -0.5160  0.2645 -0.0711
 1972poe    c2310695   3.879   6.231   2.055 -0.3941 -0.8257 -0.5300
 1972poe    c2310696   3.953   6.287   1.932 -0.1799 -0.1310 -0.0900
 1972poe     o210697   4.035   6.195   1.864  0.1910  0.1540 -0.0314
 1972poe    c2310698   4.104   6.251   1.754  0.1562  0.0812 -0.0906
 1972poe    c2310699   4.185   6.130   1.705  0.2276  0.2764 -0.4548
 1972poe     o210700   4.252   6.077   1.817 -0.3754 -0.3299 -0.3745
 1972poe    c2310701   4.321   5.958   1.788 -0.1212 -0.3552  0.3211
 1972poe    c2310702   4.440   5.950   1.886  0.1634  0.1546  0.0217
 1972poe     o210703   4.394   5.980   2.016  0.2426 -0.1967  0.1337
 1972poe    c3110704   4.489   5.939   2.111 -0.2220 -0.1568  0.6158
 1973poe    c3110705   5.384   4.341   4.640 -0.1271  0.1499  0.7219
 1973poe     o210706   5.353   4.207   4.671  0.0084  0.0577  0.4589
 1973poe    c2310707   5.361   4.190   4.810 -0.1385  0.5546  0.5311
 1973poe    c2310708   5.230   4.125   4.856 -0.0139  0.3952  0.6627
 1973poe     o210709   5.136   4.227   4.883 -0.0506  0.4546  0.3134
 1973poe    c2310710   5.047   4.177   4.980 -0.1740  0.3391  0.1398
 1973poe    c2310711   4.920   4.262   4.998  0.0938  0.6385  0.6567
 1973poe     o210712   4.939   4.382   5.069  0.2816  1.0935 -0.1447
 1973poe    c2310713   4.968   4.361   5.206  0.3084  0.2740 -0.2718
 1973poe    c2310714   4.942   4.489   5.287 -0.2014  0.1255 -0.1954
 1973poe     o210715   5.015   4.586   5.216  0.4022  0.1955  0.5147
 1973poe    c3110716   5.013   4.712   5.281  0.8097  0.2151  0.4953
 1974poe    c3110717   1.852   4.517   4.041  0.0288 -0.1067 -0.1281
 1974poe     o210718   1.868   4.397   4.112 -0.3175 -0.1207 -0.0732
 1974poe    c2310719   1.824   4.418   4.244  0.0316  0.4234 -0.0438
 1974poe    c2310720   1.888   4.309   4.332 -0.4515  0.4751  0.3769
 1974poe     o210721   1.872   4.191   4.256 -0.4645  0.4162  0.4721
 1974poe    c2310722   1.890   4.068   4.323  0.4646  0.2929  0.0173
 1974poe    c2310723   1.842   3.943   4.246  0.5858  0.3826 -0.2040
 1974poe     o210724   1.904   3.955   4.120  0.5682 -0.0240 -0.2547
 1974poe    c2310725   1.894   3.836   4.046  0.1042 -0.1139 -0.0475
 1974poe    c2310726   1.890   3.865   3.895  0.0104  0.2553  0.0252
 1974poe     o210727   2.002   3.941   3.856 -0.0018  0.1996 -0.1207
 1974poe    c3110728   2.107   3.860   3.808 -0.3135 -0.1890 -0.1419
 1975poe    c3110729   1.480   2.570   6.290 -0.1055  0.0964 -0.1096
 1975poe     o210730   1.345   2.562   6.332  0.1457 -0.2254  0.6410
 1975poe    c2310731   1.287   2.438   6.300  0.4103 -0.2659  0.3135
 1975poe    c2310732   1.139   2.430   6.341  0.2703  0.3933 -0.0495
 1975poe     o210733   1.128   2.537   6.432  0.2311  0.0604  0.3386
 1975poe    c2310734   1.008   2.525   6.506  0.0836  0.1582  0.1161
 1975poe    c2310735   0.996   2.613   6.632  0.6303  0.1757  0.1584
 1975poe     o210736   1.007   2.747   6.589 -0.1196  0.2044  0.0400
 1975poe    c2310737   1.003   2.830   6.703  0.0588  0.2697 -0.0011
 1975poe    c2310738   0.975   2.976   6.661 -0.9408  0.0497 -0.1182
 1975poe     o210739   1.080   3.017   6.576 -0.1254 -0.1762  0.7602
 1975poe    c3110740   1.069   3.156   6.554 -0.2067 -0.2475  0.3492
 1976poe    c3110741   1.627   2.059   5.455 -0.2453 -0.5930 -0.0145
 1976poe     o210742   1.498   2.030   5.504 -0.6303 -0.4543 -0.9242
 1976poe    c2310743   1.466   2.124   5.603 -0.0790 -1.3105  0.0860
 1976poe    c2310744   1.330   2.074   5.656 -0.7604  0.2758 -0.1029
 1976poe     o210745   1.247   2.038   5.548  0.1670 -0.3829 -0.6024
 1976poe    c2310746   1.111   2.014   5.573  0.0302  0.6966 -0.2776
 1976poe    c2310747   1.054   2.028   5.431  0.1790  0.3507 -0.3725
 1976poe     o210748   1.159   1.973   5.355  0.2396 -0.2754  0.1554
 1976poe    c2310749   1.129   1.989   5.218 -0.2980 -0.4924  0.2462
 1976poe    c2310750   1.237   1.928   5.126 -0.2771 -0.5518  0.3097
 1976poe     o210751   1.347   1.988   5.190 -0.3635 -0.4797  0.3893
 1976poe    c3110752   1.465   1.987   5.113 -0.3115 -0.8215  0.4759
 1977poe    c3110753   3.497   3.357   6.118  1.0631  0.0694  0.1450
 1977poe     o210754   3.535   3.299   5.995 -0.1532  0.0378 -0.2315
 1977poe    c2310755   3.645   3.372   5.945  0.0480 -0.0999  0.0040
 1977poe    c2310756   3.716   3.294   5.832 -0.0689 -0.6457  0.3036
 1977poe     o210757   3.756   3.167   5.877  0.9283 -0.4650 -0.0554
 1977poe    c2310758   3.844   3.102   5.788  0.2567 -0.4935 -0.6961
 1977poe    c2310759   3.926   2.986   5.847 -0.2897 -0.2174  0.6376
 1977poe     o210760   3.858   2.914   5.948 -0.2416 -0.4662  0.4936
 1977poe    c2310761   3.907   2.782   5.953 -0.2222 -0.4953 -0.3203
 1977poe    c2310762   3.821   2.678   6.026 -0.2317 -0.1320  0.1918
 1977poe     o210763   3.696   2.671   5.961  0.2142 -0.3499 -0.6463
 1977poe    c3110764   3.617   2.567   6.011 -0.1100  0.2579  0.1288
 1978poe    c3110765   2.632   2.937   4.655 -0.2870  0.4230 -0.5066
 1978poe     o210766   2.607   2.937   4.794  0.2545  0.2060 -0.4061
 1978poe    c2310767   2.598   2.804   4.837 -0.5719  0.3843 -0.0070
 1978poe    c2310768   2.591   2.797   4.991 -0.6074  0.9106  0.0148
 1978poe     o210769   2.711   2.836   5.055  0.0174 -0.0503 -0.5530
 1978poe    c2310770   2.711   2.796   5.190  0.3196  0.6757 -0.3341
 1978poe    c2310771   2.820   2.876   5.264 -0.1072  0.9016  0.0524
 1978poe     o210772   2.952   2.840   5.231 -0.3466 -0.4772  0.4982
 1978poe    c2310773   2.996   2.709   5.259  0.1007 -0.4151  0.1099
 1978poe    c2310774   3.121   2.720   5.349  0.1357  0.4718 -0.0318
 1978poe     o210775   3.224   2.779   5.274  0.0215  0.1179 -0.4744
 1978poe    c3110776   3.352   2.783   5.334 -0.0424  0.3245 -0.3508
 1979poe    c3110777   5.075   3.691   1.318  0.3145 -0.1773 -0.0992
 1979poe     o210778   5.126   3.779   1.220 -0.1547  0.0091 -0.1803
 1979poe    c2310779   5.116   3.722   1.092  0.9455 -0.7007  0.0360
 1979poe    c2310780   5.181   3.816   0.988  0.0764  0.1683  0.2669
 1979poe     o210781   5.315   3.859   1.002 -0.0620  0.8076 -0.3266
 1979poe    c2310782   5.364   3.905   0.878  0.1029 -0.7886 -0.8731
 1979poe    c2310783   5.515   3.934   0.876 -0.0745  0.2881  0.4707
 1979poe     o210784   5.611   3.831   0.880 -0.0203  0.3128 -0.1633
 1979poe    c2310785   5.686   3.842   0.998 -0.3868  0.1908  0.0823
 1979poe    c2310786   5.806   3.747   0.981 -0.3667  0.2305  0.0021
 1979poe     o210787   5.769   3.619   0.935 -0.5946  0.2761  0.0585
 1979poe    c3110788   5.889   3.548   0.914 -0.6188  0.2138  0.1263
 1980poe    c3110789   1.227   1.626   4.462 -0.5322 -0.5424  0.0469
 1980poe     o210790   1.167   1.672   4.582  0.1072  0.4471  0.0003
 1980poe    c2310791   1.253   1.750   4.662  0.5279 -0.6913  0.6812
 1980poe    c2310792   1.161   1.811   4.769 -0.0761 -0.1664 -0.1293
 1980poe     o210793   1.064   1.905   4.728  0.1762  0.1528  0.0034
 1980poe    c2310794   1.107   2.033   4.687  0.5988 -0.0977 -0.3374
 1980poe    c2310795   0.991   2.126   4.650  0.0961 -0.4867  0.2400
 1980poe     o210796   0.918   2.081   4.538 -0.3889  0.0484  0.3349
 1980poe    c2310797   0.809   2.166   4.509 -0.3761 -0.0232  0.0754
 1980poe    c2310798   0.734   2.148   4.375 -0.2300  0.0060 -0.0109
 1980poe     o210799   0.667   2.025   4.361  0.2213 -0.2426  0.0113
 1980poe    c3110800   0.680   1.963   4.235 -0.2150  0.4679 -0.3890
 1981poe    c3110801   2.815   0.299   6.830 -0.5737 -0.0072  0.0834
 1981poe     o210802   2.792   0.371   6.712  0.7871  0.4069  0.0514
 1981poe    c2310803   2.668   0.438   6.719  0.2809 -0.5241  0.1435
 1981poe    c2310804   2.639   0.539   6.606  0.4360  0.0546  0.6140
 1981poe     o210805   2.749   0.616   6.562  0.2015  0.1556  0.2050
 1981poe    c2310806   2.708   0.744   6.519  0.4641  0.1017 -0.2205
 1981poe    c2310807   2.795   0.780   6.398  0.1582  0.0012 -0.4735
 1981poe     o210808   2.927   0.734   6.419  0.2340  0.4766  0.1561
 1981poe    c2310809   3.021   0.811   6.348  0.2849  0.6182  0.3804
 1981poe    c2310810   3.167   0.776   6.382  0.1156 -0.0276  0.4433
 1981poe     o210811   3.199   0.639   6.370 -0.4105 -0.1856  0.8329
 1981poe    c3110812   3.339   0.627   6.379 -0.3444 -0.5662 -0.4756
 1982poe    c3110813   6.725   6.535   5.250  0.7286  0.6847  0.1197
 1982poe     o210814   6.666   6.649   5.190  0.1794  0.3933  0.1034
 1982poe    c2310815   6.721   6.697   5.070  0.4087 -0.5286 -0.1682
 1982poe    c2310816   6.853   6.777   5.076  0.0133  0.1265 -0.0832
 1982poe     o210817   6.971   6.699   5.077  0.1090  0.2701 -0.2029
 1982poe    c2310818   7.078   6.790   5.093  0.6216 -0.2916 -0.4079
 1982poe    c2310819   7.204   6.702   5.103  0.2726 -0.6793  0.7973
 1982poe     o210820   7.191   6.602   5.004 -0.0634  0.3520 -0.2237
 1982poe    c2310821   7.302   6.516   5.000 -0.1200  0.2554  0.2544
 1982poe    c2310822   7.277   6.387   4.920 -0.3626 -0.0416  0.8041
 1982poe     o210823   7.158   6.323   4.963 -0.4610 -0.1874  0.3206
 1982poe    c3110824   7.149   6.194   4.907 -0.1379 -0.3153  0.5609
 1983poe    c3110825   5.997   6.830   5.710  0.0228  0.0948 -0.5189
 1983poe     o210826   6.010   6.713   5.632  0.1743 -0.4359  0.2866
 1983poe    c2310827   6.148   6.687   5.621  0.2220 -0.2797  0.5131
 1983poe    c2310828   6.184   6.538   5.605  0.4696 -0.1469 -0.2139
 1983poe     o210829   6.074   6.483   5.535  0.2217 -0.0811  0.1185
 1983poe    c2310830   6.120   6.359   5.485  0.3088 -0.0836  0.2034
 1983poe    c2310831   6.031   6.320   5.365  0.3911  0.6942 -0.1172
 1983poe     o210832   5.998   6.419   5.270  0.0184  0.3425 -0.3557
 1983poe    c2310833   5.897   6.360   5.192 -0.2632  0.0305  0.2329
 1983poe    c2310834   5.808   6.470   5.130  0.2723  0.2994 -0.0713
 1983poe     o210835   5.854   6.530   5.011 -0.0464  0.4641 -0.1121
 1983poe    c3110836   5.748   6.567   4.926 -0.2927 -0.7147 -0.3394
 1984poe    c3110837   4.849   4.126   0.692 -1.4775  0.0473  0.5139
 1984poe     o210838   4.841   4.031   0.588  0.1143  0.2396  0.1972
 1984poe    c2310839   4.961   4.017   0.514 -0.1965 -0.0808 -0.2519
 1984poe    c2310840   4.943   3.888   0.431  0.0809  0.1701 -0.7046
 1984poe     o210841   4.816   3.887   0.370 -0.2827  0.0582  0.0341
 1984poe    c2310842   4.823   3.845   0.235  0.3066  0.5902 -0.1069
 1984poe    c2310843   4.697   3.767   0.193  0.5587  0.0691  0.1056
 1984poe     o210844   4.585   3.851   0.182  0.2291 -0.2940  0.6450
 1984poe    c2310845   4.473   3.765   0.180  0.2449 -0.3065 -0.1519
 1984poe    c2310846   4.342   3.841   0.207 -0.0150 -0.5006 -0.8480
 1984poe     o210847   4.316   3.921   0.093  0.1607 -0.0677 -0.5881
 1984poe    c3110848   4.176   3.941   0.094  0.2246  0.3619  0.0599
 1985poe    c3110849   4.247   5.223   7.122 -0.5402 -0.3542 -0.2119
 1985poe     o210850   4.364   5.286   7.171 -0.7143 -0.3711  0.2266
 1985poe    c2310851   4.422   5.208   7.273  0.6909  0.2821 -0.0638
 1985poe    c2310852   4.559   5.161   7.220  0.6873  0.2719 -0.0645
 1985poe     o210853   4.634   5.274   7.182  0.7338 -0.1140 -1.1535
 1985poe    c2310854   4.741   5.235   7.100  0.9628 -0.9577 -0.4656
 1985poe    c2310855   4.838   5.353   7.079  0.2670 -0.3077 -0.0497
 1985poe     o210856   4.768   5.453   7.008 -0.0895 -0.2477  0.3779
 1985poe    c2310857   4.851   5.562   6.974  0.1749 -0.6821 -0.4140
 1985poe    c2310858   4.884   5.597   6.828 -0.0972 -0.2819 -0.3830
 1985poe     o210859   4.936   5.481   6.766 -0.3484 -0.4710 -0.2466
 1985poe    c3110860   5.004   5.522   6.649  0.1613  0.6839  0.4385
 1986poe    c3110861   2.426   1.106   2.981  0.3672  0.1865 -0.0962
 1986poe     o210862   2.324   1.122   2.885 -0.2886  0.2155  0.5992
 1986poe    c2310863   2.214   1.037   2.908 -0.0978 -0.2926 -0.3022
 1986poe    c2310864   2.103   1.026   2.802 -0.8867 -0.0798  0.4832
 1986poe     o210865   2.026   1.141   2.778 -0.0904  0.2324 -0.6396
 1986poe    c2310866   2.089   1.225   2.683  0.5631  0.2023 -0.2364
 1986poe    c2310867   2.009   1.350   2.643  0.0442 -0.1126 -0.1900
 1986poe     o210868   1.996   1.443   2.748  0.2990  0.1003 -0.3470
 1986poe    c2310869   1.895   1.539   2.728  0.4683  0.4378  0.3891
 1986poe    c2310870   1.829   1.561   2.866 -0.0633 -0.1335  0.2326
 1986poe     o210871   1.740   1.456   2.892  0.0366 -0.1829  0.3768
 1986poe    c3110872   1.625   1.483   2.969 -0.1259  0.0156  0.0669
 1987poe    c3110873   6.402   1.068   6.603  0.6937 -0.0237  0.1043
 1987poe     o210874   6.421   1.168   6.701  0.2962 -0.4087  0.5779
 1987poe    c2310875   6.329   1.275   6.693  0.3153 -0.4326  0.0379
 1987poe    c2310876   6.332   1.399   6.785 -0.0753 -0.2837 -0.1488
 1987poe     o210877   6.444   1.478   6.755 -0.3104  0.0657 -0.1090
 1987poe    c2310878   6.449   1.597   6.831 -0.0671 -0.0674  0.0851
 1987poe    c2310879   6.583   1.670   6.809 -0.4366  0.4759 -0.3958
 1987poe     o210880   6.703   1.606   6.846 -0.5411  0.1143 -0.6798
 1987poe    c2310881   6.718   1.578   6.983  0.0976  0.2480 -0.7219
 1987poe    c2310882   6.864   1.537   7.012 -0.1675 -0.0767  0.1800
 1987poe     o210883   6.962   1.638   7.008  0.1649 -0.3948  0.2244
 1987poe    c3110884   7.085   1.577   6.976  0.2154 -0.2358  0.1159
 1988poe    c3110885   5.086   5.110   3.990 -0.2149 -0.2207  0.0260
 1988poe     o210886   5.210   5.161   4.034 -0.2448 -0.0932 -0.0372
 1988poe    c2310887   5.287   5.223   3.935  0.2317 -0.2024  0.2608
 1988poe    c2310888   5.425   5.251   3.997  0.1648  0.3101  0.1886
 1988poe     o210889   5.479   5.134   4.054 -0.0790  0.1876  0.1683
 1988poe    c2310890   5.603   5.159   4.116 -0.0336  0.4812 -0.0405
 1988poe    c2310891   5.653   5.028   4.179 -0.5509  0.3126  0.0257
 1988poe     o210892   5.548   4.980   4.259 -0.0629 -0.0483  0.4573
 1988poe    c2310893   5.594   4.868   4.331  0.2794  0.1260  0.5093
 1988poe    c2310894   5.493   4.807   4.429 -0.3386  0.2090 -0.0719
 1988poe     o210895   5.373   4.752   4.378 -0.1307 -0.3711  0.0635
 1988poe    c3110896   5.288   4.709   4.483  0.3285 -0.9005  0.2270
 1989poe    c3110897   2.417   7.025   2.162 -0.8133 -0.0988  0.4515
 1989poe     o210898   2.463   7.103   2.269  0.2934  0.1406 -0.1876
 1989poe    c2310899   2.591   7.071   2.320 -0.0477 -0.5300  0.2673
 1989poe    c2310900   2.614   7.133   2.459  0.4816  0.4469 -0.2427
 1989poe     o210901   2.612   7.274   2.462 -0.1679  0.4406 -0.1619
 1989poe    c2310902   2.594   7.334   2.588 -0.2596 -0.4213  0.2474
 1989poe    c2310903   2.608   7.487   2.573 -0.2489 -0.4570 -0.1352
 1989poe     o210904   2.560   7.514   2.444  0.3451  0.2584 -0.2105
 1989poe    c2310905   2.558   7.654   2.426  0.1614  0.2918  0.0666
 1989poe    c2310906   2.509   7.684   2.283 -0.5212  0.0083  0.2349
 1989poe     o210907   2.595   7.657   2.174 -0.7168  0.2802  0.0124
 1989poe    c3110908   2.543   7.705   2.052  0.2469  0.3893 -0.3606
 1990poe    c3110909   4.791   0.095   5.317  0.5014 -0.0718  0.7461
 1990poe     o210910   4.856   0.017   5.220  0.3743  0.4512  0.2293
 1990poe    c2310911   4.921  -0.098   5.270 -0.7502 -0.2861  0.0210
 1990poe    c2310912   5.003  -0.192   5.181 -0.2227  0.2778 -0.0919
 1990poe     o210913   5.107  -0.116   5.122  0.2028 -0.2582 -0.0426
 1990poe    c2310914   5.171  -0.195   5.025 -0.0848 -0.5659  0.0149
 1990poe    c2310915   5.300  -0.130   4.973 -0.2848 -0.3314 -0.1901
 1990poe     o210916   5.239  -0.021   4.907  0.3886  0.5797  0.6516
 1990poe    c2310917   5.320   0.060   4.825  0.1945 -0.1022 -0.2215
 1990poe    c2310918   5.227   0.143   4.735  0.3164  0.4461  0.1574
 1990poe     o210919   5.121   0.202   4.808 -0.3322 -0.0504 -0.3766
 1990poe    c3110920   5.049   0.300   4.736  0.0267  0.5772  0.1167
 1991poe    c3110921   2.517   4.339   6.328  0.4566  0.3405 -0.8417
 1991poe     o210922   2.546   4.473   6.361 -0.0855  0.2068  0.2193
 1991poe    c2310923   2.504   4.542   6.246 -0.3533 -0.3113  0.0044
 1991poe    c2310924   2.447   4.684   6.265  0.0141 -0.0801 -0.5850
 1991poe     o210925   2.546   4.747   6.343  0.0137  0.0707 -0.7053
 1991poe    c2310926   2.537   4.885   6.372  0.2122  0.0171 -0.3817
 1991poe    c2310927   2.569   4.984   6.259  0.5483  0.3107 -0.0270
 1991poe     o210928   2.455   5.019   6.184  0.3309 -0.1572  0.0816
 1991poe    c2310929   2.481   5.085   6.062  0.0753 -0.1267  0.0430
 1991poe    c2310930   2.548   5.003   5.950  0.3975 -0.3287  0.3839
 1991poe     o210931   2.470   4.889   5.922 -0.3032  0.2357  0.0172
 1991poe    c3110932   2.515   4.849   5.795 -0.0448  0.2481  0.1042
 1992poe    c3110933   1.869   6.115   5.144 -0.0694  0.3010  0.2675
 1992poe     o210934   1.790   6.044   5.236 -0.0068  0.0329  0.1156
 1992poe    c2310935   1.668   6.112   5.255  0.1713  0.3274  0.2111
 1992poe    c2310936   1.604   6.057   5.384 -0.4092  0.0709 -0.1795
 1992poe     o210937   1.648   6.136   5.492 -0.4925 -0.2269  0.0733
 1992poe    c2310938   1.592   6.094   5.615 -0.6219  0.2818  0.1876
 1992poe    c2310939   1.678   6.146   5.732 -0.1766  0.2680 -0.1305
 1992poe     o210940   1.675   6.284   5.763  0.0274  0.1880  0.2435
 1992poe    c2310941   1.761   6.308   5.872  0.6367  0.2843 -0.2530
 1992poe    c2310942   1.752   6.462   5.859  0.5475  0.3284  0.3229
 1992poe     o210943   1.813   6.527   5.750  0.3949  0.2023  0.1626
 1992poe    c3110944   1.952   6.546   5.763  0.5562 -0.8334  0.0980
 1993poe    c3110945   2.628   4.859   1.616  0.1878 -0.2464 -0.0457
 1993poe     o210946   2.647   4.951   1.511  0.6182  0.0667  0.2976
 1993poe    c2310947   2.536   5.038   1.508  0.4536 -0.1217  0.7807
 1993poe    c2310948   2.582   5.183   1.531  0.5096  0.0062 -0.0893
 1993poe     o210949   2.657   5.216   1.416  0.1753 -0.0732 -0.3318
 1993poe    c2310950   2.727   5.337   1.430 -0.2681  0.1782 -0.2867
 1993poe    c2310951   2.858   5.314   1.353 -0.2762 -0.8060 -0.0247
 1993poe     o210952   2.845   5.337   1.214 -0.4547  0.3013  0.1660
 1993poe    c2310953   2.956   5.413   1.171 -0.2995 -0.0943 -0.1329
 1993poe    c2310954   2.967   5.419   1.018 -0.0477 -0.0334 -0.1128
 1993poe     o210955   3.007   5.304   0.946  0.0635  0.0556 -0.1922
 1993poe    c3110956   3.084   5.333   0.832  0.6963  0.3354  0.2966
 1994poe    c3110957   1.915   5.300   7.017  0.1106 -0.7432 -0.2218
 1994poe     o210958   1.792   5.266   7.075 -0.0927  0.3219 -0.0123
 1994poe    c2310959   1.675   5.314   7.012 -0.1111 -0.2458 -0.4128
 1994poe    c2310960   1.619   5.215   6.908 -1.0922 -0.1750  0.0364
 1994poe     o210961   1.564   5.099   6.966 -0.5995 -0.1543  0.5496
 1994poe    c2310962   1.547   5.008   6.860  0.3034  0.2100  0.0806
 1994poe    c2310963   1.477   4.883   6.917 -0.3725  0.5605  0.0178
 1994poe     o210964   1.514   4.853   7.049 -0.1975 -0.1214 -0.1854
 1994poe    c2310965   1.422   4.772   7.118  0.0753  0.2994  0.6870
 1994poe    c2310966   1.483   4.752   7.258  0.2890 -0.2427  0.5180
 1994poe     o210967   1.540   4.876   7.293 -0.4260  0.1349  0.3477
 1994poe    c3110968   1.570   4.908   7.427 -0.5644  0.3496  0.3288
 1995poe    c3110969   2.744   2.654   5.626  0.4844 -0.4700  0.6499
 1995poe     o210970   2.720   2.519   5.594  0.4964 -0.3773  0.2354
 1995poe    c2310971   2.709   2.445   5.714 -0.0228  0.0368  0.4501
 1995poe    c2310972   2.603   2.337   5.687  0.5467 -0.2850 -0.5556
 1995poe     o210973   2.646   2.252   5.582  0.3475 -1.0376 -0.0382
 1995poe    c2310974   2.544   2.166   5.536 -0.1315 -0.6307  0.2501
 1995poe    c2310975   2.590   2.065   5.430  0.0791  0.3006 -0.5629
 1995poe     o210976   2.680   2.132   5.345  0.2258  0.4076 -0.3235
 1995poe    c2310977   2.719   2.050   5.237  0.7173 -0.1128  0.2387
 1995poe    c2310978   2.803   2.143   5.147  0.5494 -0.4370 -0.2541
 1995poe     o210979   2.871   2.234   5.229  0.4368 -0.6405  0.0672
 1995poe    c3110980   2.977   2.290   5.155 -0.0693  0.1456 -0.0808
 1996poe    c3110981   2.444   2.671   2.798 -0.7523  0.0284  0.2815
 1996poe     o210982   2.452   2.696   2.659  0.0369 -0.5285  0.2215
 1996poe    c2310983   2.581   2.682   2.602 -0.2840 -0.3312 -0.5576
 1996poe    c2310984   2.670   2.798   2.555  0.4158 -0.8408 -0.4980
 1996poe     o210985   2.658   2.828   2.417  0.2640 -0.4147 -0.3939
 1996poe    c2310986   2.714   2.953   2.386  0.1068 -0.1784  0.2472
 1996poe    c2310987   2.791   2.953   2.252  0.2297  0.4491  0.3164
 1996poe     o210988   2.716   2.968   2.133  0.1168 -0.2695  0.2934
 1996poe    c2310989   2.785   2.958   2.011  0.4011  0.1584  0.4151
 1996poe    c2310990   2.678   2.944   1.900  0.0839 -0.0500  0.7448
 1996poe     o210991   2.572   2.863   1.943  0.1087 -0.3127  0.3148
 1996poe    c3110992   2.500   2.819   1.830  0.1094  0.0522  0.1719
 1997poe    c3110993   4.184   3.621   2.490  0.1568  0.1770 -1.0199
 1997poe     o210994   4.139   3.723   2.576  0.7915 -0.1290 -0.3102
 1997poe    c2310995   4.171   3.684   2.707  0.1352 -0.7141 -0.3166
 1997poe    c2310996   4.205   3.812   2.786 -0.6631 -0.6955  0.0120
 1997poe     o210997   4.117   3.913   2.744  0.3792  0.0730 -0.3859
 1997poe    c2310998   4.169   4.030   2.803 -0.5064  0.2479  0.0824
 1997poe    c2310999   4.067   4.143   2.819  0.1800  0.8280  0.4538
 1997poe     o211000   4.012   4.204   2.704 -0.7408 -0.4039  0.2201
 1997poe    c2311001   3.916   4.142   2.620 -0.4679  0.0039 -0.4037
 1997poe    c2311002   3.953   4.093   2.479 -0.1172 -0.6131 -0.1072
 1997poe     o211003   4.046   3.988   2.485  0.2878 -0.2404  0.1979
 1997poe    c3111004   4.100   3.953   2.359  0.1996  0.7117 -0.1072
 1998poe    c3111005   7.091   1.381   3.683  0.5373  1.0955  0.0702
 1998poe     o211006   7.085   1.359   3.544 -0.2265  0.4111  0.2013
 1998poe    c2311007   7.145   1.245   3.487  1.1529  0.9157  0.6250
 1998poe    c2311008   7.150   1.255   3.334 -0.3632  0.2799  0.5188
 1998poe     o211009   7.259   1.317   3.270 -0.0041 -0.4337  0.4205
 1998poe    c2311010   7.296   1.447   3.311  0.9065 -0.5984  0.1440
 1998poe    c2311011   7.314   1.535   3.185  0.1285 -0.5369  0.0720
 1998poe     o211012   7.214   1.568   3.091  0.3753  0.5655  0.1833
 1998poe    c2311013   7.276   1.573   2.964  0.3805 -0.1549  0.1498
 1998poe    c2311014   7.171   1.567   2.851  0.5505 -0.4268  0.0072
 1998poe     o211015   7.226   1.572   2.722  0.2939 -0.1695 -0.0908
 1998poe    c3111016   7.297   1.460   2.676 -0.3024 -0.7162  0.3080
 1999poe    c3111017   3.859   3.172   6.388  0.5931  0.0201 -0.2171
 1999poe     o211018   3.798   3.051   6.349 -0.0131  0.1787  0.2346
 1999poe    c2311019   3.762   2.984   6.469 -0.9100  0.2712  0.0295
 1999poe    c2311020   3.655   2.874   6.468 -0.6613  0.0246  0.4009
 1999poe     o211021   3.529   2.924   6.429 -0.6207 -0.3007 -0.1536
 1999poe    c2311022   3.432   2.821   6.426 -0.5429 -0.3773 -0.0627
 1999poe    c2311023   3.317   2.857   6.330 -0.0645  0.2245 -0.4243
 1999poe     o211024   3.383   2.869   6.206 -0.1195  0.5380 -0.4236
 1999poe    c2311025   3.285   2.845   6.107  0.2696 -0.0426 -0.6706
 1999poe    c2311026   3.257   2.967   6.017 -0.0322  0.5815  0.2584
 1999poe     o211027   3.343   3.005   5.912  0.5332  0.4614  0.6741
 1999poe    c3111028   3.320   3.137   5.869 -0.2016  0.2345  0.3562
 2000poe    c3111029   3.648   1.659   0.530 -0.5834 -0.3923 -0.4911
 2000poe     o211030   3.660   1.525   0.571 -0.0197 -0.3413 -0.4786
 2000poe    c2311031   3.545   1.464   0.627 -0.0014 -0.1123 -0.1905
 2000poe    c2311032   3.548   1.311   0.641  0.6429 -0.1121 -0.2887
 2000poe     o211033   3.500   1.244   0.526 -0.3993  0.1254  0.0014
 2000poe    c2311034   3.436   1.125   0.566  0.8952 -0.6271 -0.1162
 2000poe    c2311035   3.348   1.088   0.445  0.1087  0.5736  0.0729
 2000poe     o211036   3.426   1.074   0.329  0.4845 -0.0599  0.3954
 2000poe    c2311037   3.373   0.987   0.232 -1.0270  0.7147  0.5008
 2000poe    c2311038   3.433   1.035   0.099  0.1898 -0.2893  0.6719
 2000poe     o211039   3.537   1.128   0.123  0.3726 -0.3438  0.1273
 2000poe    c3111040   3.637   1.140   0.025  0.8764 -0.6762  0.5918
 2001poe    c3111041   0.642   6.078   6.868 -0.3793  0.4609  0.1344
 2001poe     o211042   0.540   6.001   6.928 -0.3095  0.2342 -0.0347
 2001poe    c2311043   0.511   5.883   6.857 -0.1264 -0.2774  0.7185
 2001poe    c2311044   0.393   5.821   6.935 -0.2481 -0.3908  0.4467
 2001poe     o211045   0.407   5.854   7.071 -0.2653  0.4244  0.2594
 2001poe    c2311046   0.335   5.766   7.154  0.2098 -0.1538  0.0672
 2001poe    c2311047   0.328   5.813   7.300 -0.5979  0.5417 -0.1895
 2001poe     o211048   0.301   5.951   7.313 -0.2565  0.5996 -0.0994
 2001poe    c2311049   0.286   6.000   7.444  0.4015  0.4477  0.0366
 2001poe    c2311050   0.274   6.154   7.447 -0.2602  0.4037 -0.2477
 2001poe     o211051   0.176   6.220   7.523 -0.6180 -0.2252 -0.1543
 2001poe    c3111052   0.176   6.361   7.516 -0.5116 -0.2215 -0.0686
 2002poe    c3111053   2.496   5.943   6.847  0.6407  0.3830  0.5455
 2002poe     o211054   2.629   5.895   6.854  0.6530  0.3715  0.2256
 2002poe    c2311055   2.708   5.945   6.748 -0.2526 -0.0648 -0.6776
 2002poe    c2311056   2.849   5.884   6.740 -0.2004 -0.1234  0.4334
 2002poe     o211057   2.857   5.745   6.717  0.0433 -0.0378 -0.0148
 2002poe    c2311058   2.989   5.696   6.715 -0.0563 -0.3194  0.2885
 2002poe    c2311059   2.975   5.545   6.693 -0.8938 -0.2920  0.5882
 2002poe     o211060   2.858   5.526   6.618 -0.7047 -0.1472  0.2517
 2002poe    c2311061   2.875   5.416   6.530  0.9116  0.1262  0.1951
 2002poe    c2311062   2.747   5.400   6.447  0.5382  0.7097  0.6424
 2002poe     o211063   2.754   5.477   6.328 -0.1794  0.0072  0.1341
 2002poe    c3111064   2.656   5.446   6.231 -0.1117  0.2111  0.0015
 2003poe    c3111065   5.472   7.129   6.875 -0.3380  0.1410  0.4514
 2003poe     o211066   5.459   6.991   6.853  0.2477  0.0748  0.4919
 2003poe    c2311067   5.475   6.950   6.719  0.0287  0.1820  0.4329
 2003poe    c2311068   5.498   6.798   6.714 -0.2566  0.1488  0.0140
 2003poe     o211069   5.630   6.770   6.755 -0.2830 -0.3278 -0.2137
 2003poe    c2311070   5.664   6.635   6.775 -0.4060 -0.3120  0.1167
 2003poe    c2311071   5.817   6.624   6.794 -0.3550 -0.4940 -0.3703
 2003poe     o211072   5.880   6.700   6.694 -0.2918  0.1015  0.1106
 2003poe    c2311073   6.012   6.744   6.721 -0.4120  0.5788 -0.0758
 2003poe    c2311074   6.087   6.787   6.594  0.4749 -0.3055  0.1337
 2003poe     o211075   6.000   6.873   6.523  0.1422 -0.0635  0.8253
 2003poe    c3111076   6.043   6.868   6.388  0.3243 -0.0156  0.8807
 2004poe    c3111077   1.051   6.815   5.137 -0.2812 -0.2528 -0.2676
 2004poe     o211078   1.048   6.950   5.099  0.1096 -0.1360  0.1053
 2004poe    c2311079   0.987   6.952   4.971  0.7146 -0.3980 -0.1894
 2004poe    c2311080   1.013   7.092   4.912  0.0069  0.0286  0.4846
 2004poe     o211081   1.013   7.190   5.013  0.2422 -0.0660  0.5760
 2004poe    c2311082   1.006   7.322   4.964 -0.1744 -0.1196  0.4922
 2004poe    c2311083   1.134   7.392   5.014 -0.3386  0.4373  0.1380
 2004poe     o211084   1.144   7.361   5.151 -0.0809  0.0746  0.0371
 2004poe    c2311085   1.263   7.416   5.202  0.0012 -0.4857  0.4622
 2004poe    c2311086   1.245   7.475   5.343 -0.2351  0.2020  0.1472
 2004poe     o211087   1.261   7.382   5.448  0.6867 -0.3583 -0.4754
 2004poe    c3111088   1.308   7.427   5.573 -0.3208  0.6096 -0.4311
 2005poe    c3111089   2.748   6.346   5.232 -0.1094 -0.2812  0.7590
 2005poe     o211090   2.767   6.222   5.167 -0.6109  0.0846 -0.1154
 2005poe    c2311091   2.783   6.246   5.029 -0.9641 -0.1664 -0.2002
 2005poe    c2311092   2.854   6.136   4.949 -0.1117  0.1322  0.1390
 2005poe     o211093   2.774   6.023   4.926  0.0926 -0.0566  0.3422
 2005poe    c2311094   2.708   6.039   4.802  0.0718  0.1729  0.3829
 2005poe    c2311095   2.623   5.913   4.775 -0.2918  0.4795  0.0894
 2005poe     o211096   2.538   5.895   4.886  0.1862 -0.3707  0.3241
 2005poe    c2311097   2.428   5.813   4.852  0.1330 -0.5096  0.8121
 2005poe    c2311098   2.369   5.793   4.992 -0.1745  0.0674  0.7687
 2005poe     o211099   2.462   5.747   5.088  0.7141  0.6654  0.2101
 2005poe    c3111100   2.408   5.723   5.216 -0.6332  0.0114 -0.4539
 2006poe    c3111101   4.564   6.989   0.716 -0.1515 -0.0122  0.2044
 2006poe     o211102   4.641   7.091   0.774 -0.4077  0.2457  0.0938
 2006poe    c2311103   4.690   7.070   0.905  0.0086  0.2126 -0.0663
 2006poe    c2311104   4.796   7.181   0.900  0.0581  0.1464 -0.5710
 2006poe     o211105   4.730   7.299   0.859  0.2007  0.0968 -0.9479
 2006poe    c2311106   4.802   7.416   0.892 -0.3730  0.1878 -0.0012
 2006poe    c2311107   4.747   7.544   0.826 -0.0715  0.2554 -0.1218
 2006poe     o211108   4.720   7.517   0.691 -0.3309 -0.4895  0.0732
 2006poe    c2311109   4.682   7.637   0.627  0.2715 -0.3081  0.0487
 2006poe    c2311110   4.547   7.627   0.553  0.3435  0.3253 -0.1718
 2006poe     o211111   4.556   7.532   0.448  0.1555  0.5965 -0.4337
 2006poe    c3111112   4.439   7.527   0.370 -0.5018 -0.0330  0.5659
 2007poe    c3111113   5.352   3.391   4.184 -0.2884  0.1331  0.2969
 2007poe     o211114   5.347   3.263   4.126 -0.1995  0.0788  0.4090
 2007poe    c2311115   5.318   3.165   4.223  0.1779 -0.3176  0.1287
 2007poe    c2311116   5.310   3.023   4.163 -0.0018 -0.3043  0.1180
 2007poe     o211117   5.431   2.982   4.103 -0.1218  0.1647 -0.4490
 2007poe    c2311118   5.436   2.851   4.052  0.1608  0.0465 -0.1183
 2007poe    c2311119   5.586   2.829   4.025  0.1764  0.0611 -0.0437
 2007poe     o211120   5.622   2.922   3.925 -0.4900  0.3710  0.0047
 2007poe    c2311121   5.754   2.902   3.881 -0.5172  0.9824 -0.3667
 2007poe    c2311122   5.817   3.016   3.799  0.4145  0.3067 -0.6095
 2007poe     o211123   5.849   3.121   3.888 -0.8113  0.0758  0.1279
 2007poe    c3111124   5.934   3.213   3.824 -0.5483  0.1408  0.5689
 2008poe    c3111125   4.733   2.412   5.323 -0.3064 -0.1314  0.0611
 2008poe     o211126   4.596   2.377   5.324 -0.5752  0.8835 -0.0660
 2008poe    c2311127   4.585   2.238   5.305  0.2240  0.7632  0.2838
 2008poe    c2311128   4.434   2.209   5.290  0.3829 -0.1012  0.2850
 2008poe     o211129   4.394   2.295   5.185 -0.4178  0.1478  0.7795
 2008poe    c2311130   4.265   2.253   5.150 -0.2259  0.1951  0.0050
 2008poe    c2311131   4.228   2.311   5.012 -0.1180 -0.2847 -0.2292
 2008poe     o211132   4.253   2.450   5.010 -0.6979 -0.1716  0.1139
 2008poe    c2311133   4.253   2.492   4.875 -0.0583  0.0607  0.1828
 2008poe    c2311134   4.298   2.639   4.886  0.0345  0.0141  0.4326
 2008poe     o211135   4.425   2.643   4.946  0.3333 -0.2871 -0.1776
 2008poe    c3111136   4.474   2.774   4.966  0.6030 -0.2610 -0.9638
 2009poe    c3111137   0.835   2.942   1.453 -0.2419  0.2719 -0.2779
 2009poe     o211138   0.751   2.852   1.384  0.1616 -0.1553 -0.2156
 2009poe    c2311139   0.614   2.878   1.406  0.4249  0.6487  0.5177
 2009poe    c2311140   0.555   2.937   1.277  0.0701 -0.2347  0.2729
 2009poe     o211141   0.563   2.842   1.173  0.0982 -0.0700  0.1244
 2009poe    c2311142   0.512   2.894   1.053 -0.3741  0.4616  0.5502
 2009poe    c2311143   0.386   2.819   1.006  0.1211 -0.3389  0.4848
 2009poe     o211144   0.431   2.692   0.963  0.7052  0.0533 -0.0926
 2009poe    c2311145   0.328   2.615   0.905  0.4966  0.4043 -0.1888
 2009poe    c2311146   0.383   2.496   0.826 -0.7805  0.0369 -0.5558
 2009poe     o211147   0.455   2.406   0.908  0.3288  0.9162 -0.5414
 2009poe    c3111148   0.508   2.301   0.830  0.3660  0.4302  0.1317
 2010poe    c3111149   4.668   3.156   3.443  0.2648  0.0108  0.1451
 2010poe     o211150   4.745   3.157   3.325 -0.0809 -0.0276 -0.0815
 2010poe    c2311151   4.842   3.259   3.329 -0.2034  0.0691  0.3889
 2010poe    c2311152   4.976   3.199   3.376 -0.3134 -0.5571 -0.0916
 2010poe     o211153   5.025   3.094   3.296 -0.2445 -0.1819 -0.5494
 2010poe    c2311154   5.161   3.066   3.319 -0.4230 -0.6441 -0.0107
 2010poe    c2311155   5.205   2.982   3.197 -0.3519 -0.2222 -0.2796
 2010poe     o211156   5.104   2.885   3.183 -0.4085 -0.3445  0.8583
 2010poe    c2311157   5.123   2.802   3.071 -0.5183  0.3923  0.2900
 2010poe    c2311158   5.036   2.677   3.092  0.3909 -0.2765  0.0806
 2010poe     o211159   4.907   2.715   3.131  0.1504 -0.4932 -0.4926
 2010poe    c3111160   4.819   2.605   3.144 -0.0384 -0.3687 -0.7010
 2011poe    c3111161   4.047   3.123   3.945  0.5758 -0.4307 -0.1187
 2011poe     o211162   4.109   3.119   4.072 -0.3624 -0.3397  0.3487
 2011poe    c2311163   4.240   3.070   4.055 -0.4409 -0.3826 -0.1631
 2011poe    c2311164   4.321   3.067   4.186 -0.0325 -0.6207 -0.4204
 2011poe     o211165   4.256   2.972   4.267  0.0665 -0.3889 -0.0651
 2011poe    c2311166   4.349   2.887   4.331 -0.1173 -0.4330  0.1444
 2011poe    c2311167   4.279   2.767   4.397  0.4068 -0.6451  0.3152
 2011poe     o211168   4.184   2.814   4.491 -0.1832 -0.4440 -0.3718
 2011poe    c2311169   4.076   2.729   4.521 -0.5197  0.1511  0.1068
 2011poe    c2311170   3.969   2.809   4.598  0.4300  0.9301  0.6449
 2011poe     o211171   3.931   2.912   4.510 -0.1778 -0.0629 -0.2847
 2011poe    c3111172   3.816   2.971   4.565 -0.1527 -0.4099  0.1417
 2012poe    c3111173   6.114   1.019   4.716 -0.1630 -0.0443  0.3634
 2012poe     o211174   6.088   1.130   4.632 -0.1670 -0.2276  0.1197
 2012poe    c2311175   6.123   1.110   4.497 -0.1904 -0.5486  0.1592
 2012poe    c2311176   6.172   1.246   4.444 -0.4945 -0.5189 -0.0449
 2012poe     o211177   6.064   1.336   4.449  0.1521  0.2722 -0.0794
 2012poe    c2311178   6.097   1.452   4.375 -0.1351 -0.1248 -0.8376
 2012poe    c2311179   5.968   1.537   4.373 -0.1683 -0.1607 -0.3596
 2012poe     o211180   5.898   1.551   4.495  0.4905  0.5706 -0.0566
 2012poe    c2311181   5.809   1.660   4.493 -0.2166 -0.0077 -0.4320
 2012poe    c2311182   5.863   1.795   4.544 -0.0208 -0.3534  0.2845
 2012poe     o211183   5.814   1.909   4.479 -0.8724 -0.9213 -0.0805
 2012poe    c3111184   5.706   1.973   4.544  0.0976  0.6150  0.0798
 2013poe    c3111185   2.109   5.989   3.305  0.3037  0.4316 -0.0854
 2013poe     o211186   2.182   6.029   3.191 -0.0329  0.0249 -0.4470
 2013poe    c2311187   2.308   6.080   3.228 -0.2855  0.4712 -0.1961
 2013poe    c2311188   2.416   6.117   3.124  0.0282  0.3589  0.0853
 2013poe     o211189   2.375   6.232   3.052 -0.3750  0.0253 -0.2264
 2013poe    c2311190   2.491   6.265   2.979  0.0340  0.1879  0.4851
 2013poe    c2311191   2.441   6.353   2.862 -0.0457 -0.3960  0.0755
 2013poe     o211192   2.326   6.423   2.903  0.4919  0.6137 -0.1204
 2013poe    c2311193   2.283   6.506   2.797  0.2511  0.3007 -0.2674
 2013poe    c2311194   2.155   6.584   2.832  0.2270  0.0929  0.1111
 2013poe     o211195   2.065   6.492   2.891 -0.0556  0.0858 -0.3257
 2013poe    c3111196   1.930   6.530   2.901 -0.0511  0.0600 -0.1620
 2014poe    c3111197   2.096   3.561   3.268  0.9715 -0.0332  0.1037
 2014poe     o211198   2.090   3.432   3.212 -0.5167 -0.0861  0.3334
 2014poe    c2311199   1.989   3.347   3.260 -0.1427 -0.3708  0.6222
 2014poe    c2311200   2.022   3.199   3.231  0.0867 -0.2627  0.3308
 2014poe     o211201   2.067   3.215   3.098 -0.1253 -0.3427  0.2491
 2014poe    c2311202   2.089   3.084   3.051  0.2230 -0.1731 -0.0730
 2014poe    c2311203   2.111   3.084   2.899 -0.0459  0.3494 -0.1129
 2014poe     o211204   2.178   3.201   2.857  0.2327  0.0818 -0.4162
 2014poe    c2311205   2.227   3.180   2.726 -0.2576 -0.5033 -0.5095
 2014poe    c2311206   2.244   3.321   2.667  0.3964 -0.2631  0.2401
 2014poe     o211207   2.320   3.406   2.751 -0.3429  0.4968  0.1475
 2014poe    c3111208   2.317   3.534   2.692  0.3503  0.1923 -0.5788
 2015poe    c3111209   5.959   5.947   3.610  0.4028 -0.4503 -0.2123
 2015poe     o211210   6.024   6.065   3.568 -0.2746  0.1727  0.4623
 2015poe    c2311211   5.970   6.113   3.447 -0.2712  0.3760  0.5408
 2015poe    c2311212   6.062   6.220   3.384 -0.4520  0.3043  0.1544
 2015poe     o211213   6.186   6.162   3.348 -0.1618  0.7898  0.3716
 2015poe    c2311214   6.278   6.251   3.290  0.3680  0.0770  0.1225
 2015poe    c2311215   6.378   6.311   3.390  0.3770  0.2206  0.0282
 2015poe     o211216   6.461   6.203   3.426  0.6948  0.3762 -0.2328
 2015poe    c2311217   6.553   6.249   3.523 -0.1144  0.0627  0.7047
 2015poe    c2311218   6.664   6.142   3.527 -0.2619 -0.1125  0.2195
 2015poe     o211219   6.595   6.022   3.551 -0.9058  0.4627  1.3059
 2015poe    c3111220   6.697   5.926   3.567 -0.5714  0.5573 -0.1261
 2016poe    c3111221   1.247   5.301   3.410  0.0217 -0.0306 -0.3065
 2016poe     o211222   1.154   5.213   3.470  0.1221 -0.0807 -0.2238
 2016poe    c2311223   1.188   5.084   3.425  0.1595 -0.1860  0.1027
 2016poe    c2311224   1.074   4.992   3.473 -0.3701  0.5459  0.2761
 2016poe     o211225   1.042   5.054   3.596  0.2292  0.2320  0.5983
 2016poe    c2311226   0.965   4.970   3.679 -0.2381  0.1745  0.1183
 2016poe    c2311227   0.955   5.037   3.817 -0.4323 -0.2406  0.3076
 2016poe     o211228   0.928   5.175   3.809  0.8171  0.0499  0.7572
 2016poe    c2311229   0.807   5.206   3.743  0.9351 -0.2437  0.4037
 2016poe    c2311230   0.837   5.342   3.676 -0.3525 -0.5190 -0.7703
 2016poe     o211231   0.958   5.353   3.605  0.1346 -0.2523  0.0977
 2016poe    c3111232   0.956   5.472   3.530  0.0387 -0.0489  0.4235
 2017poe    c3111233   2.656   0.311   3.677  0.5052  0.0376 -0.2849
 2017poe     o211234   2.603   0.300   3.547 -0.0395  0.3349 -0.0933
 2017poe    c2311235   2.474   0.353   3.528 -0.2820 -0.3031 -0.2398
 2017poe    c2311236   2.426   0.367   3.382 -0.4916  0.1513 -0.1282
 2017poe     o211237   2.479   0.477   3.312  0.4161 -0.5111 -0.5020
 2017poe    c2311238   2.384   0.539   3.227  0.0201  0.6443  0.7429
 2017poe    c2311239   2.452   0.648   3.142 -0.6102  0.6326  0.2189
 2017poe     o211240   2.531   0.719   3.235 -0.1439 -0.0380  0.3400
 2017poe    c2311241   2.566   0.852   3.206  0.2339 -0.1745  0.1602
 2017poe    c2311242   2.622   0.941   3.318  0.2090  0.7603 -0.5459
 2017poe     o211243   2.744   0.897   3.374 -0.0278  0.7325 -0.0406
 2017poe    c3111244   2.780   1.003   3.460  0.2574  0.4640  0.1735
 2018poe    c3111245   2.563   5.991   3.533 -0.3045 -0.3041 -0.8105
 2018poe     o211246   2.554   5.860   3.585  0.0451 -0.3525 -0.8647
 2018poe    c2311247   2.672   5.784   3.570  0.0642 -0.4261 -0.3596
 2018poe    c2311248   2.661   5.666   3.668 -0.0229  0.1050  0.2810
 2018poe     o211249   2.536   5.609   3.638  0.2929 -0.3308 -0.2231
 2018poe    c2311250   2.497   5.515   3.736 -0.6109  0.4836  0.2077
 2018poe    c2311251   2.365   5.440   3.711 -0.2029 -0.1697  0.0052
 2018poe     o211252   2.253   5.526   3.703 -0.1127  0.0098  0.6126
 2018poe    c2311253   2.149   5.468   3.627 -0.0560  0.2588  0.3468
 2018poe    c2311254   2.022   5.553   3.610  0.0304  0.3380  0.0914
 2018poe     o211255   2.058   5.675   3.550  0.0438  0.1760 -0.2317
 2018poe    c3111256   1.942   5.756   3.552 -0.6033 -0.7536  0.4500
 2019poe    c3111257   3.025   3.735   2.241 -0.0381  0.5308  0.1998
 2019poe     o211258   2.959   3.848   2.294 -0.3382  0.5599 -0.2320
 2019poe    c2311259   3.051   3.951   2.323 -0.1830  0.4321 -0.2660
 2019poe    c2311260   2.985   4.064   2.405 -0.3351 -0.4200  0.7919
 2019poe     o211261   2.894   4.141   2.330  0.2858 -0.2668  0.1887
 2019poe    c2311262   2.940   4.271   2.303 -0.0834 -0.1643  0.0587
 2019poe    c2311263   2.824   4.372   2.289  0.4812  0.5594  0.5331
 2019poe     o211264   2.756   4.376   2.413 -0.5820 -0.4657  0.0066
 2019poe    c2311265   2.651   4.470   2.403 -0.0209  0.1926  0.2231
 2019poe    c2311266   2.559   4.445   2.524 -0.0173 -0.2591  0.1335
 2019poe     o211267   2.499   4.318   2.534 -0.0930 -0.2264  0.0991
 2019poe    c3111268   2.402   4.311   2.636 -0.4662 -0.1680 -0.2505
 2020poe    c3111269   1.963   3.252   1.990  0.1846  0.4183 -0.8351
 2020poe     o211270   1.944   3.388   1.958 -0.3370  0.3909 -0.6556
 2020poe    c2311271   1.952   3.410   1.818 -0.3718  0.5015 -0.6403
 2020poe    c2311272   1.957   3.559   1.782  0.1849  0.5293 -0.4696
 2020poe     o211273   1.902   3.623   1.895  0.0585 -0.4925  0.0576
 2020poe    c2311274   1.927   3.761   1.879  0.0461 -0.4923  0.0411
 2020poe    c2311275   1.876   3.831   2.006 -0.2353 -0.3830 -0.1301
 2020poe     o211276   1.917   3.770   2.126  0.4513 -0.2573 -0.2925
 2020poe    c2311277   1.863   3.847   2.232  0.0105  0.0048 -0.7017
 2020poe    c2311278   1.810   3.759   2.347  0.4402  0.1443 -0.3927
 2020poe     o211279   1.712   3.666   2.305  0.4605 -0.1781  0.2678
 2020poe    c3111280   1.584   3.710   2.343  0.4237  0.2202 -0.3135
 2021poe    c3111281   5.153   2.725   5.696 -0.2674 -0.6729  0.1263
 2021poe     o211282   5.097   2.843   5.749 -0.4005 -0.8189  0.3127
 2021poe    c2311283   5.073   2.922   5.634  0.6296 -0.4819  0.3179
 2021poe    c2311284   5.008   3.056   5.672  0.4699 -0.2485 -0.7560
 2021poe     o211285   4.900   3.027   5.758  0.6384  0.6145 -0.2443
 2021poe    c2311286   4.847   3.132   5.837 -0.5480 -0.3396  0.2586
 2021poe    c2311287   4.906   3.105   5.977 -0.2992 -0.5633  0.1126
 2021poe     o211288   4.903   2.967   6.004  0.2287 -0.5748  0.1235
 2021poe    c2311289   5.001   2.925   6.097  0.3306 -0.1559  0.2059
 2021poe    c2311290   5.004   2.772   6.115  0.0122 -0.2177 -0.2551
 2021poe     o211291   5.039   2.721   5.988  0.0770  0.5038 -0.5353
 2021poe    c3111292   5.094   2.593   6.010  0.2121  0.6825  0.1976
 2022poe    c3111293   5.278   3.072   0.280  0.5714 -0.3836  0.3613
 2022poe     o211294   5.289   2.992   0.164  0.6899  0.7400 -0.4143
 2022poe    c2311295   5.402   2.908   0.161  0.4597  0.4149 -0.1021
 2022poe    c2311296   5.409   2.852   0.018 -0.0078  0.1603 -0.0264
 2022poe     o211297   5.280   2.837  -0.036  0.1436  0.2983 -0.4326
 2022poe    c2311298   5.258   2.761  -0.153  0.5668  0.2188 -0.4596
 2022poe    c2311299   5.300   2.613  -0.154  0.1970  0.1036  0.2147
 2022poe     o211300   5.232   2.523  -0.070  0.4061  0.3793  0.6849
 2022poe    c2311301   5.329   2.425  -0.040 -0.0302 -0.3061 -0.0775
 2022poe    c2311302   5.280   2.346   0.083 -0.5717  0.2873  0.0957
 2022poe     o211303   5.300   2.415   0.204 -0.3695  0.0758  0.1812
 2022poe    c3111304   5.408   2.351   0.269 -0.3806 -0.5012 -0.3558
 2023poe    c3111305   5.346   1.667   0.480 -0.0011  0.2057 -0.0127
 2023poe     o211306   5.452   1.585   0.435 -0.0751 -0.1599  0.4713
 2023poe    c2311307   5.579   1.643   0.455 -0.0176  0.1961 -0.8484
 2023poe    c2311308   5.685   1.615   0.346  0.4892 -0.6246 -0.1555
 2023poe     o211309   5.743   1.487   0.344  0.1643 -0.7754 -0.0622
 2023poe    c2311310   5.787   1.453   0.214 -0.6466 -0.5918 -0.3884
 2023poe    c2311311   5.789   1.301   0.190  0.4466 -0.5824 -0.3918
 2023poe     o211312   5.669   1.255   0.248  0.7322 -0.2868  0.4559
 2023poe    c2311313   5.682   1.115   0.254 -0.0431 -0.3417  0.9122
 2023poe    c2311314   5.547   1.044   0.275 -0.2742 -0.0737  0.3241
 2023poe     o211315   5.447   1.083   0.183  0.1398  0.3602  0.0543
 2023poe    c3111316   5.452   0.993   0.074  0.1989 -0.5555  0.8040
 2024poe    c3111317   2.117   5.283   2.071  0.2038  0.4032 -0.0953
 2024poe     o211318   2.060   5.191   2.161 -0.1558  0.1722 -0.5526
 2024poe    c2311319   1.921   5.170   2.154 -0.1345 -0.3192  0.2812
 2024poe    c2311320   1.871   5.050   2.237 -0.0752  0.0057  0.7866
 2024poe     o211321   1.911   4.930   2.174 -0.2586  0.0322  0.6212
 2024poe    c2311322   1.908   4.816   2.256  0.4081 -0.0393  0.5483
 2024poe    c2311323   1.976   4.687   2.206  0.1896  0.1447 -0.2403
 2024poe     o211324   1.914   4.605   2.109  0.6804  0.3349 -0.7174
 2024poe    c2311325   1.997   4.501   2.062  0.8326  0.3383 -0.4577
 2024poe    c2311326   1.926   4.395   1.976 -0.1041  0.5029  0.0967
 2024poe     o211327   1.911   4.426   1.839  0.5192 -0.2146 -0.1404
 2024poe    c3111328   1.855   4.315   1.773  0.2770 -0.0548 -0.2036
 2025poe    c3111329   6.985   3.653   5.438  0.0261 -0.7457  0.0976
 2025poe     o211330   6.960   3.622   5.573  1.3252 -0.2489  0.4663
 2025poe    c2311331   6.890   3.501   5.589 -0.7645  0.8912  0.1929
 2025poe    c2311332   6.853   3.482   5.737  0.1792 -0.0915  0.3125
 2025poe     o211333   6.776   3.582   5.799 -0.5298 -0.2882 -0.2398
 2025poe    c2311334   6.756   3.559   5.936  0.0487  0.1501 -0.0788
 2025poe    c2311335   6.706   3.692   5.994 -0.1643  0.3617 -0.7435
 2025poe     o211336   6.805   3.788   5.963  0.0185  0.3336 -0.2550
 2025poe    c2311337   6.789   3.901   6.046 -0.0351 -0.1963  0.4746
 2025poe    c2311338   6.904   4.004   6.049 -0.5822  0.4292  0.0926
 2025poe     o211339   6.929   4.038   5.914  0.4827  0.2883  0.2504
 2025poe    c3111340   7.048   4.114   5.919  0.9786 -0.4772  0.2626
 2026poe    c3111341   5.328   5.110   6.437 -0.0408  0.3305 -0.2283
 2026poe     o211342   5.405   5.011   6.371 -0.0942  0.2893 -0.2286
 2026poe    c2311343   5.359   4.885   6.413 -0.2423  0.3244 -0.2834
 2026poe    c2311344   5.403   4.773   6.316  0.5947 -0.0909  0.5589
 2026poe     o211345   5.521   4.832   6.267  0.5780 -0.1520  0.4449
 2026poe    c2311346   5.598   4.738   6.197  0.1804 -0.0138 -0.1918
 2026poe    c2311347   5.713   4.812   6.127 -0.1473  1.0375  0.3692
 2026poe     o211348   5.672   4.904   6.028 -0.4755  0.4684 -0.0309
 2026poe    c2311349   5.782   4.951   5.954 -0.0477 -0.1765  0.1859
 2026poe    c2311350   5.752   5.043   5.834 -0.3111 -0.2243  0.2152
 2026poe     o211351   5.650   5.135   5.868 -0.4171  0.1443 -1.0365
 2026poe    c3111352   5.629   5.223   5.760  0.1893  0.4530 -0.9126
 2027poe    c3111353   3.922   2.312   6.817 -0.1684  0.6647 -0.0126
 2027poe     o211354   3.848   2.195   6.838  0.2374  0.2835 -0.6568
 2027poe    c2311355   3.718   2.224   6.884  0.3197  0.0742 -0.2885
 2027poe    c2311356   3.645   2.088   6.900  0.1164  0.2008 -0.1262
 2027poe     o211357   3.643   2.017   6.778 -0.0926 -0.0571  0.0265
 2027poe    c2311358   3.605   1.883   6.800  0.4804 -0.2518 -0.1477
 2027poe    c2311359   3.665   1.790   6.693 -0.2839 -0.5412 -0.3270
 2027poe     o211360   3.659   1.835   6.559 -0.2963  0.4110 -0.0138
 2027poe    c2311361   3.729   1.756   6.465 -0.1840  0.1074  0.3198
 2027poe    c2311362   3.746   1.846   6.341  0.7641 -0.1622  0.2532
 2027poe     o211363   3.787   1.973   6.385 -0.4649  0.0302  0.8869
 2027poe    c3111364   3.811   2.066   6.281  0.8858 -0.0370  1.1227
 2028poe    c3111365   2.996   2.577   1.279  0.2556 -0.4517 -0.5042
 2028poe     o211366   2.974   2.520   1.406 -0.3288  0.2592 -0.2771
 2028poe    c2311367   2.984   2.618   1.507  0.2566 -0.2065  0.1273
 2028poe    c2311368   2.999   2.568   1.652 -0.0487  0.4641  0.3943
 2028poe     o211369   2.911   2.463   1.683  0.2155  0.1858  0.2099
 2028poe    c2311370   2.938   2.411   1.811 -0.5212  0.6983  0.5812
 2028poe    c2311371   2.926   2.258   1.801 -0.3101  0.7029  0.2391
 2028poe     o211372   2.789   2.249   1.768 -0.1561 -0.0159 -0.2451
 2028poe    c2311373   2.771   2.123   1.708 -0.1437  0.0216 -0.3271
 2028poe    c2311374   2.624   2.123   1.662 -0.1403  0.0194 -0.3393
 2028poe     o211375   2.589   2.241   1.594 -0.2462 -0.0770 -0.4503
 2028poe    c3111376   2.478   2.220   1.508 -0.4156 -0.2482 -0.1912
 2029poe    c3111377   6.311   5.758   2.705 -0.0249 -0.5869 -0.1515
 2029poe     o211378   6.359   5.807   2.581 -0.2317  0.5432  0.2017
 2029poe    c2311379   6.469   5.728   2.539 -0.3994  0.4693 -0.0974
 2029poe    c2311380   6.512   5.782   2.401 -0.3568  0.7201  0.0127
 2029poe     o211381   6.419   5.762   2.297 -0.6963  0.0352  0.4404
 2029poe    c2311382   6.447   5.836   2.181  0.1857 -0.8515  0.0745
 2029poe    c2311383   6.332   5.812   2.080 -0.0584  0.0531  0.1269
 2029poe     o211384   6.210   5.875   2.109 -0.1539  0.0452 -0.2510
 2029poe    c2311385   6.105   5.808   2.044 -0.0281 -0.8498  0.4479
 2029poe    c2311386   6.006   5.779   2.158 -0.0209 -0.2815  0.6007
 2029poe     o211387   5.984   5.885   2.248 -0.4408  0.0283  0.1347
 2029poe    c3111388   5.867   5.867   2.326 -0.2803  0.0594  0.3840
 2030poe    c3111389   6.806   4.498   5.256  0.5888  0.5159  0.1978
 2030poe     o211390   6.797   4.637   5.232 -0.1768  0.4325 -0.0088
 2030poe    c2311391   6.820   4.721   5.343 -0.2035  0.3632  0.0496
 2030poe    c2311392   6.954   4.797   5.340  0.1109 -0.1496  0.7456
 2030poe     o211393   6.962   4.882   5.228  0.5347 -0.4951  0.5113
 2030poe    c2311394   7.057   4.986   5.230 -0.4128  0.3964 -0.2610
 2030poe    c2311395   7.152   4.953   5.113 -0.1944  0.3072 -0.0581
 2030poe     o211396   7.096   4.924   4.987 -0.1210  0.1014 -0.0439
 2030poe    c2311397   7.128   5.035   4.906  0.3570 -0.1597 -0.2141
 2030poe    c2311398   7.109   4.995   4.758  0.4184 -0.4818 -0.1357
 2030poe     o211399   6.986   4.928   4.744  0.1684 -0.0462 -0.0518
 2030poe    c3111400   6.959   4.884   4.613 -0.2141 -0.1245  0.0515
 2031poe    c3111401   3.777   6.156   5.321 -0.6676  0.0999 -0.5604
 2031poe     o211402   3.774   6.044   5.235 -0.6842 -0.2245 -0.1412
 2031poe    c2311403   3.816   6.083   5.106 -0.2136  0.2634  0.1582
 2031poe    c2311404   3.859   5.956   5.032 -0.5126  0.2576 -0.0065
 2031poe     o211405   3.778   5.847   5.070 -0.3064  0.0716 -0.0949
 2031poe    c2311406   3.768   5.745   4.973 -0.4146  0.0418 -0.0527
 2031poe    c2311407   3.665   5.652   5.040 -0.2363  0.0103  0.1800
 2031poe     o211408   3.559   5.737   5.075  0.1059  0.3886  0.3037
 2031poe    c2311409   3.437   5.668   5.058  0.0017  0.5885  0.2297
 2031poe    c2311410   3.320   5.751   5.113  0.2328  0.7040  0.5558
 2031poe     o211411   3.306   5.868   5.035 -0.6161  0.0928 -0.2357
 2031poe    c3111412   3.191   5.942   5.070 -0.1150  0.8467 -0.1702
 2032poe    c3111413   0.724   4.682   1.247 -0.1151  0.5904 -0.1737
 2032poe     o211414   0.594   4.667   1.194 -0.0589 -0.7834  0.0415
 2032poe    c2311415   0.587   4.639   1.056 -0.6047  0.2777 -0.1546
 2032poe    c2311416   0.445   4.654   0.997 -0.5669  0.5690 -0.1758
 2032poe     o211417   0.346   4.590   1.074 -0.1163 -0.1243 -0.1555
 2032poe    c2311418   0.214   4.613   1.030 -0.2630 -0.5859  0.0433
 2032poe    c2311419   0.147   4.695   1.143  0.3062 -0.1545  0.0700
 2032poe     o211420   0.152   4.620   1.262 -0.0955 -0.5584 -0.1605
 2032poe    c2311421   0.071   4.684   1.359 -0.0815 -0.2866 -0.3273
 2032poe    c2311422   0.073   4.579   1.471  0.1843  0.0428 -0.0237
 2032poe     o211423   0.207   4.541   1.493  0.2553  0.5467  0.4437
 2032poe    c3111424   0.222   4.424   1.570 -0.0622 -0.0989 -0.4544
 2033poe    c3111425   3.712   5.917   1.051 -0.4705  0.3622 -0.2851
 2033poe     o211426   3.762   5.873   1.175 -0.0980  0.3836 -0.4272
 2033poe    c2311427   3.811   5.991   1.235  0.2953  0.2308 -0.4434
 2033poe    c2311428   3.899   5.979   1.361 -0.0440 -0.0439 -0.2305
 2033poe     o211429   4.037   5.970   1.332 -0.0029  0.1458 -0.0993
 2033poe    c2311430   4.107   5.895   1.429  0.2349  0.4214 -0.0573
 2033poe    c2311431   4.194   5.786   1.363  0.0414  0.5286 -0.4930
 2033poe     o211432   4.142   5.655   1.356  0.6211  0.2864 -0.3238
 2033poe    c2311433   4.245   5.560   1.344  0.1004 -0.3338  0.0439
 2033poe    c2311434   4.206   5.412   1.328  0.3450 -0.3366 -0.5544
 2033poe     o211435   4.101   5.377   1.415  0.2212  0.3279 -0.4282
 2033poe    c3111436   4.136   5.305   1.531  0.2381  0.3103 -0.4439
 2034poe    c3111437   2.118   2.011   1.969  0.2421  0.7276  0.0972
 2034poe     o211438   2.010   2.044   2.054 -0.3036 -0.4288 -0.1292
 2034poe    c2311439   2.031   1.972   2.174  0.4086  0.2916  0.1897
 2034poe    c2311440   1.896   1.977   2.247  0.1825 -0.1263 -0.1906
 2034poe     o211441   1.857   2.113   2.244  0.9082  0.0796 -0.3916
 2034poe    c2311442   1.738   2.142   2.314  1.0354  0.4414 -0.3223
 2034poe    c2311443   1.725   2.295   2.313  0.1086  0.3771  0.2731
 2034poe     o211444   1.743   2.336   2.179 -0.5023 -0.1194  0.0380
 2034poe    c2311445   1.702   2.463   2.132 -0.2697  0.0432  0.2719
 2034poe    c2311446   1.574   2.535   2.178 -0.7060 -0.7951  0.3868
 2034poe     o211447   1.605   2.624   2.282  0.1395 -0.8522  0.1897
 2034poe    c3111448   1.499   2.673   2.361  0.3055  0.0836 -0.1628
 2035poe    c3111449   3.423   5.024   5.728  0.3303  0.6839 -0.3891
 2035poe     o211450   3.495   5.029   5.849 -0.4295  0.1874  0.0951
 2035poe    c2311451   3.471   4.913   5.925  0.0596  0.4148  0.6095
 2035poe    c2311452   3.569   4.876   6.037 -0.1708 -0.6247  0.4752
 2035poe     o211453   3.573   4.974   6.138 -0.2890 -0.2715  0.1382
 2035poe    c2311454   3.630   4.936   6.262  0.2863  0.0648 -0.0185
 2035poe    c2311455   3.671   5.061   6.342  0.2297  0.1463 -0.1165
 2035poe     o211456   3.768   5.130   6.267 -0.1544  0.3914 -0.3905
 2035poe    c2311457   3.840   5.210   6.358 -0.2332 -0.1504  0.1535
 2035poe    c2311458   3.986   5.246   6.325 -0.1176  0.0251  0.8472
 2035poe     o211459   4.073   5.136   6.309 -0.2260  0.0464  0.0786
 2035poe    c3111460   4.101   5.115   6.173  0.8888 -0.2939  0.3501
 2036poe    c3111461   1.828   2.928   4.472 -0.3565  0.1962 -0.1962
 2036poe     o211462   1.801   3.056   4.524 -0.2776  0.3338 -0.4957
 2036poe    c2311463   1.665   3.080   4.551 -0.1927  0.4329 -0.1613
 2036poe    c2311464   1.652   3.207   4.637  0.0096  0.3819 -0.0564
 2036poe     o211465   1.730   3.303   4.570 -0.1348  0.1753 -0.5230
 2036poe    c2311466   1.722   3.429   4.633  0.7452  0.1497 -0.3377
 2036poe    c2311467   1.764   3.553   4.552  0.3201  0.3236 -0.2970
 2036poe     o211468   1.898   3.535   4.512  0.3448 -0.4936  0.1534
 2036poe    c2311469   1.952   3.622   4.416  0.0826 -0.1138  0.3465
 2036poe    c2311470   2.105   3.602   4.407  0.0600 -0.0552 -0.2077
 2036poe     o211471   2.139   3.470   4.371 -0.2142 -0.1020 -0.3027
 2036poe    c3111472   2.275   3.462   4.334 -0.0516 -0.0464  0.2613
 2037poe    c3111473   1.295   4.200   2.019  0.4891  0.7330  1.0851
 2037poe     o211474   1.245   4.324   1.976  0.6910  0.4721  0.0530
 2037poe    c2311475   1.235   4.411   2.087  0.1901 -0.3465  0.6665
 2037poe    c2311476   1.145   4.528   2.043 -0.4075 -1.0552 -0.0258
 2037poe     o211477   1.169   4.545   1.905 -0.0458 -0.4293  0.1083
 2037poe    c2311478   1.096   4.651   1.848  0.4966  0.3367  0.8218
 2037poe    c2311479   1.114   4.683   1.699  0.1136 -0.2794  0.6436
 2037poe     o211480   1.117   4.577   1.605  0.3643 -0.0740  0.4187
 2037poe    c2311481   1.061   4.608   1.480 -0.2933 -0.5508  0.5905
 2037poe    c2311482   1.089   4.502   1.372  0.5619 -0.1104  0.3717
 2037poe     o211483   1.034   4.382   1.421 -0.5232  0.3793  0.3868
 2037poe    c3111484   1.043   4.282   1.322  0.8015  0.4734  0.3880
 2038poe    c3111485   5.887   1.798   4.026  0.7015 -0.0087 -0.8866
 2038poe     o211486   5.986   1.854   4.110 -0.1197  0.0586  0.0544
 2038poe    c2311487   6.112   1.823   4.056 -0.2111  0.0093 -0.1343
 2038poe    c2311488   6.241   1.861   4.132 -0.5007  0.5104  0.1081
 2038poe     o211489   6.258   1.794   4.255 -0.4400  0.3239 -0.0025
 2038poe    c2311490   6.371   1.849   4.318 -0.0218 -0.5027 -0.0225
 2038poe    c2311491   6.378   1.854   4.472  0.1182  0.0944 -0.0452
 2038poe     o211492   6.319   1.976   4.512 -0.3226 -0.0874 -0.1313
 2038poe    c2311493   6.283   1.965   4.647 -0.3828  0.0844 -0.1339
 2038poe    c2311494   6.306   2.096   4.725 -0.5468  0.1252 -0.1543
 2038poe     o211495   6.232   2.200   4.663 -0.0928  0.1230 -0.7080
 2038poe    c3111496   6.232   2.316   4.743 -0.0487 -0.1050 -0.3715
 2039poe    c3111497   0.108   5.250   2.195 -0.0671  0.3139 -0.0210
 2039poe     o211498   0.193   5.225   2.085  0.1423 -0.6952  0.3572
 2039poe    c2311499   0.141   5.260   1.959  0.1500 -0.4315  0.4259
 2039poe    c2311500   0.246   5.222   1.852  0.9608 -0.0345  1.0708
 2039poe     o211501   0.260   5.082   1.844 -0.3088 -0.1334  0.2195
 2039poe    c2311502   0.355   5.061   1.741  0.0480 -0.4920  0.6140
 2039poe    c2311503   0.367   4.913   1.703 -0.3262 -0.4971  0.5090
 2039poe     o211504   0.408   4.816   1.797  0.3446 -0.4428  0.2770
 2039poe    c2311505   0.286   4.763   1.846  0.1912 -0.1039  0.2592
 2039poe    c2311506   0.328   4.645   1.935  0.1895 -0.4469 -0.1908
 2039poe     o211507   0.401   4.660   2.055 -0.2171  0.1318 -0.0081
 2039poe    c3111508   0.389   4.541   2.129  0.2599 -0.0205 -0.1709
 2040poe    c3111509   1.754   6.900   2.964 -0.1527  0.4518 -0.1203
 2040poe     o211510   1.818   6.859   3.083 -0.2861 -0.0114 -0.2075
 2040poe    c2311511   1.957   6.853   3.066 -0.2063 -0.3485  0.5346
 2040poe    c2311512   2.032   6.846   3.201  0.5621  0.0829  0.1407
 2040poe     o211513   1.967   6.753   3.286  0.2849  0.1266 -0.0213
 2040poe    c2311514   2.051   6.715   3.392  0.1678 -0.0798 -0.0026
 2040poe    c2311515   1.969   6.717   3.522  0.3066  0.2256  0.0825
 2040poe     o211516   1.843   6.663   3.490  0.5933 -0.1496 -0.4297
 2040poe    c2311517   1.772   6.649   3.611 -0.0003 -0.7021 -0.8318
 2040poe    c2311518   1.632   6.708   3.634  0.4242 -0.3506  1.0162
 2040poe     o211519   1.622   6.848   3.648  0.5529 -0.3345  0.9415
 2040poe    c3111520   1.490   6.891   3.672  0.5572  0.2554 -0.0442
 2041poe    c3111521   4.612   5.139   0.922  0.0574  0.0573 -0.3337
 2041poe     o211522   4.684   5.197   1.029 -0.3402  0.0680 -0.0697
 2041poe    c2311523   4.786   5.116   1.084  0.0781  0.7654  0.1945
 2041poe    c2311524   4.804   5.139   1.235  0.5091 -0.0805  0.2757
 2041poe     o211525   4.775   5.029   1.319 -0.2408 -0.1830 -0.1139
 2041poe    c2311526   4.781   5.048   1.458  0.6532 -0.5078 -0.1022
 2041poe    c2311527   4.736   4.924   1.539  0.8453 -0.4510  0.0918
 2041poe     o211528   4.808   4.814   1.490  0.6668 -0.3545 -0.3914
 2041poe    c2311529   4.898   4.750   1.578 -0.1630 -0.2661  0.5325
 2041poe    c2311530   5.021   4.731   1.487 -0.1974 -0.4475  0.5238
 2041poe     o211531   4.979   4.663   1.371  0.3307  0.4142 -0.1848
 2041poe    c3111532   5.093   4.607   1.309 -0.0794 -0.2999 -0.3058
 2042poe    c3111533   4.751   0.396   0.025 -0.3364 -0.1696 -0.5931
 2042poe     o211534   4.891   0.403   0.010 -0.2758 -0.3439 -0.1166
 2042poe    c2311535   4.937   0.416   0.143 -0.1486 -0.6571 -0.1292
 2042poe    c2311536   5.091   0.410   0.142 -0.1377 -0.3892 -0.3366
 2042poe     o211537   5.147   0.338   0.035 -0.1934 -0.2074 -0.4884
 2042poe    c2311538   5.288   0.339   0.043 -0.2406 -0.4078  0.4782
 2042poe    c2311539   5.359   0.299  -0.088 -0.7145 -0.0460  0.1054
 2042poe     o211540   5.314   0.388  -0.187  0.5590  0.3070 -0.1834
 2042poe    c2311541   5.388   0.366  -0.304 -0.1424 -0.3037 -0.5216
 2042poe    c2311542   5.335   0.478  -0.395 -0.0557 -0.1006 -0.3225
 2042poe     o211543   5.195   0.473  -0.411 -0.1185 -0.4550  0.3252
 2042poe    c3111544   5.148   0.590  -0.473  0.1487  0.1377  1.2143
 2043poe    c3111545   6.453   5.670   5.583 -0.3495 -0.2285  0.0726
 2043poe     o211546   6.553   5.598   5.515  0.1089 -0.0859  0.5871
 2043poe    c2311547   6.666   5.677   5.541 -0.2543  0.8352 -0.5691
 2043poe    c2311548   6.793   5.631   5.467 -0.1715  0.0076  0.0722
 2043poe     o211549   6.841   5.516   5.533 -0.4006  0.0769  0.3628
 2043poe    c2311550   6.969   5.483   5.483 -0.4396 -0.2253  0.4601
 2043poe    c2311551   7.037   5.353   5.528  0.3685  0.0569  0.0600
 2043poe     o211552   6.919   5.278   5.544  0.1806  0.2692 -0.3181
 2043poe    c2311553   6.948   5.146   5.584 -0.5561  0.3204  0.4222
 2043poe    c2311554   6.812   5.075   5.578 -0.2412 -0.2175 -0.5677
 2043poe     o211555   6.715   5.142   5.655 -0.1798 -0.3476 -0.3766
 2043poe    c3111556   6.618   5.052   5.704 -0.4155  0.3136  0.3988
 2044poe    c3111557   2.781   2.224   3.075 -0.3121  0.2088 -0.2565
 2044poe     o211558   2.815   2.096   3.123  0.1486  0.1012 -0.8564
 2044poe    c2311559   2.722   1.998   3.082 -0.2220  0.0376  0.1047
 2044poe    c2311560   2.593   2.002   3.166 -0.2209  0.0195  0.1074
 2044poe     o211561   2.648   1.972   3.292 -0.2021  0.0304  0.1018
 2044poe    c2311562   2.555   2.017   3.388 -0.5780 -0.1234 -0.1909
 2044poe    c2311563   2.592   1.961   3.527 -0.4942  0.4312  0.0108
 2044poe     o211564   2.723   2.003   3.561 -0.4574  0.1215  0.2518
 2044poe    c2311565   2.750   1.973   3.696 -0.3776  0.8839  0.4122
 2044poe    c2311566   2.901   1.994   3.715 -0.1521 -0.5123  0.2787
 2044poe     o211567   2.968   1.928   3.610 -0.0958 -0.0325  0.0140
 2044poe    c3111568   3.108   1.916   3.625 -0.1038  0.0384  0.1443
 2045poe    c3111569   2.248   6.172   1.607 -0.0048  1.2028 -0.2692
 2045poe     o211570   2.169   6.137   1.496 -0.0372  0.4807 -0.0291
 2045poe    c2311571   2.072   6.238   1.478 -0.0407  0.3427 -0.8019
 2045poe    c2311572   1.978   6.183   1.369 -0.3655  0.0499 -0.3783
 2045poe     o211573   1.948   6.051   1.408  0.2623 -0.0635 -0.2661
 2045poe    c2311574   1.876   5.976   1.313 -0.7964  0.3354  0.2127
 2045poe    c2311575   1.878   5.831   1.363 -0.7395  0.3775  0.3342
 2045poe     o211576   2.007   5.816   1.418 -0.3720  0.0869 -0.5820
 2045poe    c2311577   2.009   5.697   1.495  0.6028  0.2450 -0.3582
 2045poe    c2311578   2.149   5.692   1.559  0.3335  0.0990  0.2200
 2045poe     o211579   2.182   5.828   1.579  0.5555  0.0566  0.1503
 2045poe    c3111580   2.282   5.824   1.678  0.4218  0.4272  0.3002
 2046poe    c3111581   5.605   5.418   3.416 -0.6823 -0.2161 -0.1647
 2046poe     o211582   5.557   5.548   3.387  0.4374  0.3869  0.5906
 2046poe    c2311583   5.654   5.649   3.398  0.5035  0.3465  0.3719
 2046poe    c2311584   5.609   5.791   3.436 -0.1935  0.2234  0.0058
 2046poe     o211585   5.540   5.795   3.559  0.1124  0.0456  0.1837
 2046poe    c2311586   5.515   5.929   3.595  0.5363  0.0672  0.3990
 2046poe    c2311587   5.426   5.917   3.720  0.1329  0.3613  0.1401
 2046poe     o211588   5.329   5.818   3.694  0.2224  0.3058  0.0196
 2046poe    c2311589   5.211   5.839   3.767 -0.3211 -0.4610 -0.6128
 2046poe    c2311590   5.119   5.718   3.744 -0.2312 -0.6008 -0.2427
 2046poe     o211591   5.194   5.602   3.719  0.2914 -0.3628  0.1880
 2046poe    c3111592   5.110   5.490   3.739  0.4721 -0.5336 -0.0108
 2047poe    c3111593   4.632   5.097   2.222  0.2790 -0.1442  0.0583
 2047poe     o211594   4.772   5.087   2.205  0.3491 -0.6892  0.9340
 2047poe    c2311595   4.801   4.999   2.098  0.1149  0.2883  0.0503
 2047poe    c2311596   4.843   5.045   1.957 -0.5197  0.3873 -0.1093
 2047poe     o211597   4.960   5.123   1.975  0.0363 -0.4976  0.1831
 2047poe    c2311598   5.034   5.117   1.855  0.2446 -0.8023  0.3262
 2047poe    c2311599   5.156   5.209   1.844 -0.2727 -0.2272 -0.6529
 2047poe     o211600   5.152   5.324   1.925 -0.2432 -0.3473 -0.4806
 2047poe    c2311601   5.268   5.404   1.916 -0.5791  0.1873 -0.1303
 2047poe    c2311602   5.247   5.541   1.984  0.1007  0.1190  0.2294
 2047poe     o211603   5.197   5.520   2.114 -0.3546 -0.6247 -0.0603
 2047poe    c3111604   5.202   5.642   2.184 -0.1171 -0.4087 -0.4517
 2048poe    c3111605   6.479   0.453   5.396  0.9303  0.0467 -0.6296
 2048poe     o211606   6.502   0.512   5.523 -0.6120 -0.5207 -0.0646
 2048poe    c2311607   6.414   0.620   5.546  0.1700  0.0905  0.1139
 2048poe    c2311608   6.431   0.680   5.686  0.3996  0.9630 -0.2801
 2048poe     o211609   6.566   0.674   5.726  0.3156 -0.1429 -0.1175
 2048poe    c2311610   6.584   0.748   5.845  0.3125  0.2702 -0.3707
 2048poe    c2311611   6.732   0.766   5.881  0.3700  0.0065 -0.4735
 2048poe     o211612   6.779   0.643   5.932  0.1389  0.1694  0.1335
 2048poe    c2311613   6.914   0.664   5.968  0.1784 -0.2184  0.2134
 2048poe    c2311614   6.984   0.534   6.012  0.7724  0.0476  0.0614
 2048poe     o211615   6.985   0.434   5.912 -0.1873  0.1928 -0.1073
 2048poe    c3111616   7.073   0.449   5.803  0.0289  0.2555  0.0731
 2049poe    c3111617   3.728   0.970   2.407  0.4876  0.0970  0.1237
 2049poe     o211618   3.647   0.934   2.298 -0.0209  0.6905  0.2991
 2049poe    c2311619   3.520   0.882   2.330  0.0275  0.5957  0.3379
 2049poe    c2311620   3.450   0.841   2.199 -0.1449 -0.0054  0.6147
 2049poe     o211621   3.512   0.734   2.131 -0.8199 -0.0428  0.0564
 2049poe    c2311622   3.466   0.711   1.999 -0.7682 -0.8609  0.1732
 2049poe    c2311623   3.552   0.618   1.912 -0.2440 -0.2891  0.0721
 2049poe     o211624   3.682   0.667   1.892 -0.2654 -0.1795  0.2004
 2049poe    c2311625   3.744   0.579   1.801  0.0254  0.0564  0.1689
 2049poe    c2311626   3.880   0.638   1.758 -0.0746  0.0797 -0.1173
 2049poe     o211627   3.966   0.645   1.869  0.1402 -1.4539 -0.1629
 2049poe    c3111628   4.099   0.668   1.826  0.3816 -0.0716  1.2460
 2050poe    c3111629   1.933   2.104   1.505 -0.1289  0.0116  0.5928
 2050poe     o211630   1.960   2.222   1.433 -0.1076 -0.3239  0.0425
 2050poe    c2311631   1.961   2.326   1.529  0.0816 -0.1331 -0.1659
 2050poe    c2311632   1.979   2.468   1.472  0.0535 -0.0770 -0.0341
 2050poe     o211633   1.863   2.519   1.409 -0.2118  0.1040  0.5897
 2050poe    c2311634   1.885   2.643   1.347 -0.7218 -0.0705  0.0437
 2050poe    c2311635   1.909   2.632   1.195  0.0238 -0.2762  0.1691
 2050poe     o211636   2.035   2.591   1.147 -0.0390 -0.2700 -0.0015
 2050poe    c2311637   2.109   2.703   1.105 -0.4830  0.0483  0.0568
 2050poe    c2311638   2.253   2.697   1.158 -0.5456  0.1917  0.2460
 2050poe     o211639   2.319   2.579   1.116 -0.6242  0.4042 -0.4950
 2050poe    c3111640   2.438   2.607   1.047 -0.2335 -0.3939 -0.1453
 2051poe    c3111641   4.266   5.185   2.294  0.2677 -0.7673  0.7749
 2051poe     o211642   4.136   5.143   2.329 -0.0864 -0.0766  0.3060
 2051poe    c2311643   4.128   5.007   2.294  0.1765  0.1644 -0.7261
 2051poe    c2311644   3.989   4.963   2.343  0.0796  0.3664 -0.8199
 2051poe     o211645   3.910   5.080   2.334  0.2679  0.5146 -0.5426
 2051poe    c2311646   3.789   5.041   2.396  0.6227 -0.0814 -0.2124
 2051poe    c2311647   3.672   5.141   2.382  0.5407 -0.1753 -0.1915
 2051poe     o211648   3.705   5.265   2.439 -0.4260  0.0385 -0.0776
 2051poe    c2311649   3.666   5.382   2.370 -0.3550 -0.2767 -0.6583
 2051poe    c2311650   3.727   5.509   2.432 -0.8218 -0.3368 -0.0676
 2051poe     o211651   3.868   5.519   2.423 -0.8696  0.2191 -0.2818
 2051poe    c3111652   3.908   5.618   2.515  0.2997 -0.7395  0.2799
 2052poe    c3111653   5.790   3.873   2.987 -0.4091 -0.0755 -0.3486
 2052poe     o211654   5.811   3.989   2.909 -0.1159  0.3449  0.3437
 2052poe    c2311655   5.733   3.993   2.792  0.2971 -0.3410  0.0356
 2052poe    c2311656   5.748   4.134   2.730  0.0023  0.0901  0.9290
 2052poe     o211657   5.881   4.164   2.695  0.0252  0.0544  0.9843
 2052poe    c2311658   5.897   4.297   2.652  0.0901 -0.1658  0.3210
 2052poe    c2311659   6.024   4.300   2.564 -0.5151  0.5083 -0.5407
 2052poe     o211660   6.131   4.291   2.655 -0.6893 -0.4175 -0.4239
 2052poe    c2311661   6.226   4.196   2.614 -0.2757 -0.4140  0.5085
 2052poe    c2311662   6.359   4.200   2.693 -0.0821  0.1789  0.1548
 2052poe     o211663   6.305   4.229   2.820 -0.0155  0.0835  0.2047
 2052poe    c3111664   6.416   4.260   2.902  0.2452  0.4082 -0.2634
 2053poe    c3111665   2.207   1.022   0.569  0.1725 -0.1219 -0.0767
 2053poe     o211666   2.148   0.989   0.693 -0.2181 -0.0301 -0.2350
 2053poe    c2311667   2.248   1.006   0.791 -0.3097  0.4579 -0.2239
 2053poe    c2311668   2.213   0.923   0.917 -0.2181  0.3457 -0.2722
 2053poe     o211669   2.249   0.787   0.912 -0.4524  0.2842 -0.2806
 2053poe    c2311670   2.200   0.737   1.035  0.1317 -0.0218 -0.1712
 2053poe    c2311671   2.202   0.584   1.053  0.1975  0.0323  0.2767
 2053poe     o211672   2.134   0.504   0.959 -0.2651  0.0375  0.6023
 2053poe    c2311673   2.143   0.368   0.994  0.0873 -0.0375  0.2314
 2053poe    c2311674   2.078   0.276   0.889 -0.1552  0.0792  0.2791
 2053poe     o211675   1.937   0.274   0.884 -0.1730  0.2141  0.6897
 2053poe    c3111676   1.887   0.161   0.953 -0.4083 -0.5369 -0.6835
 2054poe    c3111677   6.722   7.119   6.794  0.0545 -0.2245 -0.3257
 2054poe     o211678   6.780   7.036   6.892 -0.1099 -0.7040 -0.6309
 2054poe    c2311679   6.864   6.931   6.850  0.0876 -0.6895 -0.2809
 2054poe    c2311680   6.810   6.824   6.754  0.2299 -0.7141 -0.3338
 2054poe     o211681   6.711   6.735   6.800  0.0325 -0.2646  0.1013
 2054poe    c2311682   6.586   6.783   6.845  0.1083 -0.3196  0.3763
 2054poe    c2311683   6.474   6.678   6.837  0.5835 -0.8346  0.4333
 2054poe     o211684   6.405   6.668   6.715  0.1357  0.2968  0.5792
 2054poe    c2311685   6.489   6.617   6.614 -0.3893 -0.3804  0.4714
 2054poe    c2311686   6.395   6.563   6.504 -0.1960  0.5681 -0.1833
 2054poe     o211687   6.336   6.662   6.424  0.2533  0.6367 -0.4308
 2054poe    c3111688   6.269   6.593   6.321 -0.1760  0.1555  0.1663
 2055poe    c3111689   4.885   2.693   6.521 -0.0912  0.0802 -0.1887
 2055poe     o211690   4.850   2.630   6.400 -0.5222  0.4878 -0.2770
 2055poe    c2311691   4.798   2.503   6.432 -0.4804  0.3848 -0.6056
 2055poe    c2311692   4.831   2.393   6.330  0.1009 -0.0240  0.0155
 2055poe     o211693   4.774   2.431   6.207  0.1603  0.0194  0.0017
 2055poe    c2311694   4.822   2.336   6.114 -0.0309 -0.1591  0.0842
 2055poe    c2311695   4.776   2.390   5.977 -0.0962  0.5266  0.3688
 2055poe     o211696   4.642   2.433   5.984 -0.3779 -0.2320 -0.2608
 2055poe    c2311697   4.598   2.478   5.857  0.1037 -0.4435 -0.5044
 2055poe    c2311698   4.460   2.545   5.863  0.2301 -0.1604 -0.7104
 2055poe     o211699   4.483   2.651   5.953 -0.5368 -0.0121 -0.6784
 2055poe    c3111700   4.373   2.698   6.028 -0.4601 -0.1523 -0.4759
 2056poe    c3111701   1.175   3.555   2.926  0.2731 -0.1121 -0.2299
 2056poe     o211702   1.272   3.562   3.028 -0.0164  0.1739  0.0278
 2056poe    c2311703   1.194   3.587   3.143  0.4780 -0.3937  0.4910
 2056poe    c2311704   1.289   3.587   3.264  0.5280 -0.4322  0.4519
 2056poe     o211705   1.402   3.665   3.230  0.1435 -0.2632 -0.4799
 2056poe    c2311706   1.504   3.631   3.322  0.0421 -0.0337 -0.2831
 2056poe    c2311707   1.606   3.746   3.318 -0.1496  0.1452 -0.0810
 2056poe     o211708   1.619   3.794   3.187 -0.2149  0.3928  0.0030
 2056poe    c2311709   1.719   3.892   3.168 -0.2285  0.4548  0.2486
 2056poe    c2311710   1.783   3.899   3.028 -0.4464 -0.1803  0.1131
 2056poe     o211711   1.695   3.934   2.923  0.0387  0.1428 -0.1925
 2056poe    c3111712   1.752   3.980   2.803  0.0213  1.3744  0.2580
 2057poe    c3111713   2.653   7.010   1.842 -0.0222  0.2212 -0.5007
 2057poe     o211714   2.628   6.872   1.836  0.3968  0.1102  0.1570
 2057poe    c2311715   2.612   6.786   1.946 -0.4886 -0.0673 -0.1011
 2057poe    c2311716   2.634   6.639   1.906 -0.3326 -0.0331 -0.1429
 2057poe     o211717   2.531   6.599   1.818 -0.6740 -0.9108  0.6378
 2057poe    c2311718   2.581   6.498   1.734  0.2651 -0.2100  0.3379
 2057poe    c2311719   2.464   6.460   1.641  0.4423  0.2960 -0.0981
 2057poe     o211720   2.473   6.529   1.518 -0.2096  0.1261 -0.2444
 2057poe    c2311721   2.489   6.440   1.410 -0.2029 -0.5885  0.3288
 2057poe    c2311722   2.500   6.493   1.265 -0.4278 -0.1298  0.4784
 2057poe     o211723   2.377   6.552   1.229 -0.0812  0.2350 -0.1079
 2057poe    c3111724   2.357   6.551   1.089 -0.4893  0.7196 -0.0559
 2058poe    c3111725   3.010   0.436   3.599 -0.3876 -0.5764  0.4320
 2058poe     o211726   3.114   0.487   3.680 -0.1209 -0.0912 -0.2108
 2058poe    c2311727   3.062   0.548   3.796  0.4429  0.4556 -0.2374
 2058poe    c2311728   3.176   0.564   3.897 -0.0013 -0.3695  0.4141
 2058poe     o211729   3.288   0.622   3.833 -0.3612 -0.5322 -0.3735
 2058poe    c2311730   3.378   0.686   3.921 -0.4592 -0.2174 -0.5033
 2058poe    c2311731   3.467   0.783   3.841 -0.0599 -0.0683  0.1135
 2058poe     o211732   3.375   0.858   3.766  0.3650 -0.3894 -0.7388
 2058poe    c2311733   3.435   0.976   3.715  0.1409  0.0446 -0.0091
 2058poe    c2311734   3.328   1.065   3.650  0.3310  0.0288 -0.3428
 2058poe     o211735   3.237   1.008   3.559  0.0753 -0.1446  0.0221
 2058poe    c3111736   3.211   1.078   3.440  0.4141 -0.3741 -0.1882
 2059poe    c3111737   2.367   7.038   0.843 -0.7155  0.2406  0.3595
 2059poe     o211738   2.320   7.107   0.729  0.1580  0.1677 -0.0533
 2059poe    c2311739   2.267   7.023   0.628 -0.1614  0.2436  0.0496
 2059poe    c2311740   2.185   7.093   0.519 -0.0911 -0.1098 -0.2304
 2059poe     o211741   2.250   7.211   0.475 -0.3987  0.2636  0.3033
 2059poe    c2311742   2.161   7.273   0.385 -0.5063 -0.3307 -0.0091
 2059poe    c2311743   2.216   7.398   0.314 -0.5172 -0.2796  0.0728
 2059poe     o211744   2.260   7.493   0.409  0.2701 -0.8879  0.3237
 2059poe    c2311745   2.162   7.588   0.443  0.9425 -0.0583 -0.0278
 2059poe    c2311746   2.246   7.702   0.505  0.3498  0.1560  0.3906
 2059poe     o211747   2.332   7.645   0.600  0.1739 -0.3849  0.2278
 2059poe    c3111748   2.354   7.730   0.710  0.1437  0.0080 -0.0675
 2060poe    c3111749   6.694   4.608   4.215 -0.5478  0.3500  0.0034
 2060poe     o211750   6.594   4.515   4.179  0.2960 -0.5765  0.0141
 2060poe    c2311751   6.490   4.498   4.272  0.2340 -0.1658  0.0241
 2060poe    c2311752   6.364   4.432   4.212  0.0427  0.7957 -0.6527
 2060poe     o211753   6.414   4.330   4.128  0.1187  0.2640  0.0264
 2060poe    c2311754   6.319   4.262   4.048  0.5851 -0.0543 -0.2607
 2060poe    c2311755   6.395   4.163   3.958 -0.3133 -0.8221 -0.1832
 2060poe     o211756   6.518   4.220   3.921 -0.0496 -0.6769  0.8766
 2060poe    c2311757   6.547   4.187   3.787 -0.8499  0.7745  0.3284
 2060poe    c2311758   6.653   4.276   3.720 -0.0403  0.1319  0.7483
 2060poe     o211759   6.612   4.406   3.683 -0.2051 -0.1183  0.0320
 2060poe    c3111760   6.692   4.446   3.574 -0.3485  0.3875  0.1098
 2061poe    c3111761   2.946   6.551   2.957  0.3033 -0.6659  0.2149
 2061poe     o211762   3.012   6.489   3.065  0.5350 -0.3564  0.2534
 2061poe    c2311763   3.001   6.576   3.175  0.0659  0.5099 -0.4639
 2061poe    c2311764   3.090   6.532   3.293 -0.3223  0.5915 -0.1356
 2061poe     o211765   3.216   6.498   3.238 -0.3027  0.1067  0.2009
 2061poe    c2311766   3.293   6.431   3.335 -0.1557 -0.9464 -0.6333
 2061poe    c2311767   3.435   6.411   3.281  0.0169  0.2909 -0.6638
 2061poe     o211768   3.427   6.367   3.147  0.1294 -0.8312 -0.3130
 2061poe    c2311769   3.550   6.371   3.077  0.1494  0.2920 -0.2302
 2061poe    c2311770   3.610   6.512   3.064 -0.4673  0.5394 -0.4593
 2061poe     o211771   3.533   6.597   2.982 -0.1025  0.0356 -1.3475
 2061poe    c3111772   3.614   6.712   2.967 -0.0230  0.1846  0.0613
 2062poe    c3111773   4.145   5.473   4.123 -0.3860  0.9510  0.5298
 2062poe     o211774   4.180   5.609   4.124  0.5546  0.7359 -0.6836
 2062poe    c2311775   4.312   5.635   4.167  0.3850 -0.0225  0.3279
 2062poe    c2311776   4.319   5.736   4.283 -0.2534  0.1491  0.2178
 2062poe     o211777   4.269   5.863   4.250 -0.3952  0.1387  0.3927
 2062poe    c2311778   4.327   5.964   4.330  0.3468  0.0899 -0.0735
 2062poe    c2311779   4.267   6.101   4.294  0.1125  0.0287  0.0777
 2062poe     o211780   4.131   6.093   4.258  0.2136 -0.3018 -0.2404
 2062poe    c2311781   4.052   6.193   4.318 -0.0040 -0.3577 -0.4320
 2062poe    c2311782   3.905   6.167   4.279 -0.1690  0.1351 -0.1467
 2062poe     o211783   3.890   6.028   4.269  0.2440  0.0582  0.2624
 2062poe    c3111784   3.767   5.985   4.214  0.0474  0.7578  0.1496
 2063poe    c3111785   6.297   0.903   6.966  0.0811  0.1909 -0.2484
 2063poe     o211786   6.322   0.781   6.901 -0.1459 -0.1946  0.3805
 2063poe    c2311787   6.254   0.771   6.778  0.5717 -0.3248 -0.0140
 2063poe    c2311788   6.253   0.619   6.753 -0.8780 -0.2148 -0.7691
 2063poe     o211789   6.391   0.591   6.744 -0.7996 -0.0453 -0.1615
 2063poe    c2311790   6.413   0.452   6.743 -0.1133  0.0424  1.1515
 2063poe    c2311791   6.562   0.419   6.724 -0.3096  0.2512 -0.9279
 2063poe     o211792   6.644   0.497   6.809 -0.1204 -0.6860 -0.2336
 2063poe    c2311793   6.775   0.446   6.822  0.0287 -0.3062 -0.2415
 2063poe    c2311794   6.864   0.562   6.869 -0.5680  0.1340 -0.1894
 2063poe     o211795   6.839   0.612   6.999 -0.4664 -0.4979  0.0765
 2063poe    c3111796   6.928   0.717   7.030 -0.2760 -0.7391  0.3555
 2064poe    c3111797   4.679   3.601   2.622  0.6506 -0.1624 -0.4143
 2064poe     o211798   4.700   3.533   2.500  0.0883 -1.0171 -0.0452
 2064poe    c2311799   4.832   3.563   2.458 -0.0658 -0.1321  0.0748
 2064poe    c2311800   4.889   3.467   2.352 -0.3981 -0.4044  0.1394
 2064poe     o211801   4.779   3.443   2.266 -0.3744 -0.4605  0.1244
 2064poe    c2311802   4.772   3.324   2.192  0.0638 -0.2974 -0.1792
 2064poe    c2311803   4.650   3.330   2.099 -0.0930 -0.2826  0.0269
 2064poe     o211804   4.542   3.376   2.177  0.0343  0.5869 -0.2998
 2064poe    c2311805   4.426   3.341   2.105 -0.1220 -0.1261  0.2870
 2064poe    c2311806   4.369   3.471   2.046 -0.1014 -0.1897  0.1244
 2064poe     o211807   4.299   3.543   2.145  0.4749  0.1969  0.2537
 2064poe    c3111808   4.164   3.502   2.155  0.5634 -0.0803  0.3242
 2065poe    c3111809   0.500   6.452   4.197  0.2827  0.4897  0.3508
 2065poe     o211810   0.398   6.531   4.141  0.0358 -0.0842 -0.0138
 2065poe    c2311811   0.397   6.667   4.177  0.1055 -0.1510  0.2439
 2065poe    c2311812   0.370   6.710   4.322 -0.6075  0.2661 -0.0066
 2065poe     o211813   0.470   6.668   4.413 -0.6058  0.7315  0.2091
 2065poe    c2311814   0.466   6.724   4.543 -0.4960 -0.4391  0.7280
 2065poe    c2311815   0.585   6.689   4.635  0.0934  0.6855  0.4184
 2065poe     o211816   0.578   6.563   4.699  0.3901  0.5609  0.2086
 2065poe    c2311817   0.690   6.531   4.777  0.4984 -0.1219 -0.2209
 2065poe    c2311818   0.677   6.397   4.852  0.1087  0.2352  0.3582
 2065poe     o211819   0.800   6.327   4.856 -0.2466 -0.4314 -0.0366
 2065poe    c3111820   0.798   6.187   4.866 -0.1043 -0.4121  0.2534
 2066poe    c3111821   6.249   4.010   5.460 -0.0676  0.0209  0.2622
 2066poe     o211822   6.221   3.952   5.586  0.1511 -0.1527  0.2304
 2066poe    c2311823   6.084   3.948   5.616  0.1774 -0.3006  0.3314
 2066poe    c2311824   6.054   3.803   5.658 -0.9206 -0.4100 -0.7592
 2066poe     o211825   6.022   3.726   5.544 -0.3032 -0.2025 -1.0795
 2066poe    c2311826   5.968   3.599   5.576 -0.3715  0.1889  0.4265
 2066poe    c2311827   5.906   3.529   5.454  0.1224  0.3151  0.0980
 2066poe     o211828   6.015   3.530   5.365  0.0876 -0.0272  0.0482
 2066poe    c2311829   5.975   3.486   5.237  0.3373 -0.2522  0.0476
 2066poe    c2311830   6.087   3.507   5.133  0.2449 -0.2052 -0.0414
 2066poe     o211831   6.150   3.624   5.179  0.2227 -0.0934 -0.2930
 2066poe    c3111832   6.237   3.702   5.100  0.7713 -0.7210 -0.3203
 2067poe    c3111833   0.362   2.380   5.254  0.5795  0.3000 -0.5919
 2067poe     o211834   0.381   2.511   5.302  0.5148  0.1028 -0.0262
 2067poe    c2311835   0.480   2.502   5.402 -0.3510 -0.9188  0.7736
 2067poe    c2311836   0.478   2.630   5.487  0.2139 -0.2915 -0.1313
 2067poe     o211837   0.468   2.734   5.393 -0.8388  0.3513  0.6675
 2067poe    c2311838   0.451   2.864   5.445  0.0049  0.7106  0.0749
 2067poe    c2311839   0.461   2.957   5.323  0.3801 -0.2646 -0.6525
 2067poe     o211840   0.352   2.922   5.241 -0.2755 -0.0920  0.1311
 2067poe    c2311841   0.355   3.004   5.126 -0.2489 -0.1039  0.1229
 2067poe    c2311842   0.256   2.945   5.023  0.1483  0.3536 -0.5248
 2067poe     o211843   0.324   2.840   4.958 -0.0444 -0.0301 -0.1178
 2067poe    c3111844   0.233   2.817   4.853 -0.0329  0.6061 -0.2748
 2068poe    c3111845   2.380   1.914   0.769 -0.4990 -0.1846  0.0634
 2068poe     o211846   2.491   1.843   0.820 -0.4751 -0.3198 -0.1758
 2068poe    c2311847   2.604   1.849   0.735 -0.0630 -0.2154  0.3763
 2068poe    c2311848   2.732   1.809   0.811  0.0877  0.5767  0.5499
 2068poe     o211849   2.688   1.709   0.901  0.4382 -0.3331 -0.2760
 2068poe    c2311850   2.795   1.663   0.980  0.1156 -0.0238  0.3457
 2068poe    c2311851   2.709   1.588   1.083  0.3305 -0.1522  0.4313
 2068poe     o211852   2.603   1.670   1.127 -0.4413 -0.5948 -0.5495
 2068poe    c2311853   2.560   1.625   1.253 -0.2905 -0.2524 -0.3727
 2068poe    c2311854   2.468   1.706   1.346  0.5114  0.0713  0.1514
 2068poe     o211855   2.328   1.690   1.336  0.5130 -0.0140  0.2602
 2068poe    c3111856   2.273   1.768   1.440 -0.8671 -0.1671 -0.3405
 2069poe    c3111857   1.947   2.733   4.846 -0.8727  0.1598  0.0912
 2069poe     o211858   1.913   2.596   4.842 -0.4090  0.0399  0.2062
 2069poe    c2311859   1.850   2.571   4.718 -0.6446  0.4522  0.2429
 2069poe    c2311860   1.829   2.423   4.682  0.3560  0.2853  0.3213
 2069poe     o211861   1.943   2.349   4.644 -0.1029 -0.0617 -0.4087
 2069poe    c2311862   1.907   2.212   4.639 -0.0511 -0.0996  0.2021
 2069poe    c2311863   1.952   2.141   4.768 -0.2687 -0.7817 -0.0977
 2069poe     o211864   2.078   2.199   4.795 -0.3993 -0.3947 -0.3125
 2069poe    c2311865   2.128   2.144   4.915 -0.3220  0.0669 -0.1316
 2069poe    c2311866   2.272   2.189   4.943 -0.2007  0.0589 -0.7316
 2069poe     o211867   2.298   2.325   4.973  0.6590 -0.2772  0.1184
 2069poe    c3111868   2.400   2.361   5.063  0.1058  0.0998  0.5986
 2070poe    c3111869   1.835   1.159   4.990  0.1967 -0.6022 -0.3012
 2070poe     o211870   1.714   1.164   4.917  0.2121 -0.9224 -0.3538
 2070poe    c2311871   1.625   1.080   4.987 -0.4644  0.4310  0.4718
 2070poe    c2311872   1.483   1.129   4.953 -0.2147  0.5667 -0.3898
 2070poe     o211873   1.461   1.135   4.814  0.1759  0.2169 -0.4684
 2070poe    c2311874   1.338   1.202   4.796 -0.2327 -0.3501  0.1487
 2070poe    c2311875   1.283   1.199   4.652 -0.4581  0.6359  0.2039
 2070poe     o211876   1.354   1.275   4.557 -0.2095 -0.2601 -0.3369
 2070poe    c2311877   1.387   1.205   4.439  0.1507 -0.1285 -0.3149
 2070poe    c2311878   1.462   1.302   4.346  0.0431 -0.1076 -0.3796
 2070poe     o211879   1.598   1.322   4.379  0.0696 -0.4037 -0.3024
 2070poe    c3111880   1.651   1.420   4.292  0.7878 -0.2442  0.3158
 2071poe    c3111881   4.663   5.229   4.712  0.7318  0.0767  0.2219
 2071poe     o211882   4.666   5.091   4.683 -0.3733  0.1453 -0.2401
 2071poe    c2311883   4.744   5.082   4.566  0.2208  0.4033  0.1292
 2071poe    c2311884   4.688   4.975   4.470  0.5264  0.1373  0.2476
 2071poe     o211885   4.662   4.848   4.528 -0.3972  0.3767  0.3795
 2071poe    c2311886   4.596   4.760   4.440 -0.3900  0.2081  0.5433
 2071poe    c2311887   4.624   4.614   4.482  0.3669  0.0276 -0.5414
 2071poe     o211888   4.541   4.574   4.589  0.8532 -0.2440 -0.2661
 2071poe    c2311889   4.437   4.499   4.530  0.0456  0.3216  0.4204
 2071poe    c2311890   4.381   4.412   4.645 -0.5158 -0.0477 -0.1280
 2071poe     o211891   4.363   4.481   4.767 -0.2171 -0.1276 -0.0375
 2071poe    c3111892   4.291   4.400   4.857  0.0622 -0.2399  0.0838
 2072poe    c3111893   6.066   3.653   4.100  0.0358 -0.1774  0.2264
 2072poe     o211894   6.052   3.764   4.013  0.3333 -0.6828 -0.4708
 2072poe    c2311895   5.945   3.741   3.925 -0.0319  0.2345 -0.2717
 2072poe    c2311896   5.960   3.818   3.793  0.4122  0.7892  0.0978
 2072poe     o211897   6.016   3.749   3.684 -0.5172 -0.2858  0.2904
 2072poe    c2311898   5.931   3.670   3.603 -0.0443 -0.4626 -0.0378
 2072poe    c2311899   6.009   3.621   3.480  0.0837  0.0497 -0.1604
 2072poe     o211900   6.147   3.614   3.510  0.0626  0.5533  0.0706
 2072poe    c2311901   6.212   3.559   3.398 -0.1855 -0.4734  0.4198
 2072poe    c2311902   6.355   3.510   3.428 -0.2380 -0.8244  0.1035
 2072poe     o211903   6.458   3.594   3.475 -0.4397 -0.0469 -0.8127
 2072poe    c3111904   6.579   3.559   3.412 -0.0365  0.1683 -0.1654
 2073poe    c3111905   6.658   2.044   4.869  0.1786 -0.5262 -0.5006
 2073poe     o211906   6.793   2.078   4.894  0.0088 -0.0269 -0.2571
 2073poe    c2311907   6.840   2.025   5.016 -0.2983  0.2341 -0.0228
 2073poe    c2311908   6.993   2.039   5.007 -0.2640 -0.0823  0.0715
 2073poe     o211909   7.042   2.169   4.981  0.2449 -0.3218 -0.1835
 2073poe    c2311910   7.183   2.166   4.975  0.2752  0.0947  0.2759
 2073poe    c2311911   7.233   2.305   4.933  0.3626 -0.1341 -0.3778
 2073poe     o211912   7.172   2.345   4.812  1.0279 -0.1545 -0.7225
 2073poe    c2311913   7.211   2.477   4.781 -0.0824  0.3719  0.0746
 2073poe    c2311914   7.151   2.535   4.652  0.2650  0.6138  0.0201
 2073poe     o211915   7.011   2.528   4.634  0.2497  0.2649  0.2641
 2073poe    c3111916   6.961   2.648   4.580  0.4341 -0.1131 -0.7709
 2074poe    c3111917   3.651   6.804   0.541  0.1651 -0.1198  0.5042
 2074poe     o211918   3.546   6.881   0.486  0.6940  0.5256  0.3937
 2074poe    c2311919   3.577   6.940   0.362  0.0488  0.0502 -0.0009
 2074poe    c2311920   3.459   6.998   0.283  0.4374  0.4140 -0.3211
 2074poe     o211921   3.365   7.079   0.351  0.1805 -0.1393 -0.0080
 2074poe    c2311922   3.283   7.145   0.257  0.2037  0.2958  0.2724
 2074poe    c2311923   3.216   7.268   0.320 -0.2479  0.2462 -0.1023
 2074poe     o211924   3.231   7.245   0.459  0.4857 -0.3406 -0.2746
 2074poe    c2311925   3.123   7.313   0.519  0.9430  0.2776 -0.1477
 2074poe    c2311926   3.152   7.331   0.670 -0.1787 -0.1809  0.1357
 2074poe     o211927   3.135   7.205   0.730  0.1984 -0.1353  0.3388
 2074poe    c3111928   3.158   7.201   0.869 -0.6036 -0.4818  0.4661
 2075poe    c3111929   4.677   0.865   3.117  0.5045  0.3031  0.1753
 2075poe     o211930   4.748   0.805   3.011  0.4217  0.3545  0.0898
 2075poe    c2311931   4.882   0.784   3.052  0.2770 -0.1372  0.3217
 2075poe    c2311932   4.964   0.726   2.936 -0.0748 -0.7254  0.3616
 2075poe     o211933   5.003   0.826   2.844 -0.2455 -0.6772  0.3419
 2075poe    c2311934   4.950   0.806   2.715  0.3555 -0.6023  0.0787
 2075poe    c2311935   5.022   0.896   2.613 -0.0208  0.3950  0.6777
 2075poe     o211936   5.045   1.027   2.658 -0.5732  0.6670  0.1894
 2075poe    c2311937   5.090   1.109   2.553 -0.0038 -0.5145 -0.5131
 2075poe    c2311938   5.112   1.243   2.626 -0.4409 -0.5362 -0.3360
 2075poe     o211939   5.160   1.217   2.756 -0.5646  0.2475 -0.1260
 2075poe    c3111940   5.229   1.325   2.815 -0.2706 -0.1295  0.2295
 2076poe    c3111941   7.063   2.404   3.114  0.8392 -0.0586  0.0500
 2076poe     o211942   6.925   2.428   3.123  0.9615  0.6319  0.1903
 2076poe    c2311943   6.885   2.530   3.035 -0.1337  0.1915  0.1605
 2076poe    c2311944   6.732   2.545   3.035 -0.1871 -0.3136 -0.0677
 2076poe     o211945   6.652   2.432   3.008 -0.0315 -0.4030 -0.1558
 2076poe    c2311946   6.517   2.465   2.981 -0.0346 -0.1442  0.1664
 2076poe    c2311947   6.469   2.376   2.865  0.1154  0.0752 -0.0670
 2076poe     o211948   6.331   2.372   2.837  0.0174 -0.0881  0.4391
 2076poe    c2311949   6.316   2.286   2.727  0.1098  0.0972  0.2821
 2076poe    c2311950   6.182   2.276   2.652  0.1068  0.2224  0.2697
 2076poe     o211951   6.170   2.366   2.544  0.0024 -0.2633 -0.1313
 2076poe    c3111952   6.040   2.410   2.511 -0.3737 -1.1342  0.1571
 2077poe    c3111953   1.228   3.954   1.127  0.3574 -0.3554 -0.1262
 2077poe     o211954   1.196   3.818   1.143  0.1481 -0.2308  0.5244
 2077poe    c2311955   1.220   3.769   1.273  0.2546 -0.0359  0.5789
 2077poe    c2311956   1.248   3.618   1.264  0.4182  0.0182  0.1439
 2077poe     o211957   1.161   3.558   1.171  0.0203 -0.2479  0.6819
 2077poe    c2311958   1.170   3.417   1.177  0.0303 -0.2677  0.2424
 2077poe    c2311959   1.087   3.379   1.053 -0.4811  0.1038  0.4680
 2077poe     o211960   1.125   3.468   0.951 -0.6771 -0.2377  0.0966
 2077poe    c2311961   1.011   3.483   0.869 -0.3634 -0.2837 -0.3518
 2077poe    c2311962   1.028   3.612   0.785 -0.5225 -0.0671 -0.0533
 2077poe     o211963   1.079   3.713   0.870  0.1049 -0.0297 -0.4675
 2077poe    c3111964   1.094   3.839   0.810 -0.1259  0.2691  0.1005
 2078poe    c3111965   5.384   4.085   0.530  0.4566 -0.0022 -0.3325
 2078poe     o211966   5.481   4.068   0.430  0.4122 -0.1552 -0.3505
 2078poe    c2311967   5.608   4.109   0.478  0.1585 -0.0122  0.2054
 2078poe    c2311968   5.707   4.134   0.362  0.3533 -0.0225  0.3704
 2078poe     o211969   5.752   4.011   0.311  0.7053  0.3016 -0.0972
 2078poe    c2311970   5.682   3.971   0.195 -0.2758  0.0835  0.5674
 2078poe    c2311971   5.651   3.820   0.187  0.2063 -0.0121  0.5185
 2078poe     o211972   5.765   3.737   0.198  0.1816 -0.1440 -0.1982
 2078poe    c2311973   5.761   3.625   0.111 -0.6524 -0.0862 -0.2411
 2078poe    c2311974   5.898   3.556   0.119 -0.2145  0.7203 -0.6021
 2078poe     o211975   5.949   3.532   0.248  0.0287 -0.6087 -0.9291
 2078poe    c3111976   6.051   3.435   0.247  0.3831 -0.2880  0.9133
 2079poe    c3111977   3.078   2.442   6.138  0.6383  0.4276  0.0376
 2079poe     o211978   2.972   2.503   6.208 -0.0999 -0.5487 -0.2113
 2079poe    c2311979   2.935   2.623   6.144  0.7549  0.2606  0.7808
 2079poe    c2311980   2.883   2.737   6.234 -0.0568  0.3592  0.2008
 2079poe     o211981   2.978   2.777   6.330 -0.0980 -0.1523  0.4615
 2079poe    c2311982   2.923   2.887   6.399 -0.5358  0.3668 -0.6741
 2079poe    c2311983   3.026   2.911   6.512 -0.2073 -0.6192 -0.7521
 2079poe     o211984   3.052   2.814   6.611 -0.4673 -0.0199 -0.0929
 2079poe    c2311985   2.955   2.776   6.705  0.7059 -0.3659  1.0139
 2079poe    c2311986   3.010   2.650   6.773  0.8190 -0.2061  1.2207
 2079poe     o211987   3.038   2.527   6.709  0.3416  0.3043  0.0030
 2079poe    c3111988   3.117   2.440   6.787  0.2495  0.3609  0.1604
 2080poe    c3111989   4.560   6.253   5.416 -0.3962 -0.0726 -0.7204
 2080poe     o211990   4.482   6.135   5.411 -0.2047 -0.2367  0.0111
 2080poe    c2311991   4.538   6.067   5.301  0.4205  0.0094  0.1704
 2080poe    c2311992   4.523   5.914   5.298  0.1170  0.0363  0.3027
 2080poe     o211993   4.404   5.853   5.253  0.1805  0.0854  0.0719
 2080poe    c2311994   4.298   5.864   5.345 -0.3828 -0.3598 -0.5168
 2080poe    c2311995   4.165   5.828   5.275 -0.7585  0.1809 -0.0908
 2080poe     o211996   4.177   5.691   5.241 -0.5701  0.2138 -0.1603
 2080poe    c2311997   4.066   5.642   5.169 -0.1670 -0.0865 -0.5760
 2080poe    c2311998   4.110   5.563   5.044  0.5159  0.0320 -0.4152
 2080poe     o211999   4.226   5.611   4.981  0.5000  0.4757 -0.1057
 2080poe    c3112000   4.225   5.558   4.851 -0.2185 -0.2455  0.1902
 2081poe    c3112001   6.742   7.072   1.275 -0.0959 -0.1840 -0.5177
 2081poe     o212002   6.862   7.143   1.255 -0.2604  0.3074  0.2004
 2081poe    c2312003   6.876   7.155   1.115  0.2021  0.4298  0.2547
 2081poe    c2312004   7.018   7.204   1.081  0.3770 -0.2516 -0.0082
 2081poe     o212005   7.099   7.095   1.117  0.1561 -0.5785 -0.4781
 2081poe    c2312006   7.228   7.147   1.142 -0.0137 -0.3867  0.0224
 2081poe    c2312007   7.308   7.016   1.155  0.8535  0.1172 -0.1526
 2081poe     o212008   7.277   6.962   1.282 -0.2026 -0.1359 -0.5055
 2081poe    c2312009   7.371   6.858   1.299 -0.0311  0.2116  0.7201
 2081poe    c2312010   7.355   6.803   1.442  0.3642 -0.2777  0.5765
 2081poe     o212011   7.321   6.905   1.533 -0.1475 -0.2182  0.3221
 2081poe    c3112012   7.255   6.845   1.642 -1.5022 -0.2794 -0.5091
 2082poe    c3112013   0.784   4.221   5.198 -0.0480 -0.3988  0.4440
 2082poe     o212014   0.824   4.356   5.212 -0.1090 -0.3516  0.1677
 2082poe    c2312015   0.744   4.453   5.149  0.5349 -0.0594 -0.2004
 2082poe    c2312016   0.723   4.584   5.228  0.5274  0.0088 -0.3150
 2082poe     o212017   0.705   4.541   5.361  0.0220  0.1668 -0.3307
 2082poe    c2312018   0.660   4.638   5.453  0.2210 -0.2861  0.2499
 2082poe    c2312019   0.762   4.747   5.491  1.0019 -0.4867 -1.2171
 2082poe     o212020   0.880   4.694   5.547  0.2297 -0.6868  0.2782
 2082poe    c2312021   0.972   4.794   5.585 -0.4133  0.0163  0.0099
 2082poe    c2312022   1.081   4.721   5.667 -0.0394  0.5218 -0.0283
 2082poe     o212023   1.135   4.603   5.612 -0.2444  0.1007  0.6599
 2082poe    c3112024   1.222   4.560   5.715  0.2007 -0.1331  0.1929
 2083poe    c3112025   5.413   6.786   3.103  0.1990 -0.0556 -0.7219
 2083poe     o212026   5.317   6.685   3.078  0.3110 -0.1324 -0.8480
 2083poe    c2312027   5.353   6.560   3.132  0.2156  0.1486 -0.1114
 2083poe    c2312028   5.239   6.458   3.140  0.1958  0.2031  0.2990
 2083poe     o212029   5.115   6.479   3.204 -0.2368 -1.2610 -0.0099
 2083poe    c2312030   5.120   6.481   3.345  0.1968 -0.4540 -0.0299
 2083poe    c2312031   4.981   6.501   3.408  0.2617  0.5653 -0.1910
 2083poe     o212032   4.988   6.481   3.547  0.0230  0.2648 -0.2206
 2083poe    c2312033   4.859   6.510   3.597  0.0954 -0.4089  0.3795
 2083poe    c2312034   4.875   6.570   3.738  0.6542  0.7642 -0.1666
 2083poe     o212035   4.747   6.591   3.792  0.6002 -0.4911  0.2261
 2083poe    c3112036   4.772   6.673   3.904 -0.8254 -0.0921  0.2769
 2084poe    c3112037   2.169   6.704   2.276 -0.5534 -1.1224  1.2457
 2084poe     o212038   2.116   6.599   2.198 -0.4700 -0.3737  0.1599
 2084poe    c2312039   2.219   6.510   2.161 -0.0956  0.0113  0.2680
 2084poe    c2312040   2.156   6.401   2.073 -0.5463  0.3418  0.1810
 2084poe     o212041   2.102   6.470   1.962 -0.0255  0.3206 -0.0897
 2084poe    c2312042   1.978   6.412   1.927 -0.0568  0.5687 -0.3956
 2084poe    c2312043   1.958   6.426   1.775 -0.1895  0.2867 -0.4050
 2084poe     o212044   1.995   6.559   1.747  0.4720  0.1977  0.0127
 2084poe    c2312045   1.954   6.590   1.615 -0.4613  0.4004  0.3456
 2084poe    c2312046   1.991   6.731   1.565  0.9626 -0.1314 -0.1433
 2084poe     o212047   1.884   6.819   1.590  1.1690  0.0582  0.0727
 2084poe    c3112048   1.902   6.928   1.502 -0.0435  0.1664 -0.0670
 2085poe    c3112049   2.098   1.540   3.173  0.3880  0.1490  0.1843
 2085poe     o212050   2.155   1.657   3.117 -0.7688  0.3488 -0.6012
 2085poe    c2312051   2.163   1.646   2.976 -0.1920  0.3570 -0.5682
 2085poe    c2312052   2.260   1.749   2.915  0.3791 -0.1235 -0.4843
 2085poe     o212053   2.223   1.869   2.980  0.6761 -0.3451  0.1030
 2085poe    c2312054   2.300   1.982   2.947  0.3052 -0.0892  0.1096
 2085poe    c2312055   2.215   2.095   3.008  0.5927  0.0272  0.2957
 2085poe     o212056   2.203   2.069   3.146  1.3316  0.1136  0.3783
 2085poe    c2312057   2.189   2.188   3.221  1.3493  0.1302  0.3552
 2085poe    c2312058   2.145   2.158   3.365 -0.3623 -0.4231 -0.2500
 2085poe     o212059   2.227   2.072   3.441  0.1756  0.3500  0.0696
 2085poe    c3112060   2.236   2.095   3.580  0.3365 -0.5763  0.2215
 2086poe    c3112061   6.577   0.262   2.683  0.4612  0.2760 -0.0681
 2086poe     o212062   6.637   0.344   2.585 -0.0469  0.1993 -0.4445
 2086poe    c2312063   6.591   0.477   2.583 -0.2762  0.1446  0.5380
 2086poe    c2312064   6.624   0.538   2.445  0.1146 -0.3734  0.4010
 2086poe     o212065   6.548   0.484   2.338  0.1089 -0.4553  0.4455
 2086poe    c2312066   6.573   0.537   2.210  0.0064 -0.1594  0.5471
 2086poe    c2312067   6.560   0.432   2.099  0.3330 -0.1384  0.4897
 2086poe     o212068   6.657   0.329   2.092  0.3166 -0.1309  0.1093
 2086poe    c2312069   6.749   0.349   1.987  0.1332  0.0631 -0.0158
 2086poe    c2312070   6.889   0.302   2.033  0.1696  0.3173  0.1395
 2086poe     o212071   6.854   0.212   2.136  0.1905  0.1132 -0.0309
 2086poe    c3112072   6.959   0.120   2.158 -0.0924 -0.1626  0.1548
 2087poe    c3112073   2.869   1.303   0.362 -0.4168  0.3167  0.4452
 2087poe     o212074   2.752   1.307   0.283 -0.0764 -0.4501 -0.1047
 2087poe    c2312075   2.776   1.337   0.147 -0.4711 -0.6945 -0.2311
 2087poe    c2312076   2.656   1.322   0.051 -0.1459 -0.2776 -0.7073
 2087poe     o212077   2.562   1.424   0.073 -0.0407 -0.2600 -0.3348
 2087poe    c2312078   2.463   1.419  -0.027 -0.3177  0.0670 -0.0827
 2087poe    c2312079   2.318   1.416   0.024 -0.3018  0.4770 -0.0071
 2087poe     o212080   2.306   1.530   0.105  0.0642  0.7801 -0.3796
 2087poe    c2312081   2.178   1.558   0.158  0.0934  0.6996 -0.2683
 2087poe    c2312082   2.190   1.611   0.302 -0.0386 -0.4458  0.1745
 2087poe     o212083   2.286   1.714   0.295 -0.1858 -0.3657 -0.7041
 2087poe    c3112084   2.252   1.831   0.366 -0.3753 -0.9007  0.1055
 2088poe    c3112085   5.565   2.070   5.140  0.2208 -0.6357  0.2544
 2088poe     o212086   5.581   2.208   5.160 -0.4983 -0.4494 -0.4294
 2088poe    c2312087   5.465   2.286   5.140  0.0080  0.3885 -0.1601
 2088poe    c2312088   5.483   2.433   5.096 -0.5300  0.4747 -0.1056
 2088poe     o212089   5.541   2.518   5.192 -0.2972 -0.2222  0.3844
 2088poe    c2312090   5.538   2.645   5.130  0.8321 -0.1513  0.4592
 2088poe    c2312091   5.662   2.734   5.149 -0.0559  1.2081 -0.0322
 2088poe     o212092   5.690   2.741   5.287  0.7036 -0.3714 -0.0933
 2088poe    c2312093   5.814   2.805   5.303  0.3979  0.2780 -0.2799
 2088poe    c2312094   5.847   2.771   5.450  0.5978 -0.5516 -0.5115
 2088poe     o212095   5.829   2.633   5.474 -0.2275 -0.3847 -0.1324
 2088poe    c3112096   5.864   2.581   5.601  0.3069  0.3380  0.0194
 2089poe    c3112097   3.902   0.834   6.910  0.0565  0.0933 -0.3074
 2089poe     o212098   3.845   0.959   6.877 -0.1357 -0.0495 -0.5155
 2089poe    c2312099   3.945   1.056   6.892 -0.7221  0.4359  0.3684
 2089poe    c2312100   3.900   1.203   6.893  0.1452  0.7099  0.3396
 2089poe     o212101   3.836   1.249   6.776 -0.0674 -0.1848  0.0978
 2089poe    c2312102   3.752   1.353   6.822 -0.0178 -0.1271  0.0587
 2089poe    c2312103   3.677   1.410   6.701 -0.4797  0.3628  0.5692
 2089poe     o212104   3.606   1.307   6.636  0.7754 -0.1344 -0.0435
 2089poe    c2312105   3.547   1.339   6.512  0.4941  0.5026  0.2479
 2089poe    c2312106   3.490   1.216   6.438  0.5202  0.3667  0.4519
 2089poe     o212107   3.586   1.114   6.449 -0.1976 -0.4075 -0.2929
 2089poe    c3112108   3.607   1.035   6.334  0.1130 -1.0929  0.2266
 2090poe    c3112109   6.772   1.278   1.600  0.0484  0.4455 -0.0252
 2090poe     o212110   6.810   1.395   1.669 -0.1176  0.5117 -0.0464
 2090poe    c2312111   6.794   1.383   1.809  0.6472  0.2500  0.0224
 2090poe    c2312112   6.658   1.433   1.860  0.5214 -0.0393 -0.0306
 2090poe     o212113   6.643   1.573   1.857 -0.1717 -0.1051  0.1244
 2090poe    c2312114   6.513   1.627   1.845 -0.0240  0.3249  0.4286
 2090poe    c2312115   6.439   1.580   1.718 -1.0142  0.6827  0.8650
 2090poe     o212116   6.479   1.652   1.604 -0.6110 -0.4650  0.2597
 2090poe    c2312117   6.539   1.576   1.502  0.3400  0.2176  0.2941
 2090poe    c2312118   6.580   1.658   1.379  0.3150 -0.2511 -0.0282
 2090poe     o212119   6.678   1.756   1.403  0.0954 -0.1037  0.2733
 2090poe    c3112120   6.643   1.842   1.297  0.5140 -0.4210 -0.1297
 2091poe    c3112121   5.338   5.829   1.687  0.0484 -0.2606  0.7834
 2091poe     o212122   5.368   5.882   1.559 -0.2293 -0.8981  0.4516
 2091poe    c2312123   5.298   5.817   1.455 -0.0715  0.2986 -0.4197
 2091poe    c2312124   5.325   5.885   1.320  0.0207 -0.0867 -0.5959
 2091poe     o212125   5.461   5.868   1.286  0.1244 -0.3329 -0.0641
 2091poe    c2312126   5.471   5.915   1.154 -0.1488 -0.3732 -0.0995
 2091poe    c2312127   5.616   5.951   1.117 -0.1956  0.0941  0.1649
 2091poe     o212128   5.658   6.053   1.205  0.2330 -0.6077  0.7950
 2091poe    c2312129   5.798   6.062   1.189  0.1084  0.0736 -0.0079
 2091poe    c2312130   5.829   6.203   1.240 -0.2296  0.2663 -0.3271
 2091poe     o212131   5.742   6.240   1.344 -0.5268 -0.5135 -0.2992
 2091poe    c3112132   5.761   6.377   1.371 -0.2848 -0.5288 -0.3960
 2092poe    c3112133   0.982   4.020   3.843  0.3106  1.1295  0.2549
 2092poe     o212134   0.945   4.017   3.979  0.1006 -0.0620  0.1778
 2092poe    c2312135   0.816   3.960   3.991  0.2402 -0.4619 -0.1800
 2092poe    c2312136   0.815   3.914   4.138  0.0686 -0.2315 -0.1072
 2092poe     o212137   0.882   4.018   4.206  0.3241 -0.2724 -0.2961
 2092poe    c2312138   0.862   3.998   4.344 -0.2497  0.2547 -0.3002
 2092poe    c2312139   0.914   4.128   4.407  0.1271  0.0599 -0.2058
 2092poe     o212140   1.051   4.131   4.375  0.1199  0.0066 -0.2414
 2092poe    c2312141   1.103   4.255   4.417 -0.2207  0.0662  0.0078
 2092poe    c2312142   1.257   4.260   4.419 -0.2124 -0.0134 -0.3570
 2092poe     o212143   1.301   4.252   4.285  0.6593 -0.4813 -0.0528
 2092poe    c3112144   1.440   4.238   4.263  0.6725 -0.2823 -0.1027
 2093poe    c3112145   2.220   3.889   1.424 -0.3157  0.1442 -0.2310
 2093poe     o212146   2.265   3.757   1.399 -0.1503  0.2207 -0.3380
 2093poe    c2312147   2.405   3.741   1.408 -0.2277  0.0216  0.6192
 2093poe    c2312148   2.444   3.593   1.424  0.1842  0.0919  0.2711
 2093poe     o212149   2.374   3.510   1.334  0.0598 -0.0067  0.4584
 2093poe    c2312150   2.424   3.378   1.345 -0.1406 -0.1514 -0.2947
 2093poe    c2312151   2.375   3.318   1.212 -0.1908  0.0353 -0.3614
 2093poe     o212152   2.235   3.331   1.208 -0.1290  0.7098 -0.5188
 2093poe    c2312153   2.182   3.276   1.089  0.2520 -0.4354 -0.1743
 2093poe    c2312154   2.031   3.301   1.110  0.3025  0.0443 -0.3739
 2093poe     o212155   2.004   3.439   1.123 -0.0489 -0.0929  0.3406
 2093poe    c3112156   1.870   3.479   1.140  0.0108  0.3198 -0.1537
 2094poe    c3112157   1.643   0.991   2.603  0.5145 -0.2841 -0.6121
 2094poe     o212158   1.584   0.944   2.484  0.4196 -0.6607 -0.4196
 2094poe    c2312159   1.639   1.001   2.367 -0.2436  0.8701 -0.0235
 2094poe    c2312160   1.554   0.953   2.247 -0.0329  0.1194  0.1213
 2094poe     o212161   1.532   0.814   2.258  0.0543  0.1227  0.3629
 2094poe    c2312162   1.393   0.788   2.249  0.0759  0.0003  0.3839
 2094poe    c2312163   1.385   0.643   2.300 -0.6252  0.1417  0.6834
 2094poe     o212164   1.468   0.622   2.412  0.3201  0.0867 -0.0194
 2094poe    c2312165   1.421   0.525   2.502  0.2643 -0.5332 -0.7113
 2094poe    c2312166   1.476   0.552   2.643 -0.1815 -0.1347 -0.6106
 2094poe     o212167   1.617   0.543   2.644 -0.1954 -0.2935 -0.0469
 2094poe    c3112168   1.657   0.408   2.646  0.3117 -0.1415  0.2835
 2095poe    c3112169   7.060   5.708   4.151 -0.4368 -0.4107 -0.4935
 2095poe     o212170   6.925   5.691   4.191 -0.2579 -0.5314  0.0636
 2095poe    c2312171   6.867   5.808   4.243  0.2472  0.0033 -0.5565
 2095poe    c2312172   6.775   5.769   4.360  0.5970 -0.1308 -0.3228
 2095poe     o212173   6.695   5.672   4.296  0.2968 -0.0310 -0.1014
 2095poe    c2312174   6.640   5.583   4.390  0.3043 -0.2075 -0.2637
 2095poe    c2312175   6.599   5.457   4.312 -0.1210 -0.1386 -0.1527
 2095poe     o212176   6.710   5.410   4.240 -0.1482  0.1008 -0.3543
 2095poe    c2312177   6.662   5.331   4.133 -0.0983 -0.3944 -0.0184
 2095poe    c2312178   6.768   5.323   4.022 -0.5324  0.0450 -0.4745
 2095poe     o212179   6.854   5.433   4.041 -0.5714  0.0005 -0.0114
 2095poe    c3112180   6.946   5.435   3.934 -0.6541  0.5433 -0.0746
 2096poe    c3112181   3.777   5.142   4.200 -0.1087  0.2183  0.0962
 2096poe     o212182   3.884   5.076   4.264 -0.2187  0.1433  0.2010
 2096poe    c2312183   3.987   5.172   4.273  0.1865 -0.2440 -0.2417
 2096poe    c2312184   4.123   5.126   4.330  0.5174  0.9415 -0.0572
 2096poe     o212185   4.110   5.106   4.469  0.0971  0.2238 -0.1950
 2096poe    c2312186   4.217   5.050   4.542  0.3109 -0.2014 -0.8240
 2096poe    c2312187   4.173   4.994   4.678 -0.1520  0.2397 -0.7889
 2096poe     o212188   4.096   4.876   4.674  0.2005 -0.0108 -0.3074
 2096poe    c2312189   4.097   4.794   4.789  0.3894  0.0482 -0.2671
 2096poe    c2312190   3.973   4.704   4.798  0.1365  0.4422  0.2153
 2096poe     o212191   3.870   4.794   4.834 -0.2263  0.1439 -0.0652
 2096poe    c3112192   3.745   4.729   4.826  0.0716 -0.4156 -0.2528
 2097poe    c3112193   3.459   1.253   2.259  1.3192 -1.3537  0.1533
 2097poe     o212194   3.484   1.300   2.128  0.4218 -0.3438  0.3260
 2097poe    c2312195   3.599   1.382   2.127  0.1320  0.0572 -0.2572
 2097poe    c2312196   3.692   1.329   2.017  0.1643 -0.4892  0.0304
 2097poe     o212197   3.612   1.333   1.901 -0.5148 -0.9269  0.4786
 2097poe    c2312198   3.667   1.265   1.791  0.2546 -0.0248  0.2917
 2097poe    c2312199   3.575   1.313   1.677 -0.2622 -0.1639  0.6470
 2097poe     o212200   3.446   1.280   1.724 -0.3028 -0.6058  0.2371
 2097poe    c2312201   3.352   1.362   1.657  0.3579 -0.0851 -0.0614
 2097poe    c2312202   3.246   1.378   1.767  0.3864 -0.2169 -0.0137
 2097poe     o212203   3.297   1.390   1.897  0.3253 -0.1206  0.0021
 2097poe    c3112204   3.191   1.405   1.988  0.0237 -0.4767 -0.2876
 2098poe    c3112205   0.714   5.800   1.525 -0.4557 -0.3083  0.4112
 2098poe     o212206   0.838   5.734   1.536 -0.2553 -0.0660 -0.3330
 2098poe    c2312207   0.828   5.661   1.657  0.4385  0.4581  0.0471
 2098poe    c2312208   0.925   5.715   1.764  0.2230  0.4186  0.2622
 2098poe     o212209   1.055   5.673   1.731 -0.0837 -0.2800 -0.0835
 2098poe    c2312210   1.148   5.723   1.824 -0.5516  0.1808  0.1406
 2098poe    c2312211   1.282   5.759   1.758 -0.5397  0.1710  0.1592
 2098poe     o212212   1.348   5.646   1.704 -0.0980  0.5832 -0.1767
 2098poe    c2312213   1.474   5.683   1.653  0.1367  0.1647  0.0914
 2098poe    c2312214   1.555   5.559   1.610  0.2889  0.2234  0.2100
 2098poe     o212215   1.577   5.447   1.692  0.0633  0.0052 -0.0249
 2098poe    c3112216   1.643   5.468   1.815 -0.2304  0.7653  0.0076
 2099poe    c3112217   4.998   4.835   7.110  0.3661 -1.1678  0.6963
 2099poe     o212218   4.872   4.788   7.066  0.2304 -0.3775  0.2335
 2099poe    c2312219   4.785   4.827   7.169  0.1916 -0.6063  0.2868
 2099poe    c2312220   4.644   4.774   7.134  0.2706 -0.2864 -0.5475
 2099poe     o212221   4.591   4.829   7.016 -0.2179  0.2619 -0.0806
 2099poe    c2312222   4.475   4.764   6.968 -0.2324  0.2313 -0.0050
 2099poe    c2312223   4.425   4.808   6.830  0.6039 -0.1096 -0.4228
 2099poe     o212224   4.360   4.930   6.799  0.5537 -0.0972 -0.2670
 2099poe    c2312225   4.444   5.042   6.782 -0.2444  0.4970 -0.3581
 2099poe    c2312226   4.398   5.148   6.680 -0.7895  0.5861 -0.0210
 2099poe     o212227   4.434   5.115   6.548 -0.4750  0.3857  0.1131
 2099poe    c3112228   4.415   5.215   6.449 -0.9583  0.1619 -0.0247
 2100poe    c3112229   3.157   3.036   2.866  0.1158  0.0214  0.1090
 2100poe     o212230   3.178   3.147   2.950 -0.2269  0.1885 -0.0265
 2100poe    c2312231   3.066   3.184   3.027 -0.4310 -0.4775 -0.0030
 2100poe    c2312232   3.109   3.246   3.161 -0.1628 -0.2029 -0.2171
 2100poe     o212233   3.161   3.374   3.133 -0.4175 -0.0281  0.1078
 2100poe    c2312234   3.208   3.427   3.256  0.1880  0.4324 -0.3174
 2100poe    c2312235   3.311   3.535   3.218  0.4785  0.1816 -0.2531
 2100poe     o212236   3.422   3.515   3.133  0.4042 -0.1331 -0.2771
 2100poe    c2312237   3.531   3.467   3.209  0.4124  0.2143 -0.0667
 2100poe    c2312238   3.663   3.470   3.129  0.2808 -0.3515 -0.3071
 2100poe     o212239   3.681   3.602   3.083  0.4509 -0.1291  0.3723
 2100poe    c3112240   3.813   3.622   3.038  0.2767  0.3501  0.0658
 2101poe    c3112241   0.323   4.767   4.586  0.5390 -0.5031  0.6293
 2101poe     o212242   0.243   4.875   4.544  0.4945 -0.5453  0.6065
 2101poe    c2312243   0.141   4.829   4.457  0.4711 -0.0498  0.3717
 2101poe    c2312244   0.191   4.795   4.315 -0.2824 -0.5174  0.2179
 2101poe     o212245   0.212   4.920   4.253 -0.2726 -0.8430 -0.4433
 2101poe    c2312246   0.230   4.899   4.115  0.0375 -0.1533 -0.5094
 2101poe    c2312247   0.223   5.041   4.057 -0.3727 -0.3947 -1.0627
 2101poe     o212248   0.091   5.090   4.050 -0.2877 -0.0817 -0.5409
 2101poe    c2312249   0.083   5.200   4.138 -0.4500 -0.7323  0.2665
 2101poe    c2312250   0.042   5.181   4.285 -0.1977  0.6628  0.5341
 2101poe     o212251  -0.097   5.163   4.304 -0.2326 -0.1457 -0.3735
 2101poe    c3112252  -0.148   5.240   4.411  0.1912  0.2526 -0.4525
 2102poe    c3112253   7.119   0.194   4.717 -0.2705  0.2124  0.0772
 2102poe     o212254   7.066   0.170   4.588  0.1451  0.2896 -0.1102
 2102poe    c2312255   6.933   0.124   4.594  0.3884 -0.3264  0.8056
 2102poe    c2312256   6.880   0.082   4.456  0.7652  0.1306  0.5202
 2102poe     o212257   6.860   0.192   4.370 -0.8170 -0.3209  0.2876
 2102poe    c2312258   6.899   0.191   4.235 -0.0648  0.3382  0.4911
 2102poe    c2312259   6.892   0.321   4.152 -0.0730  0.1824  0.2451
 2102poe     o212260   6.994   0.413   4.183  0.5390 -0.3657 -0.1178
 2102poe    c2312261   6.986   0.531   4.107  0.3482  0.0313  0.5118
 2102poe    c2312262   7.117   0.611   4.104  0.0005  0.5845 -0.8519
 2102poe     o212263   7.151   0.703   4.205 -0.4657 -0.4686  0.2872
 2102poe    c3112264   7.203   0.666   4.331  0.1419 -0.8831 -0.0807
 2103poe    c3112265   4.716   1.296   0.999  0.6401 -0.2269 -0.6237
 2103poe     o212266   4.674   1.370   0.886 -0.2446  0.1377 -0.0676
 2103poe    c2312267   4.738   1.495   0.894 -0.5284  0.2640  0.2612
 2103poe    c2312268   4.655   1.620   0.857  0.3314  0.6840 -0.2846
 2103poe     o212269   4.554   1.656   0.948 -0.4151 -0.1075 -0.7800
 2103poe    c2312270   4.520   1.792   0.948 -0.0680 -0.0153  0.0296
 2103poe    c2312271   4.390   1.819   1.027  0.0234  0.6123 -0.0269
 2103poe     o212272   4.381   1.769   1.159  0.4047  0.8849  0.1042
 2103poe    c2312273   4.331   1.637   1.163 -0.1121  1.0773  0.0706
 2103poe    c2312274   4.276   1.625   1.306 -0.4458  0.2565 -0.1233
 2103poe     o212275   4.369   1.692   1.388 -0.1442 -0.5315  0.1798
 2103poe    c3112276   4.369   1.655   1.524  0.1216  0.4595  0.4551
 2104poe    c3112277   1.572   1.490   1.348 -1.0184  0.2503 -0.4167
 2104poe     o212278   1.587   1.360   1.401  0.7745  0.7469  0.3577
 2104poe    c2312279   1.576   1.359   1.541  0.5007  0.5913  0.3348
 2104poe    c2312280   1.605   1.213   1.582 -0.2317  0.2363 -0.3737
 2104poe     o212281   1.724   1.172   1.520  0.1667  0.3405  0.3087
 2104poe    c2312282   1.741   1.035   1.550 -0.2335  0.0270 -0.8306
 2104poe    c2312283   1.892   1.008   1.557 -0.2912 -0.1313 -0.0530
 2104poe     o212284   1.942   1.074   1.443 -0.0161 -0.3701 -0.0739
 2104poe    c2312285   2.075   1.031   1.423  0.0770 -0.1859  0.1332
 2104poe    c2312286   2.137   1.106   1.303  0.6493 -0.0698  0.4994
 2104poe     o212287   2.141   1.245   1.320 -0.3096  0.0243  0.0180
 2104poe    c3112288   2.199   1.309   1.209  0.3499 -0.6074 -0.0058
 2105poe    c3112289   4.673   5.540   3.817  0.4356  0.2234  0.2289
 2105poe     o212290   4.622   5.455   3.716  0.2695  0.2010  0.3305
 2105poe    c2312291   4.486   5.419   3.722  0.2127  0.4061  0.3017
 2105poe    c2312292   4.460   5.275   3.672  0.1477  0.3966  0.3633
 2105poe     o212293   4.484   5.258   3.534  0.0715 -0.3724  0.4398
 2105poe    c2312294   4.488   5.122   3.500 -0.2074 -0.2586 -0.0613
 2105poe    c2312295   4.566   5.096   3.370 -0.5882 -0.3175 -0.2804
 2105poe     o212296   4.509   5.196   3.288  0.2503 -0.0780 -0.5812
 2105poe    c2312297   4.560   5.187   3.157  0.1692  0.0103 -0.6182
 2105poe    c2312298   4.517   5.308   3.071  0.0386  0.2531 -0.2124
 2105poe     o212299   4.552   5.429   3.136  0.2061  0.0278  0.1232
 2105poe    c3112300   4.522   5.539   3.053  0.8693  0.5468  0.5605
 2106poe    c3112301   6.135   6.360   4.010 -1.0165 -0.3176 -0.7852
 2106poe     o212302   6.068   6.460   4.084  0.2725 -0.2533  0.3229
 2106poe    c2312303   5.993   6.400   4.188 -0.2458 -0.0976  0.0411
 2106poe    c2312304   5.896   6.512   4.231 -0.1875  0.2328 -0.6717
 2106poe     o212305   5.942   6.632   4.288  0.3622 -0.2104 -0.1673
 2106poe    c2312306   5.987   6.626   4.421  0.0984  0.2733 -0.0527
 2106poe    c2312307   6.040   6.757   4.484 -0.2779  0.4240 -0.0454
 2106poe     o212308   6.143   6.796   4.396  0.1433 -0.1561  0.1808
 2106poe    c2312309   6.238   6.879   4.459 -0.0603  0.1849  0.0387
 2106poe    c2312310   6.337   6.923   4.350 -0.1858  0.2300 -0.0584
 2106poe     o212311   6.253   6.939   4.239 -0.1619 -0.5440 -0.1971
 2106poe    c3112312   6.333   7.010   4.146 -0.1920 -0.2465  0.0007
 2107poe    c3112313   4.642   0.291   1.602 -0.3378  0.1218 -0.1946
 2107poe     o212314   4.587   0.188   1.680 -0.2029  0.1468 -0.0656
 2107poe    c2312315   4.684   0.103   1.737 -0.3352 -0.2017 -0.3537
 2107poe    c2312316   4.599   0.008   1.824  0.1145 -0.4837 -0.2222
 2107poe     o212317   4.540   0.062   1.940  0.9776  0.3128 -0.1431
 2107poe    c2312318   4.474  -0.040   2.012  0.8061  0.5678  0.0626
 2107poe    c2312319   4.444   0.022   2.150 -0.0985 -0.3720  0.2979
 2107poe     o212320   4.374   0.142   2.125  0.1468 -0.1917  0.4683
 2107poe    c2312321   4.382   0.229   2.235  0.5239  0.1751  0.1557
 2107poe    c2312322   4.313   0.360   2.195  0.0883  0.0242  0.3985
 2107poe     o212323   4.369   0.381   2.067 -0.3759  0.1240  0.2119
 2107poe    c3112324   4.346   0.515   2.029 -0.2086  0.0468 -0.1664
 2108poe    c3112325   5.291   3.647   2.712  0.7748  0.4183 -0.6343
 2108poe     o212326   5.422   3.599   2.692  0.7574 -0.1130  0.4404
 2108poe    c2312327   5.524   3.691   2.722 -0.1424  1.0644 -0.0093
 2108poe    c2312328   5.660   3.628   2.687 -0.7765 -0.2924 -0.0844
 2108poe     o212329   5.690   3.529   2.783  0.2487 -0.3543 -0.4522
 2108poe    c2312330   5.816   3.468   2.767  0.2464 -0.5245  0.1671
 2108poe    c2312331   5.848   3.348   2.858  0.2732 -0.3804  0.3504
 2108poe     o212332   5.769   3.243   2.806 -0.2174  0.3970 -0.5102
 2108poe    c2312333   5.819   3.116   2.842 -0.4993  0.3522 -0.2748
 2108poe    c2312334   5.702   3.020   2.812 -0.1258 -0.1818 -0.0244
 2108poe     o212335   5.590   3.093   2.855 -0.0088 -0.2214  0.3500
 2108poe    c3112336   5.484   3.006   2.889 -0.4383  0.3150  0.4113
 2109poe    c3112337   3.675   3.970   5.361  0.0831  0.0808 -0.1562
 2109poe     o212338   3.725   4.100   5.339 -0.1193  0.1640 -0.1327
 2109poe    c2312339   3.696   4.150   5.210 -0.4277  0.0553 -0.1065
 2109poe    c2312340   3.800   4.261   5.190 -0.8214  0.4517  0.0351
 2109poe     o212341   3.810   4.331   5.312  0.4567  0.0951  0.1541
 2109poe    c2312342   3.900   4.439   5.321  0.2623  0.2802 -0.1025
 2109poe    c2312343   3.899   4.494   5.465  0.4409 -0.4192  0.1682
 2109poe     o212344   3.914   4.383   5.551 -0.8335 -0.1231  0.8009
 2109poe    c2312345   3.962   4.426   5.677 -0.2790  0.1024  0.5178
 2109poe    c2312346   4.113   4.425   5.704 -0.1557 -0.1772 -0.1615
 2109poe     o212347   4.164   4.303   5.657  0.0588 -0.1098 -0.1068
 2109poe    c3112348   4.299   4.327   5.624 -0.0266  0.1418 -0.2770
 2110poe    c3112349   5.805   1.140   5.284 -0.5738 -0.0960  0.9399
 2110poe     o212350   5.837   1.004   5.303  0.2270 -0.1358 -0.4939
 2110poe    c2312351   5.968   0.982   5.256  0.3840  0.1736 -0.2085
 2110poe    c2312352   6.023   0.838   5.266  0.6588  0.2610 -0.4495
 2110poe     o212353   5.969   0.734   5.187 -0.2700  0.2167  0.2277
 2110poe    c2312354   5.975   0.619   5.267 -0.0746  0.2078  0.1998
 2110poe    c2312355   5.846   0.534   5.268  0.2593 -0.3031  0.0686
 2110poe     o212356   5.826   0.473   5.142 -0.0799 -0.3543  0.1466
 2110poe    c2312357   5.706   0.400   5.157 -0.3490  0.1210  0.3212
 2110poe    c2312358   5.666   0.325   5.029  0.0098  0.1641  0.1813
 2110poe     o212359   5.687   0.419   4.926  0.0605 -0.4997 -0.4221
 2110poe    c3112360   5.647   0.367   4.802  0.5973 -0.1858 -0.7364
 2111poe    c3112361   2.971   2.016   2.781  0.0932 -0.1689  0.3736
 2111poe     o212362   3.107   2.042   2.755  0.1273 -0.6981  0.0038
 2111poe    c2312363   3.191   1.981   2.850 -0.0186 -0.0413  0.5628
 2111poe    c2312364   3.343   2.007   2.841 -0.1007  0.1603 -0.3481
 2111poe     o212365   3.399   1.997   2.712 -0.2109  0.3317 -0.4100
 2111poe    c2312366   3.539   1.983   2.708 -0.2662 -0.3597 -0.1012
 2111poe    c2312367   3.597   1.936   2.573  0.3133  0.0999 -0.0162
 2111poe     o212368   3.540   2.033   2.487 -0.3803 -0.0833  0.2308
 2111poe    c2312369   3.582   1.988   2.360 -0.0144  0.2512  0.2346
 2111poe    c2312370   3.579   2.093   2.247  0.3445  0.1426  0.1205
 2111poe     o212371   3.457   2.164   2.242  0.2996  0.0702  0.1827
 2111poe    c3112372   3.448   2.249   2.130  0.3459  0.1491  0.2385
 2112poe    c3112373   5.308   4.707   3.323  0.1069  0.6161 -0.1170
 2112poe     o212374   5.388   4.661   3.217  0.8406  0.6956  0.3949
 2112poe    c2312375   5.320   4.696   3.098  0.8916 -0.1575  0.1036
 2112poe    c2312376   5.373   4.602   2.988 -0.2774 -0.2916 -0.3546
 2112poe     o212377   5.336   4.468   3.011  0.0158 -0.3112  0.0189
 2112poe    c2312378   5.369   4.382   2.904  0.4688 -0.3251  0.1693
 2112poe    c2312379   5.367   4.233   2.942  0.7078 -0.4306 -0.2317
 2112poe     o212380   5.461   4.173   3.028  0.9355  0.5025  0.1836
 2112poe    c2312381   5.394   4.081   3.112  0.2669  0.7670 -0.0523
 2112poe    c2312382   5.489   3.999   3.202 -0.1700  0.0085 -0.2816
 2112poe     o212383   5.576   4.101   3.245 -0.2292  0.0429 -0.2441
 2112poe    c3112384   5.642   4.057   3.361 -0.3215 -0.3733 -0.3467
 2113poe    c3112385   4.377   4.738   3.956  0.2711 -0.2084 -0.3539
 2113poe     o212386   4.417   4.681   3.833 -0.8693 -0.0079 -0.8334
 2113poe    c2312387   4.426   4.541   3.843 -0.0511  0.0857 -0.0971
 2113poe    c2312388   4.441   4.489   3.698 -0.1917 -0.2870  0.0211
 2113poe     o212389   4.551   4.548   3.633 -0.0208 -0.2241  0.3668
 2113poe    c2312390   4.598   4.471   3.525  0.1766 -0.3710  0.5552
 2113poe    c2312391   4.748   4.497   3.497 -0.0165 -0.6702 -0.8505
 2113poe     o212392   4.759   4.637   3.498 -0.1486 -0.6547  0.1998
 2113poe    c2312393   4.887   4.667   3.446 -0.5547  0.3510 -0.2566
 2113poe    c2312394   4.924   4.816   3.456 -0.6182  0.3467  0.0532
 2113poe     o212395   4.890   4.874   3.580  0.0907 -0.2495  0.5364
 2113poe    c3112396   4.936   5.005   3.603  0.2374  0.0615 -1.3654
 2114poe    c3112397   3.324   2.753   0.565  0.0213 -0.2354 -0.3628
 2114poe     o212398   3.201   2.815   0.592  0.3193  0.2112 -0.0136
 2114poe    c2312399   3.166   2.798   0.728 -0.0424 -0.0328 -0.1354
 2114poe    c2312400   3.044   2.889   0.750 -0.5849 -0.8351  0.2179
 2114poe     o212401   2.929   2.853   0.676 -0.4199  0.0362 -0.4832
 2114poe    c2312402   2.814   2.931   0.698 -0.2290  0.2071 -0.0845
 2114poe    c2312403   2.702   2.889   0.601 -0.2171  0.3190 -0.1465
 2114poe     o212404   2.748   2.894   0.468 -0.2299  0.4111 -0.1478
 2114poe    c2312405   2.640   2.878   0.379 -0.0260 -0.7786 -0.2015
 2114poe    c2312406   2.674   2.815   0.243  0.6881 -0.2174 -0.2880
 2114poe     o212407   2.666   2.677   0.268 -0.8969 -0.0657  0.1446
 2114poe    c3112408   2.571   2.612   0.187 -0.2343 -0.4137 -0.3689
 2115poe    c3112409   3.789   6.130   3.234  0.9747 -0.2870  0.0402
 2115poe     o212410   3.779   5.996   3.274 -0.1133 -0.2501 -0.1037
 2115poe    c2312411   3.807   5.900   3.175 -0.0457  0.0384 -0.3648
 2115poe    c2312412   3.785   5.757   3.227  0.1314 -0.0877 -0.6287
 2115poe     o212413   3.656   5.746   3.283  0.5930  0.4274  0.5786
 2115poe    c2312414   3.653   5.622   3.350  0.1560 -0.0336 -0.2677
 2115poe    c2312415   3.506   5.581   3.368  0.1714  0.2267  0.5028
 2115poe     o212416   3.436   5.698   3.404 -0.3281  0.0860  0.0085
 2115poe    c2312417   3.296   5.686   3.407 -0.3221 -0.0549 -0.2514
 2115poe    c2312418   3.232   5.822   3.442  0.2225  0.0708  0.2663
 2115poe     o212419   3.326   5.915   3.392 -0.3438  0.6176  0.2135
 2115poe    c3112420   3.294   6.049   3.421  0.0304  0.6945  0.2788
 2116poe    c3112421   3.819   0.544   1.283 -0.2824  0.0561  0.2462
 2116poe     o212422   3.955   0.556   1.318 -0.0535 -0.0778 -0.5898
 2116poe    c2312423   3.991   0.430   1.372  0.1794  0.0794 -0.3770
 2116poe    c2312424   4.082   0.450   1.494  0.0378 -0.4036 -0.1919
 2116poe     o212425   4.170   0.556   1.465 -0.2288 -0.2052 -0.2797
 2116poe    c2312426   4.283   0.551   1.549 -0.3134 -0.3306 -0.1722
 2116poe    c2312427   4.392   0.647   1.496 -0.3964 -0.0666  0.1340
 2116poe     o212428   4.344   0.774   1.458  0.0473 -0.0219 -0.2839
 2116poe    c2312429   4.435   0.842   1.374  0.6364  0.0952  0.4434
 2116poe    c2312430   4.398   0.984   1.327  0.2977 -0.2711 -0.4231
 2116poe     o212431   4.263   0.990   1.288  0.1921 -0.0583 -0.0293
 2116poe    c3112432   4.222   1.122   1.260 -0.5087 -0.4170 -0.7379
 2117poe    c3112433   5.383   1.567   6.413  1.3268  0.5116 -0.3918
 2117poe     o212434   5.353   1.468   6.509  0.6364  0.7806 -0.3206
 2117poe    c2312435   5.380   1.502   6.644 -0.4735  0.3913  0.0049
 2117poe    c2312436   5.358   1.372   6.724  0.2171  0.2470 -0.0363
 2117poe     o212437   5.218   1.366   6.740  0.1956  0.2261 -0.2298
 2117poe    c2312438   5.161   1.274   6.830  0.3141  0.6627  0.2942
 2117poe    c2312439   5.007   1.286   6.836  0.2537  0.2850 -0.4301
 2117poe     o212440   4.975   1.305   6.700  0.2132 -0.1496 -0.4845
 2117poe    c2312441   4.836   1.292   6.685  0.0591  0.2640  0.4618
 2117poe    c2312442   4.800   1.350   6.547 -0.0623 -0.4116  0.2030
 2117poe     o212443   4.855   1.480   6.542 -0.5727 -0.2079 -0.2012
 2117poe    c3112444   4.879   1.521   6.409 -0.4774 -0.4445 -0.2572
 2118poe    c3112445   3.093   1.188   7.063 -0.2057  0.2622  0.1514
 2118poe     o212446   3.075   1.290   7.159 -0.4617  0.1236  0.2531
 2118poe    c2312447   3.182   1.376   7.127 -0.0548 -0.1663  0.8174
 2118poe    c2312448   3.194   1.490   7.231  0.0408  0.3879  0.2019
 2118poe     o212449   3.095   1.586   7.203 -0.5133 -0.2273  0.0142
 2118poe    c2312450   3.095   1.688   7.300  0.6388  0.3143 -0.5390
 2118poe    c2312451   3.005   1.804   7.253  0.0459  0.2184  0.3338
 2118poe     o212452   3.014   1.830   7.115 -0.2552  0.3391  0.3371
 2118poe    c2312453   3.012   1.971   7.104  0.1260  0.3305  0.1212
 2118poe    c2312454   3.011   2.023   6.960 -0.0799 -0.1174 -0.0420
 2118poe     o212455   3.128   1.979   6.893 -0.0756 -0.8453  0.4345
 2118poe    c3112456   3.128   2.026   6.760  0.6030 -0.8834  0.4210
 2119poe    c3112457   5.240   2.576   6.360 -0.1096 -1.4887 -0.0923
 2119poe     o212458   5.242   2.493   6.246  0.3359 -0.4945 -0.8254
 2119poe    c2312459   5.323   2.379   6.265 -0.2295 -0.6459  0.8767
 2119poe    c2312460   5.289   2.265   6.168  0.3180 -0.3566  0.3368
 2119poe     o212461   5.339   2.271   6.036 -0.2722 -0.3408  0.1093
 2119poe    c2312462   5.259   2.181   5.963 -0.0544  0.0012 -0.5502
 2119poe    c2312463   5.354   2.117   5.860  0.5516 -0.4737  0.2911
 2119poe     o212464   5.447   2.190   5.784  0.1282 -0.0059  0.2190
 2119poe    c2312465   5.472   2.114   5.668 -0.4329 -0.1175  0.1692
 2119poe    c2312466   5.573   2.180   5.572  0.2453 -0.6891  0.4775
 2119poe     o212467   5.674   2.212   5.664  0.0426  0.0315  0.4542
 2119poe    c3112468   5.793   2.242   5.595 -0.4263  0.6490 -0.0950
 2120poe    c3112469   2.575   3.520   3.715 -0.2642  0.4354 -0.4122
 2120poe     o212470   2.634   3.538   3.842 -0.3626  0.9334 -0.4346
 2120poe    c2312471   2.543   3.494   3.940  0.1213 -0.6692 -0.6779
 2120poe    c2312472   2.608   3.397   4.042 -0.1004 -0.0419  0.0726
 2120poe     o212473   2.730   3.454   4.085 -0.1764 -0.1348  0.4134
 2120poe    c2312474   2.809   3.378   4.173  0.2578 -0.5269 -0.3009
 2120poe    c2312475   2.956   3.421   4.193 -0.0517  0.4135  0.0298
 2120poe     o212476   3.029   3.419   4.073  0.2287  0.2684  0.2016
 2120poe    c2312477   3.159   3.384   4.114  0.0821 -0.6240 -0.0732
 2120poe    c2312478   3.263   3.387   4.000 -0.1599 -0.1080 -0.2839
 2120poe     o212479   3.301   3.520   3.976 -0.1528 -0.0853 -0.1489
 2120poe    c3112480   3.395   3.530   3.871  0.1567 -0.4240  0.0940
 2121poe    c3112481   2.485   5.931   5.879  0.3861 -0.6536 -0.1044
 2121poe     o212482   2.536   6.044   5.811  0.1180 -0.3432  0.2077
 2121poe    c2312483   2.598   5.994   5.695  0.7222 -0.1594  0.4450
 2121poe    c2312484   2.635   6.119   5.613 -0.2210 -0.2638 -0.1549
 2121poe     o212485   2.640   6.234   5.693 -0.3684 -0.3361 -0.0420
 2121poe    c2312486   2.674   6.354   5.629 -0.7665  0.0301  0.4232
 2121poe    c2312487   2.654   6.479   5.717 -0.1331  0.6424 -0.2851
 2121poe     o212488   2.730   6.467   5.835 -0.1969 -1.0310 -0.3958
 2121poe    c2312489   2.687   6.554   5.937  0.3031 -0.6993 -0.4697
 2121poe    c2312490   2.801   6.571   6.040 -0.0185 -0.0505 -0.2087
 2121poe     o212491   2.805   6.469   6.137  0.1157  0.4893  0.3556
 2121poe    c3112492   2.932   6.473   6.198  0.3123 -0.5442  0.0391
 2122poe    c3112493   1.909   1.894   5.200  0.5231  0.3851  0.1229
 2122poe     o212494   1.993   1.911   5.312  0.4658  0.3698  0.1686
 2122poe    c2312495   1.999   2.045   5.355 -0.6888  0.3346  0.4529
 2122poe    c2312496   2.068   2.047   5.493  0.1436  0.4171  0.0401
 2122poe     o212497   1.973   1.979   5.572  0.2146 -0.3756 -0.5373
 2122poe    c2312498   2.028   1.955   5.700  0.2911  0.1171 -0.4735
 2122poe    c2312499   1.927   1.861   5.769 -0.1149  0.7978 -0.1225
 2122poe     o212500   1.927   1.741   5.695  0.3161  0.5641  0.2503
 2122poe    c2312501   1.867   1.642   5.775 -0.1814  0.2977 -0.4431
 2122poe    c2312502   1.885   1.500   5.717  0.3883  0.1969 -0.0318
 2122poe     o212503   1.814   1.484   5.596  0.1575  0.4601  0.0666
 2122poe    c3112504   1.820   1.352   5.545  0.1858  0.3064  0.4643
 2123poe    c3112505   0.431   0.849   2.486  0.0450 -0.0839  0.1926
 2123poe     o212506   0.442   0.778   2.365  0.1010 -0.3533  0.3539
 2123poe    c2312507   0.552   0.691   2.372 -0.0046 -0.5026  0.1780
 2123poe    c2312508   0.575   0.638   2.229 -0.2788  0.4306 -0.2211
 2123poe     o212509   0.467   0.551   2.203 -0.0703 -0.0738  0.5481
 2123poe    c2312510   0.488   0.493   2.076  0.3574  0.3750  0.4109
 2123poe    c2312511   0.397   0.369   2.081  0.4443  0.3059  0.2933
 2123poe     o212512   0.270   0.406   2.131  0.3406  0.2269  0.0898
 2123poe    c2312513   0.217   0.311   2.222 -0.0004  0.5671  0.2487
 2123poe    c2312514   0.073   0.358   2.250 -0.3638 -0.1071 -0.4519
 2123poe     o212515   0.071   0.493   2.291  0.0986 -0.2467  0.0466
 2123poe    c3112516  -0.014   0.506   2.402 -0.1928  0.0456 -0.2095
 2124poe    c3112517   3.766   4.253   0.282  0.4111 -0.3259  0.3088
 2124poe     o212518   3.681   4.234   0.172 -0.1939 -0.5282  0.8039
 2124poe    c2312519   3.727   4.115   0.113  0.0080  0.0975 -0.3222
 2124poe    c2312520   3.616   4.009   0.130  0.1419  0.1642  1.0886
 2124poe     o212521   3.493   4.078   0.125 -0.0733 -0.2753 -0.4438
 2124poe    c2312522   3.393   4.007   0.194 -0.0231 -0.2685 -0.3633
 2124poe    c2312523   3.249   4.053   0.165  0.0067 -0.1895 -0.3855
 2124poe     o212524   3.226   4.189   0.197  0.1340 -0.4107  0.6604
 2124poe    c2312525   3.095   4.233   0.171  0.2653 -0.5104 -0.1862
 2124poe    c2312526   3.064   4.341   0.276  0.7850 -0.6560  0.1198
 2124poe     o212527   3.149   4.453   0.259 -0.2380  0.0857 -0.2070
 2124poe    c3112528   3.113   4.563   0.340  0.1166  0.1970 -0.1987
 2125poe    c3112529   5.453   0.705   2.008 -0.2853 -0.2422 -0.3773
 2125poe     o212530   5.400   0.765   2.124 -0.1332 -0.6062 -0.1176
 2125poe    c2312531   5.482   0.735   2.235 -0.1387 -0.4262 -0.0636
 2125poe    c2312532   5.531   0.858   2.312 -0.0903 -0.5143  0.0460
 2125poe     o212533   5.427   0.925   2.381  0.4549  0.5185 -0.1071
 2125poe    c2312534   5.469   1.029   2.466 -0.1346  0.1603  0.6359
 2125poe    c2312535   5.459   1.163   2.390 -0.6265 -0.0123  0.3935
 2125poe     o212536   5.336   1.180   2.323 -0.4199  0.6384  0.1755
 2125poe    c2312537   5.348   1.253   2.203 -0.6709  0.2108 -0.1132
 2125poe    c2312538   5.213   1.300   2.147 -0.4194  0.1440 -0.7869
 2125poe     o212539   5.131   1.189   2.119 -0.5508  0.0212  0.0833
 2125poe    c3112540   5.039   1.231   2.021 -0.3802 -0.0743 -0.1168
 2126poe    c3112541   1.010   1.023   2.391  0.1081  0.1938 -0.3138
 2126poe     o212542   0.992   1.162   2.381 -0.4579  0.1395 -0.1451
 2126poe    c2312543   0.881   1.194   2.300 -0.0548  0.4241 -0.5938
 2126poe    c2312544   0.899   1.340   2.253  0.5296  0.3012 -0.7635
 2126poe     o212545   1.016   1.367   2.179  0.9416  0.2439 -0.1370
 2126poe    c2312546   0.999   1.496   2.127 -0.3387  0.1685  0.0515
 2126poe    c2312547   1.094   1.501   2.005 -0.0836  0.8089  0.2734
 2126poe     o212548   1.223   1.469   2.053 -0.1682  0.0751  0.0151
 2126poe    c2312549   1.303   1.427   1.944 -0.0731  0.4612 -0.0662
 2126poe    c2312550   1.451   1.439   1.984  0.0438 -0.6641 -0.1182
 2126poe     o212551   1.490   1.335   2.070  0.5116  0.0829  0.5915
 2126poe    c3112552   1.613   1.362   2.134  0.7398 -0.0748  0.2223
 2127poe    c3112553   0.475   0.100   3.037 -0.2611 -0.1282  0.2337
 2127poe     o212554   0.442   0.091   3.174  0.1346 -0.2306  0.3231
 2127poe    c2312555   0.339  -0.003   3.200 -0.4569  0.2587 -0.2117
 2127poe    c2312556   0.399  -0.086   3.315 -0.1758  0.0344 -0.5214
 2127poe     o212557   0.462   0.002   3.405 -0.7424 -0.1231  0.0276
 2127poe    c2312558   0.553  -0.069   3.486 -0.5882 -0.0472 -0.0798
 2127poe    c2312559   0.630   0.026   3.578  0.1171 -0.1212 -0.5846
 2127poe     o212560   0.706   0.125   3.512  1.2100 -0.2736  0.3995
 2127poe    c2312561   0.764   0.221   3.598  0.5880  0.3731  0.1093
 2127poe    c2312562   0.819   0.350   3.534 -0.0811  0.2492 -0.7427
 2127poe     o212563   0.742   0.418   3.438  0.0868  0.2827 -0.8535
 2127poe    c3112564   0.770   0.557   3.438  0.2575  0.2560  0.1811
 2128poe    c3112565   0.987   6.297   6.807 -0.4350 -0.7387 -0.5473
 2128poe     o212566   0.980   6.395   6.908 -0.2594 -0.5441 -0.7240
 2128poe    c2312567   0.942   6.333   7.029 -0.6815  0.2486 -0.4421
 2128poe    c2312568   0.937   6.412   7.161 -0.2081 -0.3788 -0.0427
 2128poe     o212569   1.065   6.451   7.206 -0.3670 -0.9461  0.9254
 2128poe    c2312570   1.050   6.497   7.339 -0.0443  0.6749  0.4186
 2128poe    c2312571   1.045   6.384   7.443 -0.1313  0.0315 -0.2691
 2128poe     o212572   1.169   6.318   7.436  0.1583  0.4755  0.5209
 2128poe    c2312573   1.155   6.184   7.477  0.1201  0.3216  0.0076
 2128poe    c2312574   1.288   6.109   7.494 -0.0593 -0.0047 -0.0161
 2128poe     o212575   1.361   6.143   7.378  0.4314 -0.0764  0.2707
 2128poe    c3112576   1.488   6.082   7.376  0.3410 -0.2452 -0.4291
 2129poe    c3112577   6.880   7.133   2.940 -0.0494 -0.4608 -0.0465
 2129poe     o212578   6.897   6.995   2.965 -0.0068 -0.5104 -0.3451
 2129poe    c2312579   6.819   6.909   2.884 -1.0000  0.0652 -0.0216
 2129poe    c2312580   6.886   6.858   2.755 -0.2478  0.3422  0.2552
 2129poe     o212581   6.956   6.738   2.781  0.2617  0.4364 -0.6496
 2129poe    c2312582   6.986   6.647   2.677  0.3763 -0.4998  0.1851
 2129poe    c2312583   7.107   6.697   2.595  0.2552 -0.0528  0.2735
 2129poe     o212584   7.217   6.687   2.683  0.1087 -0.6365  0.3934
 2129poe    c2312585   7.325   6.739   2.610 -0.5465 -0.1459 -0.2402
 2129poe    c2312586   7.445   6.770   2.701 -0.4491 -0.1442 -0.3686
 2129poe     o212587   7.563   6.708   2.655 -0.0273  0.7872 -0.5624
 2129poe    c3112588   7.665   6.759   2.738 -0.3699 -0.2952  0.5484
 2130poe    c3112589   4.779   6.679   4.319 -0.7982 -0.4605  0.5355
 2130poe     o212590   4.741   6.811   4.286 -0.0298 -0.4614 -0.3784
 2130poe    c2312591   4.862   6.882   4.268  0.2071 -0.9797 -0.8498
 2130poe    c2312592   4.853   7.010   4.183  0.4944 -0.0674  0.4701
 2130poe     o212593   4.767   7.110   4.232  0.4744 -0.0711  0.4418
 2130poe    c2312594   4.751   7.219   4.144 -0.0816 -0.6999 -0.2442
 2130poe    c2312595   4.691   7.205   4.002 -0.0676 -0.2444 -0.2977
 2130poe     o212596   4.552   7.188   4.011 -0.0277 -0.2285  0.4069
 2130poe    c2312597   4.483   7.260   3.911  0.2307  0.3105  0.6103
 2130poe    c2312598   4.335   7.217   3.912  0.3432 -0.0962  0.2449
 2130poe     o212599   4.327   7.077   3.897  0.0941 -0.0999  0.4080
 2130poe    c3112600   4.195   7.057   3.852  0.2486  0.5835 -0.3740
 2131poe    c3112601   5.367   4.646   1.054  1.1436 -0.2958  0.1198
 2131poe     o212602   5.344   4.746   0.957 -0.8763 -0.3128  0.5175
 2131poe    c2312603   5.280   4.697   0.841 -0.6219 -0.1735  0.3150
 2131poe    c2312604   5.185   4.815   0.813  0.3832  0.5911  0.0817
 2131poe     o212605   5.250   4.939   0.827  0.2602  0.6232  0.3710
 2131poe    c2312606   5.182   5.048   0.768 -0.0754 -0.1801 -0.7573
 2131poe    c2312607   5.231   5.181   0.828  0.3442 -0.7474  0.1825
 2131poe     o212608   5.207   5.189   0.967 -0.2367 -0.1392  0.0486
 2131poe    c2312609   5.270   5.299   1.028 -0.3056 -0.0201 -0.0935
 2131poe    c2312610   5.237   5.294   1.179 -0.1806  0.9682 -0.0263
 2131poe     o212611   5.289   5.177   1.239  0.4769  1.0261 -0.4732
 2131poe    c3112612   5.233   5.169   1.368  0.2424 -0.1385 -0.6366
 2132poe    c3112613   2.156   6.872   6.498  0.1615  0.0227  0.0955
 2132poe     o212614   2.176   7.000   6.442 -0.3562  0.1885  0.2904
 2132poe    c2312615   2.066   7.024   6.357 -0.0397 -0.0607 -0.1931
 2132poe    c2312616   2.085   7.161   6.290  0.5719  0.4484  0.9864
 2132poe     o212617   2.204   7.150   6.215 -0.3625  0.2492 -0.5089
 2132poe    c2312618   2.214   7.246   6.111 -0.4866  0.5456 -0.2483
 2132poe    c2312619   2.362   7.237   6.069 -0.2647  0.1979  0.5825
 2132poe     o212620   2.442   7.211   6.182  0.0079 -0.3668  0.2625
 2132poe    c2312621   2.571   7.259   6.153  0.0522 -0.5853  0.0993
 2132poe    c2312622   2.680   7.198   6.244  0.4083 -0.1019  0.0014
 2132poe     o212623   2.660   7.195   6.384  0.3682 -0.9133 -0.0150
 2132poe    c3112624   2.760   7.115   6.444  0.4795 -0.1765  0.7948
 2133poe    c3112625   0.740   2.015   0.889 -0.5129  0.6311  0.2781
 2133poe     o212626   0.860   2.014   0.965 -0.4865  0.0262  0.2410
 2133poe    c2312627   0.889   2.141   1.019  0.3560  0.1738 -0.5386
 2133poe    c2312628   0.989   2.125   1.135 -0.1770 -0.2205 -0.1342
 2133poe     o212629   1.091   2.033   1.105  0.2795  0.1756  0.1893
 2133poe    c2312630   1.185   2.051   1.208 -0.1519  0.2845  0.5659
 2133poe    c2312631   1.264   1.918   1.212  0.5419  0.6752  0.0541
 2133poe     o212632   1.175   1.811   1.194  0.3637  0.9021 -0.4486
 2133poe    c2312633   1.242   1.693   1.233 -0.6602  0.4182 -0.1096
 2133poe    c2312634   1.175   1.554   1.225  0.2185 -0.0245  0.0373
 2133poe     o212635   1.176   1.508   1.092  0.1979 -0.5101  0.2030
 2133poe    c3112636   1.074   1.412   1.078  0.0045 -0.2971  0.1489
 2134poe    c3112637   1.540   5.670   2.136 -0.0283 -0.0392 -0.2384
 2134poe     o212638   1.461   5.766   2.202 -0.3760 -0.3696 -0.1744
 2134poe    c2312639   1.399   5.854   2.110 -0.9043 -0.1180  0.4113
 2134poe    c2312640   1.343   5.988   2.160  0.4121  0.5886  0.0403
 2134poe     o212641   1.241   5.971   2.256  0.9064 -0.1060  0.4503
 2134poe    c2312642   1.191   6.088   2.316 -0.1711 -0.4899  0.3214
 2134poe    c2312643   1.087   6.056   2.426 -0.5130  0.2434  0.2208
 2134poe     o212644   1.136   5.982   2.536  0.7551 -0.0181 -0.4953
 2134poe    c2312645   1.044   5.999   2.641  0.8167 -0.2506 -0.4037
 2134poe    c2312646   1.070   6.122   2.730 -0.0598 -0.2694 -0.1125
 2134poe     o212647   1.181   6.106   2.815  0.2180  0.1049 -0.4031
 2134poe    c3112648   1.201   6.210   2.908  0.5536 -0.2165 -0.1144
 2135poe    c3112649   0.580   0.666   3.712 -0.4683 -0.6860  0.8969
 2135poe     o212650   0.473   0.584   3.755 -1.0480 -0.7143 -0.5396
 2135poe    c2312651   0.390   0.678   3.819  0.1234  0.0935 -0.1654
 2135poe    c2312652   0.265   0.614   3.884  0.2268  0.6584  0.6036
 2135poe     o212653   0.293   0.518   3.983 -0.7563 -0.1270  0.1294
 2135poe    c2312654   0.357   0.573   4.095  0.3304 -0.5824 -0.2531
 2135poe    c2312655   0.370   0.462   4.202 -0.4843 -0.3973  0.0410
 2135poe     o212656   0.446   0.355   4.151 -0.6020 -0.2682 -0.4179
 2135poe    c2312657   0.472   0.255   4.248 -0.3067  0.1914 -0.0180
 2135poe    c2312658   0.547   0.135   4.189  0.4408  0.6260  0.0418
 2135poe     o212659   0.465   0.078   4.089  0.3802  0.1476  0.3617
 2135poe    c3112660   0.536  -0.015   4.011  0.1705  0.0924  0.2370
 2136poe    c3112661   0.390   3.950   6.251 -0.3388  0.3081 -0.1159
 2136poe     o212662   0.480   4.058   6.240  0.2442 -0.2631 -1.1259
 2136poe    c2312663   0.513   4.112   6.366  0.5045 -0.6362 -1.0321
 2136poe    c2312664   0.643   4.189   6.394 -0.0033  0.0079 -0.4157
 2136poe     o212665   0.761   4.112   6.380  0.1763  0.2800 -0.4094
 2136poe    c2312666   0.874   4.185   6.423  0.0094 -0.0989  0.6916
 2136poe    c2312667   0.997   4.094   6.406 -0.0103 -0.0450  0.2558
 2136poe     o212668   1.046   4.101   6.274  0.9174  0.6691  0.6276
 2136poe    c2312669   1.151   4.007   6.261  0.3412  0.0774  0.2119
 2136poe    c2312670   1.190   4.021   6.112 -0.2567  0.0078  0.0435
 2136poe     o212671   1.103   3.964   6.017 -0.1705  0.6238 -0.4130
 2136poe    c3112672   1.163   3.915   5.899 -0.3910 -0.5453 -0.0553
 2137poe    c3112673   0.691   2.373   0.513  0.6100 -0.1575  0.7952
 2137poe     o212674   0.744   2.504   0.523  0.1701  0.0898  0.0335
 2137poe    c2312675   0.690   2.576   0.415  0.1154  0.1287  0.0868
 2137poe    c2312676   0.739   2.721   0.405  0.0987  0.1124 -0.2578
 2137poe     o212677   0.704   2.791   0.288  0.3229 -0.0493 -0.4227
 2137poe    c2312678   0.765   2.760   0.165  0.6795 -0.3301 -0.1735
 2137poe    c2312679   0.879   2.861   0.143  0.6816 -0.5833 -1.3711
 2137poe     o212680   0.795   2.963   0.094  0.6232  0.1589  0.2114
 2137poe    c2312681   0.873   3.078   0.073  0.3818  0.3174  0.1791
 2137poe    c2312682   0.794   3.197   0.016  0.4035  0.2997  0.1112
 2137poe     o212683   0.698   3.258   0.100  0.5506  0.5558  0.0940
 2137poe    c3112684   0.631   3.369   0.045 -0.1967  0.5033  0.8844
 2138poe    c3112685   0.183   5.866   4.919 -0.1274  0.5713 -0.6084
 2138poe     o212686   0.292   5.830   4.839  0.1334  0.1373 -0.0666
 2138poe    c2312687   0.378   5.733   4.894 -0.1894  0.0239  0.2380
 2138poe    c2312688   0.470   5.703   4.774 -0.3196  0.3065  0.0667
 2138poe     o212689   0.533   5.818   4.721 -0.2698  0.2241 -0.0533
 2138poe    c2312690   0.606   5.783   4.606 -0.2792  0.1921 -0.0495
 2138poe    c2312691   0.659   5.916   4.550  0.5788 -0.2351 -0.2757
 2138poe     o212692   0.542   5.993   4.530  0.0626 -0.9936 -0.2405
 2138poe    c2312693   0.585   6.113   4.469 -0.4510 -0.3781  0.6000
 2138poe    c2312694   0.470   6.215   4.462 -0.4751 -0.4314  0.2420
 2138poe     o212695   0.442   6.262   4.592  0.1073 -0.7374  0.4779
 2138poe    c3112696   0.344   6.362   4.574  0.3697 -0.5446  0.0883
 2139poe    c3112697   2.401   2.547   6.057 -0.7666 -0.0662  0.0579
 2139poe     o212698   2.327   2.665   6.081  0.0067  0.4448 -0.0353
 2139poe    c2312699   2.192   2.651   6.117  0.2976  0.1050  0.9711
 2139poe    c2312700   2.125   2.788   6.096  0.0152 -0.1578  0.1008
 2139poe     o212701   2.104   2.832   5.963 -0.0104  0.2631  0.2438
 2139poe    c2312702   1.977   2.794   5.916  0.2958 -0.0255 -0.3638
 2139poe    c2312703   1.948   2.828   5.769 -0.5434 -0.0202 -0.2020
 2139poe     o212704   1.951   2.963   5.727  0.0989  0.1172  0.2635
 2139poe    c2312705   1.839   3.041   5.764 -0.0463 -0.0177  0.1075
 2139poe    c2312706   1.875   3.189   5.785 -0.7180  0.1455  0.1528
 2139poe     o212707   1.976   3.203   5.883 -0.5121 -0.0026 -0.0354
 2139poe    c3112708   1.995   3.330   5.941  0.1509 -0.1797  0.1378
 2140poe    c3112709   6.669   2.521   1.479 -0.2244  0.2633 -0.4883
 2140poe     o212710   6.744   2.640   1.466 -0.1724  0.2846 -0.0109
 2140poe    c2312711   6.770   2.718   1.580 -0.1708  0.0756  0.1319
 2140poe    c2312712   6.867   2.828   1.532 -0.1082 -0.0877 -0.1137
 2140poe     o212713   6.961   2.764   1.447 -0.0155 -0.2607  0.1170
 2140poe    c2312714   7.082   2.835   1.456  0.2581 -0.7314  0.1745
 2140poe    c2312715   7.147   2.824   1.317 -0.1125  0.2093 -0.0832
 2140poe     o212716   7.148   2.694   1.263 -0.1593  0.1515  0.0539
 2140poe    c2312717   7.180   2.691   1.126 -0.1533 -0.1656  0.0613
 2140poe    c2312718   7.158   2.556   1.056 -0.0645 -0.1592  0.0199
 2140poe     o212719   7.220   2.440   1.108 -0.0672  0.0050  0.3915
 2140poe    c3112720   7.180   2.317   1.053  0.1024  0.1322 -0.0203
 2141poe    c3112721   0.650   3.412   2.203 -0.2467  0.5633  0.1389
 2141poe     o212722   0.659   3.320   2.097  0.2594  0.1737  0.5140
 2141poe    c2312723   0.711   3.210   2.168 -0.0699 -0.0601  0.3961
 2141poe    c2312724   0.721   3.093   2.068 -0.5724  0.2683 -0.0428
 2141poe     o212725   0.596   3.098   2.001 -0.7400 -0.0951  0.2352
 2141poe    c2312726   0.590   3.000   1.901 -0.3763 -0.3591  0.4692
 2141poe    c2312727   0.453   3.022   1.835 -0.0646  0.0282 -0.0584
 2141poe     o212728   0.459   3.158   1.799  0.7246 -0.0156 -0.0947
 2141poe    c2312729   0.358   3.192   1.707  0.2873  0.0509  0.4080
 2141poe    c2312730   0.371   3.334   1.648 -0.6213 -0.1062 -0.1841
 2141poe     o212731   0.323   3.434   1.734  0.1722 -0.1384  0.3040
 2141poe    c3112732   0.308   3.551   1.656 -0.5473 -0.5864 -0.2397
 2142poe    c3112733   0.567   4.380   6.822  0.0367  0.1715  0.9034
 2142poe     o212734   0.536   4.516   6.804 -0.5223 -0.0558  0.1172
 2142poe    c2312735   0.639   4.591   6.863 -0.5113  0.1767 -0.1913
 2142poe    c2312736   0.642   4.743   6.838 -0.0170  0.2595  0.3339
 2142poe     o212737   0.519   4.801   6.874 -0.2065  0.6315 -0.8510
 2142poe    c2312738   0.523   4.941   6.881  0.1810  0.6184 -0.8033
 2142poe    c2312739   0.384   5.008   6.874 -0.4678 -0.4594  1.1485
 2142poe     o212740   0.307   4.939   6.778  0.0890  0.7033 -0.1607
 2142poe    c2312741   0.188   5.006   6.742 -0.6714 -0.3532  0.3373
 2142poe    c2312742   0.111   4.939   6.627 -0.3176 -0.2791  0.0543
 2142poe     o212743   0.118   4.805   6.669  0.0993 -0.2875 -0.0449
 2142poe    c3112744   0.035   4.718   6.595  0.0843 -0.0242 -0.3346
 2143poe    c3112745   5.457   5.089   3.068 -0.7507  0.0294 -0.1182
 2143poe     o212746   5.444   5.220   3.017  0.1374 -0.1039 -0.7037
 2143poe    c2312747   5.563   5.289   2.982 -0.0158  0.4240 -0.1944
 2143poe    c2312748   5.526   5.429   2.929 -0.8113  0.2342 -0.1524
 2143poe     o212749   5.465   5.441   2.803 -0.0682  0.0772 -0.5312
 2143poe    c2312750   5.558   5.504   2.718  0.1506  0.1146 -0.2656
 2143poe    c2312751   5.519   5.507   2.569 -0.0305  0.3493 -0.2128
 2143poe     o212752   5.473   5.380   2.527 -0.1616  0.1036  0.6469
 2143poe    c2312753   5.443   5.376   2.389 -0.1269 -0.5873  0.6562
 2143poe    c2312754   5.408   5.232   2.350  0.7032 -0.5595 -0.2438
 2143poe     o212755   5.325   5.166   2.443  0.1332 -0.0247 -0.3677
 2143poe    c3112756   5.287   5.041   2.391 -0.1659 -0.0810 -0.0228
 2144poe    c3112757   3.359   2.130   1.378 -0.0042  0.4839  0.2304
 2144poe     o212758   3.391   2.069   1.255 -0.2428  0.1667  0.3227
 2144poe    c2312759   3.360   2.150   1.144 -0.3559  0.0933  0.3008
 2144poe    c2312760   3.326   2.067   1.018  0.1755 -0.2901  0.4072
 2144poe     o212761   3.443   2.021   0.956 -0.1118  0.2222 -0.5341
 2144poe    c2312762   3.411   1.986   0.823 -0.9226 -0.1916 -0.2367
 2144poe    c2312763   3.519   1.936   0.726 -0.4663  0.3460 -0.0120
 2144poe     o212764   3.609   2.041   0.696 -0.2032  0.1668  0.1431
 2144poe    c2312765   3.737   1.996   0.657 -0.3178  0.1130 -0.1785
 2144poe    c2312766   3.786   2.077   0.536 -0.6899 -0.1441 -0.5006
 2144poe     o212767   3.831   2.209   0.552 -0.1214 -0.3204 -0.6074
 2144poe    c3112768   3.911   2.242   0.441  0.1785 -0.2275 -0.3650
 2145poe    c3112769   3.153   1.919   4.085  0.2090  0.3186  0.4957
 2145poe     o212770   3.180   2.043   4.146 -0.9598  0.9580 -0.2490
 2145poe    c2312771   3.285   2.118   4.089  0.2953 -0.1460  0.5497
 2145poe    c2312772   3.285   2.252   4.165  0.0677  0.7115 -0.9130
 2145poe     o212773   3.300   2.230   4.303 -0.6268  0.5246 -0.8640
 2145poe    c2312774   3.323   2.356   4.362  0.6598 -0.2129  0.3030
 2145poe    c2312775   3.382   2.327   4.501  0.1107 -1.1354  0.3543
 2145poe     o212776   3.319   2.239   4.590 -0.3772 -0.5673  0.5775
 2145poe    c2312777   3.413   2.212   4.691  0.2598  0.0210  0.1460
 2145poe    c2312778   3.325   2.171   4.810  0.0290  0.0501 -0.0146
 2145poe     o212779   3.213   2.104   4.755  0.1210 -0.0593 -0.0690
 2145poe    c3112780   3.121   2.073   4.858 -0.1118 -0.4958 -0.4056
 2146poe    c3112781   4.375   3.960   5.777  1.0380  0.3707 -0.5802
 2146poe     o212782   4.382   3.840   5.703  0.1992 -0.2548  0.3297
 2146poe    c2312783   4.400   3.887   5.571  0.6006 -0.1298  0.4272
 2146poe    c2312784   4.424   3.762   5.485  0.1286 -0.0160  0.1277
 2146poe     o212785   4.510   3.687   5.567  0.5253  0.6249  0.3014
 2146poe    c2312786   4.541   3.567   5.499 -0.0753  0.3050  0.5838
 2146poe    c2312787   4.581   3.458   5.600 -0.4883 -0.3881  0.0067
 2146poe     o212788   4.507   3.477   5.719 -0.3556  0.6741 -0.0658
 2146poe    c2312789   4.525   3.364   5.801  0.2053  0.5514 -0.3521
 2146poe    c2312790   4.488   3.377   5.950 -0.0963  0.4353 -0.4156
 2146poe     o212791   4.565   3.465   6.028  0.1395 -0.2430  0.1238
 2146poe    c3112792   4.548   3.433   6.165 -0.3102  0.7284  0.3076
 2147poe    c3112793   3.330   1.307   2.742  0.7647  0.0059 -0.1909
 2147poe     o212794   3.318   1.444   2.715  0.5578  0.1057  0.3863
 2147poe    c2312795   3.413   1.492   2.622  0.1441 -0.2165 -0.2127
 2147poe    c2312796   3.370   1.626   2.558 -0.3567 -0.0308  0.4933
 2147poe     o212797   3.269   1.614   2.461 -0.0436  0.4179  0.1082
 2147poe    c2312798   3.319   1.661   2.338  0.4296 -0.2126  0.0554
 2147poe    c2312799   3.205   1.710   2.248  0.0109 -0.2095  0.5811
 2147poe     o212800   3.153   1.822   2.315 -0.0116  0.2387 -0.1653
 2147poe    c2312801   3.049   1.881   2.241 -0.5008  0.8435  0.9700
 2147poe    c2312802   3.086   2.017   2.179  0.0453  0.1409 -0.2769
 2147poe     o212803   3.103   2.121   2.272  0.4431 -0.3609  0.2226
 2147poe    c3112804   3.054   2.244   2.222 -0.0290 -0.6004  0.0972
 2148poe    c3112805   3.167   4.699   2.874 -0.0903  0.4885 -0.5183
 2148poe     o212806   3.240   4.808   2.928  0.1813  0.0306  0.0541
 2148poe    c2312807   3.223   4.922   2.848 -0.4463  0.2282  0.4627
 2148poe    c2312808   3.346   5.014   2.860  0.3412 -0.7140 -0.2928
 2148poe     o212809   3.455   4.948   2.799  0.8517  0.0610 -0.2260
 2148poe    c2312810   3.568   5.025   2.836  0.2774  0.6576  0.3104
 2148poe    c2312811   3.693   4.968   2.767 -0.2509  0.0042 -0.1175
 2148poe     o212812   3.751   4.850   2.817 -0.1769 -0.0630 -0.3595
 2148poe    c2312813   3.875   4.817   2.759  0.0786  0.2869 -0.0127
 2148poe    c2312814   3.969   4.713   2.824  0.3154  0.2247 -0.4506
 2148poe     o212815   3.927   4.578   2.826  0.3818  0.2119  0.5113
 2148poe    c3112816   4.038   4.510   2.772  0.5314  0.3017  0.7055
 2149poe    c3112817   2.480   3.978   1.016  0.3664  0.0421  0.2724
 2149poe     o212818   2.606   3.913   1.020  0.2274 -0.1985  0.7934
 2149poe    c2312819   2.652   3.900   0.887  0.0087  0.4263  0.6494
 2149poe    c2312820   2.799   3.852   0.883 -0.3342 -0.5749 -0.4530
 2149poe     o212821   2.816   3.730   0.952  0.2404 -0.1972  0.0803
 2149poe    c2312822   2.942   3.697   1.005  0.2013 -0.3253  0.0934
 2149poe    c2312823   2.931   3.556   1.066  0.0783 -0.4033 -0.1097
 2149poe     o212824   2.838   3.555   1.172  0.4818  0.4625  0.2633
 2149poe    c2312825   2.880   3.482   1.284  0.4293 -0.6112 -0.3994
 2149poe    c2312826   2.810   3.518   1.417  0.3921  0.2748 -0.6565
 2149poe     o212827   2.831   3.656   1.439  0.0761  0.1418  0.5075
 2149poe    c3112828   2.812   3.683   1.576  0.5712  1.1132  0.3926
 2150poe    c3112829   3.910   4.191   3.371 -1.0611  0.1070 -0.2069
 2150poe     o212830   3.857   4.061   3.391 -0.0612 -0.3379 -0.3695
 2150poe    c2312831   3.845   4.000   3.265  0.3738 -0.2389 -0.4589
 2150poe    c2312832   3.767   3.870   3.292  0.3971 -0.2249 -0.3264
 2150poe     o212833   3.842   3.794   3.384  0.5949 -0.0240 -0.3190
 2150poe    c2312834   3.754   3.722   3.467  0.2526  0.2425 -0.4460
 2150poe    c2312835   3.792   3.705   3.616 -0.3396  0.2359 -0.2910
 2150poe     o212836   3.820   3.840   3.646 -0.2794  0.1209  0.1741
 2150poe    c2312837   3.799   3.869   3.782  0.8280 -0.4345  0.4761
 2150poe    c2312838   3.880   3.995   3.819 -0.3341  0.4290  0.1533
 2150poe     o212839   3.869   4.080   3.707 -0.0484  0.3627  0.0740
 2150poe    c3112840   3.924   4.208   3.730 -0.3094  0.3073  1.0578
 2151poe    c3112841   2.580   5.017   1.094  0.2033 -0.5294  0.3930
 2151poe     o212842   2.664   4.920   1.035 -0.2473 -0.6697 -0.0237
 2151poe    c2312843   2.639   4.946   0.899 -0.0510 -0.1053  0.0450
 2151poe    c2312844   2.744   4.870   0.815  0.0768  0.2419 -0.1103
 2151poe     o212845   2.872   4.922   0.846  0.1004  0.2010 -0.1388
 2151poe    c2312846   2.970   4.853   0.772  0.0669  0.1912 -0.1735
 2151poe    c2312847   3.107   4.851   0.842  0.0885 -0.2920 -0.2310
 2151poe     o212848   3.108   4.746   0.936 -0.4645 -0.6434 -0.6116
 2151poe    c2312849   3.242   4.713   0.965 -0.5498 -0.0937  0.4990
 2151poe    c2312850   3.274   4.685   1.113  0.2010  0.0344  0.3627
 2151poe     o212851   3.212   4.567   1.157  0.0135  0.0259  0.0801
 2151poe    c3112852   3.216   4.542   1.296  1.1723  0.4025  0.1200
 2152poe    c3112853   4.236   1.849   3.318  0.2739  0.1807  0.1071
 2152poe     o212854   4.125   1.767   3.347 -0.1808  0.4787 -0.7217
 2152poe    c2312855   4.027   1.862   3.383 -0.1499  0.2402  0.0097
 2152poe    c2312856   3.902   1.775   3.408 -0.3965  0.4438 -0.5225
 2152poe     o212857   3.902   1.666   3.318  0.1587 -0.8518  1.0132
 2152poe    c2312858   3.795   1.575   3.329 -0.7661  0.0818 -0.0542
 2152poe    c2312859   3.809   1.485   3.204  0.3065 -0.1580  0.2328
 2152poe     o212860   3.940   1.434   3.201  0.3234 -0.1054  0.0953
 2152poe    c2312861   3.931   1.309   3.137 -0.7539 -0.0922  0.2124
 2152poe    c2312862   4.062   1.234   3.105 -0.3330  0.4750  0.5886
 2152poe     o212863   4.107   1.153   3.211  0.4072 -0.7039 -0.5973
 2152poe    c3112864   4.235   1.100   3.186  0.5771 -0.5791 -0.0015
 2153poe    c3112865   4.642   6.374   4.752  0.3742 -0.0038  0.2405
 2153poe     o212866   4.686   6.506   4.732  1.0661 -0.2846 -0.1404
 2153poe    c2312867   4.583   6.589   4.681  0.9904 -0.1159  0.2886
 2153poe    c2312868   4.610   6.725   4.749 -0.4663  0.3939 -0.1366
 2153poe     o212869   4.526   6.832   4.711 -0.4591  0.4207 -0.0756
 2153poe    c2312870   4.542   6.941   4.800 -0.0390  0.1663  0.1634
 2153poe    c2312871   4.500   7.073   4.732 -0.3132 -0.1541 -0.3001
 2153poe     o212872   4.589   7.117   4.633  0.1324  0.0636  0.1943
 2153poe    c2312873   4.564   7.243   4.574  0.1221  0.3091  0.7170
 2153poe    c2312874   4.444   7.267   4.481  0.5592 -0.0096  0.0683
 2153poe     o212875   4.458   7.199   4.358  0.3396  0.0950 -0.0163
 2153poe    c3112876   4.365   7.259   4.270 -0.1985 -1.0052 -0.2184
 2154poe    c3112877   3.196   0.190   2.790  0.4748 -0.0777 -0.3217
 2154poe     o212878   3.285   0.299   2.798  0.3600 -0.0013 -0.1023
 2154poe    c2312879   3.303   0.369   2.677 -0.6038  0.1935 -0.1470
 2154poe    c2312880   3.361   0.511   2.693 -0.2876 -0.0132  0.5685
 2154poe     o212881   3.257   0.590   2.748 -0.3168  0.6037 -0.3558
 2154poe    c2312882   3.336   0.707   2.747  0.0917  0.3297 -1.1202
 2154poe    c2312883   3.271   0.845   2.768  0.0608  0.1417  0.0931
 2154poe     o212884   3.218   0.848   2.898 -0.2478 -0.0921 -0.0264
 2154poe    c2312885   3.169   0.975   2.935 -0.0058  0.0439 -0.1689
 2154poe    c2312886   3.270   1.028   3.038  0.3341 -0.7095 -0.1056
 2154poe     o212887   3.275   0.959   3.160 -0.4496 -0.0693  0.2975
 2154poe    c3112888   3.404   0.912   3.192 -0.1897  0.3087 -0.1828
 2155poe    c3112889   0.713   3.619   3.159  0.5297  0.7264  0.3583
 2155poe     o212890   0.711   3.713   3.054 -0.0289  0.3078 -0.0114
 2155poe    c2312891   0.591   3.695   2.983 -0.2392 -0.0557  0.4315
 2155poe    c2312892   0.503   3.821   2.985 -0.1391  0.0199  0.2016
 2155poe     o212893   0.561   3.933   2.923 -0.6200 -0.0664 -0.4116
 2155poe    c2312894   0.486   4.046   2.957 -0.0363  0.3506 -0.4882
 2155poe    c2312895   0.511   4.160   2.856  0.0604 -0.3667 -1.2796
 2155poe     o212896   0.649   4.160   2.828  0.3116  0.1543 -0.1188
 2155poe    c2312897   0.688   4.281   2.767  0.0592  0.3061  0.0181
 2155poe    c2312898   0.840   4.302   2.784  0.2586 -1.4143  0.5072
 2155poe     o212899   0.872   4.363   2.907  0.1766  0.1809 -0.2376
 2155poe    c3112900   1.010   4.391   2.910  0.0754  0.7110 -0.4599
 2156poe    c3112901   2.716   1.552   5.482 -0.0525  0.3267 -0.1924
 2156poe     o212902   2.841   1.539   5.546 -0.2545 -0.2294  0.0969
 2156poe    c2312903   2.821   1.479   5.673  0.0687 -0.1339  0.1940
 2156poe    c2312904   2.780   1.567   5.793  0.1976 -0.1831  0.2743
 2156poe     o212905   2.870   1.674   5.782  0.0056 -0.0193  0.2934
 2156poe    c2312906   2.878   1.738   5.907  0.5831  0.2348  0.1335
 2156poe    c2312907   2.994   1.837   5.927  0.7877  0.0808 -0.2800
 2156poe     o212908   3.008   1.938   5.830  0.2744  0.7361  0.3153
 2156poe    c2312909   3.135   1.998   5.833  0.6122  0.0590 -0.0393
 2156poe    c2312910   3.213   2.006   5.701  0.4131  0.3334 -0.1422
 2156poe     o212911   3.283   1.888   5.665  0.1187  0.2370 -0.4085
 2156poe    c3112912   3.358   1.899   5.547 -0.1279  0.0072 -0.5870
 2157poe    c3112913   0.639   3.767   0.537 -0.2175  0.0476  0.0229
 2157poe     o212914   0.582   3.695   0.430  0.3093  0.1687 -0.3406
 2157poe    c2312915   0.453   3.731   0.385  0.1334 -0.4302 -0.3284
 2157poe    c2312916   0.394   3.611   0.309  0.3482 -0.5676 -0.2799
 2157poe     o212917   0.371   3.503   0.397  0.3865 -0.3755 -0.0324
 2157poe    c2312918   0.328   3.382   0.339  0.0290 -0.1691 -0.2042
 2157poe    c2312919   0.293   3.274   0.442 -0.2457 -0.0559 -0.1801
 2157poe     o212920   0.391   3.292   0.542 -0.3582 -0.0198 -0.0758
 2157poe    c2312921   0.387   3.184   0.632 -0.2587  0.4275  0.4716
 2157poe    c2312922   0.493   3.205   0.741  0.1517  0.0550  0.1462
 2157poe     o212923   0.475   3.333   0.797  0.3027  0.0209  0.2722
 2157poe    c3112924   0.578   3.381   0.881  0.0810  0.3020  0.3863
 2158poe    c3112925   3.465   0.762   0.818 -0.1827  0.1951 -0.2879
 2158poe     o212926   3.396   0.705   0.927 -0.1333 -0.6422 -0.6846
 2158poe    c2312927   3.473   0.609   0.997  0.4219  0.2958  0.0065
 2158poe    c2312928   3.394   0.560   1.120  0.4191  0.9436  0.2679
 2158poe     o212929   3.257   0.592   1.100  0.0629 -0.6327  0.0848
 2158poe    c2312930   3.175   0.535   1.200  0.2173 -0.0893  0.5293
 2158poe    c2312931   3.029   0.568   1.161  0.2206 -0.3246  0.3141
 2158poe     o212932   3.007   0.707   1.155  0.0406 -0.3710 -0.1401
 2158poe    c2312933   2.885   0.744   1.095 -0.2503 -0.1565  0.5814
 2158poe    c2312934   2.869   0.896   1.118  0.6528 -0.0444  0.5146
 2158poe     o212935   2.985   0.965   1.077  0.6144 -0.3911 -0.1883
 2158poe    c3112936   2.954   1.101   1.056  0.3871 -0.3535  0.3743
 2159poe    c3112937   1.680   2.899   2.111  0.4354 -0.0257  0.1930
 2159poe     o212938   1.657   2.854   1.979 -0.1604  0.3419  0.1672
 2159poe    c2312939   1.756   2.890   1.886  0.1327  0.4954  0.5337
 2159poe    c2312940   1.781   2.776   1.785 -0.1770  0.2147  0.7728
 2159poe     o212941   1.667   2.715   1.729  0.7140 -0.6006 -0.2139
 2159poe    c2312942   1.677   2.575   1.720 -0.1198 -0.6167 -1.1422
 2159poe    c2312943   1.565   2.508   1.639 -0.6499 -0.2626 -0.7124
 2159poe     o212944   1.436   2.557   1.664 -0.4469 -0.4546  0.7707
 2159poe    c2312945   1.353   2.489   1.573 -0.2033  0.4336 -0.1368
 2159poe    c2312946   1.217   2.546   1.616 -0.3811  0.0195 -0.1372
 2159poe     o212947   1.237   2.684   1.637 -0.2141 -0.0490  0.1625
 2159poe    c3112948   1.128   2.758   1.688 -0.5865 -0.3801 -0.1529
 2160poe    c3112949   1.420   4.928   1.819 -0.2841 -0.5171 -0.4498
 2160poe     o212950   1.492   5.029   1.750 -0.5648  0.4099  0.5847
 2160poe    c2312951   1.564   4.981   1.639 -0.2657  0.3963  0.7833
 2160poe    c2312952   1.611   5.082   1.532 -0.1713 -0.2990  0.1642
 2160poe     o212953   1.639   5.026   1.406  0.2239 -0.1114  0.1694
 2160poe    c2312954   1.635   5.121   1.302 -0.3841 -0.4322 -0.1049
 2160poe    c2312955   1.680   5.051   1.172  0.1801  0.5103 -0.4260
 2160poe     o212956   1.598   4.952   1.115  0.4767 -0.0585  0.1299
 2160poe    c2312957   1.639   4.928   0.982  0.4702  0.0286  0.1122
 2160poe    c2312958   1.538   4.836   0.911  0.7981  0.1498 -0.5129
 2160poe     o212959   1.555   4.705   0.960 -0.0892 -0.0084 -0.6185
 2160poe    c3112960   1.494   4.622   0.864 -0.1560 -0.1485 -0.4553
 2161lim     li12961   6.002   1.930   6.933 -0.3600  0.4246 -0.3697
 2162lim     li12962   4.084   4.809   6.562  0.7314 -0.2140  0.0506
 2163lim     li12963   1.206   6.384   4.452 -0.8018 -0.8750  0.6429
 2164lim     li12964   1.273   2.566   0.557 -0.3121  0.7391  0.1559
 2165lim     li12965   1.173   3.663   1.029 -0.9124  0.2060  0.2650
 2166lim     li12966   6.495   0.694   6.861  0.4702  0.6586  0.3818
 2167lim     li12967   5.524   5.021   6.237 -0.7157  0.9326  1.2110
 2168lim     li12968   4.802   5.827   4.427 -0.1570  0.3800  0.9378
 2169lim     li12969   4.040   5.938   4.249  0.4029 -1.0381 -0.0203
 2170lim     li12970   4.428   7.025   4.315 -0.6285  0.6955  0.2454
 2171lim     li12971   4.860   3.649   4.990 -0.6729  0.8042 -1.1480
 2172lim     li12972   1.837   0.718   0.744 -0.1555  0.6914 -0.9556
 2173lim     li12973   4.539   4.638   4.760 -1.1061 -0.5149  0.6921
 2174lim     li12974   5.835   1.103   6.381  0.9558  0.8473 -0.3763
 2175lim     li12975   6.314   6.290   5.929  0.1658 -0.9815 -0.3066
 2176lim     li12976   4.826   1.510   5.502 -0.7162 -0.7083  0.3242
 2177lim     li12977   3.351   3.140   1.674  0.2516 -0.5215  0.2191
 2178lim     li12978   5.424   0.472   6.011 -1.1634  0.3788  1.2281
 2179lim     li12979   0.421   6.737   6.022 -1.2018 -0.0044  0.4722
 2180lim     li12980   5.237   5.565   5.925  0.4090  0.1838  0.6229
 2181lim     li12981   1.581   5.001   7.138 -1.7238 -0.2031 -0.0640
 2182lim     li12982   2.207   3.945   0.111  1.4177 -0.4920  0.0081
 2183lim     li12983   3.094   4.482   1.828 -0.6821 -0.5460  1.0936
 2184lim     li12984   4.449   0.246   1.981 -0.3337 -0.6704 -0.4801
 2185lim     li12985   1.971   0.930   6.431 -0.0815  1.0705  0.6650
 2186lim     li12986   3.573   0.299   6.121 -1.1686 -0.0903  0.6600
 2187lim     li12987   2.744   2.392   1.624  0.8950  0.2187 -0.7867
 2188lim     li12988   0.267   4.778   6.768  0.7076  0.6843  0.2029
 2189lim     li12989   0.190   6.235   3.859 -0.3193  0.3951 -1.1612
 2190lim     li12990   3.253   0.749   1.020  0.7706 -0.0841 -1.0027
 2191lim     li12991   5.911   4.831   0.937 -0.8338  0.3203  0.7154
 2192lim     li12992   3.315   3.289   1.098  0.2345  0.7936 -0.0226
 2193lim     li12993   1.850   3.236   4.446  0.0642 -0.1986 -0.2008
 2194lim     li12994   1.901   4.363   5.046  0.5740 -0.1808  0.0538
 2195lim     li12995   3.981   0.701   4.442  0.3223 -0.5891 -0.0568
 2196lim     li12996   6.530   5.431   2.091 -0.4646 -0.5522  0.6447
 2197lim     li12997   5.132   6.415   3.625  0.0958 -1.4561  0.5203
 2198lim     li12998   3.332   7.111   0.533  0.6140  0.1840  1.3194
 2199lim     li12999   0.419   1.543   1.374  0.2025 -0.2213  0.3586
 2200lim     li13000   5.706   0.241   1.689  0.5345  0.8820  0.9299
 2201lim     li13001   4.631   4.702   3.639  0.8321  0.3761 -1.0643
 2202lim     li13002   2.458   6.839   0.069  0.3560 -0.9655 -0.1855
 2203lim     li13003   4.148   6.625   0.336  0.0568 -0.8224 -0.9263
 2204lim     li13004   1.791   0.120   6.682  1.4165  0.0361  0.8751
 2205lim     li13005   5.342   2.184   2.348  0.1961  0.2420  0.0881
 2206lim     li13006   4.932   1.829   3.238  0.4813 -0.7775 -0.6450
 2207lim     li13007   0.638   5.376   0.307  0.4869  0.7863 -0.6947
 2208lim     li13008   3.524   1.219   0.306  0.6901 -0.0850  0.2320
 2209lim     li13009   3.389   1.582   5.870 -0.3744 -0.3020  0.3862
 2210lim     li13010   3.342   0.235   2.231 -0.2745  0.0537 -1.2067
 2211lim     li13011   3.701   3.001   5.985 -0.1205  0.0282  1.3051
 2212lim     li13012   5.593   6.131   1.349 -1.2781 -0.1138  0.8758
 2213lim     li13013   6.797   0.076   6.010  0.0017  0.7518 -0.6329
 2214lim     li13014   6.583   4.348   4.035 -0.5818  0.0953 -0.8163
 2215lim     li13015   5.787   4.845   5.408  0.1101  0.1697 -0.2847
 2216lim     li13016   5.907   2.513   6.420  0.0368 -0.1784 -0.4679
 2217lim     li13017   1.981   4.787   1.748 -2.0507 -0.5158 -0.7332
 2218lim     li13018   6.791   5.560   4.180 -0.3941  0.6046  0.4516
 2219lim     li13019   1.344   5.691   6.303 -0.1484 -0.2308  0.1219
 2220lim     li13020   6.708   0.107   0.182  0.9315  0.0414  0.5640
 2221lim     li13021   5.313   3.634   5.910  0.5933 -0.6851  0.5815
 2222lim     li13022   3.733   1.997   6.552  0.4638 -0.7648  0.4801
 2223lim     li13023   4.632   5.120   5.714  1.7254 -0.3345  0.1899
 2224lim     li13024   3.036   1.667   7.037  0.8007 -1.2754 -0.4179
 2225lim     li13025   5.422   0.789   1.018 -1.5134  0.7572  0.0515
 2226lim     li13026   0.633   2.799   6.459 -0.9132  0.8828 -1.7202
 2227lim     li13027   3.456   4.357   6.124 -0.1797  0.1503 -0.0213
 2228lim     li13028   6.703   0.217   2.231 -0.3000  0.4686  0.3238
 2229lim     li13029   0.955   3.008   3.907  0.2990  0.8219 -0.3287
 2230lim     li13030   1.840   2.593   5.233  0.5310 -1.1523 -0.6797
 2231lim     li13031   0.146   6.734   0.669 -0.9470 -0.6461  0.3136
 2232lim     li13032   0.563   3.357   3.800  0.3044  0.0802 -0.2173
 2233lim     li13033   3.846   4.976   3.563 -0.2714  0.5691 -0.1428
 2234lim     li13034   2.167   0.610   4.231 -0.6143 -0.2483 -0.9540
 2235lim     li13035   2.736   5.152   4.982  0.3630 -0.1430 -1.0801
 2236lim     li13036   2.250   1.601   6.544  0.9055 -0.1476 -1.0473
 2237lim     li13037   3.983   7.080   6.750  1.5735  0.1583 -0.2463
 2238lim     li13038   2.524   6.281   0.837  1.6883 -0.8990  0.0400
 2239lim     li13039   0.039   6.747   3.104  0.7826 -0.2882 -0.0067
 2240lim     li13040   3.737   5.584   0.732 -0.4189 -0.8060 -0.9712
 2241lim     li13041   0.623   5.679   5.335 -1.3796  0.8123  0.7122
 2242lim     li13042   3.191   6.443   3.077 -1.3373 -0.7674  0.3970
 2243lim     li13043   2.343   7.087   6.303 -0.7618 -0.0764  0.9182
 2244lim     li13044   4.739   4.460   2.634 -0.6494  0.1055  0.3435
 2245lim     li13045   6.237   3.336   2.441 -0.1459  0.6956 -0.7677
 2246lim     li13046   0.477   3.416   5.511 -0.2713  0.0114 -1.0668
 2247lim     li13047   1.717   6.481   5.586  0.2618 -0.0282 -0.2237
 2248lim     li13048   3.804   3.988   3.544  0.2227 -1.6179  0.6370
 2249lim     li13049   1.391   2.880   5.810  0.3001 -1.2169  0.2546
 2250lim     li13050   0.738   4.101   5.941  0.7354 -0.1798 -0.5383
 2251lim     li13051   6.193   3.684   3.664 -0.0648 -1.1388  0.0614
 2252lim     li13052   3.095   0.310   1.593  0.5457 -0.8488  0.2897
 2253lim     li13053   3.791   1.532   4.355 -0.2588 -0.2437 -0.6473
 2254lim     li13054   0.965   5.675   1.437 -0.2071  0.1858  1.4959
 2255lim     li13055   3.866   4.208   0.912 -0.9106 -0.0138  0.7498
 2256lim     li13056   6.680   5.468   1.303 -0.5757  0.1537  0.4234
 2257lim     li13057   1.034   3.467   6.054  0.4339 -0.4174 -1.6126
 2258lim     li13058   2.225   4.849   4.470  0.8373  0.1755  0.0215
 2259lim     li13059   0.752   6.775   1.935  0.2685  0.5437 -0.1364
 2260lim     li13060   1.143   4.818   4.619 -0.5847 -0.0469  0.0538
 2261lim     li13061   1.414   6.921   2.099 -0.4168 -0.1667 -1.3114
 2262lim     li13062   1.035   0.546   1.438 -0.7138  0.3808  0.3280
 2263lim     li13063   3.446   6.740   2.392 -0.1858  0.9568 -0.7786
 2264lim     li13064   5.393   1.259   0.177  0.7856  1.4170 -0.3624
 2265lim     li13065   1.550   5.610   0.476 -1.2471  0.4958  0.0963
 2266lim     li13066   5.871   5.369   1.326 -1.2015 -0.5799  0.6599
 2267lim     li13067   4.600   3.480   2.349 -0.5234  0.1932  0.1063
 2268lim     li13068   3.985   3.492   5.265  0.6989  0.3918 -0.1376
 2269lim     li13069   5.160   2.956   0.052 -1.3865 -0.0352  0.1823
 2270lim     li13070   4.381   3.471   0.755 -0.4889 -0.1849 -1.0508
 2271lim     li13071   6.139   5.988   2.226 -0.8933 -0.0425  0.5861
 2272lim     li13072   4.643   0.109   0.702  0.5743  0.4881 -1.2644
 2273lim     li13073   0.299   0.453   1.000  1.1271  0.7425 -0.2243
 2274lim     li13074   0.852   5.240   1.071  2.1146  1.2617  0.5049
 2275lim     li13075   1.112   6.584   1.301 -0.2138  0.0498 -0.0968
 2276lim     li13076   6.770   3.980   3.351 -1.5659 -0.2480 -0.3502
 2277lim     li13077   5.671   6.948   3.495  0.4892 -0.4716  0.1686
 2278lim     li13078   5.091   1.074   2.842 -0.3476  1.0464 -0.5207
 2279lim     li13079   2.808   4.420   5.487  0.3803 -0.6451 -0.0389
 2280lim     li13080   4.721   1.183   4.066  0.5131  0.1217 -0.7556
 2281lim     li13081   4.384   6.386   1.053  0.0478  1.3008 -0.5599
 2282lim     li13082   2.194   3.495   1.255 -0.1691  0.8083  0.0024
 2283lim     li13083   4.965   2.851   5.856 -0.5962 -0.4182  0.8595
 2284lim     li13084   6.596   2.420   3.732 -0.6101 -0.3451  0.5595
 2285lim     li13085   0.762   1.739   4.576  0.6877  0.3406  0.5151
 2286lim     li13086   0.195   0.569   2.139 -0.1467  0.5037 -0.3466
 2287lim     li13087   0.536   2.023   1.873 -0.7529  0.4801 -0.6186
 2288lim     li13088   0.117   2.011   2.590 -0.1524  0.6569 -0.8700
 2289lim     li13089   5.295   1.276   0.739  0.0618  0.3516  0.6349
 2290lim     li13090   0.777   1.884   6.192 -0.4774  0.0453 -1.0528
 2291lim     li13091   6.239   5.525   0.383 -0.5681 -0.0592  0.5747
 2292lim     li13092   5.329   5.056   4.166 -0.7942 -0.2610 -0.2298
 2293lim     li13093   1.564   2.046   4.148  0.3148 -0.5445  0.8182
 2294lim     li13094   2.410   0.361   0.505  0.6153  0.0857  0.3697
 2295lim     li13095   1.843   2.404   0.171  0.6608  0.3359  0.2146
 2296lim     li13096   6.351   6.687   0.886  0.6147 -0.1538 -0.8214
 2297lim     li13097   4.186   1.655   0.087  0.1536 -0.5666 -0.6275
 2298lim     li13098   5.590   4.242   3.160  1.1871 -0.8160 -0.0683
 2299lim     li13099   0.637   0.507   6.631  0.6593 -0.1299 -0.1554
 2300lim     li13100   4.994   0.298   7.063  0.6135 -0.1131 -1.0542
 2301lim     li13101   1.882   2.216   2.094 -0.6756  0.4974  0.0626
 2302lim     li13102   5.297   5.381   2.791 -0.1403 -0.4477 -1.1907
 2303lim     li13103   2.125   2.330   4.687  0.9067 -0.0809  0.0594
 2304lim     li13104   3.913   4.933   1.847 -0.9625  0.3041 -1.1368
 2305lim     li13105   5.013   0.116   2.581  2.3926  0.3650 -0.3135
 2306lim     li13106   3.245   3.304   0.220 -0.0850  0.4977  0.5098
 2307lim     li13107   5.853   0.695   0.210 -0.3239  0.0883 -0.5353
 2308lim     li13108   5.727   0.406   2.784 -1.5513 -0.1945  0.6294
 2309lim     li13109   3.647   5.909   5.184  0.5447 -0.1655  0.9331
 2310lim     li13110   2.980   1.649   2.623 -0.5272  0.6825  0.2798
 2311lim     li13111   0.087   2.828   6.362 -0.2000  0.5766 -0.4725
 2312lim     li13112   5.598   0.635   3.654 -0.1619  0.9340  0.1346
 2313lim     li13113   1.068   5.222   3.637  0.7533 -0.5983 -0.3860
 2314lim     li13114   4.660   6.812   6.729  1.5116  0.2774  1.1751
 2315lim     li13115   0.615   0.981   4.553 -0.4651  0.4279  0.3594
 2316lim     li13116   1.789   6.758   3.317 -0.2319 -0.5976 -0.9634
 2317lim     li13117   1.231   3.548   4.837 -0.1317  0.3289 -0.8463
 2318lim     li13118   0.849   5.200   2.739  0.8376 -0.1807 -0.8872
 2319lim     li13119   5.223   4.057   4.321  0.5662 -0.6351  0.9465
 2320lim     li13120   5.057   0.048   4.891 -0.6632 -1.4012  0.0837
 2321lim     li13121   3.800   4.955   4.398 -0.1086 -0.7291 -0.4830
 2322lim     li13122   2.962   2.450   6.384 -0.1897 -0.4947 -0.1413
 2323lim     li13123   0.255   4.095   2.275  0.5613  0.5497  0.9963
 2324lim     li13124   6.074   1.369   5.204 -1.4740 -0.0393  0.6852
 2325lim     li13125   2.701   3.757   1.095 -0.6244 -0.3190 -0.6006
 2326lim     li13126   2.938   1.151   4.613  0.7104 -0.1134 -1.0540
 2327lim     li13127   6.578   2.080   5.461 -0.3976  0.7907 -0.7097
 2328lim     li13128   4.871   5.001   6.703  0.9637  0.2369 -0.3869
 2329lim     li13129   0.715   4.973   2.067 -0.4241 -0.6555  0.3458
 2330lim     li13130   0.145   1.544   5.830 -0.2121  0.8746  0.9474
 2331lim     li13131   1.900   6.080   6.401 -1.9617  0.3018 -0.1895
 2332lim     li13132   2.060   2.426   1.071  0.1045 -0.0209 -0.4434
 2333lim     li13133   6.104   5.520   6.643 -0.8422  0.1782 -0.5279
 2334lim     li13134   5.967   1.397   4.587  1.5248  0.8863 -0.5820
 2335lim     li13135   0.576   2.914   0.302  0.6451 -0.2103 -1.0810
 2336lim     li13136   3.679   2.322   2.986 -0.6978  0.1894 -0.7247
 2337lim     li13137   6.879   0.520   3.115 -0.9818  0.6386  0.2462
 2338lim     li13138   4.284   1.388   2.051 -2.1297 -0.8750 -1.5056
 2339lim     li13139   4.530   5.364   3.325 -0.1191  1.0972 -0.8658
 2340lim     li13140   4.020   3.864   2.609 -0.6384 -0.3728  0.1923
 2341lim     li13141   5.361   5.644   3.628  0.8765 -0.1508 -0.2647
 2342lim     li13142   7.053   4.540   0.033  0.3757  1.1579  0.6201
 2343lim     li13143   4.726   5.567   0.828  0.3449  0.5007 -0.8800
 2344lim     li13144   4.098   2.974   4.428 -0.1810  0.2831 -0.2340
 2345lim     li13145   2.765   2.273   5.416  0.2943  0.1503  0.6257
 2346lim     li13146   3.029   2.611   0.286  0.7790 -0.6998  0.4552
 2347lim     li13147   1.744   0.221   1.515  0.5766  1.2905 -0.7427
 2348lim     li13148   3.698   1.163   6.604  0.6736  0.3195  0.5246
 2349lim     li13149   4.958   4.021   3.942  0.2953 -0.1409  0.7300
 2350lim     li13150   5.320   1.296   3.768 -0.4110  0.5881  0.1816
 2351lim     li13151   1.821   2.646   2.633 -1.0186 -0.7054  0.4725
 2352lim     li13152   5.914   6.593   5.552  1.4554 -0.3225  0.3614
 2353lim     li13153   4.421   2.835   6.877  0.4264 -0.3850 -0.8571
 2354lim     li13154   6.382   0.490   3.549  0.2631 -1.1718 -1.0295
 2355lim     li13155   2.741   0.620   0.072  0.7633 -0.6514  0.4317
 2356lim     li13156   6.839   1.241   4.379 -0.4814  0.7056 -0.8553
 2357lim     li13157   2.516   2.893   3.296 -0.3812  0.6357 -0.1015
 2358lim     li13158   5.694   5.257   4.750 -1.3745 -0.5274 -0.0596
 2359lim     li13159   1.726   4.823   2.964 -1.1045  0.4202 -0.7269
 2360lim     li13160   2.199   0.725   5.237  0.3579 -0.6755  0.5249
 2361lim     li13161   2.546   5.422   1.961  0.9636  0.7543  0.4697
 2362lim     li13162   0.292   6.024   3.033 -0.3411 -0.5342 -0.3838
 2363lim     li13163   0.713   3.981   2.837 -0.1121  0.4517  0.0451
 2364lim     li13164   4.862   6.669   5.829 -0.4007  0.2624  0.3002
 2365lim     li13165   1.153   1.250   2.268  0.9113  0.1863 -0.0639
 2366lim     li13166   0.985   2.186   0.009 -0.1496 -0.5317 -0.1873
 2367lim     li13167   0.532   0.161   3.318 -0.3652  1.8075 -0.5504
 2368lim     li13168   4.116   4.716   0.608 -0.5190  0.0868 -0.7396
 2369lim     li13169   5.849   0.521   4.953 -0.2345  0.2850 -0.8666
 2370lim     li13170   5.587   3.268   2.811  0.2566  0.3919  0.6895
 2371lim     li13171   5.371   4.929   0.954  0.2541 -0.6596  0.1197
 2372lim     li13172   6.221   2.028   1.053 -0.6607  0.5945  0.7051
 2373lim     li13173   0.423   0.954   0.604  0.1120 -0.3333  0.0388
 2374lim     li13174   5.273   0.840   5.043  0.4193  0.1655  0.1312
 2375lim     li13175   5.497   3.126   4.021  0.2357 -1.1059  0.4874
 2376lim     li13176   5.313   5.970   5.024  0.2150 -0.0082  0.2552
 2377lim     li13177   4.618   2.510   6.139  0.7032 -0.2244 -0.3980
 2378lim     li13178   4.964   2.374   0.455 -0.3209 -0.2806  1.3070
 2379lim     li13179   6.106   6.820   4.233 -0.6063 -0.8531  0.6969
 2380lim     li13180   5.902   3.948   0.406  0.6365 -0.4866 -1.1347
 2381lim     li13181   1.855   4.194   4.072 -0.0643 -0.4473 -0.5373
 2382lim     li13182   3.550   4.580   2.799  0.0472 -0.7854 -0.6447
 2383lim     li13183   1.830   3.720   5.438  0.1265 -0.7169  0.9106
 2384lim     li13184   0.935   4.700   0.140 -0.0911  0.0227 -0.2063
 2385lim     li13185   1.937   7.037   5.366  1.1270  0.4831  0.9936
 2386lim     li13186   0.600   1.342   5.347  0.6117 -0.6754 -1.7671
 2387lim     li13187   0.479   2.445   1.101  0.7771 -1.4878  0.2810
 2388lim     li13188   4.935   2.902   3.224  0.1817  0.6821  0.1049
 2389lim     li13189   3.263   0.261   4.789 -0.2118 -0.2830 -1.0065
 2390lim     li13190   6.261   6.633   5.033  0.0550 -0.9926 -0.1302
 2391lim     li13191   5.613   3.556   6.393  1.1331  1.4856 -0.5132
 2392lim     li13192   1.506   1.334   6.925 -0.8488  0.2799 -0.0441
 2393lim     li13193   6.081   3.924   4.562 -0.1153  0.0099 -0.2636
 2394lim     li13194   1.326   0.732   5.139 -0.2270 -1.0870 -0.3881
 2395lim     li13195   5.634   1.752   1.847  0.8139 -0.3707 -0.0905
 2396lim     li13196   1.196   1.126   3.556  0.1594  0.3499 -1.3079
 2397lim     li13197   4.504   5.393   7.119  1.3715 -0.0158 -0.5429
 2398lim     li13198   3.553   0.033   3.798 -0.8284  0.8229 -0.0925
 2399lim     li13199   2.229   4.809   0.144  0.9045 -0.0948  0.2695
 2400lim     li13200   1.041   1.849   1.073 -1.3294 -0.1116 -0.0973
 2401lim     li13201   0.918   2.609   5.142  0.5149  0.5574 -0.5890
 2402lim     li13202   6.111   3.677   5.366  0.3677 -0.6048 -0.3772
 2403lim     li13203   1.314   0.751   0.367 -0.8287 -0.4919 -0.8877
 2404lim     li13204   3.098   5.519   6.102  1.3043  0.0449 -0.3001
 2405lim     li13205   7.056   5.859   6.327 -0.1074 -0.7677 -0.7472
 2406lim     li13206   7.060   3.492   4.456  0.1552 -0.2726  0.2098
 2407lim     li13207   5.104   1.436   6.627  0.1266  0.8020 -1.1000
 2408lim     li13208   3.343   3.508   2.967  0.7730 -0.0731  0.6670
 2409lim     li13209   6.562   1.284   0.743  0.3745  0.3022  0.1817
 2410lim     li13210   5.358   1.981   3.694 -0.8360  0.1924 -0.3787
 2411lim     li13211   0.912   6.158   3.455  0.3719 -0.7137 -0.5769
 2412lim     li13212   2.999   6.624   1.626 -0.2222  0.1737  1.2155
 2413lim     li13213   0.989   4.124   4.114 -0.7923  0.0586 -0.2670
 2414lim     li13214   5.207   4.167   1.316  0.3848  0.7643 -0.5199
 2415lim     li13215   0.733   1.129   3.882 -0.2367  0.2300 -0.3636
 2416lim     li13216   7.074   2.229   7.092 -0.0766  0.4447 -0.7720
 2417lim     li13217   4.147   0.304   5.712  0.1576 -0.4254  0.2646
 2418lim     li13218   0.071   3.922   1.335 -0.1703  0.5504  0.1932
 2419lim     li13219   0.826   5.166   6.297 -0.2542  0.3701 -0.4430
 2420lim     li13220   1.506   3.819   6.705  0.0369  0.0132  0.4499
 2421lim     li13221   4.158   0.479   3.197  2.2583  0.5538  0.2014
 2422lim     li13222   0.214   4.297   5.240 -0.5535  0.2748  1.4591
 2423lim     li13223   2.432   3.328   4.949  0.8312 -0.8758 -0.9060
 2424lim     li13224   3.989   5.232   2.377  0.3841  0.2490  0.0088
 2425lim     li13225   3.496   5.843   3.318 -1.2591 -0.4777  1.4150
 2426lim     li13226   5.424   5.730   6.986  0.3176 -0.3892 -0.3595
 2427lim     li13227   6.407   4.327   4.844 -0.7867  0.5630 -1.0475
 2428lim     li13228   3.997   1.203   4.973 -0.6876  0.5440 -0.3392
 2429lim     li13229   1.393   2.723   1.688 -1.9232  0.0830  0.1004
 2430lim     li13230   0.338   0.368   5.319 -0.3296 -0.7059  0.8064
 2431lim     li13231   4.019   2.076   5.860 -0.4205  0.4101  0.3570
 2432lim     li13232   6.229   6.565   2.936 -0.5720 -0.2656  0.7011
 2433lim     li13233   6.229   5.230   3.292 -0.4361  0.2407  0.7512
 2434lim     li13234   2.064   4.992   5.820  0.1770  0.2477 -0.1277
 2435lim     li13235   2.195   1.143   3.887 -0.2989 -0.1305  0.4240
 2436lim     li13236   4.318   1.554   2.747 -0.4410 -0.1472  0.1286
 2437lim     li13237   6.590   5.349   0.094 -0.1351 -0.6741 -0.1100
 2438lim     li13238   2.791   3.642   3.860 -0.0294 -0.9581  0.9118
 2439lim     li13239   3.165   6.563   6.985  0.7695  0.3086 -0.6699
 2440lim     li13240   3.029   0.551   3.059 -0.1744 -0.5484  1.2283
 2441lim     li13241   7.098   3.092   2.081 -0.1431 -0.8274  0.3459
 2442lim     li13242   6.622   2.941   0.966 -0.4486 -1.4229  0.6872
 2443lim     li13243   3.403   4.658   3.281 -0.8288 -0.3899  0.5033
 2444lim     li13244   4.265   6.626   5.207 -0.4391 -0.0567 -0.1502
 2445lim     li13245   1.694   4.414   1.228  0.0780  1.7004  0.9669
 2446lim     li13246   3.788   4.224   5.455  0.4698  0.1018 -0.9361
 2447lim     li13247   0.666   0.122   7.095  0.9299 -0.4108 -0.2279
 2448lim     li13248   3.513   6.298   0.879  0.6494 -0.5232  0.1698
 2449lim     li13249   4.223   6.074   2.006 -1.5255 -0.3863  1.5466
 2450lim     li13250   5.465   6.427   6.176 -0.1154  0.2694 -0.9030
 2451lim     li13251   6.593   3.563   0.295  0.0856  0.2801  0.3820
 2452lim     li13252   1.963   1.792   5.520 -1.0608 -0.3600 -0.6466
 2453lim     li13253   2.541   4.349   3.492  1.5151 -0.5278  0.2926
 2454lim     li13254   3.417   3.001   2.554  0.7643 -1.0160  0.6880
 2455lim     li13255   7.087   4.978   0.879 -0.5249  0.4606 -0.2735
 2456lim     li13256   5.838   3.012   0.557  0.1852  0.2280  0.2081
 2457lim     li13257   5.842   0.876   1.986 -0.3414 -1.0999 -0.2326
 2458lim     li13258   6.290   0.232   6.364 -0.0031  0.1274 -0.3390
 2459lim     li13259   6.652   1.394   2.532  0.0817 -0.7724 -1.0351
 2460lim     li13260   5.608   0.253   4.187  0.7298 -0.3679 -0.4180
 2461lim     li13261   3.213   4.523   4.437 -0.6707 -0.5408 -0.8647
 2462lim     li13262   1.929   3.547   2.053 -1.0132 -0.4316 -0.1885
 2463lim     li13263   4.010   3.628   4.262 -0.3048 -0.4406 -0.3447
 2464lim     li13264   2.872   1.946   3.448 -0.0263  0.6759  0.3304
 2465lim     li13265   3.378   6.900   4.919 -1.0405  0.2613 -0.0311
 2466lim     li13266   0.191   1.855   4.439  0.0074  1.4773  0.4683
 2467lim     li13267   1.035   6.310   5.179  1.0832 -0.1938  0.6377
 2468lim     li13268   2.834   4.930   1.127  0.1240  0.8018  0.4861
 2469lim     li13269   3.573   3.497   6.621 -0.1041 -0.3619  0.0538
 2470lim     li13270   4.295   5.990   6.219  0.1711 -0.4144 -0.4634
 2471lim     li13271   1.834   1.104   3.115 -0.3141  0.6508 -0.3338
 2472lim     li13272   4.699   3.956   0.504  0.3182  0.3486 -1.1715
 2473lim     li13273   2.360   1.457   4.567  0.4544  0.5109 -0.1760
 2474lim     li13274   5.062   6.731   1.266 -1.0941  0.0389  0.6855
 2475lim     li13275   6.676   6.543   3.898 -0.5009  0.9202  0.0196
 2476lim     li13276   6.938   4.882   3.229  0.4737 -0.2299  0.2364
 2477lim     li13277   4.369   6.280   2.586 -0.3930  0.6291 -0.0657
 2478lim     li13278   0.438   5.215   4.501 -0.4327 -0.1750  0.0184
 2479lim     li13279   2.442   1.671   0.229  0.0024 -0.6767 -0.7764
 2480lim     li13280   4.009   6.886   1.489  0.0768  0.5778  0.5301
 2481lim     li13281   6.778   7.145   5.266 -0.3764 -0.1732  0.3050
 2482lim     li13282   4.083   5.133   5.345 -0.7028 -0.0083  0.1123
 2483lim     li13283   6.682   6.588   1.851  0.1554  0.6149  0.3070
 2484lim     li13284   2.817   3.708   5.683  1.1270  0.3234 -0.3890
 2485lim     li13285   0.950   3.887   1.709  0.3352 -0.4433  0.4242
 2486lim     li13286   4.696   0.582   6.716  0.7839  0.9060  0.6292
 2487lim     li13287   2.577   6.215   5.865 -0.1794  1.0775 -0.8096
 2488lim     li13288   5.627   3.673   0.797 -0.3537 -0.1825  0.6836
 2489lim     li13289   3.889   0.669   2.171  1.1948 -0.6267 -0.1327
 2490lim     li13290   6.022   6.708   2.335  0.3341 -0.3121 -0.2289
 2491lim     li13291   0.012   4.683   3.954 -1.0118 -0.6580 -0.5065
 2492lim     li13292   6.382   3.836   1.748 -0.3918  0.6817 -0.4244
 2493lim     li13293   7.103   6.062   0.970 -0.8025  1.3035  0.2610
 2494lim     li13294   3.023   0.349   5.468  0.5266  1.2566 -0.7838
 2495lim     li13295   2.447   6.852   1.402  0.7256  0.1619  0.4458
 2496lim     li13296   3.929   6.059   7.143  1.1150 -1.0392 -0.7159
 2497lim     li13297   2.239   5.318   0.974 -0.1381 -0.1939  0.6955
 2498lim     li13298   1.834   1.221   1.397  0.0365 -0.4400 -0.6091
 2499lim     li13299   0.369   0.353   3.980 -0.3442  0.6596  0.3750
 2500lim     li13300   6.745   5.356   5.573 -0.3839  0.5267  0.1518
 2501lim     li13301   4.421   1.829   1.318  0.6637 -0.9167 -2.2212
 2502lim     li13302   1.213   1.665   2.745  0.5870  0.2067 -0.5603
 2503lim     li13303   5.040   2.508   4.228  0.3402  0.6009  0.5112
 2504lim     li13304   2.646   5.848   5.027  0.7939  0.0232 -0.2633
 2505lim     li13305   2.320   1.076   5.813  0.3623  1.1736  0.1945
 2506lim     li13306   0.066   7.036   1.432  0.8255  0.1674 -0.8896
 2507lim     li13307   5.317   3.029   2.297 -0.6284  0.0090 -0.0168
 2508lim     li13308   4.690   1.890   6.628 -0.8336  0.4433  0.9803
 2509lim     li13309   0.432   1.275   7.036 -1.0872  0.9353 -0.7660
 2510lim     li13310   3.274   3.914   4.137 -1.3431  1.7184  0.6819
 2511lim     li13311   4.483   2.446   5.162 -0.8447 -0.5776  0.9168
 2512lim     li13312   1.903   4.421   6.344  0.6781 -1.0613 -0.2606
 2513lim     li13313   0.282   4.519   1.317  0.7933 -0.7034  0.4637
 2514lim     li13314   6.335   3.013   4.570 -0.6460  0.5256 -0.1230
 2515lim     li13315   2.151   5.261   3.008  0.2662  0.3687  1.4847
 2516lim     li13316   5.259   1.615   1.341  0.5358  0.4073  0.1907
 2517lim     li13317   5.996   4.691   3.688 -0.3089  0.6520  0.0986
 2518lim     li13318   2.701   4.323   3.036 -0.1984  1.2554 -0.5608
 2519lim     li13319   3.271   5.051   7.073 -0.0439  0.3569 -0.8887
 2520lim     li13320   3.975   1.432   5.434  0.5601  0.1916  0.1626
 2521lim     li13321   1.385   4.626   3.695 -0.1762  0.5900 -0.0379
 2522lim     li13322   4.210   2.704   1.550  0.9631  0.7364 -1.3413
 2523lim     li13323   1.991   5.895   4.301  0.8270 -0.6476  0.1541
 2524lim     li13324   6.912   3.070   6.787 -1.4500 -0.0003 -0.6097
 2525lim     li13325   4.471   3.665   5.744 -0.5282 -1.2221 -0.0873
 2526lim     li13326   2.209   4.556   0.984  0.9311 -0.2054  0.6137
 2527lim     li13327   6.551   4.859   6.259 -0.6538 -1.2377 -0.0962
 2528lim     li13328   1.752   5.642   5.291 -1.1650 -0.4754 -0.3094
 2529lim     li13329   2.634   4.585   6.458 -0.2155  0.4676 -1.0997
 2530lim     li13330   6.514   2.783   2.409  0.5580  0.8114 -0.4162
 2531lim     li13331   4.516   4.144   6.973  0.9323 -1.4401  0.2702
 2532lim     li13332   2.197   3.451   0.325 -0.4425 -1.3823 -0.2403
 2533lim     li13333   6.905   2.627   1.376  0.3364  0.2361  0.1363
 2534lim     li13334   6.563   1.411   3.402  0.0648 -0.9191 -0.2671
 2535lim     li13335   2.526   1.277   2.488  1.0252 -0.5864 -1.5610
 2536lim     li13336   3.709   6.329   6.492 -0.4916 -0.5390  0.2718
 2537lim     li13337   5.027   4.547   5.027 -0.6012 -1.2283  0.5349
 2538lim     li13338   4.182   3.023   0.453 -0.0976  0.8929  0.7301
 2539lim     li13339   4.628   6.286   7.059 -1.4086 -0.6828 -0.7915
 2540lim     li13340   4.320   3.530   6.653  0.8257  0.4106  0.8805
 2541lim     li13341   2.220   6.333   3.002  0.2141 -0.7375  1.6258
 2542lim     li13342   1.314   5.956   2.571 -2.2168  0.7313  0.2045
 2543lim     li13343   6.669   0.498   1.464 -0.3109  0.5841 -0.6466
 2544lim     li13344   2.517   1.712   0.958 -1.4623  0.7893 -0.6787
 2545lim     li13345   4.138   0.650   1.306  1.1616 -1.3036  0.1485
 2546lim     li13346   0.999   4.348   5.302  1.3919 -0.1774 -1.7109
 2547lim     li13347   2.394   2.764   3.826  0.5037 -0.0940  0.6029
 2548lim     li13348   1.025   0.042   5.187  0.0624  1.0570 -0.3254
 2549lim     li13349   6.671   2.750   5.975  0.7336  0.2249  0.1396
 2550lim     li13350   5.930   2.521   3.340  0.4655 -0.3962 -0.8194
 2551lim     li13351   6.655   3.769   2.550  0.3143  0.0298 -1.2020
 2552lim     li13352   0.784   2.598   4.322  1.0903  0.1568  1.0494
 2553lim     li13353   1.877   5.900   2.464  0.3379  0.5118 -0.7755
 2554lim     li13354   1.324   1.986   5.399 -1.6105 -1.2729 -0.4502
 2555lim     li13355   0.402   3.685   6.810 -0.8460  0.1288 -0.5341
 2556lim     li13356   4.483   0.543   5.295  0.4532 -0.5385  0.1856
 2557lim     li13357   1.399   3.321   2.097  0.6751  0.4052  0.3712
 2558lim     li13358   1.510   3.038   3.823 -0.4713  0.0667  0.8688
 2559lim     li13359   6.718   0.506   4.634 -0.2607  0.7319 -0.1455
 2560lim     li13360   2.514   2.884   2.116  0.3234 -0.3788  0.0820
 2561lim     li13361   1.434   3.620   3.031  0.1077 -0.5178  1.2974
 2562lim     li13362   2.170   1.839   3.145  0.9281 -0.3386 -0.0438
 2563lim     li13363   0.577   1.790   3.397  0.7104 -0.9000 -1.0965
 2564lim     li13364   4.260   0.959   3.687  0.8675  0.3257  0.0718
 2565lim     li13365   1.425   5.384   4.609  0.3755  0.3727 -0.3790
 2566lim     li13366   2.095   6.629   1.900  1.1085 -1.8766  0.3494
 2567lim     li13367   2.571   7.063   2.906 -0.5403 -0.0138  1.2670
 2568lim     li13368   2.745   5.706   0.014 -0.3746  0.7670 -0.2919
 2569lim     li13369   4.406   1.015   6.167 -0.5672 -0.0551 -0.6156
 2570lim     li13370   6.826   6.406   6.796 -1.5476  0.5002  0.7216
 2571lim     li13371   3.411   2.129   2.536  0.5662 -1.3042 -0.6035
 2572lim     li13372   6.057   1.982   0.548 -0.4311  0.9601 -0.5327
 2573lim     li13373   3.879   2.689   2.052  0.5602 -0.6170 -0.2769
 2574lim     li13374   7.032   4.746   2.324  0.1258  0.8046  1.0706
 2575lim     li13375   3.465   2.872   3.873 -1.7877 -0.2445 -0.6038
 2576lim     li13376   6.442   6.002   3.439 -0.0638 -0.1142 -0.1050
 2577lim     li13377   5.077   5.389   2.079 -0.0496 -0.3273  0.4166
 2578lim     li13378   4.889   2.823   1.310  0.7191  1.0570  0.6244
 2579lim     li13379   4.064   1.626   3.232  0.4595 -1.0609 -0.7394
 2580lim     li13380   3.782   2.196   1.146  0.9544  0.2501  0.5750
 2581lim     li13381   3.447   1.284   1.923  0.3654  0.4795  0.1420
 2582lim     li13382   5.361   5.966   2.927  0.1459  0.7060  0.4916
 2583lim     li13383   0.677   2.780   2.981 -0.3311 -0.1336  0.0643
 2584lim     li13384   1.042   2.420   2.604  1.0170  0.5078 -0.7973
 2585lim     li13385   5.741   5.786   4.245 -1.2115  0.7512  0.9237
 2586lim     li13386   1.924   2.620   6.636  0.1483 -0.2044 -0.1349
 2587lim     li13387   5.219   0.795   2.146 -0.8780 -0.5854  0.2044
 2588lim     li13388   3.118   1.641   5.374  0.2807 -0.6844 -0.1436
 2589lim     li13389   1.499   2.965   0.788 -0.9626  0.5950 -0.6568
 2590lim     li13390   2.699   2.478   4.136 -0.3562  0.5772  0.9267
 2591lim     li13391   6.693   3.844   1.129 -0.5984 -0.2197 -1.4852
 2592lim     li13392   0.359   2.687   5.239 -1.2756 -0.5912 -0.6372
 2593lim     li13393   5.741   6.875   0.022  0.8873  0.6322 -0.6275
 2594lim     li13394   2.136   3.354   3.003  0.7880  0.6261 -0.1837
 2595lim     li13395   2.757   5.664   6.585 -0.3151  0.0732 -0.5136
 2596lim     li13396   2.114   5.969   1.458 -0.0818 -1.2088  0.9840
 2597lim     li13397   6.139   2.220   4.508  0.2296  0.3900  0.7513
 2598lim     li13398   4.954   4.326   5.761  0.3784  0.4945 -0.5191
 2599lim     li13399   5.645   2.234   5.834 -0.5908 -0.6266 -0.1288
 2600lim     li13400   4.211   5.998   3.489 -0.6047  1.8224  0.6762
 2601lim     li13401   0.419   6.089   5.912  1.8329  0.4614 -0.4530
 2602lim     li13402   3.043   2.929   5.080 -0.4771 -0.2332 -0.9010
 2603lim     li13403   3.278   0.702   3.681 -0.5280 -0.7781 -0.6163
 2604lim     li13404   4.999   2.865   4.899 -0.4256  0.7521  0.2257
 2605lim     li13405   2.950   0.581   6.512 -0.2710 -0.1173 -0.4812
 2606lim     li13406   6.920   2.209   4.853 -0.9414 -0.0338 -0.4231
 2607lim     li13407   3.460   5.807   4.441  0.0619  0.1098  0.0533
 2608lim     li13408   0.097   1.716   0.513 -0.0460 -0.5671 -0.6607
 2609lim     li13409   1.511   1.477   0.545  1.5224  0.2452 -0.3675
 2610lim     li13410   3.292   1.611   1.257  0.4866  0.2319  0.9748
 2611lim     li13411   3.179   4.191   0.939 -0.2325 -0.2286  0.3027
 2612lim     li13412   0.485   6.004   7.127  0.7617  1.2723  0.9460
 2613lim     li13413   3.926   0.347   0.396  0.9037 -0.0552  0.2839
 2614lim     li13414   5.564   2.544   1.405 -0.3118 -0.3347  0.5631
 2615lim     li13415   2.425   5.727   3.598  0.8819 -0.0119  0.9425
 2616lim     li13416   6.661   0.550   5.622 -0.5019  0.2027 -0.5095
 2617lim     li13417   4.404   1.291   0.670  0.3827  0.2960  0.6288
 2618lim     li13418   6.846   3.750   5.797  0.0068 -0.6403 -0.2602
 2619lim     li13419   5.430   6.517   0.727 -0.3768  0.1249 -1.1378
 2620lim     li13420   6.778   1.947   6.274  0.0250 -0.5344 -0.3543
 2621lim     li13421   5.568   4.193   1.933 -0.1563  1.0379  0.2338
 2622lim     li13422   4.991   6.325   1.973  0.7459  0.3900 -0.4546
 2623lim     li13423   1.639   1.152   4.744  0.5446 -0.0221 -0.5007
 2624lim     li13424   0.171   0.992   2.996 -0.1330 -0.1157  0.0300
 2625lim     li13425   2.270   2.935   5.923  0.3821 -0.8521 -0.1299
 2626lim     li13426   7.011   6.556   4.982  0.2834  0.4772  0.1431
 2627lim     li13427   1.470   0.273   3.061  0.1553 -0.2725  0.3672
 2628lim     li13428   1.236   4.386   1.818 -0.2009 -0.8461  0.0481
 2629lim     li13429   5.557   3.197   1.364 -0.3194 -0.0481 -0.6626
 2630lim     li13430   7.057   3.295   3.479  0.2020 -1.1988 -0.5502
 2631lim     li13431   6.970   1.148   6.444 -0.7310  0.7635  1.0187
 2632lim     li13432   3.304   1.452   3.839 -1.1149  0.5913 -0.1916
 2633lim     li13433   6.299   5.828   5.054  0.0646 -0.9710 -0.4294
 2634lim     li13434   6.398   2.020   2.233 -1.8714  0.2600 -0.0331
 2635lim     li13435   0.010   5.676   2.584 -1.5106 -0.3705  0.2126
 2636lim     li13436   1.252   2.044   3.562  1.4196  0.5973  0.2140
 2637lim     li13437   3.285   3.249   4.873  1.0109  0.4454  0.2067
 2638lim     li13438   0.665   5.962   2.107  0.2447 -0.2169  1.5014
 2639lim     li13439   0.673   4.408   3.299  1.0622  0.3908  0.5261
 2640lim     li13440   4.187   3.888   1.841 -0.3167 -0.2400  0.1956
 2641lim     li13441   0.035   6.222   1.650  0.2842 -0.5024 -0.0008
 2642lim     li13442   1.641   0.725   2.354 -0.4194  0.1674 -0.2655
 2643lim     li13443   6.138   4.271   2.836  0.0684 -1.0145  0.0436
 2644lim     li13444   3.169   6.490   4.137  0.0543 -0.0801  1.0181
 2645lim     li13445   1.214   3.835   0.236 -0.1969 -0.5580  0.5000
 2646lim     li13446   3.184   2.127   4.583  0.4683 -0.3263  0.6041
 2647lim     li13447   6.366   4.643   1.795  0.1005  0.3961 -0.1468
 2648lim     li13448   2.718   6.727   3.806  0.0999  0.0700 -0.2941
 2649lim     li13449   2.443   6.627   4.928  1.3294 -0.7340 -0.0932
 2650lim     li13450   1.240   6.433   7.146  0.9487 -0.0163 -1.5729
 2651lim     li13451   5.787   4.832   2.295  0.4666  1.0236 -0.4040
 2652lim     li13452   6.662   3.279   5.128  0.2831  0.8172 -0.1511
 2653lim     li13453   6.426   3.867   6.612 -1.1522 -0.1256 -0.3208
 2654lim     li13454   1.107   6.874   6.090  0.5906  0.5099  1.3987
 2655lim     li13455   0.922   1.058   6.110 -0.0324  0.1946 -0.5438
 2656lim     li13456   0.567   3.273   1.952 -0.7524 -1.1426  0.5697
 2657lim     li13457   1.649   4.816   5.480 -1.1421  0.9139  1.0687
 2658lim     li13458   5.886   1.747   3.107 -0.1109  1.1763  0.1450
 2659lim     li13459   4.319   3.330   3.606 -0.3148 -0.2742 -0.0864
 2660lim     li13460   3.481   5.717   1.345 -1.9226 -0.4987  0.6547
 2661lim     li13461   1.637   0.161   4.533 -0.2888  1.0924  0.1831
 2662lim     li13462   4.340   5.684   5.111 -0.0170  0.0834  0.1547
 2663lim     li13463   2.952   5.366   4.132  1.1603  0.3559 -0.1682
 2664lim     li13464   5.211   4.372   7.056 -0.2314  0.3312 -0.1265
 2665lim     li13465   3.506   4.267   0.124  0.1681 -0.1055  1.2542
 2666lim     li13466   4.358   2.157   4.026  0.0094  0.0903 -1.0107
 2667lim     li13467   2.319   3.459   6.496 -0.9729 -0.2922 -1.1752
 2668lim     li13468   4.806   4.690   1.360 -0.5576  0.4788 -0.7434
 2669lim     li13469   0.205   5.018   6.065 -0.0080 -0.3340  0.1302
 2670lim     li13470   5.872   0.209   1.038  0.2822 -1.1187 -0.0329
 2671lim     li13471   1.957   6.771   4.011 -0.4985 -0.0882 -0.1622
 2672lim     li13472   0.938   6.758   3.919  1.0319 -0.5660  1.1082
 2673lim     li13473   3.344   6.526   5.718 -0.1864  0.0068 -0.4747
 2674lim     li13474   1.168   7.005   0.571  0.6418  1.1029 -0.0435
 2675lim     li13475   1.348   5.740   4.151  0.4327 -0.2445  0.4968
 2676lim     li13476   0.354   1.096   1.832 -1.4600  0.0745  0.0140
 2677lim     li13477   5.681   2.556   5.385  1.6605  0.8171  0.0755
 2678lim     li13478   4.409   2.566   2.594 -0.8764  0.2334  0.1957
 2679lim     li13479   5.813   6.801   6.550 -0.6500  0.9732 -0.1611
 2680lim     li13480   6.811   1.782   1.497  0.4153 -0.5105 -0.1293
 2681lim     li13481   0.451   3.440   0.568  0.0037 -0.6756 -0.1563
 2682lim     li13482   3.166   5.611   2.596  0.3057 -0.8642 -0.3436
 2683lim     li13483   3.283   6.067   2.090 -1.1328 -0.4072 -0.2094
 2684lim     li13484   4.968   1.760   4.842  0.1283 -0.5718  0.9530
 2685lim     li13485   3.551   5.204   5.926  0.4552 -1.1600  0.9366
 2686lim     li13486   2.558   0.242   2.322 -1.2862 -0.8373 -0.4572
 2687lim     li13487   4.688   6.858   2.910  0.0625  0.1997  0.3780
 2688lim     li13488   2.571   3.953   2.361 -0.5359  0.8078 -0.8983
 2689lim     li13489   0.915   6.973   2.608 -0.2892  0.2985  0.0834
 2690lim     li13490   4.728   3.918   3.071 -1.6705  0.9677  1.7466
 2691lim     li13491   0.392   5.922   4.697  0.2025 -0.5124 -0.0857
 2692lim     li13492   6.938   4.864   4.946  0.1789 -0.7625  0.0686
 2693lim     li13493   2.661   3.215   6.735  0.3462  0.7329 -1.0258
 2694lim     li13494   6.325   1.511   5.580  0.7184 -0.3590  0.3323
 2695lim     li13495   3.784   2.518   0.735  0.5847  0.6887  0.1021
 2696lim     li13496   6.100   4.412   6.581  0.2146  0.3573 -0.2197
 2697lim     li13497   2.381   1.212   1.860  0.4562 -0.1620 -0.4859
 2698lim     li13498   2.554   3.962   4.728  0.0444 -0.1584 -0.2088
 2699lim     li13499   1.257   2.655   6.460 -0.7616  0.2058  1.0066
 2700lim     li13500   4.589   6.525   3.760  0.1094 -0.6183 -1.0707
 2701ntf    cn113501   7.093   5.598   2.008  0.0041  0.1419 -0.0596
 2701ntf    sn213502   6.933   5.683   1.998 -0.3112 -0.4388  0.0007
 2701ntf    nn313503   6.991   5.828   1.987 -0.9109 -0.1824  0.1759
 2701ntf    sn213504   7.021   5.943   2.090  0.0430 -0.3124  0.0537
 2701ntf    cn113505   6.858   6.025   2.093  0.0321 -0.3316 -0.0294
 2701ntf    fn413506   7.090   5.470   2.041 -0.2691  0.1225 -0.1540
 2701ntf    fn413507   7.162   5.605   1.895  0.2607  0.1255  0.0943
 2701ntf    fn413508   7.161   5.654   2.107 -0.2105  0.0134  0.1624
 2701ntf    on513509   6.869   5.643   1.875 -0.5892 -0.0568  0.0184
 2701ntf    on513510   6.864   5.646   2.120 -0.2958 -0.1731  0.0898
 2701ntf    on513511   7.110   6.033   2.021  0.1148 -0.9311 -0.6743
 2701ntf    on513512   7.040   5.892   2.223  0.0356 -0.3389  0.0446
 2701ntf    fn413513   6.855   6.140   2.158 -0.3842 -0.0183 -0.5962
 2701ntf    fn413514   6.824   6.058   1.970  0.4498  0.0230 -0.0552
 2701ntf    fn413515   6.760   5.948   2.137 -0.1030  0.0226  0.3033
 2702ntf    cn113516   5.296   5.937   4.362 -0.3080 -0.0249  0.0986
 2702ntf    sn213517   5.334   5.787   4.458 -0.1488  0.0668  0.1788
 2702ntf    nn313518   5.362   5.691   4.337 -0.1370 -0.1932  0.3880
 2702ntf    sn213519   5.264   5.588   4.270 -0.0250 -0.0623  0.0241
 2702ntf    cn113520   5.305   5.619   4.096  0.1620  0.2623  0.1249
 2702ntf    fn413521   5.261   6.043   4.431 -0.5270 -0.0154 -0.0272
 2702ntf    fn413522   5.400   5.982   4.294 -0.3005  0.1280  0.2121
 2702ntf    fn413523   5.188   5.932   4.286  0.1938 -0.1584 -0.6270
 2702ntf    on513524   5.465   5.815   4.511 -0.2976  0.3334  0.4073
 2702ntf    on513525   5.227   5.758   4.550 -0.4146  0.3406 -0.0407
 2702ntf    on513526   5.123   5.617   4.283  0.1377  0.7419  0.0718
 2702ntf    on513527   5.310   5.454   4.295 -0.2790 -0.0923  0.3400
 2702ntf    fn413528   5.284   5.514   4.018  0.0424  0.3992 -0.0273
 2702ntf    fn413529   5.233   5.722   4.056 -0.2748 -0.1099 -0.0534
 2702ntf    fn413530   5.428   5.665   4.076  0.3022 -0.0387  0.2821
 2703ntf    cn113531   4.920   3.682   5.623 -0.3396 -0.3275  0.2930
 2703ntf    sn213532   4.977   3.655   5.452  0.0916 -0.0248  0.3881
 2703ntf    nn313533   4.974   3.802   5.396 -0.2109 -0.0334  0.3788
 2703ntf    sn213534   5.071   3.918   5.438 -0.0375  0.0103 -0.1426
 2703ntf    cn113535   5.173   3.931   5.288 -0.3397  0.1863 -0.3338
 2703ntf    fn413536   4.828   3.777   5.631  0.0881  0.0736  0.4735
 2703ntf    fn413537   4.862   3.574   5.673 -0.1093 -0.1541  0.9469
 2703ntf    fn413538   5.026   3.706   5.697 -0.0971 -0.2371 -0.0817
 2703ntf    on513539   5.109   3.597   5.453  0.0984 -0.0129  0.0093
 2703ntf    on513540   4.877   3.564   5.403 -0.0225  0.4873 -0.3342
 2703ntf    on513541   5.170   3.888   5.539 -0.2720 -0.1968  0.0257
 2703ntf    on513542   5.004   4.046   5.441 -0.9386 -0.4612  0.1500
 2703ntf    fn413543   5.244   4.038   5.256  0.5625 -0.3342 -0.1020
 2703ntf    fn413544   5.264   3.835   5.280 -0.3028  0.1717  0.2492
 2703ntf    fn413545   5.101   3.907   5.180 -0.9651  0.2458  0.0670
 2704ntf    cn113546   0.368   6.403   2.302  0.4282 -0.1885  0.3391
 2704ntf    sn213547   0.513   6.353   2.400  0.6769  0.0765  0.1083
 2704ntf    nn313548   0.609   6.477   2.402  0.2823  0.3821  0.2776
 2704ntf    sn213549   0.736   6.509   2.316  0.0058 -0.0918 -0.3184
 2704ntf    cn113550   0.871   6.411   2.390 -0.2635 -0.0204  0.2715
 2704ntf    fn413551   0.403   6.459   2.187 -0.4072 -0.3761 -0.0120
 2704ntf    fn413552   0.297   6.296   2.268 -0.1620  0.3240 -0.0716
 2704ntf    fn413553   0.289   6.489   2.363  0.2778 -0.3547  0.3807
 2704ntf    on513554   0.455   6.337   2.531  0.2038  0.5641 -0.0376
 2704ntf    on513555   0.567   6.234   2.339  0.7235  0.1606 -0.0140
 2704ntf    on513556   0.777   6.646   2.339 -0.0709 -0.0700 -0.3096
 2704ntf    on513557   0.714   6.464   2.181 -0.4206 -0.5763 -0.0900
 2704ntf    fn413558   0.830   6.287   2.413 -0.1829 -0.1601 -0.3135
 2704ntf    fn413559   0.980   6.404   2.316 -0.0980 -0.2011  0.5346
 2704ntf    fn413560   0.919   6.457   2.504  0.1899  1.0093 -0.3153
 2705ntf    cn113561   4.794   6.539   0.664 -0.3169 -0.3475 -0.0857
 2705ntf    sn213562   4.858   6.372   0.698 -0.1322 -0.1233  0.7018
 2705ntf    nn313563   4.825   6.303   0.561 -0.1971 -0.3600  0.8362
 2705ntf    sn213564   4.731   6.182   0.527 -0.3902  0.0846 -0.2639
 2705ntf    cn113565   4.855   6.055   0.489 -0.3441  0.1182 -0.2260
 2705ntf    fn413566   4.668   6.558   0.700 -0.0572 -0.3458  0.8596
 2705ntf    fn413567   4.854   6.626   0.744 -0.1334 -0.3599 -0.2096
 2705ntf    fn413568   4.817   6.585   0.542 -0.0493  0.6450  0.3259
 2705ntf    on513569   4.999   6.393   0.721 -0.1509  1.3397 -0.3588
 2705ntf    on513570   4.782   6.340   0.816 -0.8240 -0.4548  0.1727
 2705ntf    on513571   4.651   6.198   0.408 -0.2766  0.3541 -0.3045
 2705ntf    on513572   4.661   6.124   0.639  0.1884  0.0274  0.0721
 2705ntf    fn413573   4.916   6.075   0.374 -0.1451  0.4771 -0.0587
 2705ntf    fn413574   4.952   6.028   0.575 -0.1750  0.4302 -0.3161
 2705ntf    fn413575   4.794   5.939   0.474  0.4268 -0.2647 -0.4703
 2706ntf    cn113576   2.422   2.727   6.486 -0.3058  0.1970 -0.1729
 2706ntf    sn213577   2.571   2.771   6.581 -0.0415  0.0001 -0.4941
 2706ntf    nn313578   2.520   2.741   6.727 -0.3122 -0.0791 -0.6044
 2706ntf    sn213579   2.412   2.804   6.822 -0.0419 -0.0986 -0.2857
 2706ntf    cn113580   2.497   2.815   6.982 -0.3196  0.1317 -0.1527
 2706ntf    fn413581   2.442   2.739   6.356 -0.0348  0.3840 -0.1170
 2706ntf    fn413582   2.389   2.601   6.509 -0.0719  0.0449 -0.6403
 2706ntf    fn413583   2.323   2.809   6.517 -0.1510  0.5969 -0.7202
 2706ntf    on513584   2.670   2.676   6.537  0.3315  0.2478 -0.1917
 2706ntf    on513585   2.592   2.911   6.556  0.2264 -0.0110 -0.3324
 2706ntf    on513586   2.300   2.716   6.842 -0.5044  0.5759  0.1808
 2706ntf    on513587   2.381   2.943   6.797  0.4854  0.1703  0.4794
 2706ntf    fn413588   2.412   2.836   7.082  0.0619 -0.6461  0.3510
 2706ntf    fn413589   2.578   2.713   7.008  0.0110  0.3848 -0.1928
 2706ntf    fn413590   2.578   2.919   6.976 -0.3695  0.2254  0.5868
 2707ntf    cn113591   5.954   2.673   4.210 -0.1407  0.2384  0.0876
 2707ntf    sn213592   5.894   2.518   4.136  0.0524  0.0931  0.2337
 2707ntf    nn313593   5.990   2.504   4.013 -0.3416 -0.6282  0.0033
 2707ntf    sn213594   6.124   2.421   4.016 -0.0183 -0.1267 -0.4459
 2707ntf    cn113595   6.032   2.266   3.995  0.0191 -0.1604 -0.3616
 2707ntf    fn413596   6.086   2.672   4.219 -0.1728 -0.3071  0.5840
 2707ntf    fn413597   5.924   2.784   4.144  0.3603  0.3257  0.0071
 2707ntf    fn413598   5.909   2.698   4.333 -0.1664 -0.3428  0.1984
 2707ntf    on513599   5.909   2.427   4.246  0.0740  0.1274  0.2595
 2707ntf    on513600   5.761   2.546   4.087  0.4060  0.5892 -0.4652
 2707ntf    on513601   6.187   2.415   4.145  0.5786 -0.1491 -0.7370
 2707ntf    on513602   6.211   2.436   3.902  0.1873 -1.1056 -0.4195
 2707ntf    fn413603   5.961   2.228   4.100  0.0186  0.6408 -0.0700
 2707ntf    fn413604   5.953   2.255   3.889 -0.2375 -0.2501 -0.1641
 2707ntf    fn413605   6.120   2.171   3.970  0.3990  0.2214 -0.4817
 2708ntf    cn113606   5.900   3.724   1.353 -0.0749 -0.0234 -0.3322
 2708ntf    sn213607   6.049   3.626   1.381 -0.1549 -0.0140  0.1295
 2708ntf    nn313608   5.984   3.490   1.426 -0.3863  0.1334  0.2454
 2708ntf    sn213609   5.966   3.358   1.341 -0.0721  0.0454  0.3111
 2708ntf    cn113610   6.131   3.284   1.331 -0.0645  0.1245 -0.1384
 2708ntf    fn413611   5.793   3.655   1.316  0.0344 -0.3186 -0.0964
 2708ntf    fn413612   5.862   3.780   1.467  0.3382 -0.1398 -0.1359
 2708ntf    fn413613   5.919   3.818   1.262  0.1364  0.0506 -0.2125
 2708ntf    on513614   6.120   3.632   1.256 -0.4829  0.0878 -0.0509
 2708ntf    on513615   6.115   3.681   1.497 -0.2327 -0.2635  0.2943
 2708ntf    on513616   5.926   3.375   1.204  0.6236 -0.1864  0.0775
 2708ntf    on513617   5.892   3.257   1.413  0.5617 -0.6605 -0.0251
 2708ntf    fn413618   6.165   3.234   1.448  0.0385 -0.4000 -0.3877
 2708ntf    fn413619   6.157   3.185   1.246 -0.1833  0.2617 -0.3354
 2708ntf    fn413620   6.224   3.375   1.310  0.0862  0.0631  0.2583
 2709ntf    cn113621   3.874   6.587   5.745 -0.3913  0.4678 -0.4295
 2709ntf    sn213622   3.874   6.494   5.589 -0.2257 -0.2804  0.0074
 2709ntf    nn313623   3.885   6.348   5.645 -0.1392 -0.1433  0.3495
 2709ntf    sn213624   4.001   6.252   5.689  0.0497 -0.2484 -0.3704
 2709ntf    cn113625   3.909   6.127   5.784 -0.0586  0.1091 -0.0010
 2709ntf    fn413626   3.774   6.557   5.827  0.0606 -0.3808 -0.1725
 2709ntf    fn413627   3.986   6.563   5.811 -0.3327  0.5106 -0.5132
 2709ntf    fn413628   3.864   6.718   5.734  0.6863  0.6612  0.6724
 2709ntf    on513629   3.746   6.525   5.528 -0.1545 -0.3532 -0.1801
 2709ntf    on513630   3.991   6.540   5.519 -0.4393 -0.3935 -0.4318
 2709ntf    on513631   4.089   6.301   5.792 -0.2921  0.4223 -0.3938
 2709ntf    on513632   4.054   6.182   5.574  0.5174  0.0127 -0.3166
 2709ntf    fn413633   3.992   6.031   5.820 -0.1077  0.0478 -0.0521
 2709ntf    fn413634   3.847   6.176   5.890 -0.7248 -0.3573 -0.1687
 2709ntf    fn413635   3.818   6.068   5.708 -0.1034  0.0182  0.1232
 2710ntf    cn113636   4.693   1.624   3.453 -0.1619 -0.1523  0.1572
 2710ntf    sn213637   4.840   1.543   3.384 -0.1537  0.1884 -0.2291
 2710ntf    nn313638   4.777   1.425   3.301 -0.3561  0.3003 -0.2346
 2710ntf    sn213639   4.706   1.431   3.161  0.1791  0.3666 -0.5063
 2710ntf    cn113640   4.577   1.308   3.197  0.5403  0.2677  0.4943
 2710ntf    fn413641   4.727   1.713   3.545  0.2731 -0.3514  0.1917
 2710ntf    fn413642   4.637   1.695   3.357 -0.0749  0.2542  0.4041
 2710ntf    fn413643   4.604   1.539   3.502  0.2113 -0.5137  0.2143
 2710ntf    on513644   4.910   1.642   3.305 -0.2313  0.0364 -0.4916
 2710ntf    on513645   4.909   1.494   3.501 -0.2388 -0.2074 -0.3422
 2710ntf    on513646   4.772   1.359   3.055  0.7894  0.0331  0.0942
 2710ntf    on513647   4.637   1.554   3.134 -0.1577  0.3172  0.1171
 2710ntf    fn413648   4.494   1.285   3.096  0.7211  0.8976  0.1944
 2710ntf    fn413649   4.630   1.189   3.217  0.6388  0.2965  0.4084
 2710ntf    fn413650   4.499   1.351   3.295 -0.3984 -0.5108  0.1141
 2711ntf    cn113651   4.498   4.659   5.336  0.1677  0.0116  0.3165
 2711ntf    sn213652   4.494   4.729   5.168 -0.3091 -0.2911  0.1998
 2711ntf    nn313653   4.544   4.876   5.191  0.2023 -0.3142 -0.7226
 2711ntf    sn213654   4.517   5.011   5.115 -0.2469 -0.0714 -0.1437
 2711ntf    cn113655   4.682   5.024   5.039 -0.1896 -0.5924 -0.1122
 2711ntf    fn413656   4.425   4.738   5.413 -0.6752 -0.1590 -0.2985
 2711ntf    fn413657   4.457   4.534   5.328  0.2122  0.0159  0.0152
 2711ntf    fn413658   4.622   4.647   5.381 -0.0198 -0.2190  0.7756
 2711ntf    on513659   4.588   4.651   5.091 -0.2233  0.3174 -0.3179
 2711ntf    on513660   4.354   4.731   5.135 -0.1717 -0.1548 -0.3905
 2711ntf    on513661   4.517   5.118   5.212  0.0115 -0.5669  0.4059
 2711ntf    on513662   4.425   5.013   5.004 -0.0838 -0.4099 -0.2861
 2711ntf    fn413663   4.781   4.999   5.123 -0.2606 -0.6242 -0.0388
 2711ntf    fn413664   4.688   4.946   4.932 -0.3300 -0.6672 -0.0650
 2711ntf    fn413665   4.708   5.146   4.993 -0.4854 -0.4317  0.1397
 2712ntf    cn113666   2.499   1.855   2.070 -0.1248  0.2597 -0.3488
 2712ntf    sn213667   2.681   1.845   2.078 -0.1647 -0.0953  0.1209
 2712ntf    nn313668   2.732   1.809   1.934  1.0813 -0.2416  0.5851
 2712ntf    sn213669   2.760   1.668   1.872  0.0720 -0.2753  0.1895
 2712ntf    cn113670   2.941   1.651   1.879  0.1207  0.0973 -0.1224
 2712ntf    fn413671   2.444   1.869   2.190  0.0024 -0.0931 -0.2483
 2712ntf    fn413672   2.463   1.964   2.005  0.3142  0.5391 -0.1327
 2712ntf    fn413673   2.440   1.755   2.007 -0.8138  0.7467 -0.4839
 2712ntf    on513674   2.719   1.981   2.107 -0.2454 -0.0814  0.1625
 2712ntf    on513675   2.711   1.737   2.169 -0.2852 -0.1190  0.1327
 2712ntf    on513676   2.738   1.668   1.729 -0.3678 -0.0052  0.2543
 2712ntf    on513677   2.707   1.557   1.947 -0.2195  0.0162  0.4176
 2712ntf    fn413678   2.985   1.528   1.865 -0.4287 -0.1448  0.2220
 2712ntf    fn413679   3.002   1.725   1.788 -0.2096  0.2896 -0.1886
 2712ntf    fn413680   2.992   1.701   1.991  0.5266 -0.3491 -0.1047
 2713ntf    cn113681   4.782   5.976   3.875  0.4454  0.2716 -0.0769
 2713ntf    sn213682   4.880   6.100   3.964  0.3024  0.2517  0.1082
 2713ntf    nn313683   4.757   6.198   3.975  0.0026 -0.1014 -0.0678
 2713ntf    sn213684   4.655   6.199   4.095 -0.1050  0.1575 -0.1608
 2713ntf    cn113685   4.724   6.327   4.204  0.3108 -0.1580 -0.0495
 2713ntf    fn413686   4.725   6.024   3.767  0.5657  0.1462 -0.1970
 2713ntf    fn413687   4.868   5.886   3.830 -0.3994 -0.3040 -0.5546
 2713ntf    fn413688   4.687   5.917   3.947  0.3704  0.2726 -0.1744
 2713ntf    on513689   4.912   6.019   4.079  0.0015 -0.3938 -0.2587
 2713ntf    on513690   4.991   6.132   3.878  0.8136 -0.3850  0.5193
 2713ntf    on513691   4.641   6.077   4.171 -0.1246  0.0487 -0.3373
 2713ntf    on513692   4.527   6.247   4.051  0.0450 -0.0695 -0.8633
 2713ntf    fn413693   4.637   6.355   4.300  0.2716  0.5328 -0.2853
 2713ntf    fn413694   4.827   6.292   4.279  0.0435  0.0250  0.4109
 2713ntf    fn413695   4.752   6.438   4.138 -0.2890  0.0849  0.0945
 2714ntf    cn113696   1.832   5.013   0.456 -0.0788 -0.3035 -0.2342
 2714ntf    sn213697   1.924   5.049   0.609 -0.3674  0.0965 -0.1521
 2714ntf    nn313698   1.983   5.187   0.564 -0.2431  0.1518  0.1781
 2714ntf    sn213699   2.135   5.203   0.527 -0.2877 -0.0595 -0.1028
 2714ntf    cn113700   2.132   5.333   0.400  0.3988 -0.2421 -0.3091
 2714ntf    fn413701   1.908   5.011   0.347  0.5610  0.3377  0.1908
 2714ntf    fn413702   1.774   4.895   0.469 -0.1605 -0.2295  0.0643
 2714ntf    fn413703   1.736   5.100   0.428  0.1637 -0.0089 -0.1558
 2714ntf    on513704   1.819   5.058   0.707  0.2760 -0.7159  0.6290
 2714ntf    on513705   2.012   4.937   0.628 -0.2540  0.2614  0.2917
 2714ntf    on513706   2.200   5.099   0.452  0.0457 -0.0353  0.1502
 2714ntf    on513707   2.214   5.260   0.633 -0.6147 -0.0371  0.1320
 2714ntf    fn413708   2.032   5.330   0.313 -0.0006 -0.4282  0.1495
 2714ntf    fn413709   2.118   5.456   0.446  0.2255 -0.5409  0.4524
 2714ntf    fn413710   2.247   5.334   0.335  0.6201 -0.2219  0.0828
 2715ntf    cn113711   0.134   3.200   1.379 -0.0871  0.1451  0.1825
 2715ntf    sn213712  -0.006   3.241   1.487 -0.3262  0.1456 -0.1233
 2715ntf    nn313713  -0.114   3.192   1.385  0.0137 -0.1456 -0.3467
 2715ntf    sn213714  -0.229   3.262   1.303  0.0876 -0.0278 -0.3494
 2715ntf    cn113715  -0.367   3.259   1.422  0.4292  0.1316  0.0555
 2715ntf    fn413716   0.246   3.227   1.444 -0.0162 -0.3980  0.2947
 2715ntf    fn413717   0.132   3.069   1.358  0.2966  0.0739  0.5835
 2715ntf    fn413718   0.139   3.261   1.261  0.2187  0.0216  0.1291
 2715ntf    on513719   0.005   3.156   1.603  0.3468 -0.1759 -0.4157
 2715ntf    on513720  -0.010   3.382   1.514 -0.6477  0.1763 -0.3290
 2715ntf    on513721  -0.272   3.179   1.194 -0.6211 -0.1859  0.0429
 2715ntf    on513722  -0.209   3.402   1.277 -0.3448  0.1878  0.4248
 2715ntf    fn413723  -0.368   3.146   1.492  0.2496  0.1109  0.0185
 2715ntf    fn413724  -0.371   3.361   1.505  0.4871 -0.1508  0.4115
 2715ntf    fn413725  -0.480   3.258   1.354  0.5901 -0.7368 -0.2135
 2716ntf    cn113726   4.202   4.405   0.052  0.1154  0.3587 -0.1376
 2716ntf    sn213727   4.094   4.542   0.103 -0.5922 -0.2117 -0.0897
 2716ntf    nn313728   3.957   4.513   0.031 -0.7884  0.5145 -0.0066
 2716ntf    sn213729   3.902   4.565  -0.106  0.3277  0.3874 -0.5090
 2716ntf    cn113730   3.883   4.403  -0.186  0.2086  0.1463  0.0053
 2716ntf    fn413731   4.323   4.432   0.098  0.1256  0.5470 -0.2773
 2716ntf    fn413732   4.176   4.284   0.101  0.4094  0.0351 -0.7718
 2716ntf    fn413733   4.223   4.391  -0.078 -0.2277 -0.1590 -0.1402
 2716ntf    on513734   4.083   4.542   0.247  0.2495 -0.4785 -0.0199
 2716ntf    on513735   4.164   4.655   0.048 -0.1675 -0.8265 -0.8448
 2716ntf    on513736   3.995   4.640  -0.188  0.0083  0.2608 -0.9920
 2716ntf    on513737   3.766   4.613  -0.114 -0.0460 -0.4978  0.4486
 2716ntf    fn413738   3.913   4.406  -0.315  0.2369 -0.6271 -0.0090
 2716ntf    fn413739   3.955   4.305  -0.135  0.5344  0.3033 -0.1445
 2716ntf    fn413740   3.757   4.365  -0.187  0.0475  0.6799 -0.1947
 2717ntf    cn113741   3.184   4.377   3.720 -0.0594 -0.0552 -0.0420
 2717ntf    sn213742   3.313   4.487   3.653 -0.0427  0.2944  0.5601
 2717ntf    nn313743   3.439   4.420   3.719 -0.3406  0.1431  0.9784
 2717ntf    sn213744   3.586   4.456   3.679 -0.4951 -0.4364 -0.1627
 2717ntf    cn113745   3.665   4.429   3.841 -0.0714  0.3620 -0.2302
 2717ntf    fn413746   3.159   4.271   3.645  0.1846  0.0508 -0.2765
 2717ntf    fn413747   3.198   4.333   3.843 -0.6548 -0.1982 -0.0222
 2717ntf    fn413748   3.071   4.445   3.722 -0.0492 -0.0478  0.3696
 2717ntf    on513749   3.298   4.470   3.511 -0.3006 -0.1892  0.6419
 2717ntf    on513750   3.266   4.609   3.712  0.3476  0.4196  0.6126
 2717ntf    on513751   3.607   4.598   3.663 -0.5010 -0.4229 -0.0459
 2717ntf    on513752   3.648   4.359   3.592  0.0688 -0.2141 -0.0184
 2717ntf    fn413753   3.787   4.478   3.851 -0.0384  0.2128  0.1087
 2717ntf    fn413754   3.594   4.492   3.933 -0.2852  0.2307 -0.3038
 2717ntf    fn413755   3.669   4.305   3.888 -1.2636  0.4870  0.2460
 2718ntf    cn113756   0.904   2.286   3.362 -0.2232 -0.0674 -0.1669
 2718ntf    sn213757   0.979   2.122   3.343 -0.0872 -0.0333  0.0762
 2718ntf    nn313758   1.003   2.101   3.189  0.4423 -0.2496  0.1855
 2718ntf    sn213759   1.119   2.170   3.109  0.0304  0.3221  0.0795
 2718ntf    cn113760   1.244   2.039   3.115 -0.0589  0.2207 -0.2441
 2718ntf    fn413761   0.797   2.305   3.287 -0.2910 -0.0201 -0.0583
 2718ntf    fn413762   0.881   2.314   3.489 -0.3246  0.1090 -0.2236
 2718ntf    fn413763   0.984   2.387   3.331 -0.6103  0.0336 -0.8607
 2718ntf    on513764   1.099   2.117   3.422 -0.4339 -0.0681  0.6055
 2718ntf    on513765   0.877   2.035   3.397  0.2219 -0.3719  0.1227
 2718ntf    on513766   1.182   2.289   3.161 -0.2585  0.3976  0.2613
 2718ntf    on513767   1.086   2.176   2.969 -0.1904  0.2386  0.1269
 2718ntf    fn413768   1.297   2.029   3.236  0.2616  0.4932 -0.3627
 2718ntf    fn413769   1.180   1.928   3.082 -0.8406  0.7629 -0.5826
 2718ntf    fn413770   1.338   2.059   3.025 -0.3598  0.2026 -0.5616
 2719ntf    cn113771   3.965   4.311   6.132 -0.1689  0.0579 -0.1570
 2719ntf    sn213772   3.950   4.485   6.180  0.3371  0.1060 -0.1634
 2719ntf    nn313773   4.040   4.560   6.075  0.5710 -0.0686 -0.0869
 2719ntf    sn213774   4.093   4.707   6.078 -0.0697  0.1621  0.1882
 2719ntf    cn113775   3.985   4.795   5.960  0.4116  0.3706 -0.1024
 2719ntf    fn413776   4.090   4.266   6.139 -0.1085  0.3050  0.4202
 2719ntf    fn413777   3.895   4.222   6.200  0.0725 -0.3206 -0.4018
 2719ntf    fn413778   3.931   4.286   6.007 -0.6034  0.8827 -0.2097
 2719ntf    on513779   3.809   4.512   6.164  0.3532  0.4908  0.3194
 2719ntf    on513780   3.989   4.479   6.319 -0.2788  0.2736  0.0203
 2719ntf    on513781   4.226   4.715   6.022 -0.0698 -0.5199  0.0821
 2719ntf    on513782   4.063   4.773   6.202  0.7098 -0.0912  0.5182
 2719ntf    fn413783   3.863   4.823   6.001  0.3411 -0.0350 -0.0299
 2719ntf    fn413784   4.037   4.911   5.924 -0.2443  0.7744  0.2487
 2719ntf    fn413785   3.980   4.730   5.845 -1.0614  0.2717  0.0004
 2720ntf    cn113786   0.904   1.794   6.918  0.3589  0.3579 -0.5462
 2720ntf    sn213787   0.764   1.678   6.910  0.3984  0.2892 -0.2694
 2720ntf    nn313788   0.663   1.791   6.870 -0.3878 -0.1565  0.4135
 2720ntf    sn213789   0.575   1.872   6.971 -0.0147  0.2972  0.3797
 2720ntf    cn113790   0.441   1.914   6.855  0.0882 -0.1600  0.0926
 2720ntf    fn413791   0.929   1.838   6.796  0.2067 -0.3855 -0.8531
 2720ntf    fn413792   0.885   1.907   6.985 -0.6122 -0.2611  0.2598
 2720ntf    fn413793   1.018   1.742   6.961 -0.1517 -0.4941 -0.1900
 2720ntf    on513794   0.794   1.589   6.800 -0.2911  0.2690 -0.4453
 2720ntf    on513795   0.761   1.615   7.039  0.0682 -0.2723 -0.5475
 2720ntf    on513796   0.640   1.994   7.013  0.3482  0.2315  0.0160
 2720ntf    on513797   0.512   1.792   7.073 -0.9078  0.9499  0.3590
 2720ntf    fn413798   0.472   1.976   6.742  0.2896 -0.3298  0.0541
 2720ntf    fn413799   0.373   1.806   6.822  0.7293 -0.5060 -0.1013
 2720ntf    fn413800   0.353   1.993   6.914 -0.2853 -0.7276  0.3017
 2721ntf    cn113801   6.830   5.312   2.409 -0.7156 -0.0256  0.1876
 2721ntf    sn213802   6.709   5.229   2.302 -0.3797 -0.2215 -0.0423
 2721ntf    nn313803   6.619   5.168   2.415  0.0502  0.0425  0.4456
 2721ntf    sn213804   6.462   5.160   2.418  0.0442 -0.0710 -0.0186
 2721ntf    cn113805   6.427   5.120   2.592  0.3984 -0.3998 -0.0209
 2721ntf    fn413806   6.911   5.229   2.473 -0.2894  0.5027  0.3333
 2721ntf    fn413807   6.899   5.407   2.349 -0.0527 -0.8388 -0.3726
 2721ntf    fn413808   6.763   5.378   2.501 -0.5616 -0.3211  0.5162
 2721ntf    on513809   6.661   5.344   2.230  0.4245 -0.2377 -0.6157
 2721ntf    on513810   6.789   5.135   2.227  0.4595 -0.2168  0.8407
 2721ntf    on513811   6.396   5.045   2.360 -0.0491 -0.1189  0.1811
 2721ntf    on513812   6.399   5.290   2.421  0.3344  0.0640  0.3380
 2721ntf    fn413813   6.471   4.998   2.617  0.4925 -0.2886  0.3711
 2721ntf    fn413814   6.481   5.201   2.682  0.0976  0.8887 -0.9639
 2721ntf    fn413815   6.295   5.118   2.605  0.3847  0.0230 -0.0780
 2722ntf    cn113816   4.128   2.982   6.296  0.2438  0.3718 -0.0314
 2722ntf    sn213817   4.246   3.071   6.402  0.0508  0.1147  0.4042
 2722ntf    nn313818   4.354   3.129   6.304 -0.2413 -0.2107 -0.1170
 2722ntf    sn213819   4.495   3.070   6.267  0.0115  0.2088  0.1602
 2722ntf    cn113820   4.595   3.138   6.403  0.0238  0.4959  0.0083
 2722ntf    fn413821   4.072   3.057   6.203 -0.0396 -0.0439 -0.1989
 2722ntf    fn413822   4.188   2.884   6.230 -0.0546 -0.0438  0.3115
 2722ntf    fn413823   4.033   2.917   6.362 -0.0704  0.0955 -0.7483
 2722ntf    on513824   4.163   3.174   6.460 -0.3767  0.2359 -0.4039
 2722ntf    on513825   4.292   2.965   6.488  0.7076  0.0316 -0.0368
 2722ntf    on513826   4.551   3.126   6.147 -0.2666 -0.3922 -0.2544
 2722ntf    on513827   4.509   2.927   6.285  0.0995  0.2192  0.1753
 2722ntf    fn413828   4.712   3.078   6.412 -0.0926  0.1629 -0.6474
 2722ntf    fn413829   4.613   3.268   6.398  0.2001  0.4964  0.5913
 2722ntf    fn413830   4.535   3.111   6.519  0.0058  0.2253 -0.0643
 2723ntf    cn113831   0.596   4.890   4.972  0.2006 -0.0466  0.0115
 2723ntf    sn213832   0.441   4.979   5.005  0.0554 -0.4411  0.4027
 2723ntf    nn313833   0.496   5.106   5.078  0.2138 -0.0556 -0.3806
 2723ntf    sn213834   0.547   5.251   5.045  0.1260  0.1229  0.2478
 2723ntf    cn113835   0.700   5.221   5.138 -0.0373 -0.2117  0.4084
 2723ntf    fn413836   0.685   4.876   5.069  0.1454  0.3315  0.1172
 2723ntf    fn413837   0.575   4.770   4.920 -0.3138  0.1624 -0.2632
 2723ntf    fn413838   0.667   4.953   4.880 -0.4789  0.0948 -0.4249
 2723ntf    on513839   0.390   4.997   4.872  1.3700 -0.0522 -0.0671
 2723ntf    on513840   0.376   4.888   5.097  0.3792 -0.2364  0.8397
 2723ntf    on513841   0.492   5.358   5.125  0.1805  0.2200  0.1578
 2723ntf    on513842   0.577   5.283   4.907 -0.6995  0.0141  0.0379
 2723ntf    fn413843   0.754   5.110   5.091 -0.3255 -0.3567  0.4165
 2723ntf    fn413844   0.788   5.319   5.132 -0.6218  0.2727 -0.5627
 2723ntf    fn413845   0.669   5.212   5.266 -0.5169  0.6710  0.3593
 2724ntf    cn113846   2.584   7.087   4.428  0.2518  0.1328 -0.5400
 2724ntf    sn213847   2.421   7.028   4.373  0.1728  0.3500 -0.5408
 2724ntf    nn313848   2.429   7.043   4.217  0.4848  0.3804 -0.5236
 2724ntf    sn213849   2.313   7.043   4.111  0.0830  0.0297 -0.0917
 2724ntf    cn113850   2.301   7.223   4.086  0.6357  0.1179  0.2445
 2724ntf    fn413851   2.592   7.219   4.434 -0.0238  0.1165  0.3362
 2724ntf    fn413852   2.615   7.036   4.546 -0.5055  0.2187 -0.3021
 2724ntf    fn413853   2.679   7.041   4.347 -0.0313 -0.3972 -0.5749
 2724ntf    on513854   2.399   6.890   4.408 -0.1953  0.5795  0.1548
 2724ntf    on513855   2.325   7.121   4.426  0.1812  0.4830 -0.7589
 2724ntf    on513856   2.180   7.008   4.156  0.0236 -0.0654 -0.3427
 2724ntf    on513857   2.359   6.988   3.986  0.8982  0.9711 -0.2268
 2724ntf    fn413858   2.390   7.271   4.001 -0.2313  0.6693 -0.3750
 2724ntf    fn413859   2.184   7.263   4.038  0.7076 -0.7521 -0.6843
 2724ntf    fn413860   2.297   7.293   4.198 -0.1064  0.8197 -0.2046
 2725ntf    cn113861   1.326   6.776   6.622 -0.5822  0.5997  0.1790
 2725ntf    sn213862   1.317   6.939   6.702 -0.1788  0.5797  0.2679
 2725ntf    nn313863   1.448   6.949   6.787  0.2176  0.0171 -0.2679
 2725ntf    sn213864   1.476   6.893   6.931  0.0506 -0.2338 -0.3321
 2725ntf    cn113865   1.453   7.049   7.021 -0.2693 -0.1553 -0.5491
 2725ntf    fn413866   1.428   6.776   6.538 -0.6457  0.2924  0.0999
 2725ntf    fn413867   1.344   6.679   6.710  0.5482 -0.1804 -0.8804
 2725ntf    fn413868   1.217   6.752   6.552  0.1621 -0.5214 -0.6157
 2725ntf    on513869   1.311   7.036   6.595  0.0492  0.0913 -0.1952
 2725ntf    on513870   1.198   6.928   6.783  0.0673  0.2845  0.5936
 2725ntf    on513871   1.614   6.864   6.965 -0.0302 -0.3609 -0.1063
 2725ntf    on513872   1.384   6.794   6.981  0.2392 -0.3270 -0.1656
 2725ntf    fn413873   1.421   7.030   7.148  0.3178  0.0758 -0.3628
 2725ntf    fn413874   1.561   7.126   7.019 -0.4274  0.1181  0.6488
 2725ntf    fn413875   1.349   7.114   6.972 -0.6645 -0.6201 -0.3250
 2726ntf    cn113876   6.757   5.438   6.042  0.1435  0.2934  0.1784
 2726ntf    sn213877   6.809   5.478   5.872  0.0281  0.0047  0.0733
 2726ntf    nn313878   6.956   5.424   5.874 -0.0906 -0.3047  0.5300
 2726ntf    sn213879   7.088   5.481   5.937  0.2386 -0.1940 -0.2568
 2726ntf    cn113880   7.157   5.559   5.787 -0.1439  0.2194 -0.2203
 2726ntf    fn413881   6.625   5.452   6.048  0.1069 -0.1938  0.5308
 2726ntf    fn413882   6.789   5.317   6.084  0.1826  0.1664 -0.2155
 2726ntf    fn413883   6.792   5.522   6.137 -0.3266  0.1475  0.4815
 2726ntf    on513884   6.724   5.407   5.780 -0.1553  0.2694  0.0375
 2726ntf    on513885   6.806   5.622   5.867  0.3600  0.0039 -0.1813
 2726ntf    on513886   7.179   5.374   5.969 -0.1319 -0.3927  0.1353
 2726ntf    on513887   7.068   5.583   6.037 -0.6024  0.1511 -0.7683
 2726ntf    fn413888   7.068   5.631   5.722 -0.5208  0.3518  0.4256
 2726ntf    fn413889   7.254   5.643   5.823 -0.4113  0.2445  0.4617
 2726ntf    fn413890   7.208   5.467   5.707 -0.6850  0.0455 -0.3672
 2727ntf    cn113891   7.139   3.538   5.017  0.3328  0.3136 -0.0251
 2727ntf    sn213892   7.227   3.411   4.921 -0.2684 -0.2364  0.1409
 2727ntf    nn313893   7.105   3.321   4.881 -0.1467 -0.3744  0.0799
 2727ntf    sn213894   7.052   3.272   4.741 -0.2146 -0.1575  0.0301
 2727ntf    cn113895   7.095   3.097   4.723  0.5846 -0.0536  0.8560
 2727ntf    fn413896   7.076   3.486   5.122 -0.5153  0.1239 -0.6157
 2727ntf    fn413897   7.220   3.635   5.053 -0.3695  0.7859  0.3180
 2727ntf    fn413898   7.045   3.596   4.945  0.1244  0.0423  0.0248
 2727ntf    on513899   7.280   3.483   4.808 -0.3746 -0.1233  0.1626
 2727ntf    on513900   7.313   3.353   5.021 -0.4269 -0.2935  0.2443
 2727ntf    on513901   7.102   3.333   4.620 -0.2004 -0.4374 -0.1050
 2727ntf    on513902   6.908   3.264   4.749 -0.2264 -0.3498 -0.3868
 2727ntf    fn413903   7.226   3.084   4.706  0.4372 -0.8853  0.2475
 2727ntf    fn413904   7.045   3.032   4.826 -0.1751 -1.2012 -0.1973
 2727ntf    fn413905   7.047   3.043   4.612 -0.8073  0.5273  1.1638
 2728ntf    cn113906   3.201   2.018   6.217 -0.0509 -0.3096  0.0193
 2728ntf    sn213907   3.369   1.987   6.278 -0.0822 -0.3552  0.0829
 2728ntf    nn313908   3.407   2.132   6.323  0.1136 -0.3551 -0.0834
 2728ntf    sn213909   3.424   2.194   6.466 -0.2584 -0.0514 -0.1697
 2728ntf    cn113910   3.505   2.348   6.412 -0.0221 -0.0258  0.2457
 2728ntf    fn413911   3.125   2.050   6.320  0.1829  0.0585  0.0778
 2728ntf    fn413912   3.198   2.121   6.135 -1.2179 -0.4620 -0.1437
 2728ntf    fn413913   3.150   1.916   6.149  0.4423 -0.4001 -0.2207
 2728ntf    on513914   3.363   1.900   6.394  0.3748  0.3367  0.6353
 2728ntf    on513915   3.449   1.957   6.162  0.0304 -0.5009  0.1975
 2728ntf    on513916   3.531   2.132   6.541 -0.2818 -0.1280 -0.1999
 2728ntf    on513917   3.303   2.240   6.529  0.0836 -0.4439  0.7977
 2728ntf    fn413918   3.602   2.329   6.324 -0.1585 -0.4951  0.1952
 2728ntf    fn413919   3.420   2.438   6.364  0.4331  0.1181 -0.3086
 2728ntf    fn413920   3.571   2.410   6.508  0.0029 -0.5993  0.6021
 2729ntf    cn113921   3.257   0.918   5.348  0.5729  0.1710  0.2069
 2729ntf    sn213922   3.264   0.809   5.202 -0.0709  0.1151  0.2133
 2729ntf    nn313923   3.221   0.909   5.088 -0.2323  0.0990  0.2600
 2729ntf    sn213924   3.075   0.931   5.036 -0.2621 -0.2064  0.2145
 2729ntf    cn113925   3.062   0.797   4.914 -0.2529 -0.1905  0.1964
 2729ntf    fn413926   3.303   0.848   5.451  0.2923 -0.1733  0.1027
 2729ntf    fn413927   3.349   1.013   5.344  0.1438  0.5741 -0.2578
 2729ntf    fn413928   3.137   0.956   5.386  0.1555 -0.6173 -0.2787
 2729ntf    on513929   3.404   0.778   5.183 -0.0163  0.2379  0.4143
 2729ntf    on513930   3.182   0.693   5.223 -0.1240  0.1847  0.3881
 2729ntf    on513931   3.059   1.048   4.954 -0.7700 -0.3738  0.0710
 2729ntf    on513932   2.970   0.906   5.133 -0.3730 -0.2913  0.0733
 2729ntf    fn413933   3.169   0.805   4.837 -0.2771 -0.0091  0.1825
 2729ntf    fn413934   3.070   0.683   4.982 -0.3187 -0.3835 -0.1180
 2729ntf    fn413935   2.962   0.806   4.828 -0.3525  0.2582  0.3559
 2730ntf    cn113936   3.531   6.245   0.263  0.2682 -0.2802  0.1444
 2730ntf    sn213937   3.655   6.358   0.193 -0.0309 -0.0318  0.0098
 2730ntf    nn313938   3.558   6.455   0.117 -0.7496 -0.6188  0.1653
 2730ntf    sn213939   3.545   6.610   0.137  0.2627 -0.5255  0.1792
 2730ntf    cn113940   3.399   6.622   0.246  0.1254 -0.4749 -0.0095
 2730ntf    fn413941   3.586   6.144   0.328 -0.1476 -0.2652  0.5226
 2730ntf    fn413942   3.444   6.296   0.348  0.0070 -0.4170 -0.0384
 2730ntf    fn413943   3.461   6.192   0.164 -0.0488 -0.1515  0.2994
 2730ntf    on513944   3.721   6.413   0.308 -0.9676  0.8959  0.1082
 2730ntf    on513945   3.732   6.265   0.113 -0.0388 -0.0993  0.0802
 2730ntf    on513946   3.489   6.660   0.014 -1.0350 -0.5882  0.7260
 2730ntf    on513947   3.646   6.688   0.204  0.0057 -0.5633  0.6135
 2730ntf    fn413948   3.434   6.593   0.370 -0.2483 -0.1376  0.1740
 2730ntf    fn413949   3.346   6.743   0.239  0.0149 -0.5170  0.0973
 2730ntf    fn413950   3.295   6.545   0.219 -0.5011  0.2479  0.3170
 2731ntf    cn113951   5.654   2.019   1.159 -0.4562  0.1399 -0.1997
 2731ntf    sn213952   5.646   2.019   1.340  0.2693  0.5631 -0.1655
 2731ntf    nn313953   5.525   2.114   1.370 -0.2770 -0.2434  0.2251
 2731ntf    sn213954   5.371   2.085   1.358 -0.2740 -0.1647 -0.0102
 2731ntf    cn113955   5.335   2.024   1.525 -0.1461  0.0210  0.0853
 2731ntf    fn413956   5.556   1.950   1.102 -0.2932 -0.4542  0.2467
 2731ntf    fn413957   5.643   2.144   1.116 -0.2454  0.2754  0.1385
 2731ntf    fn413958   5.765   1.963   1.114 -0.4577  0.0813 -0.1300
 2731ntf    on513959   5.632   1.880   1.375  0.0548  0.5279 -0.3876
 2731ntf    on513960   5.767   2.085   1.383  0.3600 -0.0825  0.6037
 2731ntf    on513961   5.336   1.975   1.272  0.4170 -0.4409  0.0572
 2731ntf    on513962   5.296   2.208   1.347  0.3537  0.2116 -0.1253
 2731ntf    fn413963   5.411   1.919   1.553 -0.2477 -0.0936 -0.0705
 2731ntf    fn413964   5.341   2.111   1.625  0.1530  0.2876 -0.1658
 2731ntf    fn413965   5.209   1.984   1.528 -0.0811 -0.1667  0.3265
 2732ntf    cn113966   0.393   6.819   3.821 -0.6508 -0.2959 -0.1010
 2732ntf    sn213967   0.481   6.712   3.704  0.0648  0.0987  0.0704
 2732ntf    nn313968   0.371   6.697   3.593  0.0521 -0.5233  0.1630
 2732ntf    sn213969   0.262   6.588   3.564 -0.4824  0.0378  0.0453
 2732ntf    cn113970   0.363   6.449   3.505  0.1549  0.4919  0.0475
 2732ntf    fn413971   0.274   6.773   3.856 -0.5951 -0.4417 -0.1031
 2732ntf    fn413972   0.465   6.844   3.930 -0.6687 -0.1236 -0.1286
 2732ntf    fn413973   0.376   6.936   3.762  0.3916 -0.2062 -0.2417
 2732ntf    on513974   0.602   6.784   3.673  0.3099 -0.5213 -0.4244
 2732ntf    on513975   0.489   6.598   3.792 -0.8496  0.0069  0.0410
 2732ntf    on513976   0.180   6.636   3.456 -0.6002 -0.1341  0.0581
 2732ntf    on513977   0.195   6.526   3.676  0.1654  0.1757  0.5207
 2732ntf    fn413978   0.402   6.466   3.380 -0.2784  0.4224 -0.1024
 2732ntf    fn413979   0.475   6.443   3.574  0.2983 -0.5931 -0.2621
 2732ntf    fn413980   0.298   6.333   3.510 -0.0081  0.6158  0.8629
 2733ntf    cn113981   2.311   4.871   2.063  0.0072 -0.0190 -0.2237
 2733ntf    sn213982   2.373   4.833   1.897  0.0012 -0.1549 -0.1952
 2733ntf    nn313983   2.475   4.717   1.927  0.2073 -0.1510 -0.8535
 2733ntf    sn213984   2.461   4.567   1.881 -0.1911 -0.3511 -0.1078
 2733ntf    cn113985   2.405   4.493   2.037 -0.0048  0.4852  0.3627
 2733ntf    fn413986   2.240   4.983   2.060  0.1126  0.0720  0.5135
 2733ntf    fn413987   2.240   4.769   2.110 -0.4406  0.1562 -0.5186
 2733ntf    fn413988   2.402   4.908   2.151 -0.2510 -0.0869  0.0765
 2733ntf    on513989   2.248   4.802   1.832 -0.1333  0.7723 -0.3902
 2733ntf    on513990   2.445   4.953   1.864 -0.1903  0.2226  0.7345
 2733ntf    on513991   2.589   4.508   1.852  0.0212  0.0854 -0.0760
 2733ntf    on513992   2.352   4.539   1.791 -0.0766 -0.0686 -0.3392
 2733ntf    fn413993   2.311   4.565   2.097 -0.3652  0.3204 -0.0005
 2733ntf    fn413994   2.352   4.373   2.020  0.7588  0.1354  0.4279
 2733ntf    fn413995   2.503   4.490   2.126  0.3477 -0.3596 -0.0514
 2734ntf    cn113996   4.765   5.928   3.497 -0.1206 -0.1225  0.4819
 2734ntf    sn213997   4.809   6.101   3.463  0.2391 -0.3477 -0.2452
 2734ntf    nn313998   4.773   6.125   3.313 -0.3545 -0.2118 -0.0831
 2734ntf    sn213999   4.650   6.198   3.247  0.0347  0.4693 -0.0659
 2734ntf    cn114000   4.606   6.064   3.131 -0.0492  0.3682  0.0821
 2734ntf    fn414001   4.851   5.875   3.583  0.2080  0.0863  0.2862
 2734ntf    fn414002   4.642   5.900   3.534 -0.3309  0.4102  0.1861
 2734ntf    fn414003   4.788   5.858   3.386 -0.3033 -0.1890  0.4860
 2734ntf    on514004   4.729   6.181   3.553  0.3481 -0.4689 -0.0367
 2734ntf    on514005   4.953   6.100   3.470  0.2434  0.2810 -0.1784
 2734ntf    on514006   4.675   6.314   3.166 -0.3125  0.4455 -0.2104
 2734ntf    on514007   4.535   6.200   3.333  0.0611 -0.0373 -0.0143
 2734ntf    fn414008   4.704   6.033   3.048  0.2943  0.2117  0.5398
 2734ntf    fn414009   4.582   5.957   3.205 -0.0982  0.1134 -0.2989
 2734ntf    fn414010   4.493   6.080   3.065 -0.1468  0.2935  0.2291
 2735ntf    cn114011   2.064   0.108   3.202  0.3575 -0.0113  0.6770
 2735ntf    sn214012   1.995   0.100   3.370  0.1232 -0.0395  0.5799
 2735ntf    nn314013   2.130   0.072   3.446  0.3191  0.1691  0.3125
 2735ntf    sn214014   2.167  -0.013   3.572 -0.0151  0.2294  0.4530
 2735ntf    cn114015   2.160   0.111   3.705 -0.0587  0.0649  0.6050
 2735ntf    fn414016   2.138   0.212   3.169  0.0881 -0.1160 -0.3084
 2735ntf    fn414017   2.154   0.010   3.197  0.6935  0.3326 -0.1985
 2735ntf    fn414018   1.983   0.107   3.098  0.4789  0.0824  0.5812
 2735ntf    on514019   1.964   0.240   3.386 -0.1192  0.0141 -0.3153
 2735ntf    on514020   1.889   0.003   3.367  0.1717 -0.0972  0.7247
 2735ntf    on514021   2.304  -0.058   3.575 -0.1870 -0.3051  0.3833
 2735ntf    on514022   2.071  -0.116   3.602  0.1999 -0.3546 -0.8277
 2735ntf    fn414023   2.037   0.158   3.715 -0.3000 -0.4156 -0.0699
 2735ntf    fn414024   2.182   0.055   3.823  0.3905 -0.8842  0.0822
 2735ntf    fn414025   2.252   0.204   3.685 -0.0878 -0.1945 -0.8090
 2736ntf    cn114026   4.289   0.330   7.107  0.3058 -0.0283 -0.2442
 2736ntf    sn214027   4.228   0.161   7.136 -0.1408  0.1672 -0.0343
 2736ntf    nn314028   4.369   0.093   7.155 -0.2613 -0.0333  0.1395
 2736ntf    sn214029   4.458  -0.001   7.068 -0.3822  0.1204 -0.1516
 2736ntf    cn114030   4.534  -0.105   7.197  0.0608  0.8212  0.1549
 2736ntf    fn414031   4.389   0.332   7.020  0.2819  0.7158 -0.2581
 2736ntf    fn414032   4.194   0.412   7.066  0.3723  0.0939 -0.1564
 2736ntf    fn414033   4.331   0.389   7.217  0.3467 -0.1552 -0.1909
 2736ntf    on514034   4.159   0.161   7.262 -0.0251 -0.0916  0.0294
 2736ntf    on514035   4.146   0.136   7.020  0.1908 -0.1609 -0.2015
 2736ntf    on514036   4.568   0.058   6.996 -0.1277 -0.2642 -0.0827
 2736ntf    on514037   4.379  -0.102   7.001  0.0088 -0.2805 -0.0090
 2736ntf    fn414038   4.598  -0.022   7.278  0.4935  0.1961  0.4499
 2736ntf    fn414039   4.442  -0.163   7.273  0.0781  0.8591  0.2043
 2736ntf    fn414040   4.608  -0.206   7.155  0.0863  0.5672  0.8066
 2737ntf    cn114041   6.039   0.168   5.263  0.2320  0.2995 -0.1383
 2737ntf    sn214042   6.008   0.003   5.192  0.0904  0.3187 -0.1210
 2737ntf    nn314043   5.935   0.047   5.061 -0.1348 -0.0443 -0.1201
 2737ntf    sn214044   5.928  -0.021   4.919 -0.1317  0.1965 -0.2371
 2737ntf    cn114045   5.772  -0.113   4.927  0.0942 -0.1488  0.2786
 2737ntf    fn414046   6.089   0.173   5.385  0.0836 -0.0873 -0.0571
 2737ntf    fn414047   6.125   0.227   5.182  0.7042 -0.1076  0.0587
 2737ntf    fn414048   5.935   0.249   5.261  0.2789  0.3746  0.3508
 2737ntf    on514049   6.137  -0.060   5.189  0.1788  0.4884  0.0513
 2737ntf    on514050   5.909  -0.060   5.277  0.6019 -0.2489  0.0580
 2737ntf    on514051   6.017  -0.132   4.898 -0.3649  0.0844 -0.6429
 2737ntf    on514052   5.917   0.082   4.819 -0.2487  0.1918 -0.2289
 2737ntf    fn414053   5.658  -0.045   4.931  0.0897 -0.1261 -0.1470
 2737ntf    fn414054   5.764  -0.184   4.816 -0.2846  0.7502 -0.2809
 2737ntf    fn414055   5.776  -0.193   5.032 -0.1388 -0.2905  0.1806
 2738ntf    cn114056   2.712   2.405   4.860 -0.2710 -0.1840  0.5740
 2738ntf    sn214057   2.599   2.433   4.721  0.4180 -0.0761  0.0289
 2738ntf    nn314058   2.570   2.280   4.697  0.2002 -0.0738  0.2758
 2738ntf    sn214059   2.616   2.197   4.573 -0.2405  0.1379 -0.0322
 2738ntf    cn114060   2.627   2.032   4.648  0.0632 -0.1632 -0.7284
 2738ntf    fn414061   2.824   2.340   4.833 -0.2273 -0.0669  0.4687
 2738ntf    fn414062   2.755   2.518   4.915  0.2170  0.0051 -0.1869
 2738ntf    fn414063   2.659   2.343   4.964 -0.5525 -0.2062  0.4188
 2738ntf    on514064   2.485   2.506   4.771  0.0630 -0.3109 -0.4264
 2738ntf    on514065   2.683   2.497   4.623  0.4891  0.3447  0.3643
 2738ntf    on514066   2.753   2.225   4.538 -0.0583 -0.3482  0.2865
 2738ntf    on514067   2.519   2.174   4.468 -0.2487  0.8167 -0.1798
 2738ntf    fn414068   2.717   2.037   4.745 -0.7414  0.0553  0.0121
 2738ntf    fn414069   2.518   1.985   4.706  0.4086 -0.4582 -0.3104
 2738ntf    fn414070   2.674   1.943   4.561 -0.1404 -0.4004 -0.5969
 2739ntf    cn114071   2.555   2.254   0.571 -0.0577  0.6014 -0.0739
 2739ntf    sn214072   2.534   2.171   0.411  0.2485  0.3218  0.0288
 2739ntf    nn314073   2.660   2.234   0.342 -0.0867  0.5237 -0.4034
 2739ntf    sn214074   2.763   2.160   0.249  0.1383 -0.0062  0.2656
 2739ntf    cn114075   2.900   2.122   0.363  0.1049 -0.0586  0.2890
 2739ntf    fn414076   2.575   2.384   0.557 -0.1920  0.5965 -0.3122
 2739ntf    fn414077   2.458   2.228   0.657  0.2596 -0.0455  0.0972
 2739ntf    fn414078   2.666   2.204   0.624 -0.2943 -0.5530 -0.6464
 2739ntf    on514079   2.539   2.028   0.430  0.2397  0.3123 -0.0397
 2739ntf    on514080   2.407   2.220   0.362  0.1098 -0.4186 -0.3782
 2739ntf    on514081   2.825   2.257   0.162 -0.3788  0.6529  0.6211
 2739ntf    on514082   2.731   2.033   0.189  0.3775  0.3788 -0.6800
 2739ntf    fn414083   2.853   2.104   0.485 -0.3374 -0.4499  0.0639
 2739ntf    fn414084   2.973   2.023   0.316 -0.4771 -0.2292 -0.2758
 2739ntf    fn414085   2.979   2.228   0.375 -0.4134  0.3305  0.3097
 2740ntf    cn114086   0.914   6.435   2.863  0.2222  0.2297 -0.3367
 2740ntf    sn214087   0.854   6.586   2.945 -0.1896 -0.0220 -0.1752
 2740ntf    nn314088   0.702   6.552   2.963 -0.0745 -0.2663  0.3440
 2740ntf    sn214089   0.596   6.528   3.077 -0.5364 -0.1582 -0.0617
 2740ntf    cn114090   0.647   6.662   3.189 -0.3057 -0.3903  0.1106
 2740ntf    fn414091   0.840   6.414   2.756 -0.0413 -0.1318 -0.0873
 2740ntf    fn414092   1.036   6.454   2.815  0.1377  0.0136 -0.6399
 2740ntf    fn414093   0.924   6.326   2.938  0.1627 -0.2305 -0.9922
 2740ntf    on514094   0.934   6.600   3.064  0.6906  0.1489 -0.7805
 2740ntf    on514095   0.872   6.690   2.847 -0.2013  0.2064  0.0663
 2740ntf    on514096   0.614   6.411   3.159  1.0315 -0.0160 -0.1812
 2740ntf    on514097   0.459   6.566   3.049 -0.5433 -0.0710  0.0884
 2740ntf    fn414098   0.555   6.690   3.281 -0.2817  0.2320 -0.0522
 2740ntf    fn414099   0.756   6.628   3.256  0.1562  0.2132 -0.3327
 2740ntf    fn414100   0.677   6.771   3.121 -0.1025 -0.5152 -0.0012
 2741ntf    cn114101   5.003   0.904   3.395  0.0422 -0.2299  0.3924
 2741ntf    sn214102   5.178   0.916   3.348 -0.1185 -0.1029 -0.1836
 2741ntf    nn314103   5.215   1.065   3.384 -0.1998 -0.0952 -0.1336
 2741ntf    sn214104   5.194   1.188   3.290  0.3976  0.0434 -0.0923
 2741ntf    cn114105   5.364   1.199   3.227  0.4862 -0.3539  0.0767
 2741ntf    fn414106   4.968   0.948   3.515 -0.8364  0.2344 -0.0274
 2741ntf    fn414107   4.929   0.971   3.309  0.1183 -0.7536 -0.0883
 2741ntf    fn414108   4.948   0.784   3.384 -0.4165 -0.0365  0.5445
 2741ntf    on514109   5.248   0.836   3.446 -0.6655  0.0535  0.3410
 2741ntf    on514110   5.200   0.875   3.212  0.0449  0.6529 -0.3930
 2741ntf    on514111   5.171   1.313   3.358 -0.1397 -0.4477  0.6385
 2741ntf    on514112   5.120   1.163   3.168  0.1908 -0.0514  0.0515
 2741ntf    fn414113   5.447   1.237   3.322  0.1280 -0.5771  0.4828
 2741ntf    fn414114   5.414   1.084   3.184  0.2938 -0.2369 -0.4717
 2741ntf    fn414115   5.377   1.274   3.119 -0.0081 -0.2787  0.0653
 2742ntf    cn114116   3.086   4.910   2.470  0.4703 -0.2786  0.0653
 2742ntf    sn214117   3.160   4.767   2.385  0.1656 -0.1074 -0.4905
 2742ntf    nn314118   3.226   4.846   2.267 -0.2016 -0.1549 -0.7317
 2742ntf    sn214119   3.378   4.883   2.254 -0.2041  0.2060  0.2248
 2742ntf    cn114120   3.355   5.055   2.201  0.0782  0.2014  0.0823
 2742ntf    fn414121   2.993   4.968   2.395  0.2281 -0.5023  0.1886
 2742ntf    fn414122   3.016   4.878   2.577  0.4265 -0.1959  0.0606
 2742ntf    fn414123   3.163   5.006   2.518 -0.3369  0.3361  0.1503
 2742ntf    on514124   3.236   4.705   2.490 -0.4060 -0.1606 -0.0997
 2742ntf    on514125   3.047   4.687   2.343 -0.1075  0.2603 -0.4573
 2742ntf    on514126   3.440   4.819   2.141  0.5839  0.0281  0.7429
 2742ntf    on514127   3.455   4.897   2.376  0.3397 -0.4609 -0.0335
 2742ntf    fn414128   3.471   5.103   2.162  0.3798 -0.1392  0.5534
 2742ntf    fn414129   3.274   5.079   2.099 -0.0496 -0.3633  0.0495
 2742ntf    fn414130   3.308   5.134   2.297  0.3634  0.3051  0.1371
 2743ntf    cn114131   5.913   0.043   3.070 -0.1078  0.1912  0.2999
 2743ntf    sn214132   5.779   0.149   3.131 -0.2006  0.1908  0.0941
 2743ntf    nn314133   5.661   0.118   3.031 -0.2595 -0.1059  0.2536
 2743ntf    sn214134   5.522   0.051   3.055 -0.2866 -0.1111  0.0793
 2743ntf    cn114135   5.431   0.202   3.100  0.4489  0.2748  0.2844
 2743ntf    fn414136   5.948   0.064   2.944 -0.1336 -0.5911  0.1546
 2743ntf    fn414137   6.020   0.056   3.147  0.1668 -0.1054 -0.0270
 2743ntf    fn414138   5.884  -0.086   3.071 -0.3354  0.2355 -0.2156
 2743ntf    on514139   5.757   0.117   3.270  0.1534 -0.4122  0.0125
 2743ntf    on514140   5.832   0.281   3.106  0.9051 -0.2317  0.1520
 2743ntf    on514141   5.502  -0.035   3.169  0.3479  0.2544  0.4712
 2743ntf    on514142   5.460   0.026   2.927  0.1904 -0.4529 -0.0840
 2743ntf    fn414143   5.415   0.280   2.994 -0.0910  0.4171  0.4664
 2743ntf    fn414144   5.303   0.175   3.124  0.5401 -0.1570  0.2968
 2743ntf    fn414145   5.488   0.271   3.197  0.0895  0.0910  0.6304
 2744ntf    cn114146   2.979   5.173   5.705  0.0444 -0.1744 -0.0142
 2744ntf    sn214147   2.983   5.135   5.882  0.0985  0.0724  0.0376
 2744ntf    nn314148   2.961   4.980   5.886  0.4870  0.0127 -0.1162
 2744ntf    sn214149   3.038   4.869   5.966  0.0544 -0.0817  0.1681
 2744ntf    cn114150   2.913   4.836   6.094 -0.0015  0.3246  0.2206
 2744ntf    fn414151   3.058   5.100   5.629 -0.1994 -0.7319  0.2647
 2744ntf    fn414152   2.859   5.150   5.654 -0.0479 -0.4566  0.3285
 2744ntf    fn414153   3.007   5.300   5.677 -0.2674 -0.0617  0.1772
 2744ntf    on514154   3.113   5.178   5.927  0.0110  0.4162 -0.0335
 2744ntf    on514155   2.871   5.205   5.940 -0.3592 -0.1354 -0.5837
 2744ntf    on514156   3.152   4.893   6.051  0.8008  0.0012 -0.8520
 2744ntf    on514157   3.050   4.754   5.880  0.6794 -0.0864  0.2586
 2744ntf    fn414158   2.930   4.708   6.125 -0.0810  0.2796  0.0809
 2744ntf    fn414159   2.949   4.907   6.199  0.5594  0.4900 -0.0824
 2744ntf    fn414160   2.787   4.861   6.063 -0.0368  0.2382  0.2921
 2745ntf    cn114161   3.783   3.901   0.485 -0.0489 -0.0369 -0.0104
 2745ntf    sn214162   3.951   3.939   0.541 -0.0623  0.0522 -0.0307
 2745ntf    nn314163   3.949   4.088   0.492  0.1476  0.0781  0.0378
 2745ntf    sn214164   3.993   4.205   0.587  0.3853 -0.0496  0.0873
 2745ntf    cn114165   4.164   4.163   0.629  0.2763  0.0477  0.6402
 2745ntf    fn414166   3.788   3.902   0.353  0.0700 -0.2608 -0.0081
 2745ntf    fn414167   3.733   3.782   0.516  0.2522 -0.0316  0.5069
 2745ntf    fn414168   3.688   3.984   0.522 -0.1531 -0.0903 -0.1543
 2745ntf    on514169   3.941   3.925   0.684 -0.3334 -0.1223 -0.0668
 2745ntf    on514170   4.041   3.859   0.461 -0.2789 -0.1390 -0.0835
 2745ntf    on514171   3.921   4.220   0.712  0.4621  0.0405  0.1207
 2745ntf    on514172   4.006   4.325   0.507 -0.7385 -0.2790 -0.4634
 2745ntf    fn414173   4.209   4.238   0.728  0.1818  0.4038  0.4127
 2745ntf    fn414174   4.174   4.036   0.667  0.0332  0.0003  0.5483
 2745ntf    fn414175   4.252   4.177   0.531 -0.3085  0.5066  0.1715
 2746ntf    cn114176   1.330   4.025   1.516 -0.0548 -0.0985 -0.4384
 2746ntf    sn214177   1.483   4.078   1.598 -0.2512 -0.3364  0.0859
 2746ntf    nn314178   1.601   4.004   1.526  0.1386  0.2013  0.1721
 2746ntf    sn214179   1.708   3.908   1.590 -0.0907 -0.2864 -0.1710
 2746ntf    cn114180   1.750   3.806   1.445 -0.3330 -0.1099 -0.3680
 2746ntf    fn414181   1.230   4.015   1.602 -0.1151  0.2414 -0.4677
 2746ntf    fn414182   1.295   4.109   1.420  0.3544  0.1278 -0.3894
 2746ntf    fn414183   1.343   3.899   1.475 -0.1037 -0.0864 -0.4923
 2746ntf    on514184   1.493   4.218   1.568  0.0505 -0.3748  0.0017
 2746ntf    on514185   1.444   4.040   1.731  0.6387 -1.3316  0.0743
 2746ntf    on514186   1.659   3.802   1.673 -0.5414  0.0906  0.0480
 2746ntf    on514187   1.835   3.967   1.623 -0.0787 -0.6110  0.3541
 2746ntf    fn414188   1.813   3.860   1.342  0.6558  0.0767  0.3119
 2746ntf    fn414189   1.834   3.708   1.476 -0.3231 -0.3073 -1.0073
 2746ntf    fn414190   1.649   3.748   1.383 -0.6728 -0.4285  0.4725
 2747ntf    cn114191   4.809   1.788   3.987 -0.0766  0.2961  0.2652
 2747ntf    sn214192   4.865   1.942   4.064  0.2087  0.2053  0.2407
 2747ntf    nn314193   4.892   1.906   4.215 -0.7318 -0.3707  0.2812
 2747ntf    sn214194   4.897   1.997   4.342 -0.3799 -0.2929  0.2135
 2747ntf    cn114195   4.719   2.027   4.360 -0.3457 -0.1306  0.2810
 2747ntf    fn414196   4.778   1.814   3.861  0.4570 -0.2567  0.0148
 2747ntf    fn414197   4.904   1.696   3.973 -0.0818  0.3600 -0.2193
 2747ntf    fn414198   4.698   1.743   4.044 -0.0997  0.0259  0.0120
 2747ntf    on514199   4.985   1.974   3.991  0.2370  0.0636  0.2241
 2747ntf    on514200   4.753   2.032   4.059  0.0414 -0.0069  0.1548
 2747ntf    on514201   4.963   2.125   4.331  0.8012 -0.9061  0.0280
 2747ntf    on514202   4.919   1.928   4.467 -0.2902  0.1255  0.4324
 2747ntf    fn414203   4.671   2.061   4.478  0.0695 -0.1108  0.4451
 2747ntf    fn414204   4.673   2.122   4.280 -0.8456 -0.3956  0.2463
 2747ntf    fn414205   4.648   1.920   4.328 -0.2144 -0.0859 -0.1718
 2748ntf    cn114206   0.020   4.427   3.254  0.2532 -0.2000 -0.0477
 2748ntf    sn214207  -0.159   4.460   3.243  0.3280  0.3864  0.4701
 2748ntf    nn314208  -0.185   4.479   3.090 -0.3506 -0.1823  0.5127
 2748ntf    sn214209  -0.285   4.404   2.995  0.0041  0.0974 -0.0894
 2748ntf    cn114210  -0.163   4.321   2.889  0.3855  0.4347  0.0832
 2748ntf    fn414211   0.062   4.335   3.169  0.5842 -0.0228 -0.0746
 2748ntf    fn414212   0.095   4.535   3.247  0.3374 -0.2666 -0.1672
 2748ntf    fn414213   0.049   4.372   3.371  0.2793  0.0643  0.0697
 2748ntf    on514214  -0.217   4.347   3.311  0.1787  0.3812  0.3320
 2748ntf    on514215  -0.172   4.591   3.303 -0.0155  0.5092  0.1334
 2748ntf    on514216  -0.351   4.508   2.920  0.7906  0.5076 -0.2165
 2748ntf    on514217  -0.365   4.296   3.048 -0.4777  0.0608 -0.8657
 2748ntf    fn414218  -0.053   4.276   2.947  0.5746 -0.0768 -0.6662
 2748ntf    fn414219  -0.219   4.227   2.815 -0.1517  0.9254 -0.1495
 2748ntf    fn414220  -0.123   4.409   2.798  0.7131  0.4755  0.2645
 2749ntf    cn114221   6.211   7.085   0.484 -0.5956  0.1991  0.0510
 2749ntf    sn214222   6.103   6.999   0.602 -0.3422 -0.3418 -0.1090
 2749ntf    nn314223   5.964   7.015   0.530 -0.3090 -0.3880 -0.1841
 2749ntf    sn214224   5.849   7.117   0.562 -0.0729 -0.2597  0.2617
 2749ntf    cn114225   5.706   7.004   0.560 -0.2027 -0.0838 -0.7784
 2749ntf    fn414226   6.213   7.217   0.495  0.1721  0.1296  0.8858
 2749ntf    fn414227   6.332   7.036   0.503 -0.5709  0.1476 -0.2346
 2749ntf    fn414228   6.179   7.059   0.358  0.2694 -0.2300 -0.0876
 2749ntf    on514229   6.150   6.863   0.596  0.3392 -0.1271  0.3383
 2749ntf    on514230   6.118   7.068   0.727  0.4848  0.3613 -0.5848
 2749ntf    on514231   5.833   7.206   0.450  0.2284 -0.6110 -0.0595
 2749ntf    on514232   5.840   7.169   0.697  0.6850 -0.5217  0.4141
 2749ntf    fn414233   5.588   7.066   0.562 -0.2079 -0.0990  0.5306
 2749ntf    fn414234   5.706   6.917   0.461  0.3286 -0.2038 -0.6730
 2749ntf    fn414235   5.714   6.929   0.668  0.2724  0.2700 -0.5647
 2750ntf    cn114236   1.227   0.048   1.625 -0.1335 -0.3996 -0.3145
 2750ntf    sn214237   1.283  -0.096   1.529  0.1292 -0.3457 -0.2409
 2750ntf    nn314238   1.179  -0.096   1.411 -0.0713  0.6934 -0.0781
 2750ntf    sn214239   1.208  -0.063   1.261  0.0388 -0.1656 -0.2547
 2750ntf    cn114240   1.072   0.056   1.239  0.0876 -0.0955 -0.1750
 2750ntf    fn414241   1.101   0.028   1.662 -0.0335  0.0902  0.3022
 2750ntf    fn414242   1.301   0.056   1.733 -0.5275 -0.2266 -0.0541
 2750ntf    fn414243   1.233   0.164   1.560 -0.1469 -0.0305  0.3401
 2750ntf    on514244   1.420  -0.064   1.496  0.1535 -0.7997 -0.5882
 2750ntf    on514245   1.260  -0.212   1.610 -0.5398  0.1725  0.3195
 2750ntf    on514246   1.184  -0.173   1.171 -0.1905 -0.1709 -0.1882
 2750ntf    on514247   1.324   0.016   1.229 -0.2086  0.2650 -0.1031
 2750ntf    fn414248   1.102   0.125   1.131  0.1338  0.1174 -0.0275
 2750ntf    fn414249   0.955  -0.003   1.218 -0.0744  0.2705 -0.3107
 2750ntf    fn414250   1.071   0.137   1.344 -0.3971 -0.0133 -0.2425
 2751ntf    cn114251   1.644   5.143   4.107  0.1720  0.3383 -0.4413
 2751ntf    sn214252   1.464   5.118   4.110  0.2864 -0.4443 -0.0055
 2751ntf    nn314253   1.458   4.961   4.110  1.1607 -0.4853 -0.3044
 2751ntf    sn214254   1.424   4.867   4.231  0.0987  0.0910 -0.1437
 2751ntf    cn114255   1.534   4.727   4.195  0.1689  0.0463  0.2366
 2751ntf    fn414256   1.700   5.116   4.224 -0.3683  0.5655 -0.1288
 2751ntf    fn414257   1.700   5.065   4.016  0.3015 -0.0063 -0.0639
 2751ntf    fn414258   1.687   5.266   4.080  0.0418  0.3744 -0.4845
 2751ntf    on514259   1.426   5.195   4.226  1.0806  0.1840 -0.1497
 2751ntf    on514260   1.421   5.173   3.984 -0.1129 -0.1429  0.2600
 2751ntf    on514261   1.291   4.812   4.234  0.7033 -1.4273 -0.4500
 2751ntf    on514262   1.475   4.914   4.358  0.5964 -0.1724 -0.2439
 2751ntf    fn414263   1.494   4.621   4.263  0.6127 -0.5717 -0.4455
 2751ntf    fn414264   1.516   4.682   4.072  0.0948  0.2345  0.1768
 2751ntf    fn414265   1.662   4.750   4.216  0.2649  0.3374 -0.6303
 2752ntf    cn114266   5.360   1.444   4.358 -0.1523  0.0413  0.3823
 2752ntf    sn214267   5.230   1.388   4.244  0.4012 -0.1896 -0.1359
 2752ntf    nn314268   5.281   1.241   4.222  0.1014 -0.3926  0.5150
 2752ntf    sn214269   5.203   1.104   4.231 -0.2237 -0.2464 -0.0207
 2752ntf    cn114270   5.274   1.035   4.384 -0.2096  0.4325  0.2840
 2752ntf    fn414271   5.471   1.465   4.291 -0.5666 -0.0617 -0.3472
 2752ntf    fn414272   5.329   1.560   4.413 -0.2109  0.2661 -0.1193
 2752ntf    fn414273   5.390   1.352   4.447 -0.2978  0.0130  0.4029
 2752ntf    on514274   5.109   1.400   4.321  0.1638  0.2685 -0.5708
 2752ntf    on514275   5.249   1.476   4.131  0.1217  0.2191  0.1367
 2752ntf    on514276   5.258   1.013   4.134  0.3981  0.2806 -0.1738
 2752ntf    on514277   5.063   1.109   4.264 -0.3892 -0.2609 -0.7023
 2752ntf    fn414278   5.207   0.930   4.429  0.7391 -0.2153  0.2125
 2752ntf    fn414279   5.396   0.990   4.363 -0.3740 -0.1540  0.5855
 2752ntf    fn414280   5.284   1.126   4.479 -0.5272 -0.0226  0.7557
 2753ntf    cn114281   1.855   3.504   0.704  0.1051 -0.4906  0.5065
 2753ntf    sn214282   1.680   3.498   0.751 -0.0362 -0.1075  0.0322
 2753ntf    nn314283   1.604   3.551   0.624  0.1498 -0.0484 -0.0535
 2753ntf    sn214284   1.450   3.536   0.598  0.1134 -0.0813  0.1780
 2753ntf    cn114285   1.457   3.375   0.514  0.1742 -0.2287  0.4643
 2753ntf    fn414286   1.890   3.627   0.670 -0.9463 -0.1032  0.7868
 2753ntf    fn414287   1.934   3.468   0.805  0.2664 -1.1953  0.1361
 2753ntf    fn414288   1.881   3.425   0.601  0.3497  0.1158  0.0991
 2753ntf    on514289   1.660   3.362   0.794  0.0643 -0.2152 -0.2598
 2753ntf    on514290   1.674   3.591   0.861  0.5003  0.4237 -0.3862
 2753ntf    on514291   1.391   3.630   0.507  0.7560 -0.1218 -0.2898
 2753ntf    on514292   1.374   3.507   0.717  0.1271 -0.2853  0.1374
 2753ntf    fn414293   1.339   3.334   0.472  0.0597  0.2510  0.3104
 2753ntf    fn414294   1.539   3.377   0.410 -0.1974  0.4214  0.1800
 2753ntf    fn414295   1.493   3.274   0.592 -0.0542 -0.3814  0.3731
 2754ntf    cn114296   5.328   1.535   4.732 -0.1579 -0.4649 -0.7297
 2754ntf    sn214297   5.502   1.502   4.770 -0.1479  0.4865  0.0981
 2754ntf    nn314298   5.472   1.403   4.888  0.6130  0.0348 -0.0809
 2754ntf    sn214299   5.576   1.363   5.000 -0.0181  0.0648  0.5207
 2754ntf    cn114300   5.523   1.451   5.150 -0.1722  0.2010  0.3879
 2754ntf    fn414301   5.270   1.575   4.844  0.5764  0.3701 -0.6433
 2754ntf    fn414302   5.308   1.634   4.647  0.8482  0.2328 -0.1634
 2754ntf    fn414303   5.257   1.428   4.699 -0.7067 -0.4936  0.4918
 2754ntf    on514304   5.566   1.454   4.650  0.0812  0.5866  0.1795
 2754ntf    on514305   5.542   1.629   4.823 -0.2496  0.5731 -0.0322
 2754ntf    on514306   5.708   1.413   4.972 -0.1611 -0.4206 -1.1310
 2754ntf    on514307   5.559   1.224   5.035 -0.0917 -0.2159 -0.5810
 2754ntf    fn414308   5.593   1.419   5.257 -0.1812  0.0067  0.3352
 2754ntf    fn414309   5.522   1.582   5.133  0.5110  0.2587  0.7319
 2754ntf    fn414310   5.400   1.414   5.181 -0.1961 -0.4229 -0.4248
 2755ntf    cn114311   1.859   4.307   2.368 -0.0248 -0.2150 -0.0828
 2755ntf    sn214312   1.748   4.197   2.461 -0.1693 -0.3086 -0.3649
 2755ntf    nn314313   1.655   4.299   2.535  0.4306  0.3336 -0.4829
 2755ntf    sn214314   1.508   4.348   2.507  0.0648 -0.5494 -0.1396
 2755ntf    cn114315   1.411   4.217   2.587  0.0753 -0.3940  0.1281
 2755ntf    fn414316   1.938   4.389   2.435 -0.1401 -0.0654 -0.1288
 2755ntf    fn414317   1.944   4.231   2.302 -0.1983 -0.6097  0.1452
 2755ntf    fn414318   1.794   4.380   2.278  0.5083  0.3587 -0.0107
 2755ntf    on514319   1.685   4.109   2.366 -0.7844  0.3910 -0.6106
 2755ntf    on514320   1.840   4.132   2.551 -0.5725 -0.2379  0.0985
 2755ntf    on514321   1.465   4.363   2.370 -0.1807 -0.4070 -0.0463
 2755ntf    on514322   1.472   4.463   2.585  0.7733 -0.1747 -0.3492
 2755ntf    fn414323   1.280   4.229   2.570  0.1596  0.5348  0.0869
 2755ntf    fn414324   1.437   4.091   2.557 -0.1767 -0.3498 -0.2729
 2755ntf    fn414325   1.432   4.214   2.718  0.1013 -0.0981  0.1312
 2756ntf    cn114326   5.158   3.376   3.007 -0.2971  0.3675  0.1117
 2756ntf    sn214327   4.988   3.368   2.944 -0.3131  0.2124  0.1725
 2756ntf    nn314328   4.977   3.212   2.934 -0.4676  0.2483 -0.2520
 2756ntf    sn214329   4.986   3.126   2.803 -0.0055 -0.2818  0.1216
 2756ntf    cn114330   4.871   3.213   2.692 -0.0457  0.2655  0.5909
 2756ntf    fn414331   5.240   3.332   2.913 -0.3850 -0.5802  0.4659
 2756ntf    fn414332   5.198   3.493   3.053 -0.0547  0.2431  0.2256
 2756ntf    fn414333   5.185   3.293   3.107  0.3529  0.1935 -0.2014
 2756ntf    on514334   4.915   3.425   3.054  0.0416  0.5435  0.2375
 2756ntf    on514335   5.001   3.453   2.828 -0.0760 -0.3276 -0.1975
 2756ntf    on514336   4.922   2.999   2.827  0.3674 -0.3999  0.5062
 2756ntf    on514337   5.117   3.122   2.741 -0.3746  0.6515 -0.7431
 2756ntf    fn414338   4.931   3.294   2.606 -0.2053 -0.3139 -0.0663
 2756ntf    fn414339   4.801   3.135   2.612 -0.0643  0.5024  0.3730
 2756ntf    fn414340   4.774   3.283   2.749 -0.4072  0.3726 -0.1447
 2757ntf    cn114341   5.762   3.123   2.269  0.6027  0.0203  0.2952
 2757ntf    sn214342   5.779   3.087   2.446 -0.0312 -0.4250  0.2660
 2757ntf    nn314343   5.768   2.931   2.434  0.1435 -0.4168  0.0092
 2757ntf    sn214344   5.883   2.824   2.423  0.4344 -0.0998 -0.0311
 2757ntf    cn114345   5.925   2.794   2.597 -0.1092 -0.2867  0.0697
 2757ntf    fn414346   5.870   3.082   2.204  0.0123 -0.3155 -0.5002
 2757ntf    fn414347   5.655   3.066   2.216  0.3970 -0.0457  0.7811
 2757ntf    fn414348   5.750   3.252   2.241 -0.2560 -0.1149  0.0278
 2757ntf    on514349   5.908   3.131   2.491  0.1124 -0.6412  0.0656
 2757ntf    on514350   5.666   3.149   2.511 -0.0279 -0.0558 -0.0780
 2757ntf    on514351   6.000   2.872   2.354  0.6621  0.0621  0.4676
 2757ntf    on514352   5.833   2.697   2.377 -0.0011  0.0517  0.0210
 2757ntf    fn414353   5.993   2.896   2.647 -0.5876  0.1619 -0.1774
 2757ntf    fn414354   5.823   2.766   2.677 -0.1455  0.4054  0.2751
 2757ntf    fn414355   6.007   2.690   2.598  0.3551  0.0767  0.1518
 2758ntf    cn114356   5.769   4.327   5.909 -0.0436 -0.1677 -0.2929
 2758ntf    sn214357   5.801   4.399   6.073 -0.0326  0.1042 -0.4137
 2758ntf    nn314358   5.886   4.523   6.028 -0.0309  0.3502  0.2585
 2758ntf    sn214359   6.030   4.560   6.079  0.2296 -0.3978  0.0829
 2758ntf    cn114360   6.140   4.494   5.950  0.0202 -0.1269 -0.2368
 2758ntf    fn414361   5.874   4.314   5.830  0.2510 -0.2520  0.1103
 2758ntf    fn414362   5.709   4.209   5.907  0.2440 -0.3172 -0.2457
 2758ntf    fn414363   5.694   4.404   5.832 -0.2790 -0.1005 -0.0005
 2758ntf    on514364   5.672   4.429   6.130 -0.1299 -0.0422 -0.5570
 2758ntf    on514365   5.870   4.288   6.134  0.0565  0.6641  0.5224
 2758ntf    on514366   6.070   4.498   6.202  0.0816  0.3925  0.5368
 2758ntf    on514367   6.061   4.701   6.071 -0.3130 -0.2983 -0.4026
 2758ntf    fn414368   6.124   4.564   5.839 -0.0842 -0.2019 -0.2686
 2758ntf    fn414369   6.271   4.492   5.969  0.0338  0.4872 -0.2314
 2758ntf    fn414370   6.118   4.368   5.919 -0.3705 -0.1164 -0.0088
 2759ntf    cn114371   4.485   6.636   1.959  0.1678  0.0670 -0.0160
 2759ntf    sn214372   4.415   6.495   1.869 -0.4060  0.2826  0.0902
 2759ntf    nn314373   4.483   6.512   1.728 -0.2248 -0.2067  0.1143
 2759ntf    sn214374   4.415   6.562   1.596 -0.2736  0.2076  0.2931
 2759ntf    cn114375   4.563   6.635   1.519 -0.3158 -0.1402 -0.1206
 2759ntf    fn414376   4.460   6.746   1.891  0.5407  0.5343  0.5905
 2759ntf    fn414377   4.430   6.657   2.078  0.6488  0.2091  0.1843
 2759ntf    fn414378   4.616   6.623   1.977  0.2002 -0.1752 -0.4017
 2759ntf    on514379   4.464   6.376   1.934 -1.1203  0.2531  0.5943
 2759ntf    on514380   4.272   6.504   1.884 -0.3713  0.7101  0.1606
 2759ntf    on514381   4.323   6.670   1.620  0.5800  0.9565  0.2320
 2759ntf    on514382   4.386   6.464   1.494  0.4792 -0.5252  0.7763
 2759ntf    fn414383   4.671   6.563   1.542  0.0649  0.2470 -0.6799
 2759ntf    fn414384   4.550   6.640   1.387  0.1886  0.2621 -0.1554
 2759ntf    fn414385   4.595   6.753   1.569  0.1543 -0.4884  0.4150
 2760ntf    cn114386   3.416   1.361   5.122  0.0739 -0.3967  0.3853
 2760ntf    sn214387   3.561   1.439   5.044 -0.2730  0.0614  0.1959
 2760ntf    nn314388   3.532   1.593   5.061  0.3299  0.2019 -0.0267
 2760ntf    sn214389   3.440   1.682   4.971  0.0996 -0.0334 -0.0264
 2760ntf    cn114390   3.545   1.738   4.834  0.1543  0.1158  0.0765
 2760ntf    fn414391   3.385   1.439   5.223 -0.1062  0.4701 -0.3262
 2760ntf    fn414392   3.308   1.352   5.045  0.3075 -0.8322  0.1016
 2760ntf    fn414393   3.440   1.239   5.168  0.2535 -0.4662  0.1122
 2760ntf    on514394   3.679   1.397   5.115 -0.1376 -0.0335 -0.0884
 2760ntf    on514395   3.540   1.401   4.907  0.3880 -0.2509  0.1817
 2760ntf    on514396   3.406   1.806   5.037  0.3063  0.2488 -0.4508
 2760ntf    on514397   3.331   1.619   4.901  0.0821  0.4049 -0.3977
 2760ntf    fn414398   3.484   1.826   4.757 -0.7206 -0.4511  0.1133
 2760ntf    fn414399   3.650   1.798   4.887  0.5791  0.0017 -0.6231
 2760ntf    fn414400   3.584   1.649   4.744 -0.1269  0.2685 -0.1968
 2761ntf    cn114401   3.007   3.182   5.674 -0.0284 -0.2621 -0.4959
 2761ntf    sn214402   2.900   3.213   5.531 -0.0026 -0.1700 -0.4951
 2761ntf    nn314403   2.777   3.119   5.556  0.3287 -0.5342 -0.2150
 2761ntf    sn214404   2.628   3.149   5.596  0.5674  0.5455 -0.1027
 2761ntf    cn114405   2.541   3.044   5.476  0.7241 -0.2276  0.4476
 2761ntf    fn414406   2.942   3.195   5.788  0.2599  0.2740 -0.3887
 2761ntf    fn414407   3.048   3.056   5.671 -0.0943 -0.3085  0.2279
 2761ntf    fn414408   3.113   3.259   5.691  0.2009 -0.7562  0.4160
 2761ntf    on514409   2.878   3.354   5.546 -0.1950 -0.1822 -0.6569
 2761ntf    on514410   2.978   3.181   5.414  0.3094 -0.1217 -0.3025
 2761ntf    on514411   2.576   3.277   5.555 -0.6721  0.0649 -0.0629
 2761ntf    on514412   2.592   3.085   5.720  0.0334  0.9811 -0.0304
 2761ntf    fn414413   2.567   2.916   5.492 -0.2609 -0.4581  0.2656
 2761ntf    fn414414   2.409   3.052   5.474  0.7196 -0.3768 -0.4316
 2761ntf    fn414415   2.585   3.079   5.356 -0.3317  0.1442  0.1572
 2762ntf    cn114416   6.982   4.161   1.811 -0.1405  0.0413  0.0219
 2762ntf    sn214417   7.087   4.015   1.837  0.3071  0.3585  0.0129
 2762ntf    nn314418   6.987   3.921   1.913  0.1115  0.0995 -0.5618
 2762ntf    sn214419   6.910   3.794   1.860 -0.0685  0.0801 -0.2544
 2762ntf    cn114420   7.018   3.664   1.927 -0.3436  0.2341  0.5051
 2762ntf    fn414421   6.925   4.205   1.922 -0.3063  0.0272 -0.0568
 2762ntf    fn414422   7.053   4.265   1.769 -0.4204  0.2393  0.0365
 2762ntf    fn414423   6.893   4.147   1.714  0.1725  0.1319 -0.2782
 2762ntf    on514424   7.138   3.977   1.708  0.1515  0.6158 -0.1252
 2762ntf    on514425   7.184   4.062   1.933  0.2036  0.7684 -0.0810
 2762ntf    on514426   6.910   3.781   1.717  0.0773 -0.2223 -0.2264
 2762ntf    on514427   6.781   3.778   1.922  0.1434 -0.6166  0.0080
 2762ntf    fn414428   7.140   3.693   1.884 -0.4134 -0.0603  0.0986
 2762ntf    fn414429   7.023   3.663   2.059  0.1988  0.8236  0.4951
 2762ntf    fn414430   6.996   3.546   1.871  0.2039  0.3658 -0.0001
 2763ntf    cn114431   2.982   0.847   2.081 -0.2834 -0.1244 -0.2975
 2763ntf    sn214432   3.008   1.016   2.142 -0.0686 -0.2601 -0.0133
 2763ntf    nn314433   2.955   0.998   2.288 -0.0425 -0.3096 -0.0098
 2763ntf    sn214434   3.027   0.956   2.421 -0.0380  0.1106  0.1226
 2763ntf    cn114435   3.071   1.115   2.497  0.3915  0.1573 -0.2240
 2763ntf    fn414436   2.998   0.759   2.179  0.5238  0.1470 -0.1872
 2763ntf    fn414437   2.858   0.840   2.035 -0.2537  0.4719 -0.4753
 2763ntf    fn414438   3.062   0.812   1.981  0.2716 -0.1196  0.1426
 2763ntf    on514439   3.149   1.035   2.120 -0.1466  0.0936 -0.2069
 2763ntf    on514440   2.912   1.089   2.064 -0.3789 -0.4325  0.2036
 2763ntf    on514441   3.150   0.888   2.389 -0.1692  0.0702 -0.2987
 2763ntf    on514442   2.933   0.901   2.516  0.4889 -1.0150  0.0146
 2763ntf    fn414443   3.109   1.100   2.623 -0.6498 -0.1394  0.0650
 2763ntf    fn414444   3.166   1.180   2.431  0.1900  0.6688 -0.0151
 2763ntf    fn414445   2.967   1.194   2.514  0.2731 -0.1822  0.6747
 2764ntf    cn114446   2.186   3.913   5.103 -0.0282 -0.0747 -0.1233
 2764ntf    sn214447   2.056   3.879   4.980 -0.0159 -0.1744 -0.1087
 2764ntf    nn314448   2.148   3.862   4.854  0.7203  0.0239  0.3920
 2764ntf    sn214449   2.218   3.971   4.765  0.4378 -0.0667  0.0558
 2764ntf    cn114450   2.120   3.961   4.612  0.3916  0.4081  0.0535
 2764ntf    fn414451   2.135   3.924   5.225  0.0364 -0.2578 -0.0800
 2764ntf    fn414452   2.270   3.814   5.127 -0.2288 -0.2674 -0.2080
 2764ntf    fn414453   2.251   4.025   5.079  0.6594 -0.3505  0.4216
 2764ntf    on514454   1.991   3.756   5.020 -1.4561  0.6145  0.0203
 2764ntf    on514455   1.968   3.992   4.971  0.4056  0.2551  0.9893
 2764ntf    on514456   2.349   3.928   4.721  0.0287 -0.5697 -0.6921
 2764ntf    on514457   2.211   4.112   4.794 -0.3031 -0.0660 -0.1122
 2764ntf    fn414458   2.154   4.048   4.519  0.6343  0.4070  0.1404
 2764ntf    fn414459   2.123   3.841   4.556  0.1425  0.0803  0.7245
 2764ntf    fn414460   1.993   3.978   4.644  0.2696 -0.1922 -0.0941
 2765ntf    cn114461   2.828   3.698   3.284  0.2620 -0.2403 -0.2778
 2765ntf    sn214462   2.724   3.835   3.343  0.2956 -0.2996 -0.0768
 2765ntf    nn314463   2.586   3.764   3.317  0.0905  0.1216 -0.1587
 2765ntf    sn214464   2.458   3.822   3.248 -0.1189 -0.0505  0.0822
 2765ntf    cn114465   2.320   3.792   3.363 -0.1613 -0.2935 -0.0328
 2765ntf    fn414466   2.814   3.589   3.357 -0.0145 -0.0618 -0.0587
 2765ntf    fn414467   2.788   3.666   3.162  0.1463 -0.4285 -0.1907
 2765ntf    fn414468   2.957   3.724   3.269  0.2856 -0.1111  0.1281
 2765ntf    on514469   2.766   3.839   3.480 -0.3993 -0.5833  0.1467
 2765ntf    on514470   2.762   3.947   3.261  0.1884 -0.3612 -0.2122
 2765ntf    on514471   2.410   3.736   3.143 -0.2934  0.2947 -0.1231
 2765ntf    on514472   2.454   3.966   3.237  0.4291 -0.0854 -0.6125
 2765ntf    fn414473   2.210   3.848   3.315  0.0085 -0.0792 -0.1756
 2765ntf    fn414474   2.307   3.665   3.397 -0.1663 -0.2295  0.2049
 2765ntf    fn414475   2.340   3.853   3.479  0.2829 -0.6000  0.0558
 2766ntf    cn114476   1.585   4.328   0.155  0.1720  0.1702  0.3649
 2766ntf    sn214477   1.535   4.226   0.014  0.0310  0.2402  0.3634
 2766ntf    nn314478   1.502   4.341  -0.087  0.2182  0.5734  0.6817
 2766ntf    sn214479   1.591   4.390  -0.207 -0.1376 -0.0021  0.1784
 2766ntf    cn114480   1.472   4.499  -0.291  0.4785  0.4117 -0.1687
 2766ntf    fn414481   1.653   4.254   0.241 -0.1532 -0.8952 -0.2730
 2766ntf    fn414482   1.666   4.424   0.113  0.0560  0.0724 -0.0863
 2766ntf    fn414483   1.480   4.385   0.214 -0.2268  0.0069 -0.1814
 2766ntf    on514484   1.654   4.148  -0.004 -0.4301 -0.3556 -0.1551
 2766ntf    on514485   1.423   4.148   0.060 -0.1769  0.2921 -0.0440
 2766ntf    on514486   1.614   4.296  -0.314 -0.0007  0.4815 -0.2250
 2766ntf    on514487   1.696   4.480  -0.165  0.0144 -0.0229 -0.1489
 2766ntf    fn414488   1.386   4.428  -0.363  0.0013  0.6417  0.1726
 2766ntf    fn414489   1.416   4.582  -0.204  0.2514 -0.2514  0.3301
 2766ntf    fn414490   1.538   4.569  -0.382  0.3752  0.4029 -0.2498
 2767ntf    cn114491   2.909   3.046   4.013 -0.1196 -0.4635 -0.1789
 2767ntf    sn214492   2.906   3.024   3.833  0.0657  0.1174 -0.2529
 2767ntf    nn314493   2.885   3.169   3.778  0.7443  0.1249 -0.5028
 2767ntf    sn214494   2.821   3.197   3.637 -0.2906 -0.4242 -0.1449
 2767ntf    cn114495   2.953   3.147   3.523  0.0214  0.3844 -0.1431
 2767ntf    fn414496   2.820   3.130   4.065 -0.1701 -0.7852  0.2640
 2767ntf    fn414497   2.894   2.930   4.076  0.1321 -0.2919  0.1980
 2767ntf    fn414498   3.025   3.091   4.057 -0.2301 -0.1289 -0.2246
 2767ntf    on514499   3.045   2.991   3.809 -0.0003 -0.3595  0.0077
 2767ntf    on514500   2.809   2.919   3.814  0.3712 -0.1726 -0.2243
 2767ntf    on514501   2.820   3.340   3.616 -1.2804 -0.3894  0.0682
 2767ntf    on514502   2.705   3.123   3.594 -0.2873 -0.3531 -0.2764
 2767ntf    fn414503   2.976   3.017   3.518  0.0085  0.3653  0.2633
 2767ntf    fn414504   2.934   3.188   3.399 -0.5010 -0.2381 -0.2741
 2767ntf    fn414505   3.070   3.199   3.557  0.1616 -0.1294  0.1753
 2768ntf    cn114506   4.808   0.867   1.223 -0.1286  0.1269  0.1737
 2768ntf    sn214507   4.742   0.811   1.063  0.2162 -0.2021  0.1434
 2768ntf    nn314508   4.873   0.777   0.984 -0.1411 -0.3176 -0.4012
 2768ntf    sn214509   4.966   0.855   0.884  0.0446  0.1031  0.0916
 2768ntf    cn114510   4.862   0.860   0.734 -0.0064  0.1368  0.1276
 2768ntf    fn414511   4.714   0.888   1.313 -0.2498  0.5550 -0.0488
 2768ntf    fn414512   4.888   0.777   1.279  0.4138  0.2862 -0.3283
 2768ntf    fn414513   4.882   0.977   1.219 -0.3271  0.2642  0.2616
 2768ntf    on514514   4.664   0.692   1.085  0.0005 -0.2774 -0.9733
 2768ntf    on514515   4.664   0.928   1.030  0.1477 -0.4838 -0.7060
 2768ntf    on514516   5.070   0.762   0.847 -0.2402 -0.2234  0.0982
 2768ntf    on514517   4.991   0.995   0.906 -0.2239  0.2722 -0.6302
 2768ntf    fn414518   4.733   0.879   0.750  0.0242  0.0461  0.5003
 2768ntf    fn414519   4.898   0.950   0.644  0.6095  0.0984  0.3268
 2768ntf    fn414520   4.864   0.742   0.674  0.1477  0.0830  0.2370
 2769ntf    cn114521   0.447   5.189   3.419 -0.1146  0.0501  0.3266
 2769ntf    sn214522   0.500   5.017   3.449 -0.2193  0.0087  0.2751
 2769ntf    nn314523   0.414   4.991   3.578 -0.1718  0.6800  0.4473
 2769ntf    sn214524   0.425   4.879   3.688  0.1148  0.0397 -0.2205
 2769ntf    cn114525   0.487   4.976   3.829  0.0891 -0.4226  0.1133
 2769ntf    fn414526   0.442   5.262   3.529  0.1623 -0.0521  0.4072
 2769ntf    fn414527   0.532   5.254   3.341 -0.0088 -0.7443 -0.2384
 2769ntf    fn414528   0.329   5.198   3.360 -0.0486 -1.2174 -0.0252
 2769ntf    on514529   0.450   4.949   3.332  0.1025 -0.0681  0.1829
 2769ntf    on514530   0.641   5.038   3.471 -0.3156  0.7742  0.2005
 2769ntf    on514531   0.503   4.759   3.677  0.1863  0.0672 -0.0153
 2769ntf    on514532   0.288   4.856   3.728  0.0903 -0.2815 -0.4950
 2769ntf    fn414533   0.469   4.928   3.951  0.7130  0.2745  0.4886
 2769ntf    fn414534   0.617   5.000   3.818  0.0286 -0.2022 -0.1483
 2769ntf    fn414535   0.437   5.099   3.833  0.0006 -0.4559  0.0459
 2770ntf    cn114536   3.015   1.687   4.419 -0.5630 -0.1919  0.1529
 2770ntf    sn214537   3.016   1.579   4.273 -0.0955  0.4315 -0.3123
 2770ntf    nn314538   2.941   1.672   4.170 -0.8826  0.9119  0.6816
 2770ntf    sn214539   2.858   1.619   4.049  0.1189  0.3749  0.2194
 2770ntf    cn114540   2.696   1.635   4.130  0.0610 -0.1706  0.2158
 2770ntf    fn414541   3.054   1.625   4.529 -0.0603 -0.9129 -0.4216
 2770ntf    fn414542   3.089   1.796   4.403 -0.7291 -0.0342  0.4572
 2770ntf    fn414543   2.891   1.729   4.437 -0.3400  0.4243  0.2883
 2770ntf    on514544   3.155   1.560   4.238 -0.1395 -0.0836 -0.2195
 2770ntf    on514545   2.937   1.468   4.318 -0.8458  1.2129  0.3310
 2770ntf    on514546   2.863   1.480   4.009  0.0165  0.4640 -0.1074
 2770ntf    on514547   2.846   1.710   3.938 -0.0640  0.3470  0.2153
 2770ntf    fn414548   2.603   1.589   4.048  0.4127  0.5088 -0.5742
 2770ntf    fn414549   2.687   1.561   4.239  0.0844  0.1141  0.4125
 2770ntf    fn414550   2.662   1.759   4.159  0.7890 -0.0859  0.7138
 2771ntf    cn114551   0.705   6.987   0.975  0.1031  0.2172  0.1924
 2771ntf    sn214552   0.605   7.129   1.030 -0.1168 -0.0419  0.4577
 2771ntf    nn314553   0.559   7.078   1.171 -0.2203 -0.4930  0.2626
 2771ntf    sn214554   0.519   7.153   1.303 -0.0600  0.2763 -0.1211
 2771ntf    cn114555   0.676   7.192   1.387 -0.1023  0.1291  0.0275
 2771ntf    fn414556   0.686   6.958   0.847 -0.1741 -0.6978  0.4363
 2771ntf    fn414557   0.837   6.994   0.985  0.1180  0.0433  0.1103
 2771ntf    fn414558   0.661   6.885   1.046  0.0095  0.4855  0.5205
 2771ntf    on514559   0.699   7.237   1.018 -0.7577  0.4759  0.0236
 2771ntf    on514560   0.488   7.133   0.945 -0.1494 -0.0041  0.5045
 2771ntf    on514561   0.458   7.068   1.402 -0.2240 -0.0614 -0.5093
 2771ntf    on514562   0.439   7.271   1.284 -0.5122 -0.0051  0.0108
 2771ntf    fn414563   0.656   7.233   1.511  0.1075  0.3141 -0.0015
 2771ntf    fn414564   0.763   7.094   1.402 -0.4580 -0.1726  0.1554
 2771ntf    fn414565   0.755   7.279   1.327 -0.2669  0.5224  0.3848
 2772ntf    cn114566   6.932   4.518   4.572  0.0712 -0.1929  0.1690
 2772ntf    sn214567   6.921   4.337   4.557 -0.0812 -0.1812  0.1420
 2772ntf    nn314568   7.073   4.302   4.570 -0.0100 -0.1256 -0.5145
 2772ntf    sn214569   7.149   4.263   4.702 -0.2379  0.3247 -0.2486
 2772ntf    cn114570   7.102   4.088   4.716  0.4740  0.1774  0.3462
 2772ntf    fn414571   6.979   4.552   4.691 -0.4163  0.6590  0.1212
 2772ntf    fn414572   7.014   4.583   4.492  0.0961 -0.2323  0.1622
 2772ntf    fn414573   6.818   4.584   4.570  0.3677  0.3185  0.0240
 2772ntf    on514574   6.830   4.307   4.665 -0.2858 -0.1154 -0.0108
 2772ntf    on514575   6.867   4.323   4.424 -0.4978 -0.4616  0.3396
 2772ntf    on514576   7.103   4.325   4.824 -0.3908 -0.5004  0.1224
 2772ntf    on514577   7.291   4.269   4.679 -0.1284 -0.2945  0.2366
 2772ntf    fn414578   7.167   4.015   4.627  0.1979 -0.0317  0.3122
 2772ntf    fn414579   7.133   4.036   4.834  0.3479 -0.2392  0.1965
 2772ntf    fn414580   6.974   4.054   4.712  0.4854  0.1929 -0.2356
 2773ntf    cn114581   6.343   3.424   4.372  0.0560  0.0136 -0.2224
 2773ntf    sn214582   6.195   3.330   4.419  0.0347 -0.0266 -0.3679
 2773ntf    nn314583   6.138   3.431   4.525 -0.2629 -0.3011 -0.2631
 2773ntf    sn214584   6.166   3.464   4.676 -0.2030  0.2401 -0.3890
 2773ntf    cn114585   5.997   3.441   4.739 -0.0154 -0.4161 -0.1169
 2773ntf    fn414586   6.328   3.555   4.363  0.2160  0.0488  0.0299
 2773ntf    fn414587   6.438   3.413   4.464 -0.2440  0.4892  0.1511
 2773ntf    fn414588   6.392   3.383   4.256 -0.8204 -0.3627 -0.4635
 2773ntf    on514589   6.123   3.316   4.294 -0.3536  0.0301 -0.1539
 2773ntf    on514590   6.245   3.213   4.487  0.2826  0.0806 -0.3645
 2773ntf    on514591   6.194   3.605   4.688  0.0399  0.1039  0.7047
 2773ntf    on514592   6.254   3.367   4.736 -0.1749  0.2510 -0.4134
 2773ntf    fn414593   5.909   3.511   4.669 -0.0154 -0.0167  0.2781
 2773ntf    fn414594   5.957   3.316   4.719 -0.2862 -0.2086 -0.9110
 2773ntf    fn414595   5.978   3.471   4.866 -0.0823 -0.7110 -0.0555
 2774ntf    cn114596   2.188   2.583   2.262 -0.2379  0.3230 -0.0724
 2774ntf    sn214597   2.099   2.720   2.183 -0.1876  0.3854 -0.0203
 2774ntf    nn314598   2.056   2.790   2.317 -0.1487 -0.3324  0.3741
 2774ntf    sn214599   2.116   2.918   2.386 -0.2960  0.0445 -0.1883
 2774ntf    cn114600   2.032   3.044   2.285 -0.0573  0.3446 -0.0137
 2774ntf    fn414601   2.235   2.485   2.186 -0.5372  0.2370 -0.1454
 2774ntf    fn414602   2.289   2.625   2.337  0.2715 -0.3391 -0.3755
 2774ntf    fn414603   2.100   2.522   2.338 -0.1804  0.1812 -0.1184
 2774ntf    on514604   2.190   2.785   2.092  0.5542 -0.3636  0.1715
 2774ntf    on514605   1.991   2.648   2.121  0.6017 -0.4342 -0.4682
 2774ntf    on514606   2.257   2.946   2.385 -0.1812 -0.5135  0.1522
 2774ntf    on514607   2.052   2.921   2.515  0.0439  0.5572 -0.0319
 2774ntf    fn414608   2.080   3.052   2.162  1.1703  0.4841  0.4596
 2774ntf    fn414609   1.900   3.036   2.282 -0.0378  0.0179 -0.0797
 2774ntf    fn414610   2.061   3.165   2.329  0.6663  0.2685 -0.2582
 2775ntf    cn114611   3.418   7.078   1.172  0.1623 -0.1169  0.0374
 2775ntf    sn214612   3.573   7.062   1.078  0.3013 -0.0007  0.2464
 2775ntf    nn314613   3.662   7.186   1.115  0.4577  0.2049 -0.7901
 2775ntf    sn214614   3.615   7.335   1.103 -0.0451  0.0692 -0.5474
 2775ntf    cn114615   3.777   7.407   1.062  0.3005 -0.1978  0.3209
 2775ntf    fn414616   3.355   7.192   1.146 -0.4205 -0.5245 -0.3609
 2775ntf    fn414617   3.332   6.981   1.147 -0.0185 -0.0425  0.3660
 2775ntf    fn414618   3.437   7.063   1.302  0.2224  0.2228  0.0694
 2775ntf    on514619   3.621   6.935   1.128 -0.1191 -0.3849 -0.3150
 2775ntf    on514620   3.525   7.066   0.942 -0.2222  0.4325  0.4408
 2775ntf    on514621   3.590   7.403   1.228  0.2433 -0.2202 -0.3314
 2775ntf    on514622   3.530   7.372   0.993  0.0429  0.2613 -0.5522
 2775ntf    fn414623   3.819   7.368   0.943 -0.6340 -0.6005  0.1104
 2775ntf    fn414624   3.763   7.538   1.055  0.3036 -0.2205 -0.1168
 2775ntf    fn414625   3.872   7.382   1.150  0.2062 -0.1605  0.4329
 2776ntf    cn114626   5.486   4.289   5.185  0.1595 -0.4931 -0.0649
 2776ntf    sn214627   5.514   4.460   5.131 -0.1137 -0.4737 -0.1458
 2776ntf    nn314628   5.665   4.451   5.092  0.1035  0.4878  0.4337
 2776ntf    sn214629   5.739   4.537   4.984  0.1981 -0.0274  0.0856
 2776ntf    cn114630   5.776   4.398   4.873 -0.1327  0.1671 -0.2703
 2776ntf    fn414631   5.512   4.204   5.087 -0.3809 -0.5542 -0.1590
 2776ntf    fn414632   5.550   4.250   5.293  0.7065 -0.3914 -0.3503
 2776ntf    fn414633   5.361   4.263   5.221  0.0636  0.0378 -0.0095
 2776ntf    on514634   5.418   4.463   5.023 -0.0707  0.1168 -0.1724
 2776ntf    on514635   5.501   4.547   5.246 -0.1276 -0.3048 -0.2747
 2776ntf    on514636   5.868   4.583   5.029  0.2449  0.1910 -0.2634
 2776ntf    on514637   5.656   4.622   4.902  0.4311  0.1270  0.0094
 2776ntf    fn414638   5.667   4.340   4.825  0.3034 -0.4236 -0.5643
 2776ntf    fn414639   5.850   4.436   4.770  0.1216 -0.5142 -0.3456
 2776ntf    fn414640   5.847   4.305   4.934  0.3186  0.6921  0.0158
 2777ntf    cn114641   0.825   1.266   1.787  0.3086 -0.1268 -0.0029
 2777ntf    sn214642   0.733   1.414   1.733  0.1771 -0.3301 -0.3372
 2777ntf    nn314643   0.855   1.511   1.713 -0.3393  0.5617  0.7905
 2777ntf    sn214644   0.897   1.587   1.582 -0.5939 -0.0906  0.3293
 2777ntf    cn114645   0.970   1.740   1.647 -0.3175 -0.0782 -0.0088
 2777ntf    fn414646   0.902   1.235   1.684  0.2383 -0.1034 -0.0627
 2777ntf    fn414647   0.915   1.281   1.883 -0.0558  0.0507  0.3147
 2777ntf    fn414648   0.746   1.168   1.828 -0.6503  0.5125 -0.2776
 2777ntf    on514649   0.663   1.361   1.618 -0.1074  0.6353 -0.6130
 2777ntf    on514650   0.659   1.454   1.849  0.1124 -0.1447 -0.4427
 2777ntf    on514651   0.787   1.642   1.506  0.0062  0.3618 -0.2254
 2777ntf    on514652   1.003   1.518   1.513 -0.5419 -0.3508  0.6695
 2777ntf    fn414653   1.035   1.817   1.561 -0.1598 -0.1904  0.0077
 2777ntf    fn414654   0.885   1.815   1.714  0.4301  0.8590 -0.0912
 2777ntf    fn414655   1.062   1.701   1.734 -0.8209 -0.4602  0.3615
 2778ntf    cn114656   6.875   3.709   7.030  0.1330  0.1087 -0.1074
 2778ntf    sn214657   6.919   3.535   6.996 -0.1985  0.0724 -0.3533
 2778ntf    nn314658   7.065   3.537   7.054 -0.3936 -0.3104  0.1610
 2778ntf    sn214659   7.146   3.428   7.133 -0.2073 -0.2850  0.0050
 2778ntf    cn114660   7.135   3.513   7.294 -0.6629 -0.0128 -0.1672
 2778ntf    fn414661   6.932   3.803   6.957  0.2960  0.2140  0.1553
 2778ntf    fn414662   6.746   3.736   7.017  0.2343  0.2948 -0.7373
 2778ntf    fn414663   6.906   3.748   7.152  0.0747  0.0366 -0.0690
 2778ntf    on514664   6.824   3.463   7.078  0.4322 -0.1843  0.1568
 2778ntf    on514665   6.919   3.529   6.852 -0.6923  0.1171 -0.3584
 2778ntf    on514666   7.284   3.420   7.093 -0.1232  0.4559  0.1305
 2778ntf    on514667   7.075   3.306   7.161 -0.1601 -0.2418  0.3152
 2778ntf    fn414668   7.180   3.435   7.391  0.3278  0.4534 -0.2346
 2778ntf    fn414669   7.191   3.633   7.300 -0.1715 -0.2277 -0.4162
 2778ntf    fn414670   7.009   3.537   7.324 -0.4166  0.5256  0.4549
 2779ntf    cn114671   3.011   6.504   0.653 -0.0018  0.0122 -0.0043
 2779ntf    sn214672   2.874   6.596   0.728 -0.2052 -0.1897 -0.1261
 2779ntf    nn314673   2.879   6.528   0.870  0.5232  0.5320  0.2073
 2779ntf    sn214674   2.837   6.575   1.014 -0.3079  0.0923  0.1188
 2779ntf    cn114675   2.996   6.640   1.074 -0.0881 -0.3824  0.0587
 2779ntf    fn414676   3.016   6.501   0.520  0.5638 -0.2255  0.0192
 2779ntf    fn414677   3.128   6.553   0.693  0.0145  0.1890 -0.2634
 2779ntf    fn414678   3.016   6.377   0.690  0.4869 -0.0200 -0.1688
 2779ntf    on514679   2.925   6.731   0.731 -0.0351 -0.2538 -0.1086
 2779ntf    on514680   2.756   6.564   0.652 -0.3179 -0.5430  0.1959
 2779ntf    on514681   2.816   6.468   1.107  0.4672  0.4322  0.6981
 2779ntf    on514682   2.752   6.690   1.028 -0.6021 -0.2122  0.8365
 2779ntf    fn414683   3.021   6.618   1.202  0.5457 -0.2598 -0.0431
 2779ntf    fn414684   3.089   6.583   1.000  0.7729  0.2335  0.6472
 2779ntf    fn414685   3.024   6.767   1.049  0.2116 -0.5714 -0.5703
 2780ntf    cn114686   5.978   2.866   1.317 -0.0742  0.3363 -0.0272
 2780ntf    sn214687   5.919   2.742   1.199  0.1606 -0.0159  0.2221
 2780ntf    nn314688   5.786   2.814   1.159  0.0215 -0.3579  0.0572
 2780ntf    sn214689   5.635   2.776   1.179 -0.0461 -0.3230 -0.3842
 2780ntf    cn114690   5.588   2.730   1.009  0.0014 -0.0936 -0.4598
 2780ntf    fn414691   5.987   2.992   1.278  0.3851  0.4040  0.2845
 2780ntf    fn414692   5.892   2.864   1.418 -0.0998  0.1977 -0.0510
 2780ntf    fn414693   6.098   2.840   1.367 -0.2407  0.3080  0.3595
 2780ntf    on514694   6.007   2.745   1.085 -0.2904 -0.5310 -0.1474
 2780ntf    on514695   5.916   2.620   1.276  0.5694  0.1265  0.4672
 2780ntf    on514696   5.544   2.887   1.195  0.5589  0.1534 -0.1934
 2780ntf    on514697   5.608   2.664   1.266 -0.2213  0.2802  0.3547
 2780ntf    fn414698   5.577   2.841   0.938  0.1648  0.0684 -0.2351
 2780ntf    fn414699   5.684   2.654   0.960 -0.1428 -0.4933 -0.1318
 2780ntf    fn414700   5.477   2.658   1.011  0.0465 -0.1671 -0.6389
 2781ntf    cn114701   3.857   6.777   0.843  0.1247 -0.1437 -0.3319
 2781ntf    sn214702   3.998   6.663   0.848  0.1146 -0.1455 -0.0427
 2781ntf    nn314703   4.099   6.746   0.935 -0.2522  0.1707  0.0833
 2781ntf    sn214704   4.204   6.686   1.036 -0.1919 -0.2522 -0.2261
 2781ntf    cn114705   4.341   6.795   0.987  0.3343 -0.5730  0.5176
 2781ntf    fn414706   3.755   6.724   0.777 -0.3421  0.0585  0.2146
 2781ntf    fn414707   3.807   6.813   0.960  0.5910  0.2216 -0.2402
 2781ntf    fn414708   3.895   6.887   0.780 -0.4394  0.1409 -0.1870
 2781ntf    on514709   3.958   6.544   0.919  0.1007  0.0209  0.2261
 2781ntf    on514710   4.031   6.647   0.708  0.6126  0.3397  0.0157
 2781ntf    on514711   4.247   6.550   1.018  0.1839 -0.1820  0.1183
 2781ntf    on514712   4.184   6.730   1.172  0.7252 -0.1948 -0.1000
 2781ntf    fn414713   4.454   6.768   1.051  1.2016  0.1576 -0.6572
 2781ntf    fn414714   4.366   6.783   0.857 -0.8442  0.4944  0.1715
 2781ntf    fn414715   4.312   6.923   1.000  0.4062 -0.4363 -0.6010
 2782ntf    cn114716   3.683   5.227   4.967  0.2924  0.0404  0.0752
 2782ntf    sn214717   3.848   5.264   4.899  0.3904 -0.2683  0.1441
 2782ntf    nn314718   3.798   5.397   4.831  0.1415 -0.4385 -0.0081
 2782ntf    sn214719   3.743   5.408   4.684  0.3773  0.0100 -0.0645
 2782ntf    cn114720   3.627   5.546   4.706  0.6920  0.2581  0.0585
 2782ntf    fn414721   3.590   5.187   4.882  0.6192 -0.3281 -0.1131
 2782ntf    fn414722   3.688   5.129   5.055  0.2796 -0.1597 -0.1480
 2782ntf    fn414723   3.636   5.323   5.045 -0.1661 -0.0613 -0.0761
 2782ntf    on514724   3.922   5.283   5.021  0.1480  0.1461  0.2301
 2782ntf    on514725   3.891   5.156   4.813 -0.7347 -0.2379 -0.4807
 2782ntf    on514726   3.663   5.298   4.635  0.2677  0.0632 -0.0043
 2782ntf    on514727   3.828   5.477   4.590 -0.1182  0.3381 -0.2755
 2782ntf    fn414728   3.536   5.519   4.798  0.6259  0.2548 -0.0078
 2782ntf    fn414729   3.691   5.656   4.738  1.0507  0.0336  0.1215
 2782ntf    fn414730   3.561   5.566   4.593 -0.0051  0.4081  0.4917
 2783ntf    cn114731   0.055   2.082   3.259  0.4880 -0.0942  0.0909
 2783ntf    sn214732  -0.044   1.948   3.332  0.1219  0.1665  0.0752
 2783ntf    nn314733   0.022   1.949   3.474  0.6178  0.3191 -0.1519
 2783ntf    sn214734   0.118   1.844   3.539  0.0668 -0.1030 -0.0102
 2783ntf    cn114735  -0.004   1.746   3.631  0.2924  0.0860  0.4957
 2783ntf    fn414736   0.038   2.196   3.323 -0.1969 -0.3200  0.3178
 2783ntf    fn414737   0.185   2.060   3.272  0.4673 -0.2907 -0.0296
 2783ntf    fn414738   0.022   2.100   3.132  0.2414 -0.3668  0.1167
 2783ntf    on514739  -0.176   2.003   3.316 -0.2387 -0.6643  0.1505
 2783ntf    on514740  -0.015   1.831   3.252 -0.0151  0.2310 -0.0710
 2783ntf    on514741   0.185   1.908   3.650  0.3911 -0.1192 -0.1932
 2783ntf    on514742   0.188   1.744   3.462 -0.1304 -0.1889 -0.0776
 2783ntf    fn414743  -0.121   1.743   3.569  0.6175 -0.1461 -0.1191
 2783ntf    fn414744   0.026   1.621   3.663  0.3588 -0.0999 -0.2908
 2783ntf    fn414745  -0.034   1.811   3.743  0.2511 -0.2223  0.6661
 2784ntf    cn114746   3.083   4.656   6.682  0.0908  0.1917  0.1932
 2784ntf    sn214747   3.017   4.815   6.625  0.0180  0.2044  0.3129
 2784ntf    nn314748   2.908   4.840   6.736  0.0109 -0.4464  0.4536
 2784ntf    sn214749   2.753   4.817   6.726 -0.0026 -0.0444 -0.3781
 2784ntf    cn114750   2.700   4.988   6.697  0.1029  0.0592  0.0410
 2784ntf    fn414751   3.160   4.657   6.789  0.0810  0.8401  0.1999
 2784ntf    fn414752   2.980   4.583   6.722  0.3727 -0.2499  0.1222
 2784ntf    fn414753   3.150   4.592   6.588  0.3447  0.3904  0.2392
 2784ntf    on514754   3.118   4.916   6.646 -0.3387  0.7271 -0.4161
 2784ntf    on514755   2.973   4.782   6.492  0.4369  0.4800  0.1041
 2784ntf    on514756   2.703   4.780   6.856  0.7162  0.6234  0.1000
 2784ntf    on514757   2.697   4.746   6.613  0.3667 -0.1213 -0.5147
 2784ntf    fn414758   2.572   5.012   6.671 -0.1034 -0.5800  0.4510
 2784ntf    fn414759   2.720   5.060   6.807 -0.1111  0.3450 -0.1069
 2784ntf    fn414760   2.759   5.050   6.597  0.0709 -0.2418 -0.1640
 2785ntf    cn114761   6.359   1.912   5.085  0.0508  0.0453 -0.3745
 2785ntf    sn214762   6.452   1.760   5.123  0.1376  0.1070 -0.3394
 2785ntf    nn314763   6.377   1.650   5.040 -0.2141  0.3174 -0.3028
 2785ntf    sn214764   6.418   1.585   4.903 -0.1265 -0.0582 -0.0993
 2785ntf    cn114765   6.540   1.464   4.962 -0.2700 -0.2722 -0.2396
 2785ntf    fn414766   6.229   1.891   5.075  0.0968 -0.2443 -0.3851
 2785ntf    fn414767   6.385   2.005   5.175  0.1052 -0.0487 -0.2932
 2785ntf    fn414768   6.386   1.961   4.965  0.5446 -0.2214 -0.3782
 2785ntf    on514769   6.585   1.800   5.084  0.2257  0.9224  0.7558
 2785ntf    on514770   6.429   1.748   5.265 -0.3190  0.5203 -0.3748
 2785ntf    on514771   6.482   1.675   4.809 -0.4188 -0.1607 -0.3981
 2785ntf    on514772   6.315   1.500   4.849 -0.2330  0.1458 -0.2216
 2785ntf    fn414773   6.574   1.375   4.871 -0.3800 -0.2955 -0.2575
 2785ntf    fn414774   6.649   1.516   5.016 -0.2485 -0.5224 -0.0421
 2785ntf    fn414775   6.473   1.400   5.056 -0.2350  0.0040 -0.0241
 2786ntf    cn114776   4.612   0.551   2.789 -0.3404 -0.0596 -0.1941
 2786ntf    sn214777   4.541   0.576   2.623 -0.3833 -0.1499 -0.1896
 2786ntf    nn314778   4.612   0.712   2.586 -0.7494  0.0127 -0.3044
 2786ntf    sn214779   4.605   0.795   2.454 -0.2585  0.3250 -0.1389
 2786ntf    cn114780   4.543   0.956   2.511  0.3044  0.3560  0.3901
 2786ntf    fn414781   4.565   0.457   2.868  0.2974 -0.3418 -0.1437
 2786ntf    fn414782   4.739   0.532   2.758 -0.1113  0.3227  0.4944
 2786ntf    fn414783   4.606   0.661   2.863  0.6873 -0.3512  0.3332
 2786ntf    on514784   4.593   0.469   2.542  0.5693  0.3639 -0.2847
 2786ntf    on514785   4.399   0.582   2.646 -0.3331 -0.2592  0.1528
 2786ntf    on514786   4.515   0.752   2.350 -0.3795  0.3860 -0.0594
 2786ntf    on514787   4.734   0.826   2.398 -0.6768  0.7463 -0.8937
 2786ntf    fn414788   4.626   1.014   2.596  0.1320  0.8777  0.2066
 2786ntf    fn414789   4.522   1.039   2.410  0.3880  0.1595  0.2110
 2786ntf    fn414790   4.423   0.934   2.562  0.0689  0.9347  0.0894
 2787ntf    cn114791   4.310   2.142   6.572  0.3545 -0.2017  0.0962
 2787ntf    sn214792   4.333   2.317   6.614  0.1922 -0.1540 -0.0149
 2787ntf    nn314793   4.188   2.365   6.577  0.1657 -0.1800  0.0541
 2787ntf    sn214794   4.121   2.387   6.437 -0.1726  0.1517  0.2671
 2787ntf    cn114795   4.037   2.546   6.465 -0.2088  0.0974  0.4691
 2787ntf    fn414796   4.420   2.071   6.595  0.3033 -0.0802  0.7423
 2787ntf    fn414797   4.207   2.089   6.637  0.2851 -0.3210 -0.1095
 2787ntf    fn414798   4.270   2.126   6.447 -0.5724  0.0737  0.3483
 2787ntf    on514799   4.353   2.311   6.757 -0.0003  0.5232  0.0424
 2787ntf    on514800   4.438   2.361   6.527  0.0566 -0.3368 -0.2713
 2787ntf    on514801   4.023   2.282   6.420 -0.0052  0.1521 -0.7714
 2787ntf    on514802   4.203   2.413   6.321 -0.1531 -0.1877  0.2041
 2787ntf    fn414803   4.120   2.646   6.492  0.6264 -0.4379 -0.0381
 2787ntf    fn414804   3.983   2.586   6.351  0.2582 -0.1161  0.1697
 2787ntf    fn414805   3.942   2.546   6.556 -0.1106 -0.4978  0.5756
 2788ntf    cn114806   4.374   6.907   6.166  0.1619 -0.4172 -0.2360
 2788ntf    sn214807   4.523   6.873   6.264  0.0403 -0.0663  0.0770
 2788ntf    nn314808   4.480   6.738   6.332  0.2293  0.1441  0.6143
 2788ntf    sn214809   4.542   6.594   6.332  0.1324  0.0993 -0.2174
 2788ntf    cn114810   4.483   6.510   6.181 -0.0423 -0.2810  0.0595
 2788ntf    fn414811   4.341   6.823   6.070 -0.5169 -0.0489 -0.3388
 2788ntf    fn414812   4.270   6.911   6.248  0.8782 -0.2413  0.6829
 2788ntf    fn414813   4.379   7.028   6.114  0.1462 -0.3032  0.0241
 2788ntf    on514814   4.618   6.850   6.158  0.1174  0.1494  0.0998
 2788ntf    on514815   4.535   6.983   6.355 -0.1125  0.2628 -0.2985
 2788ntf    on514816   4.485   6.515   6.439  1.3056 -0.0596  0.3008
 2788ntf    on514817   4.685   6.584   6.325  0.0819 -0.6552 -0.3086
 2788ntf    fn414818   4.353   6.495   6.166 -0.1120  0.1635  0.2003
 2788ntf    fn414819   4.524   6.586   6.081  0.6959  0.2569  0.7507
 2788ntf    fn414820   4.534   6.389   6.165 -0.1154 -0.3010 -0.0203
 2789ntf    cn114821   0.660   4.970   1.435 -0.0444  0.6004 -0.3621
 2789ntf    sn214822   0.677   5.121   1.535  0.0147  0.2069  0.2278
 2789ntf    nn314823   0.543   5.186   1.485  0.0521 -0.6730 -1.0835
 2789ntf    sn214824   0.511   5.313   1.399 -0.1715 -0.0916 -0.1538
 2789ntf    cn114825   0.347   5.265   1.336 -0.0871 -0.0416 -0.4144
 2789ntf    fn414826   0.558   4.895   1.472  0.2396  0.4349  0.0999
 2789ntf    fn414827   0.638   5.007   1.310 -0.6371  0.2396 -0.3692
 2789ntf    fn414828   0.769   4.895   1.439 -0.1563  0.4395 -0.2938
 2789ntf    on514829   0.676   5.069   1.669  0.4479 -0.2943  0.0406
 2789ntf    on514830   0.802   5.179   1.492 -0.1597  0.0042 -0.5709
 2789ntf    on514831   0.589   5.330   1.279 -0.3410 -0.2158 -0.2811
 2789ntf    on514832   0.482   5.431   1.478 -0.5938 -0.4132  0.1766
 2789ntf    fn414833   0.262   5.247   1.436 -0.2555  0.6979 -0.4138
 2789ntf    fn414834   0.296   5.359   1.258  0.2627 -0.1001 -0.7143
 2789ntf    fn414835   0.352   5.152   1.268 -0.0541 -0.2166 -0.1235
 2790ntf    cn114836   6.442   5.077   0.847 -0.4368 -0.4045  0.0972
 2790ntf    sn214837   6.378   5.004   0.693 -0.0911  0.2470 -0.3620
 2790ntf    nn314838   6.434   4.859   0.711 -0.0413  0.3063 -0.0259
 2790ntf    sn214839   6.367   4.741   0.790  0.0447  0.1409 -0.1987
 2790ntf    cn114840   6.512   4.667   0.871 -0.1646 -0.1122 -0.0523
 2790ntf    fn414841   6.373   5.189   0.859  0.1882  0.0173 -0.2274
 2790ntf    fn414842   6.433   5.008   0.960  0.0630 -0.5945  0.0240
 2790ntf    fn414843   6.568   5.117   0.843 -0.4237 -0.4601 -0.0568
 2790ntf    on514844   6.236   5.027   0.710 -0.1151 -0.2634  0.1809
 2790ntf    on514845   6.436   5.083   0.588 -0.0944  0.5844 -0.1132
 2790ntf    on514846   6.321   4.641   0.696  0.1928 -0.4946  0.3999
 2790ntf    on514847   6.266   4.776   0.887 -0.0108  0.0289 -0.2147
 2790ntf    fn414848   6.582   4.596   0.785 -0.2056 -0.2789  0.0512
 2790ntf    fn414849   6.585   4.762   0.926 -0.1383 -0.0148 -0.2530
 2790ntf    fn414850   6.475   4.587   0.970  0.0435  0.2069  0.2862
 2791ntf    cn114851   4.427   4.089   3.798 -0.2575  0.1995  0.2322
 2791ntf    sn214852   4.452   4.004   3.639 -0.4672  0.0961  0.2543
 2791ntf    nn314853   4.321   3.916   3.639 -0.2559 -0.2186  0.3471
 2791ntf    sn214854   4.295   3.767   3.599 -0.2860 -0.1716  0.1921
 2791ntf    cn114855   4.153   3.789   3.487 -0.0552  0.1084 -0.0490
 2791ntf    fn414856   4.524   4.177   3.813  0.2548 -0.3002 -0.1166
 2791ntf    fn414857   4.313   4.156   3.794 -0.0316  0.6321  0.9172
 2791ntf    fn414858   4.422   4.006   3.901 -0.2205  0.2036  0.2371
 2791ntf    on514859   4.447   4.109   3.540 -0.3087 -0.1410 -0.0067
 2791ntf    on514860   4.581   3.943   3.656  0.1986  1.3744 -0.0989
 2791ntf    on514861   4.252   3.691   3.713 -0.2941  0.4039  0.5754
 2791ntf    on514862   4.398   3.705   3.519  0.0727  0.6346  0.0129
 2791ntf    fn414863   4.089   3.674   3.471  0.3729 -0.1600  0.1346
 2791ntf    fn414864   4.054   3.863   3.534 -0.1216  0.2170 -0.3578
 2791ntf    fn414865   4.189   3.837   3.370 -0.2017  0.9086  0.2307
 2792ntf    cn114866   4.689   5.814   2.764  0.0803  0.0562  0.1608
 2792ntf    sn214867   4.841   5.841   2.669 -0.1060  0.1159 -0.1213
 2792ntf    nn314868   4.784   5.848   2.523  0.2300  0.3785 -0.2419
 2792ntf    sn214869   4.854   5.799   2.391  0.1003 -0.1019 -0.1356
 2792ntf    cn114870   4.988   5.919   2.366  0.1756 -0.1455  0.0550
 2792ntf    fn414871   4.655   5.686   2.777 -0.2511  0.0737 -0.5092
 2792ntf    fn414872   4.700   5.865   2.886 -0.4211  0.0244  0.2252
 2792ntf    fn414873   4.579   5.861   2.708 -0.0137 -0.1817  0.1416
 2792ntf    on514874   4.882   5.972   2.714  0.8628 -0.0885 -0.3993
 2792ntf    on514875   4.909   5.721   2.712 -0.2907 -0.0485 -0.2893
 2792ntf    on514876   4.760   5.827   2.285  0.2404 -0.2685 -0.3029
 2792ntf    on514877   4.924   5.673   2.394 -0.2144 -0.2747  0.0441
 2792ntf    fn414878   5.040   5.899   2.246 -0.1455 -0.2466 -0.0697
 2792ntf    fn414879   4.940   6.040   2.388  0.0280 -0.2436  0.2695
 2792ntf    fn414880   5.092   5.907   2.447  0.1772  0.5032  0.1547
 2793ntf    cn114881   0.485   2.374   7.095  0.0795  0.0134  0.0867
 2793ntf    sn214882   0.554   2.426   7.255 -0.2738  0.1264  0.2032
 2793ntf    nn314883   0.531   2.294   7.337  0.4043 -0.2425 -0.1963
 2793ntf    sn214884   0.398   2.244   7.404  0.2383  0.2089 -0.1870
 2793ntf    cn114885   0.459   2.083   7.461 -0.2813  0.1251  0.1385
 2793ntf    fn414886   0.361   2.328   7.102  0.0609  0.0127 -0.2545
 2793ntf    fn414887   0.478   2.476   7.011  0.1087 -0.4370 -0.4650
 2793ntf    fn414888   0.557   2.279   7.039  0.2319  0.0090  0.2888
 2793ntf    on514889   0.695   2.440   7.231 -0.3948  0.3632 -0.3779
 2793ntf    on514890   0.476   2.537   7.305 -0.2540  0.3344 -0.2244
 2793ntf    on514891   0.294   2.203   7.314 -0.0399 -0.6940  0.5258
 2793ntf    on514892   0.367   2.315   7.526  0.4890  0.1801 -0.1038
 2793ntf    fn414893   0.499   2.013   7.356  0.0189  0.5468 -0.0327
 2793ntf    fn414894   0.564   2.091   7.542 -0.0776  0.1168 -0.1222
 2793ntf    fn414895   0.375   2.002   7.523  0.0051 -0.0308  0.3282
 2794ntf    cn114896   4.300   0.360   4.732  0.1093 -0.1265 -0.4552
 2794ntf    sn214897   4.141   0.299   4.796  0.1752  0.3541  0.1784
 2794ntf    nn314898   4.143   0.154   4.737  1.0388  0.6059 -0.4230
 2794ntf    sn214899   4.100   0.097   4.596  0.3677  0.3941 -0.1364
 2794ntf    cn114900   3.944   0.017   4.642  0.5159  0.1149 -0.1193
 2794ntf    fn414901   4.409   0.290   4.758 -0.0732 -0.3157 -0.1865
 2794ntf    fn414902   4.293   0.371   4.601  0.1318  0.0905 -0.4396
 2794ntf    fn414903   4.316   0.485   4.774 -0.4218 -0.0685 -0.4157
 2794ntf    on514904   4.145   0.313   4.940  0.7642 -0.1981  0.2219
 2794ntf    on514905   4.051   0.387   4.726 -0.3316 -0.2873  0.0158
 2794ntf    on514906   4.182  -0.018   4.568  0.7302  0.4504  0.6447
 2794ntf    on514907   4.068   0.188   4.489  0.2125 -0.5284 -0.8769
 2794ntf    fn414908   3.962  -0.056   4.751  0.2975  0.3458  0.0731
 2794ntf    fn414909   3.845   0.094   4.684  0.3791 -0.5150  0.7623
 2794ntf    fn414910   3.895  -0.063   4.549 -0.1821  0.5141 -0.1023
 2795ntf    cn114911   6.899   2.177   0.875 -0.2569 -0.6467 -0.1326
 2795ntf    sn214912   6.751   2.203   0.978 -0.1263  0.0160 -0.1052
 2795ntf    nn314913   6.681   2.307   0.884  0.2388 -0.1244 -0.5362
 2795ntf    sn214914   6.684   2.463   0.903 -0.2037 -0.1381 -0.3504
 2795ntf    cn114915   6.679   2.525   0.732  0.1343  0.2288 -0.2294
 2795ntf    fn414916   6.867   2.145   0.751  0.8740  0.6132 -0.7749
 2795ntf    fn414917   6.981   2.281   0.875 -0.5178 -0.4339  0.4254
 2795ntf    fn414918   6.976   2.076   0.912  0.1000 -0.2498  0.2348
 2795ntf    on514919   6.677   2.079   0.970  0.3486 -0.2384 -0.6731
 2795ntf    on514920   6.793   2.246   1.109 -0.4671 -0.3732  0.1329
 2795ntf    on514921   6.813   2.516   0.940 -0.2197 -0.5180  0.2734
 2795ntf    on514922   6.569   2.523   0.966 -0.0665 -0.0394 -0.1918
 2795ntf    fn414923   6.732   2.646   0.730 -0.2387  0.4157  0.4734
 2795ntf    fn414924   6.748   2.449   0.649  0.2644  0.5021 -0.3726
 2795ntf    fn414925   6.561   2.536   0.673 -0.4814 -0.3784  0.8370
 2796ntf    cn114926   0.512   1.436   2.348 -0.2838  0.1436  0.1731
 2796ntf    sn214927   0.548   1.511   2.510  0.3604 -0.1013  0.1456
 2796ntf    nn314928   0.473   1.417   2.611  0.2611 -0.0871  0.0853
 2796ntf    sn214929   0.504   1.268   2.648 -0.4015 -0.2572 -0.0299
 2796ntf    cn114930   0.604   1.276   2.800 -0.1767 -0.1328 -0.1848
 2796ntf    fn414931   0.509   1.531   2.256  0.3681  0.4904  0.5056
 2796ntf    fn414932   0.608   1.354   2.309 -0.2450  0.3546 -0.1819
 2796ntf    fn414933   0.399   1.370   2.331  0.0581 -0.3991 -0.0204
 2796ntf    on514934   0.691   1.513   2.529  0.4773 -0.5377 -0.6454
 2796ntf    on514935   0.491   1.643   2.505 -0.2068 -0.3041  1.0652
 2796ntf    on514936   0.582   1.197   2.550 -0.4898  0.1364 -0.3883
 2796ntf    on514937   0.377   1.212   2.689 -0.2856  0.0391  0.7582
 2796ntf    fn414938   0.528   1.313   2.901  0.3641 -0.4566  0.3475
 2796ntf    fn414939   0.668   1.163   2.827  0.0738  0.0296 -0.0968
 2796ntf    fn414940   0.701   1.363   2.777 -0.5809  0.3552 -0.0539
 2797ntf    cn114941   4.266   6.152   4.772  0.4222  0.0893  0.3876
 2797ntf    sn214942   4.223   5.975   4.766 -0.3287  0.2724  0.3352
 2797ntf    nn314943   4.371   5.928   4.747 -0.2495  0.6741 -0.0834
 2797ntf    sn214944   4.478   5.883   4.854 -0.5458  0.4922  0.1375
 2797ntf    cn114945   4.599   5.804   4.744 -0.7679 -0.1666  0.3598
 2797ntf    fn414946   4.357   6.170   4.867  0.4274  0.0650  0.3869
 2797ntf    fn414947   4.321   6.196   4.660 -0.0818  0.1245  0.1531
 2797ntf    fn414948   4.163   6.229   4.805  0.6211  0.4634  0.1383
 2797ntf    on514949   4.161   5.952   4.894  0.0175 -0.0293  0.4507
 2797ntf    on514950   4.137   5.965   4.650 -0.5971 -0.0289  0.5576
 2797ntf    on514951   4.445   5.779   4.948 -0.2573  0.0013 -0.3041
 2797ntf    on514952   4.558   5.993   4.903  0.0193  0.2479 -0.2291
 2797ntf    fn414953   4.535   5.715   4.671 -0.2756 -0.7322  0.6131
 2797ntf    fn414954   4.669   5.893   4.676 -0.2268 -0.3722  0.6472
 2797ntf    fn414955   4.685   5.734   4.816  0.0982  0.6767  0.1651
 2798ntf    cn114956   0.326   7.070   4.698 -0.3923 -0.0335 -0.3345
 2798ntf    sn214957   0.414   7.225   4.662 -0.0768 -0.1649 -0.1350
 2798ntf    nn314958   0.507   7.183   4.543  0.5375  0.2315  0.1995
 2798ntf    sn214959   0.646   7.112   4.559  0.3271 -0.1358  0.4156
 2798ntf    cn114960   0.767   7.240   4.513  0.4750 -0.6427 -0.6296
 2798ntf    fn414961   0.411   6.970   4.695 -0.1871  0.1414 -0.3661
 2798ntf    fn414962   0.267   7.070   4.817  0.0830  1.0402 -0.0862
 2798ntf    fn414963   0.227   7.049   4.613 -0.5487 -0.1548 -0.1238
 2798ntf    on514964   0.310   7.317   4.620  0.2987 -0.0045 -0.7125
 2798ntf    on514965   0.474   7.254   4.790  0.1319 -0.1636 -0.2330
 2798ntf    on514966   0.667   7.014   4.455 -0.1804  0.2844 -0.0936
 2798ntf    on514967   0.694   7.070   4.688 -0.1159 -0.1825  0.5683
 2798ntf    fn414968   0.757   7.348   4.588 -0.2455 -1.1674  0.0490
 2798ntf    fn414969   0.894   7.204   4.523  0.6208  0.0611  0.1639
 2798ntf    fn414970   0.749   7.286   4.390 -0.0210  0.3584 -0.1904
 2799ntf    cn114971   7.146   2.911   2.672 -0.3405  0.2405  0.2842
 2799ntf    sn214972   7.019   2.784   2.701 -0.1350  0.0264  0.2439
 2799ntf    nn314973   7.099   2.660   2.646 -0.2862 -0.0665  0.2320
 2799ntf    sn214974   7.055   2.510   2.648 -0.1446 -0.1159 -0.2099
 2799ntf    cn114975   7.193   2.436   2.741 -0.1233 -0.1625 -0.2791
 2799ntf    fn414976   7.254   2.884   2.742  0.4577  0.3199 -0.8850
 2799ntf    fn414977   7.184   2.917   2.545 -0.9598  0.7171  0.1114
 2799ntf    fn414978   7.109   3.033   2.707  0.3611  0.5424 -0.0076
 2799ntf    on514979   7.010   2.784   2.845  0.4887 -0.4627  0.2893
 2799ntf    on514980   6.909   2.822   2.617  0.6181  0.4225 -0.5854
 2799ntf    on514981   7.060   2.442   2.521 -0.4194  0.1826 -0.3833
 2799ntf    on514982   6.941   2.482   2.733  0.0073  0.2548  0.1162
 2799ntf    fn414983   7.226   2.507   2.847 -0.2479 -0.5479  0.0168
 2799ntf    fn414984   7.149   2.317   2.777  0.9332 -0.6476 -0.5712
 2799ntf    fn414985   7.302   2.427   2.667 -0.0354  0.3087 -0.2110
 2800ntf    cn114986   3.336   5.037   4.614  0.0306 -0.0249 -0.2290
 2800ntf    sn214987   3.313   5.087   4.440 -0.0590  0.0255 -0.2032
 2800ntf    nn314988   3.234   4.957   4.402 -0.3712  0.1643 -0.0335
 2800ntf    sn214989   3.298   4.817   4.374 -0.0960  0.2904 -0.0368
 2800ntf    cn114990   3.332   4.805   4.195  0.0185 -0.2064  0.0156
 2800ntf    fn414991   3.403   4.927   4.644 -0.0143 -0.1199 -0.4743
 2800ntf    fn414992   3.387   5.137   4.685 -0.0765 -0.2481  0.1605
 2800ntf    fn414993   3.218   5.015   4.669 -0.0936  0.7076 -0.1867
 2800ntf    on514994   3.235   5.208   4.448 -0.3823 -0.1908 -0.0471
 2800ntf    on514995   3.444   5.090   4.380 -0.0095 -0.4332 -0.1236
 2800ntf    on514996   3.197   4.714   4.386  0.0565  0.2078  0.5514
 2800ntf    on514997   3.426   4.786   4.432 -0.4095 -0.2435  0.3726
 2800ntf    fn414998   3.441   4.732   4.178  0.2022 -0.1415  0.8492
 2800ntf    fn414999   3.232   4.743   4.136  0.1665 -0.1268 -0.3164
 2800ntf    fn415000   3.348   4.924   4.140 -0.1862 -0.1736  0.0247
 2801ntf    cn115001   2.824   5.819   4.374  0.0452  0.0310  0.1120
 2801ntf    sn215002   2.940   5.899   4.489  0.1207 -0.3524  0.3036
 2801ntf    nn315003   2.923   5.795   4.606 -0.5965 -0.3028  0.2497
 2801ntf    sn215004   3.006   5.665   4.635 -0.1054  0.0004  0.2185
 2801ntf    cn115005   2.866   5.564   4.692  0.1078 -0.2666  0.2726
 2801ntf    fn415006   2.828   5.870   4.252  0.1228  0.0428  0.1200
 2801ntf    fn415007   2.843   5.689   4.359 -0.6073 -0.0329 -0.2124
 2801ntf    fn415008   2.697   5.833   4.408 -0.1698  0.0938 -0.7089
 2801ntf    on515009   3.068   5.897   4.422 -0.0288  0.2784 -0.0070
 2801ntf    on515010   2.884   6.031   4.508 -0.5271 -0.6194  0.2854
 2801ntf    on515011   3.084   5.682   4.755  0.2370  0.3762 -0.0532
 2801ntf    on515012   3.057   5.589   4.523  0.0958 -0.2520  0.4817
 2801ntf    fn415013   2.905   5.442   4.724 -0.2407 -0.4244  0.1039
 2801ntf    fn415014   2.800   5.615   4.794 -0.4159 -0.2014 -0.0941
 2801ntf    fn415015   2.776   5.555   4.595  0.3457 -0.0834  0.0334
 2802ntf    cn115016   2.064   2.707   4.357 -0.0462  0.3518 -0.0394
 2802ntf    sn215017   2.243   2.673   4.356 -0.0914  0.1177 -0.1107
 2802ntf    nn315018   2.298   2.819   4.374 -0.1446  0.0432  0.6991
 2802ntf    sn215019   2.285   2.941   4.277 -0.0048 -0.4923  0.0002
 2802ntf    cn115020   2.459   2.992   4.262 -0.1680  0.0997  0.1103
 2802ntf    fn415021   2.030   2.811   4.282 -0.0880  0.0287 -0.4716
 2802ntf    fn415022   1.992   2.607   4.309  0.4371  0.0049 -0.0510
 2802ntf    fn415023   2.031   2.730   4.483  0.0186  0.4134 -0.0328
 2802ntf    on515024   2.267   2.595   4.475  0.0458  1.0972  0.5072
 2802ntf    on515025   2.280   2.620   4.227 -1.5819 -0.0597 -0.4905
 2802ntf    on515026   2.216   3.048   4.345  0.4027  0.1681 -0.6062
 2802ntf    on515027   2.256   2.919   4.137 -0.7542  0.0405  0.0668
 2802ntf    fn415028   2.458   3.120   4.228  0.2976  0.1951  0.4434
 2802ntf    fn415029   2.524   2.993   4.378 -0.2786  0.1881  0.1716
 2802ntf    fn415030   2.531   2.929   4.171  0.0440  0.1004  0.2757
 2803ntf    cn115031   0.891   6.427   0.632 -0.2640 -0.0354 -0.3956
 2803ntf    sn215032   0.858   6.250   0.657  0.3123 -0.1044 -0.1010
 2803ntf    nn315033   0.803   6.215   0.514 -0.8589  0.0790  0.2933
 2803ntf    sn215034   0.782   6.079   0.439 -0.2447  0.0669  0.1355
 2803ntf    cn115035   0.608   6.064   0.492 -0.2743 -0.9244 -0.2112
 2803ntf    fn415036   0.952   6.464   0.521  0.4454  0.1209  0.0376
 2803ntf    fn415037   0.779   6.497   0.632 -0.2772 -0.0432 -1.2625
 2803ntf    fn415038   0.965   6.472   0.733  0.2188 -0.6033 -0.4890
 2803ntf    on515039   0.988   6.195   0.689  0.0781 -0.4515  0.2660
 2803ntf    on515040   0.756   6.248   0.759  0.1081  0.1014 -0.2994
 2803ntf    on515041   0.865   5.977   0.498  0.3965  0.8110  0.5240
 2803ntf    on515042   0.770   6.087   0.295  0.1554  0.2525  0.1118
 2803ntf    fn415043   0.540   5.967   0.433 -0.9040 -0.4728 -0.2361
 2803ntf    fn415044   0.606   6.051   0.623 -0.0376  0.5554 -0.0353
 2803ntf    fn415045   0.534   6.172   0.473  0.8895  0.1427  1.1030
 2804ntf    cn115046   2.173   5.173   6.512  0.2465  0.3931 -0.1373
 2804ntf    sn215047   2.108   5.014   6.452  0.2809  0.4581 -0.3487
 2804ntf    nn315048   1.974   5.013   6.534  0.3956  0.1069 -0.1638
 2804ntf    sn215049   1.838   4.945   6.496  0.2530  0.4904 -0.3500
 2804ntf    cn115050   1.756   5.092   6.429 -0.4305  0.1712 -0.2275
 2804ntf    fn415051   2.300   5.192   6.479  0.3857 -0.4196 -0.0908
 2804ntf    fn415052   2.103   5.267   6.451 -0.1388  0.3182  0.1822
 2804ntf    fn415053   2.165   5.180   6.644 -0.9817  0.0187 -0.1855
 2804ntf    on515054   2.084   5.036   6.312 -0.0876  0.5374 -0.2751
 2804ntf    on515055   2.212   4.922   6.491  0.2864  0.3728 -0.5698
 2804ntf    on515056   1.766   4.913   6.617  0.0227  0.5578 -0.4689
 2804ntf    on515057   1.827   4.846   6.391 -0.0808  0.6576 -0.4733
 2804ntf    fn415058   1.650   5.062   6.355 -0.5034  0.3821 -0.2101
 2804ntf    fn415059   1.729   5.182   6.522  0.7471 -0.0419  0.3339
 2804ntf    fn415060   1.851   5.157   6.364  0.2025 -0.3185  0.2018
 2805ntf    cn115061   0.115   0.209   2.856 -0.1602  0.0645 -0.0070
 2805ntf    sn215062   0.146   0.054   2.766 -0.4243  0.0488 -0.0727
 2805ntf    nn315063   0.003   0.009   2.721 -0.4949 -0.0379  0.2368
 2805ntf    sn215064  -0.060   0.049   2.582  0.3070  0.1755 -0.0664
 2805ntf    cn115065   0.024  -0.065   2.469 -0.4282 -0.3950 -0.0438
 2805ntf    fn415066   0.027   0.290   2.799  0.4827  0.6566 -0.1651
 2805ntf    fn415067   0.061   0.182   2.974 -0.0199 -0.6811 -0.1059
 2805ntf    fn415068   0.228   0.273   2.880 -0.0835 -0.0547 -0.0464
 2805ntf    on515069   0.240   0.090   2.663 -0.6609  0.1699 -0.2462
 2805ntf    on515070   0.186  -0.029   2.877 -0.4753  0.6754  0.4236
 2805ntf    on515071  -0.034   0.179   2.526  0.0970  0.1215 -0.2901
 2805ntf    on515072  -0.196   0.005   2.571  0.3424  0.0757 -0.1065
 2805ntf    fn415073   0.150  -0.027   2.449 -0.6151  0.0081 -0.4866
 2805ntf    fn415074   0.019  -0.191   2.509  0.4740 -0.3078  0.3778
 2805ntf    fn415075  -0.034  -0.070   2.350 -0.0558  0.9417 -0.3017
 2806ntf    cn115076   2.074   4.140   3.051 -0.1444  0.0225  0.2372
 2806ntf    sn215077   2.206   4.262   3.073 -0.1363  0.0412  0.0853
 2806ntf    nn315078   2.156   4.389   2.994 -0.1062 -0.0316 -0.0512
 2806ntf    sn215079   2.207   4.536   3.011 -0.0570 -0.0675  0.1184
 2806ntf    cn115080   2.187   4.604   2.843  0.2684 -0.1243  0.0548
 2806ntf    fn415081   1.971   4.186   3.119 -0.0906  0.5389 -0.0317
 2806ntf    fn415082   2.029   4.123   2.928  0.1477 -0.8371  0.2394
 2806ntf    fn415083   2.102   4.019   3.099 -0.0050 -0.1184 -0.1898
 2806ntf    on515084   2.211   4.277   3.216 -0.3798  0.0830  0.0884
 2806ntf    on515085   2.319   4.202   3.005 -0.3058 -0.3438  0.1472
 2806ntf    on515086   2.351   4.546   3.025  0.0296  0.2460 -0.8568
 2806ntf    on515087   2.125   4.611   3.102  0.0173 -0.1142  0.2234
 2806ntf    fn415088   2.172   4.735   2.835  0.3502 -0.1164  0.0311
 2806ntf    fn415089   2.298   4.584   2.774 -0.1571  0.0923 -0.7055
 2806ntf    fn415090   2.085   4.545   2.783  0.1892  0.0365  0.0296
 2807ntf    cn115091   3.644   3.667   4.510  0.0341  0.0786 -0.2923
 2807ntf    sn215092   3.682   3.619   4.339 -0.0039 -0.0289 -0.2706
 2807ntf    nn315093   3.674   3.463   4.361  0.3042  0.0076  0.1263
 2807ntf    sn215094   3.680   3.341   4.263 -0.0588 -0.0510  0.1765
 2807ntf    cn115095   3.520   3.267   4.309  0.0369  0.0894  0.7396
 2807ntf    fn415096   3.702   3.783   4.538  0.0741 -0.1525  0.6201
 2807ntf    fn415097   3.515   3.688   4.532  0.1491 -0.1066  0.5868
 2807ntf    fn415098   3.676   3.572   4.596 -0.4969 -0.1732 -0.3699
 2807ntf    on515099   3.581   3.675   4.254  0.1554 -0.0228 -0.4565
 2807ntf    on515100   3.820   3.656   4.320 -0.0773  0.6159  0.3820
 2807ntf    on515101   3.788   3.254   4.300 -0.5424 -0.6255  0.2566
 2807ntf    on515102   3.669   3.365   4.121 -0.1913 -0.1753  0.1657
 2807ntf    fn415103   3.538   3.167   4.392  0.4989 -0.4861 -0.0432
 2807ntf    fn415104   3.450   3.355   4.379 -0.0803  0.2726  0.3960
 2807ntf    fn415105   3.445   3.230   4.206  0.6336 -0.2742  0.4280
 2808ntf    cn115106   7.082   0.113   1.747  0.4150  0.0926 -0.0271
 2808ntf    sn215107   7.248   0.180   1.779  0.4993 -0.0509 -0.1660
 2808ntf    nn315108   7.289   0.244   1.642  0.2177  0.4552 -0.0141
 2808ntf    sn215109   7.332   0.392   1.609 -0.1385  0.4585 -0.4692
 2808ntf    cn115110   7.513   0.373   1.611 -0.1487  0.3728 -0.2603
 2808ntf    fn415111   7.079   0.042   1.636 -0.3447  0.1110 -0.0256
 2808ntf    fn415112   7.031   0.034   1.841  0.6092 -0.7599 -0.6355
 2808ntf    fn415113   6.995   0.212   1.732  0.1286 -0.1607 -0.0634
 2808ntf    on515114   7.216   0.269   1.887  0.1902 -0.1808 -0.1481
 2808ntf    on515115   7.330   0.067   1.817  0.1369 -0.3103 -0.1486
 2808ntf    on515116   7.301   0.499   1.700  0.0201  0.3616 -0.2998
 2808ntf    on515117   7.299   0.421   1.472 -0.3152 -0.3383 -0.5998
 2808ntf    fn415118   7.556   0.276   1.532 -0.7930  0.2788 -0.5024
 2808ntf    fn415119   7.589   0.472   1.565  0.7149 -0.1272  0.0629
 2808ntf    fn415120   7.555   0.349   1.734  0.2040 -0.3531 -0.5188
 2809ntf    cn115121   3.899   6.222   0.649 -0.1093 -0.2253 -0.0086
 2809ntf    sn215122   3.931   6.049   0.694  0.0447 -0.2756 -0.3060
 2809ntf    nn315123   4.045   6.002   0.598  0.3569  0.0994 -0.1187
 2809ntf    sn215124   4.198   6.036   0.609  0.3863 -0.0792  0.0403
 2809ntf    cn115125   4.271   5.883   0.674  0.0437 -0.1936  0.1583
 2809ntf    fn415126   3.803   6.290   0.710  0.3362  0.3518  0.0576
 2809ntf    fn415127   4.003   6.301   0.666 -0.2436 -0.0116 -0.1768
 2809ntf    fn415128   3.865   6.245   0.523  0.0521 -0.0265 -0.0167
 2809ntf    on515129   3.969   6.054   0.833 -0.2054 -0.0904 -0.2438
 2809ntf    on515130   3.801   5.997   0.660 -0.1422 -0.3763  0.5267
 2809ntf    on515131   4.231   6.128   0.715  0.4457 -0.3629  0.2690
 2809ntf    on515132   4.264   6.055   0.482  0.4405 -0.4549  0.0113
 2809ntf    fn415133   4.247   5.873   0.803 -0.0130 -0.8845  0.0963
 2809ntf    fn415134   4.217   5.779   0.613  0.2562  0.2948 -0.8961
 2809ntf    fn415135   4.401   5.879   0.646  0.0877  0.4878  0.2476
 2810ntf    cn115136   6.522   2.993   1.807  0.1112  0.1317 -0.1422
 2810ntf    sn215137   6.596   3.036   1.967  0.3328  0.0051 -0.2101
 2810ntf    nn315138   6.568   3.191   1.972 -0.3361 -0.1161 -0.1799
 2810ntf    sn215139   6.457   3.256   2.062 -0.0688 -0.0348  0.0925
 2810ntf    cn115140   6.553   3.266   2.216 -0.0459 -0.0466  0.0793
 2810ntf    fn415141   6.566   3.064   1.704  0.7775  0.0432  0.0741
 2810ntf    fn415142   6.536   2.864   1.778 -0.1062  0.0777 -0.0071
 2810ntf    fn415143   6.392   3.016   1.805  0.0527 -0.2052 -0.2652
 2810ntf    on515144   6.525   2.955   2.062 -0.1356  0.6371 -0.0194
 2810ntf    on515145   6.738   3.010   1.960  0.3551  0.0465  0.0811
 2810ntf    on515146   6.342   3.180   2.102 -0.4014  0.3918 -0.0425
 2810ntf    on515147   6.440   3.395   2.027 -0.2860 -0.0883 -0.0124
 2810ntf    fn415148   6.624   3.162   2.254  0.4204 -0.0280 -0.7179
 2810ntf    fn415149   6.637   3.369   2.217  0.3608 -0.3747  0.1039
 2810ntf    fn415150   6.474   3.275   2.322 -0.1132 -0.1355  0.0364
 2811ntf    cn115151   2.593   2.335   6.317 -0.2350 -0.4989 -0.2154
 2811ntf    sn215152   2.683   2.229   6.199  0.0590 -0.2109 -0.2508
 2811ntf    nn315153   2.596   2.103   6.230  0.4252 -0.3870  0.0790
 2811ntf    sn215154   2.610   1.979   6.325  0.0059 -0.3009  0.2577
 2811ntf    cn115155   2.699   1.853   6.228 -0.3292 -0.1804 -0.2056
 2811ntf    fn415156   2.608   2.292   6.441 -0.2623 -0.3466 -0.1598
 2811ntf    fn415157   2.628   2.462   6.306 -0.2524 -0.4207  0.5702
 2811ntf    fn415158   2.464   2.334   6.290 -0.2374 -0.1921 -0.2129
 2811ntf    on515159   2.635   2.277   6.072 -0.7112 -0.0050  0.1154
 2811ntf    on515160   2.821   2.231   6.242  0.0894 -0.6436 -0.3301
 2811ntf    on515161   2.495   1.901   6.366 -0.1996  0.1502  0.5402
 2811ntf    on515162   2.710   2.000   6.427  0.4728 -0.0463 -0.2439
 2811ntf    fn415163   2.656   1.844   6.103 -0.3417  0.1399 -0.2263
 2811ntf    fn415164   2.830   1.868   6.220 -0.3433  0.0491 -0.0051
 2811ntf    fn415165   2.686   1.733   6.283  0.3851  0.0015  0.3740
 2812ntf    cn115166   5.604   1.742   6.865  0.5488  0.6855 -0.1454
 2812ntf    sn215167   5.550   1.677   7.026 -0.0678  0.3145 -0.4966
 2812ntf    nn315168   5.396   1.708   7.031 -0.0972  0.1056 -0.0000
 2812ntf    sn215169   5.338   1.845   7.083  0.1408  0.2824 -0.1972
 2812ntf    cn115170   5.323   1.814   7.261  0.2207 -0.1252 -0.2588
 2812ntf    fn415171   5.716   1.682   6.831 -0.0054 -0.3510 -0.1938
 2812ntf    fn415172   5.520   1.707   6.769  0.4025 -0.2368  0.3059
 2812ntf    fn415173   5.618   1.874   6.868 -0.2425  0.7755  0.0732
 2812ntf    on515174   5.561   1.535   7.005  0.0053  0.2342  0.0571
 2812ntf    on515175   5.638   1.744   7.119 -0.9188 -0.3578  0.8285
 2812ntf    on515176   5.202   1.859   7.039  0.0937 -0.4832 -0.3155
 2812ntf    on515177   5.430   1.956   7.075 -0.3691  0.7649  0.5416
 2812ntf    fn415178   5.259   1.916   7.316  0.8792 -0.1863  0.6486
 2812ntf    fn415179   5.251   1.710   7.298  0.7031 -0.3529  0.0602
 2812ntf    fn415180   5.442   1.808   7.319 -0.0937 -0.1901  0.3932
 2813ntf    cn115181   6.108   1.745   2.680  0.2151  0.2330 -0.3768
 2813ntf    sn215182   6.265   1.838   2.678  0.2669  0.1617  0.0801
 2813ntf    nn315183   6.289   1.857   2.832 -0.4279  0.2547  0.1802
 2813ntf    sn215184   6.374   1.780   2.938 -0.3630 -0.1030 -0.1284
 2813ntf    cn115185   6.493   1.913   2.974 -0.2422 -0.3510  0.3967
 2813ntf    fn415186   6.001   1.816   2.710 -0.3429 -0.5072 -0.5993
 2813ntf    fn415187   6.080   1.682   2.567 -0.3467  0.3476 -0.3037
 2813ntf    fn415188   6.107   1.654   2.776 -0.2764  0.5274 -0.0989
 2813ntf    on515189   6.364   1.757   2.613  0.3981  0.2042  0.2281
 2813ntf    on515190   6.232   1.963   2.614  0.0024  0.3970  0.6716
 2813ntf    on515191   6.462   1.673   2.897 -0.3592 -0.4730  0.8192
 2813ntf    on515192   6.297   1.761   3.059 -0.6273 -0.3929 -0.3399
 2813ntf    fn415193   6.590   1.861   3.047  0.0192 -0.4447 -0.0170
 2813ntf    fn415194   6.550   1.964   2.867 -0.1099 -0.6016  0.3450
 2813ntf    fn415195   6.443   2.005   3.054 -0.0777 -0.0912  0.1984
 2814ntf    cn115196   2.505   4.261   7.117  0.1538 -0.2048 -0.0932
 2814ntf    sn215197   2.344   4.211   7.051  0.0418  0.1790 -0.1129
 2814ntf    nn315198   2.253   4.334   7.086 -0.2190 -0.1636  0.4343
 2814ntf    sn215199   2.160   4.419   6.991  0.2371  0.0706  0.1916
 2814ntf    cn115200   2.022   4.303   6.968  0.1744  0.2412 -0.3070
 2814ntf    fn415201   2.518   4.256   7.249 -0.5488  0.4103  0.0052
 2814ntf    fn415202   2.601   4.183   7.071  0.4523 -0.0822  0.3029
 2814ntf    fn415203   2.529   4.389   7.091  0.2768 -0.2392 -0.1495
 2814ntf    on515204   2.353   4.193   6.908 -0.2884  0.2997 -0.1512
 2814ntf    on515205   2.302   4.100   7.132 -0.2259  0.3258 -0.0468
 2814ntf    on515206   2.204   4.465   6.862 -0.0255  0.7658  0.3477
 2814ntf    on515207   2.097   4.528   7.060  0.2269  0.3097 -0.1919
 2814ntf    fn415208   2.068   4.181   6.944 -0.0402  0.0423  0.2669
 2814ntf    fn415209   1.949   4.287   7.078  0.2058 -0.2317 -0.3533
 2814ntf    fn415210   1.935   4.332   6.873 -0.1422 -0.4547 -0.2404
 2815ntf    cn115211   4.228   6.654   4.433  0.4216 -0.0629 -0.3982
 2815ntf    sn215212   4.069   6.633   4.346  0.1765  0.1695 -0.0059
 2815ntf    nn315213   4.126   6.581   4.210  0.0402  0.2402 -0.0898
 2815ntf    sn215214   4.156   6.658   4.076  0.0885  0.0715 -0.1757
 2815ntf    cn115215   4.007   6.617   3.980  0.0664 -0.1467 -0.0479
 2815ntf    fn415216   4.307   6.733   4.363 -0.0818  0.5770 -0.2495
 2815ntf    fn415217   4.209   6.707   4.552  0.1594 -0.3059 -0.3308
 2815ntf    fn415218   4.282   6.536   4.458  0.0056 -0.1140  0.2869
 2815ntf    on515219   4.002   6.525   4.414  1.2464 -0.1228  0.6113
 2815ntf    on515220   4.023   6.770   4.357  0.3593  0.2433 -0.1511
 2815ntf    on515221   4.268   6.597   4.009  0.3681 -0.4503  0.7401
 2815ntf    on515222   4.140   6.801   4.085 -0.1379  0.0458 -0.1640
 2815ntf    fn415223   3.987   6.705   3.884  0.7445 -0.4163 -0.4401
 2815ntf    fn415224   4.003   6.492   3.935  0.2457 -0.1361 -0.0958
 2815ntf    fn415225   3.899   6.628   4.055  0.2732  0.0065  0.2296
 2816ntf    cn115226   0.955   6.900   3.356  0.5205  0.0170 -0.4490
 2816ntf    sn215227   1.082   6.964   3.470  0.0332  0.0336  0.0892
 2816ntf    nn315228   1.209   6.902   3.400  0.3335  0.2692  0.4250
 2816ntf    sn215229   1.303   6.988   3.309 -0.0065  0.0682 -0.1208
 2816ntf    cn115230   1.366   6.870   3.186  0.1094 -0.0534  0.0549
 2816ntf    fn415231   0.955   6.768   3.349 -0.5988 -0.0126 -0.0459
 2816ntf    fn415232   0.836   6.927   3.405  0.7008  0.2935 -0.1565
 2816ntf    fn415233   0.954   6.950   3.233 -0.3955 -0.1927 -0.5342
 2816ntf    on515234   1.067   7.107   3.464  0.1367  0.0398 -0.0254
 2816ntf    on515235   1.045   6.895   3.591  0.5047 -0.3064  0.0446
 2816ntf    on515236   1.418   7.030   3.386 -0.2178  0.4161  0.0069
 2816ntf    on515237   1.232   7.082   3.226 -0.6082 -0.5819 -0.3459
 2816ntf    fn415238   1.426   6.774   3.254  0.1441  0.2340  0.4306
 2816ntf    fn415239   1.274   6.825   3.102  0.1959 -0.4056  0.1443
 2816ntf    fn415240   1.456   6.920   3.104  0.0414 -0.5339 -0.3168
 2817ntf    cn115241   7.062   1.267   1.081 -0.2203 -0.2415 -0.0420
 2817ntf    sn215242   7.084   1.439   1.134 -0.1740 -0.2739  0.0440
 2817ntf    nn315243   7.066   1.521   1.001  0.2271 -0.4773 -0.1376
 2817ntf    sn215244   6.929   1.575   0.947  0.3532 -0.0694 -0.0453
 2817ntf    cn115245   6.907   1.717   1.060 -0.3103 -0.1658 -0.0522
 2817ntf    fn415246   7.062   1.185   1.185  0.3721 -0.0151  0.1363
 2817ntf    fn415247   6.947   1.250   1.018 -0.0525 -0.2709 -0.3390
 2817ntf    fn415248   7.159   1.226   1.001 -0.3110 -0.2120 -0.1671
 2817ntf    on515249   6.987   1.455   1.240 -0.4233  0.0639 -0.2354
 2817ntf    on515250   7.224   1.431   1.170 -0.2209 -0.7109  0.1331
 2817ntf    on515251   6.803   1.507   0.963 -0.1684  0.6536 -0.9530
 2817ntf    on515252   6.939   1.642   0.820 -0.1022  0.2045  0.0605
 2817ntf    fn415253   6.876   1.675   1.182  0.0679 -0.1014  0.0653
 2817ntf    fn415254   7.013   1.795   1.073 -0.5934  0.1745  0.2264
 2817ntf    fn415255   6.798   1.789   1.040  0.0467  0.4486  0.2002
 2818ntf    cn115256   2.659   4.277   4.099  0.0317 -0.1729 -0.0327
 2818ntf    sn215257   2.658   4.130   4.206 -0.1590 -0.1464  0.0027
 2818ntf    nn315258   2.511   4.116   4.258  0.0153 -0.5753  0.3882
 2818ntf    sn215259   2.402   4.015   4.206 -0.0262 -0.2186 -0.2191
 2818ntf    cn115260   2.441   3.862   4.296  0.5211 -0.0253 -0.1186
 2818ntf    fn415261   2.588   4.265   3.989 -0.3167 -0.1451  0.1869
 2818ntf    fn415262   2.601   4.373   4.170 -0.0309 -0.3717  0.1879
 2818ntf    fn415263   2.782   4.313   4.066 -0.3341  0.8710 -0.2905
 2818ntf    on515264   2.712   4.029   4.119  0.4696  0.1976 -0.0126
 2818ntf    on515265   2.743   4.162   4.318  0.1801 -0.4594 -0.1651
 2818ntf    on515266   2.398   3.996   4.063  0.3929  0.0641 -0.2718
 2818ntf    on515267   2.281   4.057   4.272  0.2142 -0.1752  0.1930
 2818ntf    fn415268   2.562   3.815   4.271  0.6415  0.2255 -0.0042
 2818ntf    fn415269   2.439   3.876   4.427 -0.2524  0.0914 -0.1385
 2818ntf    fn415270   2.356   3.767   4.261 -0.3695  0.5621  0.4016
 2819ntf    cn115271   0.349   0.903   5.750 -0.0637  0.0125  0.4649
 2819ntf    sn215272   0.197   0.812   5.791 -0.2853  0.2678  0.2101
 2819ntf    nn315273   0.100   0.856   5.675 -0.2136 -0.7561 -0.2524
 2819ntf    sn215274  -0.043   0.921   5.672  0.0560 -0.1456 -0.0524
 2819ntf    cn115275  -0.025   1.010   5.515 -0.2353  0.2504  0.1359
 2819ntf    fn415276   0.340   1.032   5.778 -0.2153  0.1299 -0.1235
 2819ntf    fn415277   0.458   0.872   5.819 -0.1635  0.2427  0.7265
 2819ntf    fn415278   0.381   0.899   5.622  0.0925 -0.5408  0.5210
 2819ntf    on515279   0.230   0.672   5.785  0.7871  0.4842  0.7976
 2819ntf    on515280   0.173   0.854   5.927 -0.9862 -0.5955  0.3614
 2819ntf    on515281  -0.071   1.024   5.770  0.1173 -0.0451 -0.1404
 2819ntf    on515282  -0.154   0.838   5.633  0.3051 -0.1230 -0.8199
 2819ntf    fn415283  -0.129   1.081   5.474 -0.0646  0.5327  0.1830
 2819ntf    fn415284   0.076   1.095   5.502 -0.6456  0.7005 -0.1262
 2819ntf    fn415285  -0.005   0.919   5.421  0.0663  0.4859 -0.0322
 2820ntf    cn115286   4.285   3.538   7.067  0.2254  0.3951 -0.3471
 2820ntf    sn215287   4.145   3.498   6.959 -0.0872 -0.2320  0.2807
 2820ntf    nn315288   4.053   3.624   6.972  0.3540  0.0935  0.2700
 2820ntf    sn215289   3.922   3.650   7.054  0.0335  0.0729 -0.2303
 2820ntf    cn115290   3.880   3.818   6.998 -0.1756  0.0979  0.0013
 2820ntf    fn415291   4.303   3.669   7.076  0.0436  0.3633  0.6034
 2820ntf    fn415292   4.249   3.500   7.189 -0.4954  0.3234 -0.5767
 2820ntf    fn415293   4.400   3.483   7.031  0.0671 -0.2241  0.0654
 2820ntf    on515294   4.207   3.492   6.829 -0.0581 -0.4297  0.3029
 2820ntf    on515295   4.087   3.372   7.000  0.1208 -0.3597  0.1844
 2820ntf    on515296   3.932   3.655   7.198 -0.9412  0.0850 -0.1534
 2820ntf    on515297   3.804   3.587   7.000  0.0863  0.1986 -0.4954
 2820ntf    fn415298   3.983   3.901   7.001 -0.3144  0.2560  0.4922
 2820ntf    fn415299   3.835   3.822   6.874 -0.0929  0.6776 -0.0118
 2820ntf    fn415300   3.784   3.876   7.068  0.0543  0.7660 -0.2237
 2821ntf    cn115301   0.189   6.947   5.428 -0.0095  0.0620  0.0212
 2821ntf    sn215302   0.044   6.978   5.534  0.1927  0.3059  0.2298
 2821ntf    nn315303   0.044   6.838   5.606 -0.2722 -0.2681 -0.8467
 2821ntf    sn215304  -0.066   6.728   5.595 -0.0777 -0.5444 -0.1258
 2821ntf    cn115305  -0.014   6.642   5.746  0.1608 -0.0802  0.0560
 2821ntf    fn415306   0.181   6.833   5.362 -0.3141  0.0274  0.1146
 2821ntf    fn415307   0.202   7.035   5.330  0.8042 -0.0666  0.0033
 2821ntf    fn415308   0.301   6.955   5.498 -0.0759 -0.1072  0.1491
 2821ntf    on515309   0.083   7.087   5.619  0.4848  0.6243 -0.3029
 2821ntf    on515310  -0.067   7.002   5.446  0.1212 -0.2128  0.1727
 2821ntf    on515311  -0.033   6.626   5.498  0.0990 -0.8712  0.2747
 2821ntf    on515312  -0.205   6.761   5.618  0.1227  0.4147 -0.2883
 2821ntf    fn415313  -0.062   6.711   5.849 -0.5123 -0.0706 -0.2641
 2821ntf    fn415314  -0.069   6.522   5.750 -0.0440  0.0162  0.1762
 2821ntf    fn415315   0.117   6.639   5.767  0.2503 -0.4617 -0.5576
 2822ntf    cn115316   4.870   4.702   6.359 -0.0445 -0.1145  0.1214
 2822ntf    sn215317   4.771   4.821   6.262 -0.0504 -0.0312  0.2293
 2822ntf    nn315318   4.854   4.951   6.291 -0.0822 -0.0488  0.4001
 2822ntf    sn215319   4.853   5.074   6.193 -0.2376 -0.3486  0.0247
 2822ntf    cn115320   4.839   5.213   6.309 -0.1229 -0.2402 -0.0930
 2822ntf    fn415321   4.820   4.580   6.360  0.2321 -0.2312 -0.1522
 2822ntf    fn415322   4.991   4.684   6.308 -0.0103  0.1226  0.1192
 2822ntf    fn415323   4.884   4.743   6.484  0.8892  0.1561 -0.0627
 2822ntf    on515324   4.780   4.774   6.126 -0.2905 -0.0797  0.2310
 2822ntf    on515325   4.647   4.824   6.334 -0.1480 -0.0498  0.0625
 2822ntf    on515326   4.728   5.089   6.122 -0.1849 -0.0007  0.0047
 2822ntf    on515327   4.973   5.095   6.116 -0.5695  0.4147 -0.2917
 2822ntf    fn415328   4.720   5.232   6.361  0.1247  0.1397  0.3409
 2822ntf    fn415329   4.920   5.213   6.413 -0.0621  0.2223 -0.1370
 2822ntf    fn415330   4.877   5.324   6.247 -0.1155 -0.2386 -0.0854
 2823ntf    cn115331   4.521   5.215   1.738 -0.1929 -0.2930  0.1551
 2823ntf    sn215332   4.372   5.222   1.842 -0.1233  0.3484  0.2194
 2823ntf    nn315333   4.336   5.372   1.816  0.0509  0.2723 -0.4806
 2823ntf    sn215334   4.292   5.476   1.925  0.0258 -0.1170 -0.1187
 2823ntf    cn115335   4.443   5.508   2.021 -0.1910 -0.0729  0.2094
 2823ntf    fn415336   4.617   5.300   1.771 -0.2054 -0.2328  0.0363
 2823ntf    fn415337   4.576   5.096   1.755  0.4889  0.0989  0.7390
 2823ntf    fn415338   4.484   5.227   1.611 -0.4868 -0.2451  0.2460
 2823ntf    on515339   4.280   5.133   1.775  0.8041 -0.4974  0.0425
 2823ntf    on515340   4.424   5.184   1.971 -0.1700 -0.1572  0.0927
 2823ntf    on515341   4.194   5.433   2.022 -0.1835 -0.4654 -0.4755
 2823ntf    on515342   4.259   5.604   1.866 -0.0790 -0.0541  0.0761
 2823ntf    fn415343   4.485   5.399   2.083  0.4639 -0.1294 -0.3198
 2823ntf    fn415344   4.541   5.548   1.942 -0.3959 -0.3951 -0.2109
 2823ntf    fn415345   4.439   5.606   2.110  0.5381  0.1309  0.0213
 2824ntf    cn115346   1.829   3.907   6.143  0.0996  0.4352 -0.1492
 2824ntf    sn215347   1.649   3.895   6.166  0.0696  0.6897 -0.2425
 2824ntf    nn315348   1.619   3.812   6.035 -0.0565 -0.1992  0.3392
 2824ntf    sn215349   1.526   3.686   6.028 -0.4664  0.1224 -0.0744
 2824ntf    cn115350   1.643   3.550   6.060 -0.5687 -0.0397 -0.3935
 2824ntf    fn415351   1.885   3.787   6.138  0.3178  0.5227  0.1989
 2824ntf    fn415352   1.857   3.958   6.024  0.6568 -0.6231 -0.4898
 2824ntf    fn415353   1.888   3.978   6.238  0.7143  0.1696 -0.3244
 2824ntf    on515354   1.626   3.824   6.289  0.9631  0.7268 -0.0483
 2824ntf    on515355   1.604   4.031   6.173 -0.7820  0.3967  0.1386
 2824ntf    on515356   1.486   3.657   5.893 -0.0207  0.1535 -0.2146
 2824ntf    on515357   1.420   3.676   6.126 -0.1705 -0.1407  0.2238
 2824ntf    fn415358   1.735   3.534   5.966 -0.2368 -0.0519 -0.0692
 2824ntf    fn415359   1.704   3.577   6.174 -0.2350 -0.5937 -0.4397
 2824ntf    fn415360   1.601   3.426   6.076 -0.3577 -0.0391  0.1637
 2825ntf    cn115361   2.223   1.015   3.406  0.2425 -0.3343  0.7377
 2825ntf    sn215362   2.135   0.905   3.521  0.0568 -0.5229  0.4186
 2825ntf    nn315363   2.015   0.855   3.433 -0.0409  0.8460 -0.2451
 2825ntf    sn215364   1.880   0.802   3.492  0.3493  0.2692  0.1372
 2825ntf    cn115365   1.895   0.622   3.473 -0.1382  0.2063  0.3234
 2825ntf    fn415366   2.334   1.075   3.445  0.5165 -0.3034 -0.0720
 2825ntf    fn415367   2.253   0.948   3.296 -0.3161  0.6488 -0.0344
 2825ntf    fn415368   2.132   1.108   3.379  0.5953  0.0356  0.8251
 2825ntf    on515369   2.228   0.799   3.552  0.0682 -0.4376  0.6764
 2825ntf    on515370   2.107   1.000   3.626  0.0037  0.2286 -0.2629
 2825ntf    on515371   1.777   0.843   3.400 -0.0723  0.0697  0.5160
 2825ntf    on515372   1.851   0.831   3.631 -0.5962  0.4006 -0.0801
 2825ntf    fn415373   2.023   0.591   3.455 -0.0562  0.6942  0.0457
 2825ntf    fn415374   1.850   0.551   3.575  0.0125  0.0578  0.2877
 2825ntf    fn415375   1.839   0.580   3.361 -0.2759  0.2087  0.3921
 2826ntf    cn115376   6.129   3.792   6.062 -0.1999 -0.3464  0.0860
 2826ntf    sn215377   6.103   3.722   6.227 -0.2029 -0.1011  0.1903
 2826ntf    nn315378   6.174   3.583   6.210 -0.2075 -0.1839  0.8060
 2826ntf    sn215379   6.329   3.558   6.209 -0.2161 -0.2303  0.2136
 2826ntf    cn115380   6.364   3.468   6.364 -0.0037 -0.0324  0.2801
 2826ntf    fn415381   6.055   3.732   5.970  0.2608 -0.1375 -0.4305
 2826ntf    fn415382   6.100   3.921   6.054  0.7161 -0.1234  0.2150
 2826ntf    fn415383   6.254   3.784   6.021 -0.2283 -0.3167 -0.0076
 2826ntf    on515384   6.160   3.816   6.320  0.1793  0.4470 -0.5888
 2826ntf    on515385   5.960   3.703   6.230 -0.1998 -0.1564  0.0183
 2826ntf    on515386   6.403   3.679   6.234 -0.2246 -0.2127  0.1539
 2826ntf    on515387   6.375   3.472   6.103 -0.3338 -0.4271  0.3200
 2826ntf    fn415388   6.492   3.441   6.381 -0.0449 -0.4419 -0.0382
 2826ntf    fn415389   6.319   3.526   6.474  0.1036  0.6204 -0.0141
 2826ntf    fn415390   6.310   3.348   6.366 -0.2438  0.0643 -0.2417
 2827ntf    cn115391   1.344   4.905   5.112  0.1900  0.0916  0.4364
 2827ntf    sn215392   1.428   4.857   4.957  0.1670  0.3781  0.3336
 2827ntf    nn315393   1.583   4.869   4.981  0.2278  0.0068  0.1300
 2827ntf    sn215394   1.680   4.991   4.963  0.1870  0.0413  0.1449
 2827ntf    cn115395   1.724   4.977   4.787 -0.2008 -1.2419  0.1372
 2827ntf    fn415396   1.432   4.970   5.187 -0.3147  1.1043  0.1663
 2827ntf    fn415397   1.236   4.980   5.100 -0.1325 -0.3420  0.6082
 2827ntf    fn415398   1.302   4.804   5.185  0.2108 -0.1637  0.0998
 2827ntf    on515399   1.395   4.717   4.938 -0.3807  0.5749 -0.2054
 2827ntf    on515400   1.384   4.941   4.849 -0.4492 -0.4138 -0.0435
 2827ntf    on515401   1.805   4.973   5.033  0.0850  0.2583  0.3839
 2827ntf    on515402   1.611   5.116   4.981  0.1024  0.0164 -0.0036
 2827ntf    fn415403   1.787   4.866   4.754  0.4834 -0.6283 -0.6368
 2827ntf    fn415404   1.619   4.988   4.708 -0.0199 -0.1454  0.0243
 2827ntf    fn415405   1.808   5.070   4.745 -0.5741 -0.8263  0.3029
 2828ntf    cn115406   4.052   2.200   2.918  0.1159  0.3248 -0.3032
 2828ntf    sn215407   3.918   2.079   2.939  0.0943  0.4274  0.1424
 2828ntf    nn315408   3.883   2.031   2.794 -0.2222 -0.1300  0.4023
 2828ntf    sn215409   3.970   1.947   2.694 -0.1136  0.2195  0.2048
 2828ntf    cn115410   3.969   2.047   2.542  0.6945 -0.0706  0.0031
 2828ntf    fn415411   4.171   2.143   2.907 -0.2902 -0.5616 -0.1271
 2828ntf    fn415412   4.031   2.265   2.804  0.6718  0.5035 -0.3072
 2828ntf    fn415413   4.068   2.282   3.020  0.3227  0.5881 -0.5443
 2828ntf    on515414   3.977   1.979   3.025 -0.7667 -0.1069  0.1229
 2828ntf    on515415   3.814   2.166   2.990 -0.1948  0.4117 -0.4085
 2828ntf    on515416   3.896   1.830   2.654 -0.0742  0.1620  0.3011
 2828ntf    on515417   4.111   1.930   2.720 -0.0140 -0.0669 -0.4925
 2828ntf    fn415418   4.042   1.988   2.448 -0.1586 -0.3218 -0.5123
 2828ntf    fn415419   3.852   2.070   2.485  0.5883  0.1495  0.3104
 2828ntf    fn415420   4.016   2.169   2.561  0.1789  0.0879  0.2720
 2829ntf    cn115421   2.855   3.694   6.330 -0.3816  0.1493 -0.0174
 2829ntf    sn215422   2.902   3.573   6.457 -0.1029  0.2340 -0.0390
 2829ntf    nn315423   3.013   3.490   6.383  0.1087  0.2457  0.2624
 2829ntf    sn215424   3.062   3.344   6.415  0.1248  0.1855 -0.0303
 2829ntf    cn115425   3.081   3.277   6.247 -0.0696  0.0401  0.0064
 2829ntf    fn415426   2.869   3.651   6.205  0.2296 -0.3955  0.2388
 2829ntf    fn415427   2.731   3.732   6.356 -0.6135 -0.2375 -0.5389
 2829ntf    fn415428   2.933   3.800   6.345 -0.4178  0.2361 -0.4037
 2829ntf    on515429   2.948   3.667   6.556  0.4250  0.4138 -0.4472
 2829ntf    on515430   2.786   3.493   6.484  0.1876 -0.0542  0.3528
 2829ntf    on515431   2.962   3.262   6.478  0.4650 -0.0625  0.1873
 2829ntf    on515432   3.201   3.330   6.450  0.2546 -0.5547 -0.8195
 2829ntf    fn415433   3.195   3.311   6.191 -0.1405  0.2873  0.0102
 2829ntf    fn415434   3.078   3.145   6.250 -0.1685  0.0465  0.2208
 2829ntf    fn415435   2.989   3.321   6.163  0.3972  0.5232 -0.2564
 2830ntf    cn115436   0.043   2.453   1.877  0.2771 -0.0248 -0.1261
 2830ntf    sn215437   0.124   2.366   1.739  0.3750  0.0203 -0.0976
 2830ntf    nn315438   0.127   2.494   1.649  0.1742  0.0083 -0.1230
 2830ntf    sn215439   0.244   2.523   1.547  0.0430 -0.1527 -0.3203
 2830ntf    cn115440   0.352   2.616   1.660  0.0800 -0.4626 -0.0966
 2830ntf    fn415441   0.127   2.533   1.941  0.5939  0.0243 -0.5933
 2830ntf    fn415442  -0.060   2.520   1.827  0.2672  0.1212  0.0890
 2830ntf    fn415443   0.011   2.369   1.974  1.1483  0.2923  0.4498
 2830ntf    on515444   0.246   2.321   1.801  0.4021 -0.0041 -0.1683
 2830ntf    on515445   0.021   2.271   1.705 -0.1139  0.6690 -0.4609
 2830ntf    on515446   0.208   2.629   1.457 -0.1003  0.2186  0.1661
 2830ntf    on515447   0.323   2.419   1.486  0.5001  0.0725 -0.1183
 2830ntf    fn415448   0.370   2.545   1.770 -0.0496 -0.0232  0.2129
 2830ntf    fn415449   0.466   2.643   1.599  0.0154 -0.1775 -0.0938
 2830ntf    fn415450   0.305   2.737   1.686  0.5186 -0.4748  0.8000
 2831ntf    cn115451   4.556   2.956   4.637 -0.1071 -0.2835  0.1223
 2831ntf    sn215452   4.670   3.090   4.684 -0.2281 -0.1578  0.0570
 2831ntf    nn315453   4.603   3.220   4.626 -0.3374 -0.1760  0.1417
 2831ntf    sn215454   4.559   3.241   4.477  0.3476 -0.1352 -0.0574
 2831ntf    cn115455   4.561   3.422   4.469 -0.4364 -0.1114  0.1837
 2831ntf    fn415456   4.430   2.984   4.665  0.0754  0.4411  0.2459
 2831ntf    fn415457   4.554   2.919   4.510 -0.2458 -0.2642  0.1192
 2831ntf    fn415458   4.603   2.861   4.716  0.4347 -0.6925 -0.6754
 2831ntf    on515459   4.663   3.085   4.828  0.3206  0.0402  0.0910
 2831ntf    on515460   4.799   3.057   4.630 -0.1897  0.0407  0.0268
 2831ntf    on515461   4.418   3.213   4.460  0.1654  0.5763  0.2857
 2831ntf    on515462   4.653   3.193   4.378  0.3965  1.0626 -0.6129
 2831ntf    fn415463   4.503   3.470   4.578  0.1055 -0.2842  0.5489
 2831ntf    fn415464   4.681   3.476   4.460 -0.6067  0.2880  0.2757
 2831ntf    fn415465   4.485   3.473   4.373  0.4472  0.4910 -0.2205
 2832ntf    cn115466   0.444   6.549   1.532 -0.0365  0.1568 -0.2477
 2832ntf    sn215467   0.487   6.391   1.611 -0.2869  0.3141  0.2085
 2832ntf    nn315468   0.600   6.340   1.514  0.0303  0.3789  0.5392
 2832ntf    sn215469   0.753   6.312   1.534 -0.0024  0.0926  0.3870
 2832ntf    cn115470   0.761   6.130   1.526  0.0340  0.1071  0.0950
 2832ntf    fn415471   0.417   6.540   1.402  0.3349  0.2145 -0.3297
 2832ntf    fn415472   0.334   6.594   1.590 -0.4906 -0.3527 -0.6981
 2832ntf    fn415473   0.537   6.640   1.550  0.2384 -0.2763  0.5480
 2832ntf    on515474   0.525   6.435   1.743  0.2292  0.0013  0.1674
 2832ntf    on515475   0.370   6.309   1.597 -0.0295 -0.0390  0.1207
 2832ntf    on515476   0.809   6.349   1.661  0.5086  0.2012  0.1316
 2832ntf    on515477   0.830   6.354   1.420 -0.1931  0.4209  0.3779
 2832ntf    fn415478   0.878   6.070   1.517 -0.0421 -0.0264 -0.0110
 2832ntf    fn415479   0.694   6.076   1.626 -0.1975  0.1076 -0.0605
 2832ntf    fn415480   0.696   6.099   1.415  0.0039 -0.0964  0.1690
 2833ntf    cn115481   1.536   5.408   2.670  0.1652  0.0790  0.0446
 2833ntf    sn215482   1.609   5.572   2.698  0.1636  0.0652  0.1272
 2833ntf    nn315483   1.761   5.531   2.703  0.1141 -0.1433 -0.0920
 2833ntf    sn215484   1.888   5.591   2.634  0.0919 -0.0113 -0.0191
 2833ntf    cn115485   1.915   5.459   2.512 -0.5369  0.2530 -0.4533
 2833ntf    fn415486   1.581   5.336   2.568  0.2864  0.2315 -0.0110
 2833ntf    fn415487   1.546   5.329   2.775 -0.0041  0.0617  0.0476
 2833ntf    fn415488   1.406   5.417   2.649  0.0423  0.0425  0.7544
 2833ntf    on515489   1.568   5.655   2.588  0.3707  0.0779  0.0603
 2833ntf    on515490   1.572   5.609   2.833  0.5405  0.6689  0.0685
 2833ntf    on515491   2.004   5.595   2.719 -0.3238  0.7768  0.5240
 2833ntf    on515492   1.863   5.710   2.555  0.6954  0.0759 -0.0882
 2833ntf    fn415493   1.910   5.338   2.566  0.4549  0.1517 -0.5675
 2833ntf    fn415494   1.830   5.457   2.411 -0.1431 -0.8911 -0.7807
 2833ntf    fn415495   2.029   5.468   2.446 -0.2925  0.6713  0.0200
 2834ntf    cn115496   7.009   2.285   4.277 -0.1176  0.0200 -0.2219
 2834ntf    sn215497   6.894   2.151   4.318  0.1831 -0.2157 -0.1464
 2834ntf    nn315498   6.766   2.237   4.350  0.2486 -0.1600 -0.0319
 2834ntf    sn215499   6.642   2.210   4.442  0.2901  0.2001  0.1307
 2834ntf    cn115500   6.647   2.367   4.534  0.0622  0.4586 -0.2933
 2834ntf    fn415501   7.131   2.237   4.292 -0.2147 -0.1104  0.1684
 2834ntf    fn415502   7.005   2.318   4.149  0.3510 -0.2063 -0.2988
 2834ntf    fn415503   6.997   2.398   4.345  0.5934  0.3188 -0.5753
 2834ntf    on515504   6.891   2.067   4.201 -0.1685 -0.4254  0.0104
 2834ntf    on515505   6.963   2.092   4.431  0.0945  0.4311  0.2532
 2834ntf    on515506   6.655   2.108   4.543 -0.3134 -0.1580 -0.1430
 2834ntf    on515507   6.521   2.232   4.366  0.4906 -0.2673 -0.3383
 2834ntf    fn415508   6.682   2.463   4.451  0.3021  0.3533 -0.3138
 2834ntf    fn415509   6.525   2.401   4.573  0.2173  0.2839  0.3530
 2834ntf    fn415510   6.724   2.367   4.641 -0.4193  0.6949  0.0543
 2835ntf    cn115511   6.037   4.248   2.185 -0.0179  0.2893  0.4903
 2835ntf    sn215512   6.212   4.293   2.199  0.0840  0.0152  0.1232
 2835ntf    nn315513   6.268   4.157   2.254  0.0618 -0.3053 -0.6238
 2835ntf    sn215514   6.422   4.133   2.274  0.0017 -0.4432 -0.3139
 2835ntf    cn115515   6.449   4.016   2.137  0.3404 -0.1888 -0.4645
 2835ntf    fn415516   5.975   4.210   2.295 -0.2495  0.4589  0.4188
 2835ntf    fn415517   5.963   4.348   2.139  0.1168  0.3181  0.3368
 2835ntf    fn415518   6.017   4.150   2.098  0.3127  0.6753 -0.0295
 2835ntf    on515519   6.254   4.312   2.062 -0.1221 -0.5171 -0.0152
 2835ntf    on515520   6.215   4.403   2.292 -0.1258  0.6301 -0.5774
 2835ntf    on515521   6.444   4.061   2.397 -0.1286 -0.4047 -0.2676
 2835ntf    on515522   6.505   4.248   2.251 -0.3178 -0.2258 -0.3962
 2835ntf    fn415523   6.425   4.064   2.016 -0.0081 -0.3023 -0.4423
 2835ntf    fn415524   6.575   3.977   2.134  0.4204  0.0350 -0.1406
 2835ntf    fn415525   6.366   3.914   2.145 -0.4159  0.4470 -0.0058
 2836ntf    cn115526   6.315   0.872   2.908 -0.5602 -0.0283 -0.3055
 2836ntf    sn215527   6.340   0.694   2.940  0.3058  0.1191 -0.1484
 2836ntf    nn315528   6.201   0.664   3.005  0.4623 -0.0529  0.1032
 2836ntf    sn215529   6.090   0.571   2.944  0.0959  0.3457  0.1576
 2836ntf    cn115530   6.171   0.410   2.969 -0.0381  0.2139 -0.2449
 2836ntf    fn415531   6.235   0.892   2.804 -0.5092 -0.1980 -0.3781
 2836ntf    fn415532   6.279   0.940   3.015  0.0657 -0.3594  0.1178
 2836ntf    fn415533   6.431   0.922   2.868 -0.2073 -0.3012  0.3566
 2836ntf    on515534   6.360   0.631   2.812  0.6790 -0.2877  0.1082
 2836ntf    on515535   6.443   0.678   3.040 -0.1854 -0.2681  0.2967
 2836ntf    on515536   6.072   0.574   2.801  0.3881 -0.6111  0.0935
 2836ntf    on515537   5.973   0.555   3.026  0.1074 -0.7074 -0.0154
 2836ntf    fn415538   6.203   0.395   3.097  0.4330  0.2335 -0.3589
 2836ntf    fn415539   6.085   0.316   2.935 -0.1657  0.1938  0.1300
 2836ntf    fn415540   6.285   0.383   2.908  0.1859 -0.0496  0.2768
 2837ntf    cn115541   1.039   6.765   4.585 -0.2480 -0.2975  0.3063
 2837ntf    sn215542   1.212   6.708   4.586 -0.0986  0.1308 -0.4030
 2837ntf    nn315543   1.269   6.808   4.480 -0.0547  0.5724  0.0346
 2837ntf    sn215544   1.379   6.789   4.369  0.0622  0.0832  0.2292
 2837ntf    cn115545   1.264   6.779   4.228  0.0595  0.0902  0.2312
 2837ntf    fn415546   0.964   6.676   4.649 -0.4587 -0.0214  0.4438
 2837ntf    fn415547   1.026   6.885   4.638  0.6112  0.2292 -0.6630
 2837ntf    fn415548   0.982   6.766   4.465 -0.2881  0.5259  0.3303
 2837ntf    on515549   1.264   6.742   4.716 -0.2998 -0.1710 -0.2417
 2837ntf    on515550   1.200   6.569   4.548  0.4895 -0.0552  0.0807
 2837ntf    on515551   1.439   6.659   4.382 -0.1206  0.0280  0.5335
 2837ntf    on515552   1.463   6.904   4.343  0.3410 -0.2226 -0.2378
 2837ntf    fn415553   1.213   6.899   4.205  0.3867  0.0951 -0.4787
 2837ntf    fn415554   1.321   6.737   4.116  0.3150 -0.3806  0.5315
 2837ntf    fn415555   1.158   6.706   4.257  0.3335 -0.4067 -0.0189
 2838ntf    cn115556   3.947   1.372   1.257 -0.0193 -0.0566  0.2607
 2838ntf    sn215557   3.853   1.525   1.286  0.0132  0.0541 -0.2055
 2838ntf    nn315558   3.811   1.576   1.144 -0.5224  0.3744  0.0649
 2838ntf    sn215559   3.886   1.669   1.043 -0.0456 -0.1932 -0.1105
 2838ntf    cn115560   3.885   1.567   0.893 -0.2218 -0.0772 -0.1891
 2838ntf    fn415561   4.057   1.393   1.187  0.1744 -0.1217  0.5441
 2838ntf    fn415562   3.977   1.313   1.371  0.1560 -0.5936 -0.0594
 2838ntf    fn415563   3.872   1.285   1.191 -0.0754 -0.0998  0.3812
 2838ntf    on515564   3.738   1.484   1.362  0.0646  0.3022  0.0089
 2838ntf    on515565   3.948   1.612   1.351  0.0232 -0.1441  0.0449
 2838ntf    on515566   4.027   1.693   1.061  0.0006 -0.6885  0.1876
 2838ntf    on515567   3.812   1.786   1.003 -0.5152 -0.6538 -0.6020
 2838ntf    fn415568   3.901   1.442   0.934 -0.0403  0.0630  0.1697
 2838ntf    fn415569   3.766   1.566   0.835 -0.5678  0.1487  0.5106
 2838ntf    fn415570   3.983   1.594   0.807  0.1159  0.3120  0.3166
 2839ntf    cn115571   2.966   3.976   5.171 -0.1618 -0.1472  0.0098
 2839ntf    sn215572   2.815   3.880   5.204 -0.0908 -0.1375  0.3692
 2839ntf    nn315573   2.746   3.991   5.291  0.3249  0.3842  0.0405
 2839ntf    sn215574   2.638   4.091   5.236 -0.0514 -0.0544 -0.0237
 2839ntf    cn115575   2.491   3.984   5.225 -0.2847  0.3049 -0.4346
 2839ntf    fn415576   3.047   3.984   5.276  0.1411 -0.1476 -0.2222
 2839ntf    fn415577   3.041   3.926   5.074 -0.3407 -0.0958 -0.1550
 2839ntf    fn415578   2.934   4.101   5.146  0.7505  0.0863 -0.0388
 2839ntf    on515579   2.762   3.858   5.072 -0.1431  0.7084  0.2408
 2839ntf    on515580   2.862   3.771   5.287 -0.0274  0.2916  0.9027
 2839ntf    on515581   2.658   4.134   5.100 -0.0524 -0.4053 -0.1377
 2839ntf    on515582   2.608   4.189   5.337 -0.1701  0.1002 -0.2072
 2839ntf    fn415583   2.497   3.905   5.119  0.2480 -0.3567  0.0752
 2839ntf    fn415584   2.470   3.915   5.336  0.0273  0.1869 -0.4489
 2839ntf    fn415585   2.380   4.056   5.226 -0.4696  0.0184  0.1827
 2840ntf    cn115586   5.840   4.035   5.296 -0.2834  0.3342 -0.3231
 2840ntf    sn215587   5.910   3.896   5.203 -0.3451 -0.0745  0.2336
 2840ntf    nn315588   5.783   3.820   5.151 -0.2773  0.0132 -0.0673
 2840ntf    sn215589   5.762   3.765   5.006 -0.2241  0.1837 -0.1394
 2840ntf    cn115590   5.634   3.871   4.933 -0.2172  0.0049 -0.4160
 2840ntf    fn415591   5.766   4.106   5.213 -0.6018 -0.0820 -0.4011
 2840ntf    fn415592   5.761   3.980   5.387 -0.0571  0.1648 -0.2303
 2840ntf    fn415593   5.927   4.117   5.351  0.1671  0.0791 -0.6552
 2840ntf    on515594   5.986   3.958   5.097  0.5845 -1.0929  0.2834
 2840ntf    on515595   5.986   3.825   5.303 -0.0435  0.4732  0.3976
 2840ntf    on515596   5.699   3.637   5.029  0.0025  0.2172  0.7064
 2840ntf    on515597   5.866   3.769   4.906 -0.0928 -0.6964 -0.0453
 2840ntf    fn415598   5.524   3.865   5.006  0.2989 -0.5032  0.3486
 2840ntf    fn415599   5.670   3.998   4.948  0.0440 -0.1744  0.5317
 2840ntf    fn415600   5.620   3.851   4.803 -0.3917  0.0600 -0.4060
 2841ntf    cn115601   2.118   4.372   5.668  0.0911 -0.1984  0.1479
 2841ntf    sn215602   2.241   4.490   5.732  0.1807 -0.1891 -0.0424
 2841ntf    nn315603   2.369   4.399   5.729 -0.0798 -0.5574 -0.1533
 2841ntf    sn215604   2.406   4.296   5.842  0.1715 -0.4120 -0.1014
 2841ntf    cn115605   2.446   4.151   5.740  0.3197 -0.3713 -0.1021
 2841ntf    fn415606   2.001   4.435   5.668 -0.0137 -0.3934  0.0368
 2841ntf    fn415607   2.145   4.331   5.546  0.3456 -0.1031  0.1723
 2841ntf    fn415608   2.109   4.267   5.747  0.0408  0.0116  0.4235
 2841ntf    on515609   2.247   4.579   5.619  0.0283 -0.2344 -0.0872
 2841ntf    on515610   2.192   4.538   5.859  0.8017 -0.3948  0.2807
 2841ntf    on515611   2.292   4.255   5.920  0.3731 -0.3510  0.2282
 2841ntf    on515612   2.532   4.325   5.906  0.1832  0.2225 -0.4094
 2841ntf    fn415613   2.465   4.048   5.821 -0.0015 -0.3076  0.0564
 2841ntf    fn415614   2.352   4.115   5.653  0.1431 -0.0827 -0.0298
 2841ntf    fn415615   2.561   4.168   5.677  0.0730 -0.0611 -0.4693
 2842ntf    cn115616   6.303   2.299   1.636 -0.2784  0.5318  0.6302
 2842ntf    sn215617   6.373   2.170   1.744 -0.0511  0.0653 -0.0665
 2842ntf    nn315618   6.521   2.202   1.704  0.2376  0.1548  1.0415
 2842ntf    sn215619   6.636   2.113   1.646 -0.2415  0.0610  0.2268
 2842ntf    cn115620   6.740   2.110   1.794  0.1114  0.1788 -0.0171
 2842ntf    fn415621   6.327   2.425   1.669  0.2398  0.6265 -0.1073
 2842ntf    fn415622   6.349   2.298   1.512 -0.0540  0.1122  0.7141
 2842ntf    fn415623   6.171   2.299   1.622 -0.2727  0.1247  0.5443
 2842ntf    on515624   6.333   2.227   1.870 -0.2488  0.5659 -0.3518
 2842ntf    on515625   6.314   2.044   1.704  0.1840 -0.3153  0.7601
 2842ntf    on515626   6.735   2.173   1.560  0.3082 -0.6120  0.3796
 2842ntf    on515627   6.603   1.975   1.616  0.1531  0.2055 -0.9216
 2842ntf    fn415628   6.837   2.020   1.792  0.0939  0.1476  0.3749
 2842ntf    fn415629   6.806   2.223   1.811 -0.1923  0.3518  0.0183
 2842ntf    fn415630   6.665   2.086   1.900  0.6617  0.8518  0.5351
 2843ntf    cn115631   5.848   6.796   6.028  0.0902 -0.2569 -0.0595
 2843ntf    sn215632   5.866   6.617   6.052  0.1966 -0.2212  0.1338
 2843ntf    nn315633   5.859   6.612   6.208 -0.5900  0.9279  0.1554
 2843ntf    sn215634   5.746   6.556   6.302 -0.1626 -0.1496  0.0444
 2843ntf    cn115635   5.826   6.420   6.392  0.4628  0.1836 -0.0041
 2843ntf    fn415636   5.780   6.820   5.917  0.3058  0.1156 -0.1135
 2843ntf    fn415637   5.780   6.844   6.131  0.5772  0.3418 -0.0082
 2843ntf    fn415638   5.959   6.866   6.008 -0.2850  0.4115  0.1408
 2843ntf    on515639   5.755   6.560   5.979 -0.3097 -0.0288  0.7392
 2843ntf    on515640   6.003   6.592   6.017  0.3053  0.3532  0.1461
 2843ntf    on515641   5.628   6.498   6.243 -0.0304 -0.8493  0.4497
 2843ntf    on515642   5.718   6.653   6.404  0.5473  0.2694 -0.1479
 2843ntf    fn415643   5.837   6.314   6.314 -0.3830  0.3019 -0.2853
 2843ntf    fn415644   5.948   6.447   6.438  0.7697 -0.1717 -0.5989
 2843ntf    fn415645   5.761   6.387   6.502 -0.0274 -0.3581 -0.4495
 2844ntf    cn115646   3.581   4.209   6.597  0.6013  0.6110 -0.1676
 2844ntf    sn215647   3.560   4.093   6.736  0.2740  0.2550 -0.5108
 2844ntf    nn315648   3.406   4.069   6.719  0.2240  0.4401 -0.3136
 2844ntf    sn215649   3.308   4.051   6.841  0.2747 -0.0341 -0.3438
 2844ntf    cn115650   3.260   4.223   6.870 -0.7599 -0.4253  0.3126
 2844ntf    fn415651   3.564   4.137   6.487  0.3263  0.8408 -0.2758
 2844ntf    fn415652   3.499   4.313   6.595 -0.7774 -0.4416  0.0876
 2844ntf    fn415653   3.705   4.249   6.573  0.9514 -0.4756 -0.2393
 2844ntf    on515654   3.639   3.980   6.695 -0.3601 -0.4172  0.0870
 2844ntf    on515655   3.596   4.165   6.855 -0.2554  0.0826 -0.2429
 2844ntf    on515656   3.371   4.008   6.963  0.4393  0.4542 -0.2547
 2844ntf    on515657   3.187   3.977   6.811 -0.1752  0.5816 -0.0735
 2844ntf    fn415658   3.171   4.228   6.968 -0.2457 -0.2090  0.7747
 2844ntf    fn415659   3.356   4.305   6.909 -0.3142 -0.5122 -0.5965
 2844ntf    fn415660   3.191   4.284   6.774 -0.0786  0.2715  0.2535
 2845ntf    cn115661   6.322   0.235   4.950  0.0026 -0.1617 -0.2065
 2845ntf    sn215662   6.500   0.201   4.957  0.0992  0.3602 -0.0549
 2845ntf    nn315663   6.525   0.113   4.829 -0.3689  0.2872 -0.0977
 2845ntf    sn215664   6.595  -0.026   4.809 -0.3511  0.2452  0.2623
 2845ntf    cn115665   6.478  -0.150   4.873 -0.1319 -0.1279 -0.0584
 2845ntf    fn415666   6.282   0.317   5.047 -0.3409  0.0247 -0.5023
 2845ntf    fn415667   6.295   0.293   4.834 -0.3951  0.4373  0.1785
 2845ntf    fn415668   6.244   0.129   4.950  0.0894 -0.2262 -0.0011
 2845ntf    on515669   6.555   0.334   4.939  0.1166  0.2952 -0.5039
 2845ntf    on515670   6.528   0.140   5.084 -0.6065 -0.3944 -0.2544
 2845ntf    on515671   6.715  -0.051   4.885 -0.3480 -0.9676 -0.1264
 2845ntf    on515672   6.604  -0.061   4.670  0.0047  0.6875  0.1738
 2845ntf    fn415673   6.440  -0.130   4.998 -0.1750  0.3511 -0.1448
 2845ntf    fn415674   6.370  -0.150   4.796 -0.4611  0.2513  0.3972
 2845ntf    fn415675   6.518  -0.276   4.870  0.1164 -0.0451 -0.2192
 2846ntf    cn115676   6.263   0.022   1.388  0.1320 -0.1238 -0.4949
 2846ntf    sn215677   6.236   0.039   1.567 -0.0012 -0.1855 -0.5088
 2846ntf    nn315678   6.360   0.127   1.605 -0.5077  0.3015  0.0395
 2846ntf    sn215679   6.425   0.143   1.747 -0.4977 -0.1521  0.0857
 2846ntf    cn115680   6.583   0.053   1.732 -0.2811  0.2581 -0.0976
 2846ntf    fn415681   6.231   0.134   1.324 -1.3135 -0.8278 -1.0378
 2846ntf    fn415682   6.389  -0.011   1.365  0.1304 -0.2606 -0.3008
 2846ntf    fn415683   6.196  -0.080   1.338  0.0920 -0.4909  0.2949
 2846ntf    on515684   6.105   0.099   1.569  0.0738 -0.0305  0.7044
 2846ntf    on515685   6.235  -0.099   1.609 -1.1028  0.0203  0.1884
 2846ntf    on515686   6.349   0.079   1.852 -0.5285  0.0216  0.1686
 2846ntf    on515687   6.474   0.275   1.778  0.0922 -0.4620  0.5207
 2846ntf    fn415688   6.635   0.030   1.851  0.3861 -0.6084 -0.5516
 2846ntf    fn415689   6.570  -0.062   1.669 -0.2334 -0.0931  0.5273
 2846ntf    fn415690   6.672   0.123   1.663 -0.5011  0.1994 -0.4399
 2847ntf    cn115691   0.835   4.075   2.306 -0.0709  0.1754  0.2507
 2847ntf    sn215692   0.854   3.895   2.301 -0.1245  0.1728  0.1240
 2847ntf    nn315693   1.008   3.867   2.313 -0.1202  0.1818  0.0882
 2847ntf    sn215694   1.107   3.857   2.192  0.1615 -0.1243  0.3422
 2847ntf    cn115695   1.262   3.913   2.268  0.0876 -0.0877  0.4659
 2847ntf    fn415696   0.885   4.130   2.415 -0.7312  0.0914  0.6004
 2847ntf    fn415697   0.903   4.134   2.208 -0.3421  0.4409  0.2198
 2847ntf    fn415698   0.708   4.112   2.298 -0.0500  0.1835 -0.0804
 2847ntf    on515699   0.778   3.857   2.418  0.0739 -0.6421 -0.0075
 2847ntf    on515700   0.801   3.861   2.171  0.2436 -0.6416  0.1810
 2847ntf    on515701   1.077   3.945   2.081  0.6697  0.2373  0.4867
 2847ntf    on515702   1.140   3.722   2.154 -0.0026  0.0953 -0.6024
 2847ntf    fn415703   1.310   3.833   2.362  0.3128  0.1872  0.5871
 2847ntf    fn415704   1.362   3.919   2.181  0.4645 -0.1489  0.8880
 2847ntf    fn415705   1.247   4.033   2.323 -0.4118 -0.0946  0.3416
 2848ntf    cn115706   6.743   0.828   3.315  0.4357 -0.0194  0.4283
 2848ntf    sn215707   6.921   0.790   3.318  0.4539 -0.0225 -0.3368
 2848ntf    nn315708   6.935   0.803   3.474 -0.0281  0.5997 -0.3411
 2848ntf    sn215709   7.033   0.730   3.573 -0.2627 -0.0428 -0.5787
 2848ntf    cn115710   7.065   0.865   3.690  0.2770 -0.9165  0.2939
 2848ntf    fn415711   6.699   0.856   3.193 -0.0920  0.2795  0.6856
 2848ntf    fn415712   6.671   0.736   3.377 -0.6704  0.3720 -0.2597
 2848ntf    fn415713   6.723   0.940   3.383  0.2811  0.1168  0.1618
 2848ntf    on515714   6.917   0.659   3.259 -0.3834  0.1791 -0.7335
 2848ntf    on515715   6.979   0.909   3.260  0.3046  0.2978  0.1612
 2848ntf    on515716   7.165   0.695   3.525 -0.1791  0.1804 -0.5137
 2848ntf    on515717   6.966   0.639   3.662 -0.4686  0.5499 -0.1193
 2848ntf    fn415718   6.951   0.917   3.733  0.2578 -0.2000 -0.6060
 2848ntf    fn415719   7.131   0.821   3.796  0.5347 -0.3955  0.3566
 2848ntf    fn415720   7.128   0.961   3.624  0.1712 -0.7828  0.3876
 2849ntf    cn115721   6.232   3.370   0.819  0.0374 -0.0910  0.3546
 2849ntf    sn215722   6.191   3.465   0.670  0.6811  0.0986  0.2948
 2849ntf    nn315723   6.177   3.604   0.740  0.0168  0.1996 -0.0332
 2849ntf    sn215724   6.160   3.745   0.672 -0.3180  0.0797 -0.2027
 2849ntf    cn115725   6.300   3.848   0.727 -0.2436  0.1055 -0.4407
 2849ntf    fn415726   6.150   3.394   0.921 -0.0609  0.2395  0.2007
 2849ntf    fn415727   6.219   3.241   0.797  0.5231 -0.0213 -0.3856
 2849ntf    fn415728   6.352   3.399   0.869 -0.0117 -0.5380  0.7360
 2849ntf    on515729   6.308   3.436   0.590  0.3593 -0.2652 -0.0487
 2849ntf    on515730   6.065   3.406   0.632  0.4315  0.8446 -0.0532
 2849ntf    on515731   6.044   3.812   0.725 -0.8201 -0.8864 -0.0692
 2849ntf    on515732   6.170   3.737   0.529  0.9775 -0.2373 -0.1133
 2849ntf    fn415733   6.312   3.967   0.671  0.1342  0.1987 -0.1643
 2849ntf    fn415734   6.296   3.870   0.857 -0.2701  0.0346 -0.4292
 2849ntf    fn415735   6.412   3.779   0.712 -0.4351 -0.4588  0.5911
 2850ntf    cn115736   1.216   3.763   4.346  0.0370 -0.2518 -0.0498
 2850ntf    sn215737   1.393   3.767   4.383  0.0187  0.3178 -0.0122
 2850ntf    nn315738   1.437   3.657   4.280  0.1342  0.2903  0.0663
 2850ntf    sn215739   1.425   3.502   4.299 -0.2633  0.3164  0.0228
 2850ntf    cn115740   1.302   3.458   4.173 -0.3090 -0.0656  0.1986
 2850ntf    fn415741   1.156   3.648   4.371 -0.4741  0.1056  0.3770
 2850ntf    fn415742   1.149   3.851   4.419  0.6303  0.1273  0.0377
 2850ntf    fn415743   1.199   3.783   4.216  0.1655  0.5921  0.0599
 2850ntf    on515744   1.437   3.900   4.350  0.3845  0.2810  0.3053
 2850ntf    on515745   1.404   3.734   4.523  0.0959 -0.0470 -0.1022
 2850ntf    on515746   1.371   3.453   4.424  0.8196  0.8130  0.6897
 2850ntf    on515747   1.550   3.438   4.266 -0.2840  0.3767 -0.1741
 2850ntf    fn415748   1.346   3.491   4.053 -0.1692 -0.1814  0.2182
 2850ntf    fn415749   1.290   3.327   4.154  0.8224 -0.1478  0.0211
 2850ntf    fn415750   1.182   3.507   4.200 -0.4432 -0.1742 -0.1875
 2851ntf    cn115751   2.788   6.233   2.500  0.0914  0.2650 -0.2766
 2851ntf    sn215752   2.862   6.391   2.448  0.5572  0.1441  0.0111
 2851ntf    nn315753   2.738   6.475   2.400  0.6487  0.3314  0.1038
 2851ntf    sn215754   2.652   6.585   2.472  0.3079  0.1076  0.0407
 2851ntf    cn115755   2.566   6.669   2.336  0.0053 -0.0579  0.1283
 2851ntf    fn415756   2.708   6.255   2.602  0.4469  0.1311  0.0355
 2851ntf    fn415757   2.720   6.189   2.395 -0.2522  0.7876 -0.2734
 2851ntf    fn415758   2.872   6.136   2.535 -0.0808 -0.0412 -0.6959
 2851ntf    on515759   2.945   6.442   2.554 -0.1811 -0.3795  0.8554
 2851ntf    on515760   2.937   6.350   2.331 -1.0451  0.4942 -1.1736
 2851ntf    on515761   2.733   6.693   2.522  0.6742  0.1354 -0.6064
 2851ntf    on515762   2.541   6.534   2.549  0.2504  0.1726  0.0000
 2851ntf    fn415763   2.646   6.705   2.237  0.0377 -0.9873 -0.1898
 2851ntf    fn415764   2.473   6.593   2.281 -0.0783  0.2873 -0.2115
 2851ntf    fn415765   2.496   6.774   2.376 -0.0536 -0.0021 -0.1244
 2852ntf    cn115766   7.123   6.435   6.068 -0.0165 -0.0129  0.0760
 2852ntf    sn215767   7.035   6.518   6.203  0.0233  0.1888 -0.0208
 2852ntf    nn315768   6.891   6.455   6.201  0.1411 -0.0892  0.1048
 2852ntf    sn215769   6.757   6.521   6.250  0.1115  0.0514 -0.1607
 2852ntf    cn115770   6.693   6.605   6.102 -0.3542 -0.6270 -0.3551
 2852ntf    fn415771   7.137   6.304   6.074  0.0268  0.0079  0.4310
 2852ntf    fn415772   7.060   6.463   5.955  0.7866  0.1732 -0.3362
 2852ntf    fn415773   7.246   6.481   6.057  0.1054 -0.4335 -0.3684
 2852ntf    on515774   7.124   6.487   6.312 -0.1112  0.0916  0.0625
 2852ntf    on515775   7.034   6.656   6.163  0.4025  0.3181  0.4133
 2852ntf    on515776   6.784   6.615   6.356 -0.3665  0.0400 -0.0248
 2852ntf    on515777   6.663   6.415   6.282  0.7333 -0.3485  0.3751
 2852ntf    fn415778   6.604   6.699   6.130 -0.0144 -0.3536 -0.1726
 2852ntf    fn415779   6.791   6.675   6.047 -0.8822 -0.2544 -0.8361
 2852ntf    fn415780   6.646   6.515   6.018  0.1792 -1.0344 -0.2217
 2853ntf    cn115781   3.299   4.640   5.530 -0.0785 -0.3949 -0.1365
 2853ntf    sn215782   3.403   4.551   5.411  0.3390 -0.1582  0.0474
 2853ntf    nn315783   3.505   4.668   5.384 -0.0288  0.1036 -0.2058
 2853ntf    sn215784   3.589   4.701   5.255  0.3400 -0.1366 -0.0269
 2853ntf    cn115785   3.528   4.869   5.222  0.2925 -0.2198 -0.3642
 2853ntf    fn415786   3.370   4.699   5.626 -0.2857 -0.0169 -0.2152
 2853ntf    fn415787   3.224   4.735   5.477 -0.1506 -0.1952  0.3162
 2853ntf    fn415788   3.219   4.559   5.596 -0.3483 -0.1702 -0.1870
 2853ntf    on515789   3.462   4.443   5.487  0.0663  0.2322  0.8285
 2853ntf    on515790   3.310   4.533   5.303  0.4707  0.0493 -0.1020
 2853ntf    on515791   3.569   4.630   5.131 -0.7361  0.8184 -0.4166
 2853ntf    on515792   3.727   4.721   5.293  0.1715  0.0047  0.5190
 2853ntf    fn415793   3.548   4.950   5.325 -0.0177 -0.3324 -0.2162
 2853ntf    fn415794   3.600   4.925   5.126  0.2550  0.7642  0.1690
 2853ntf    fn415795   3.401   4.873   5.187  0.1325 -0.7329  0.1516
 2854ntf    cn115796   0.593   2.618   6.040 -0.2082 -0.0076  0.3488
 2854ntf    sn215797   0.732   2.696   5.953  0.0669 -0.5932  0.2570
 2854ntf    nn315798   0.764   2.586   5.845  0.3017 -0.2312 -0.0449
 2854ntf    sn215799   0.896   2.576   5.761  0.3648 -0.2920  0.0605
 2854ntf    cn115800   0.991   2.450   5.851  0.1158 -0.4407  0.1146
 2854ntf    fn415801   0.609   2.491   6.075 -0.0014 -0.0420  0.1316
 2854ntf    fn415802   0.569   2.679   6.155 -0.2960 -0.0641  0.3608
 2854ntf    fn415803   0.489   2.629   5.960  0.0188 -0.3131  0.0092
 2854ntf    on515804   0.666   2.815   5.906 -0.1084 -0.3563  1.0856
 2854ntf    on515805   0.823   2.709   6.064 -0.1212  0.2946  0.3105
 2854ntf    on515806   0.983   2.691   5.760  0.2970 -0.2360  0.4171
 2854ntf    on515807   0.872   2.511   5.635  0.4970 -0.5298  0.1574
 2854ntf    fn415808   1.119   2.443   5.819  0.0978  0.5247 -0.1892
 2854ntf    fn415809   0.994   2.464   5.982 -0.4173 -0.4988  0.1352
 2854ntf    fn415810   0.952   2.325   5.832 -0.0757 -0.4262  0.3995
 2855ntf    cn115811   4.224   0.091   0.848  0.0803 -0.0842 -0.3435
 2855ntf    sn215812   4.335   0.235   0.843 -0.3778  0.2978  0.2970
 2855ntf    nn315813   4.253   0.329   0.748 -0.1151  0.0980 -0.1325
 2855ntf    sn215814   4.229   0.484   0.752 -0.1383  0.0927 -0.0529
 2855ntf    cn115815   4.075   0.503   0.847 -0.0844  0.1242  0.0284
 2855ntf    fn415816   4.193   0.040   0.730  0.6363 -0.5675 -0.2838
 2855ntf    fn415817   4.273  -0.013   0.914 -0.0399  0.1785  0.1652
 2855ntf    fn415818   4.112   0.115   0.915  0.2931  0.2143 -0.0912
 2855ntf    on515819   4.350   0.265   0.984 -0.0164 -0.4920  0.4345
 2855ntf    on515820   4.453   0.182   0.779 -0.1297  0.8073  0.3339
 2855ntf    on515821   4.201   0.529   0.618  0.0086 -0.2012 -0.1827
 2855ntf    on515822   4.328   0.557   0.828 -0.4779  0.6147 -0.1110
 2855ntf    fn415823   4.042   0.631   0.855  0.4742  0.2498  0.3908
 2855ntf    fn415824   3.977   0.427   0.801  0.3426 -0.0608 -0.5994
 2855ntf    fn415825   4.084   0.463   0.972 -0.1258 -0.2345 -0.0808
 2856ntf    cn115826   2.869   5.424   0.497  0.3728  0.1432  0.0037
 2856ntf    sn215827   2.792   5.403   0.334  0.2119  0.1282  0.0812
 2856ntf    nn315828   2.776   5.247   0.328  0.5913  0.0902 -0.0345
 2856ntf    sn215829   2.666   5.140   0.290  0.4352  0.2068  0.0906
 2856ntf    cn115830   2.704   5.008   0.409  0.2139 -0.2164 -0.3095
 2856ntf    fn415831   2.959   5.336   0.540  0.1470 -0.0033  0.1769
 2856ntf    fn415832   2.943   5.534   0.494  0.6353 -0.0213  0.3482
 2856ntf    fn415833   2.776   5.442   0.590 -0.0846  0.4244 -0.5027
 2856ntf    on515834   2.673   5.482   0.350 -0.0407 -0.1051 -0.6217
 2856ntf    on515835   2.891   5.446   0.238  0.3095 -0.6075 -0.1559
 2856ntf    on515836   2.688   5.081   0.161  0.3755  0.4573 -0.0358
 2856ntf    on515837   2.531   5.181   0.321  0.1658 -0.4286 -0.2409
 2856ntf    fn415838   2.825   4.954   0.407  0.4655  0.3382 -0.0109
 2856ntf    fn415839   2.685   5.038   0.536 -0.4245  0.5039 -0.5672
 2856ntf    fn415840   2.633   4.901   0.376 -0.3219 -0.0044  0.1358
 2857ntf    cn115841   5.032   0.034   2.003  0.2569 -0.2848 -0.2533
 2857ntf    sn215842   5.052   0.210   2.043 -0.5297 -0.2213 -0.1202
 2857ntf    nn315843   5.159   0.255   1.938 -0.2847  0.0791  0.2537
 2857ntf    sn215844   5.176   0.405   1.895  0.4757 -0.1253 -0.1963
 2857ntf    cn115845   5.072   0.422   1.747  0.2245 -0.2048 -0.0304
 2857ntf    fn415846   5.142  -0.039   1.999  0.5462  0.1300  0.0949
 2857ntf    fn415847   4.952  -0.020   2.094 -0.0843 -0.3367 -0.5782
 2857ntf    fn415848   4.966   0.030   1.888  0.0133  0.3719 -0.1425
 2857ntf    on515849   4.922   0.271   2.028 -0.4446  0.1027  0.4185
 2857ntf    on515850   5.106   0.205   2.177  0.2587 -0.0506 -0.4278
 2857ntf    on515851   5.310   0.419   1.845  0.6569  0.4909  0.4371
 2857ntf    on515852   5.129   0.496   1.996  1.0067  0.0319 -0.0903
 2857ntf    fn415853   5.089   0.542   1.693 -0.1719 -0.3088 -0.3912
 2857ntf    fn415854   5.088   0.320   1.664 -0.3116 -0.2454 -0.0904
 2857ntf    fn415855   4.947   0.398   1.785  0.2605  0.1953  0.3497
 2858ntf    cn115856   4.111   4.470   4.155  0.2525  0.7304  0.2970
 2858ntf    sn215857   4.056   4.371   4.297 -0.7423  0.4890 -0.2421
 2858ntf    nn315858   3.910   4.340   4.248 -0.5653 -0.2229 -0.3358
 2858ntf    sn215859   3.780   4.409   4.302 -0.3565 -0.0285 -0.0739
 2858ntf    cn115860   3.735   4.301   4.440  0.1840 -0.0831  0.0603
 2858ntf    fn415861   4.234   4.516   4.173  0.3194  0.6004  0.1646
 2858ntf    fn415862   4.122   4.392   4.049  0.2919  0.0596  0.7934
 2858ntf    fn415863   4.040   4.574   4.112 -0.0065  0.2461 -0.4670
 2858ntf    on515864   4.143   4.256   4.293 -0.7607  0.4773 -0.3012
 2858ntf    on515865   4.068   4.444   4.421 -0.9722 -0.4925  0.3680
 2858ntf    on515866   3.679   4.383   4.202 -0.0667  0.1397 -0.4145
 2858ntf    on515867   3.788   4.539   4.365 -0.3972  0.0072 -0.1428
 2858ntf    fn415868   3.714   4.175   4.405 -0.9037  0.1646 -0.1987
 2858ntf    fn415869   3.830   4.300   4.532  0.0461  0.0474  0.2036
 2858ntf    fn415870   3.627   4.341   4.504 -0.1043 -0.1869 -0.3581
 2859ntf    cn115871   6.746   4.069   5.206 -0.0019 -0.0032 -0.3003
 2859ntf    sn215872   6.650   3.918   5.236 -0.0553  0.1075  0.1004
 2859ntf    nn315873   6.735   3.808   5.162 -0.3605 -0.0394 -0.0365
 2859ntf    sn215874   6.692   3.713   5.045 -0.1185 -0.2505  0.0467
 2859ntf    cn115875   6.734   3.806   4.895 -0.4417 -0.0992  0.0483
 2859ntf    fn415876   6.866   4.048   5.256 -0.0349  0.5200  0.0130
 2859ntf    fn415877   6.765   4.092   5.077 -0.0636 -0.0404 -0.3156
 2859ntf    fn415878   6.693   4.174   5.267  0.3158 -0.1120  0.1675
 2859ntf    on515879   6.645   3.902   5.379  0.0925  0.3527  0.1328
 2859ntf    on515880   6.525   3.954   5.173 -0.1584 -0.2909  0.0749
 2859ntf    on515881   6.551   3.689   5.028 -0.1105 -0.3543  0.1246
 2859ntf    on515882   6.768   3.590   5.047 -0.0944 -0.2444 -0.5426
 2859ntf    fn415883   6.678   3.926   4.901  0.5835  0.3715  0.4526
 2859ntf    fn415884   6.863   3.829   4.873 -0.2771 -0.6805  0.3660
 2859ntf    fn415885   6.688   3.748   4.786 -0.1372 -0.0834 -0.0899
 2860ntf    cn115886   1.671   2.007   1.183 -0.1005  0.1047  0.2291
 2860ntf    sn215887   1.675   1.845   1.100  0.1465  0.2404 -0.0268
 2860ntf    nn315888   1.758   1.758   1.201  0.1444 -0.3794 -0.5551
 2860ntf    sn215889   1.912   1.738   1.221  0.1297  0.3864  0.3925
 2860ntf    cn115890   1.930   1.598   1.106 -0.2785  0.4150  0.2937
 2860ntf    fn415891   1.661   2.110   1.101  0.7698 -0.4086 -0.5504
 2860ntf    fn415892   1.566   2.016   1.262  0.3121 -0.0479  0.8025
 2860ntf    fn415893   1.783   2.034   1.249  0.2363  0.3608 -0.4392
 2860ntf    on515894   1.536   1.811   1.080  0.1056  0.2814  0.1873
 2860ntf    on515895   1.747   1.872   0.978  0.5534  0.3335  0.2339
 2860ntf    on515896   1.934   1.675   1.349 -0.7615  0.1076  0.4188
 2860ntf    on515897   2.007   1.833   1.169 -0.1597  0.2542 -0.3899
 2860ntf    fn415898   1.870   1.619   0.990  0.0721 -0.3176 -0.0227
 2860ntf    fn415899   2.056   1.572   1.076 -0.4631 -0.3468  0.1633
 2860ntf    fn415900   1.875   1.483   1.143  0.2322  0.1506  0.2364
 2861ntf    cn115901   3.451   1.851   3.467  0.3114  0.0772 -0.0299
 2861ntf    sn215902   3.494   1.889   3.294 -0.2277  0.2510 -0.1272
 2861ntf    nn315903   3.498   1.739   3.248  0.1927  0.3509 -0.4173
 2861ntf    sn215904   3.417   1.653   3.145 -0.0807 -0.0341  0.1157
 2861ntf    cn115905   3.286   1.584   3.252 -0.2167  0.0515  0.0042
 2861ntf    fn415906   3.447   1.957   3.547 -0.3661  0.0173  0.0170
 2861ntf    fn415907   3.327   1.807   3.477  0.2237  0.2014 -0.5652
 2861ntf    fn415908   3.517   1.749   3.518  0.3998  0.0722 -0.1537
 2861ntf    on515909   3.391   1.973   3.239 -0.2337  0.2897 -0.0572
 2861ntf    on515910   3.622   1.953   3.301 -0.0164 -0.1955  0.1801
 2861ntf    on515911   3.488   1.531   3.112 -0.7532 -0.4186  0.0748
 2861ntf    on515912   3.348   1.710   3.033 -0.4801 -0.4498  0.1471
 2861ntf    fn415913   3.334   1.530   3.363 -0.4892 -0.5916 -0.1857
 2861ntf    fn415914   3.189   1.667   3.282 -0.1003  0.0675  0.3367
 2861ntf    fn415915   3.230   1.484   3.185  0.1672 -0.0946 -0.1064
 2862ntf    cn115916   2.211   3.380   3.962 -0.1593  0.4275 -0.1625
 2862ntf    sn215917   2.069   3.274   3.922  0.2139  0.0374 -0.4617
 2862ntf    nn315918   1.961   3.368   3.858 -0.0283 -0.0284 -0.1543
 2862ntf    sn215919   1.935   3.390   3.704 -0.3275  0.1155 -0.0834
 2862ntf    cn115920   1.803   3.516   3.704  0.0904  0.5556 -0.2993
 2862ntf    fn415921   2.317   3.311   4.002 -0.7142 -0.2706  0.1382
 2862ntf    fn415922   2.252   3.443   3.854 -0.1777  0.0209 -0.4093
 2862ntf    fn415923   2.193   3.460   4.067  0.1330 -0.1421  0.3286
 2862ntf    on515924   2.115   3.167   3.837 -0.3376 -0.4304 -0.1850
 2862ntf    on515925   2.032   3.238   4.057 -0.0258 -0.6866 -0.7151
 2862ntf    on515926   1.856   3.285   3.645 -0.8217 -0.1784  1.0585
 2862ntf    on515927   2.050   3.441   3.634  0.0614 -0.6002  0.0291
 2862ntf    fn415928   1.761   3.541   3.581 -0.8945 -0.2296 -0.1370
 2862ntf    fn415929   1.695   3.484   3.772  0.3807  0.5655  0.1709
 2862ntf    fn415930   1.850   3.625   3.761  0.0056 -0.0731  1.0075
 2863ntf    cn115931   5.807   5.683   0.771  0.2616  0.0328  0.3889
 2863ntf    sn215932   5.742   5.579   0.637  0.6049  0.3222 -0.0045
 2863ntf    nn315933   5.590   5.612   0.660  0.2592 -0.7447 -0.6772
 2863ntf    sn215934   5.462   5.521   0.675 -0.4202  0.2774 -0.1806
 2863ntf    cn115935   5.396   5.538   0.506 -0.3023 -0.0283 -0.2582
 2863ntf    fn415936   5.782   5.626   0.888 -0.4974  0.0474  0.2395
 2863ntf    fn415937   5.938   5.700   0.763  0.2734 -0.2143 -0.0247
 2863ntf    fn415938   5.758   5.805   0.781 -0.2087 -0.1627  0.5028
 2863ntf    on515939   5.785   5.624   0.507  0.0681  0.7907 -0.0275
 2863ntf    on515940   5.776   5.444   0.673 -0.8397 -0.0957 -0.1104
 2863ntf    on515941   5.369   5.585   0.764  0.4992  1.1985  0.1378
 2863ntf    on515942   5.478   5.380   0.700 -0.1273  0.3122 -0.1610
 2863ntf    fn415943   5.381   5.665   0.471  0.8570  0.3179  0.4371
 2863ntf    fn415944   5.470   5.478   0.414  0.0018 -0.0495 -0.0028
 2863ntf    fn415945   5.271   5.500   0.485 -0.0370 -0.9214 -0.2589
 2864ntf    cn115946   7.121   0.081   6.740  0.1030 -0.1359  0.0143
 2864ntf    sn215947   7.208   0.072   6.580  0.0739  0.1534 -0.0184
 2864ntf    nn315948   7.127   0.174   6.492  0.0835  0.1528 -0.0274
 2864ntf    sn215949   7.175   0.321   6.463 -0.0541  0.2746  0.3554
 2864ntf    cn115950   7.015   0.388   6.410  0.0404  0.0675 -0.1979
 2864ntf    fn415951   7.179   0.002   6.830 -0.2907 -0.2691  0.1508
 2864ntf    fn415952   7.133   0.198   6.800 -0.2944 -0.1876  0.1982
 2864ntf    fn415953   6.992   0.057   6.748  0.1804 -0.6127 -0.1134
 2864ntf    on515954   7.345   0.105   6.610  0.0784  0.0447  0.0823
 2864ntf    on515955   7.183  -0.062   6.534 -0.2784  0.1892  0.0585
 2864ntf    on515956   7.254   0.324   6.343  0.0309 -0.3767  0.3895
 2864ntf    on515957   7.205   0.404   6.577  0.2795  0.9881 -0.2531
 2864ntf    fn415958   7.041   0.497   6.339  0.1290  0.1779  0.0024
 2864ntf    fn415959   6.960   0.299   6.329 -0.1304  0.2633 -0.2992
 2864ntf    fn415960   6.923   0.408   6.503 -0.0412 -0.0327 -0.2555
 2865ntf    cn115961   3.245   3.853   5.992  0.0466  0.1712  0.0713
 2865ntf    sn215962   3.197   3.991   5.884 -0.2861 -0.1601 -0.2082
 2865ntf    nn315963   3.314   3.990   5.778 -0.2250  0.3502 -0.1454
 2865ntf    sn215964   3.329   3.900   5.651  0.3013  0.3676 -0.0976
 2865ntf    cn115965   3.487   3.816   5.683 -0.0798 -0.2392  0.2011
 2865ntf    fn415966   3.370   3.811   5.981  0.0354 -0.0602  0.7276
 2865ntf    fn415967   3.227   3.887   6.119 -0.0062  0.5766 -0.0449
 2865ntf    fn415968   3.157   3.755   5.976 -0.0210  0.1746  0.4137
 2865ntf    on515969   3.065   3.960   5.835 -0.1588 -0.3315 -0.4440
 2865ntf    on515970   3.201   4.107   5.969 -0.0769 -0.1981 -0.1658
 2865ntf    on515971   3.361   3.985   5.539  0.4046  0.7269  0.2043
 2865ntf    on515972   3.236   3.791   5.635  0.0101  0.7099 -0.7582
 2865ntf    fn415973   3.588   3.898   5.663  0.0875 -0.3785  0.4533
 2865ntf    fn415974   3.496   3.768   5.806 -0.0897  0.2745  0.4026
 2865ntf    fn415975   3.513   3.721   5.595 -0.1644  0.6807 -0.8310
 2866ntf    cn115976   4.940   2.396   4.618  0.2647  0.4464  0.0494
 2866ntf    sn215977   4.776   2.474   4.620 -0.0770 -0.2659  0.4792
 2866ntf    nn315978   4.707   2.402   4.500  0.4288 -0.1814  0.1323
 2866ntf    sn215979   4.579   2.454   4.425  0.4816 -0.4362 -0.1347
 2866ntf    cn115980   4.447   2.371   4.518  0.0540  0.4204  0.0294
 2866ntf    fn415981   5.029   2.469   4.683  0.3796  0.4197 -0.0776
 2866ntf    fn415982   4.938   2.274   4.671 -0.4931  0.3639 -0.1604
 2866ntf    fn415983   4.983   2.379   4.494 -0.5376  0.0072 -0.1754
 2866ntf    on515984   4.716   2.424   4.741 -0.4903  0.3864  0.5494
 2866ntf    on515985   4.800   2.617   4.619 -0.1665 -0.2540  0.2057
 2866ntf    on515986   4.565   2.412   4.287 -0.0743 -0.2232 -0.1461
 2866ntf    on515987   4.550   2.593   4.447 -0.1556 -0.5198 -0.4177
 2866ntf    fn415988   4.459   2.240   4.502 -0.3980  0.3739  0.0484
 2866ntf    fn415989   4.447   2.391   4.649 -0.5217 -0.2570  0.1384
 2866ntf    fn415990   4.330   2.413   4.471  0.1257  0.0991 -0.4445
 2867ntf    cn115991   5.228   4.347   3.638 -0.3259 -0.1707  0.1832
 2867ntf    sn215992   5.232   4.313   3.460 -0.1089  0.0734  0.1407
 2867ntf    nn315993   5.231   4.156   3.451  0.0024  0.1303 -1.0429
 2867ntf    sn215994   5.101   4.069   3.447  0.1179 -0.1134  0.1112
 2867ntf    cn115995   5.180   3.906   3.462  0.0509 -0.1226  0.3806
 2867ntf    fn415996   5.231   4.474   3.673  0.2831 -0.0295 -0.3771
 2867ntf    fn415997   5.119   4.297   3.694 -0.4477 -0.3789 -0.2372
 2867ntf    fn415998   5.323   4.284   3.706 -0.0763 -0.1111 -0.1107
 2867ntf    on515999   5.111   4.374   3.411 -0.0070  0.0659 -0.1211
 2867ntf    on516000   5.358   4.370   3.419  0.0202 -0.3468 -0.0484
 2867ntf    on516001   5.044   4.071   3.314  0.3040 -0.4460  0.0256
 2867ntf    on516002   5.011   4.076   3.559  0.3695 -0.0992  0.3124
 2867ntf    fn416003   5.101   3.817   3.519  0.2042 -0.2265  0.4326
 2867ntf    fn416004   5.216   3.862   3.342  1.1994  0.2148  0.5850
 2867ntf    fn416005   5.291   3.921   3.532 -0.3342  0.3157  0.9022
 2868ntf    cn116006   5.568   1.999   0.351  0.2971  0.1856 -0.2808
 2868ntf    sn216007   5.657   2.114   0.461  0.0563 -0.1032  0.2204
 2868ntf    nn316008   5.540   2.196   0.527  0.6943  1.0818 -0.1011
 2868ntf    sn216009   5.494   2.205   0.676  0.0560 -0.0018 -0.2261
 2868ntf    cn116010   5.364   2.079   0.695  0.0864 -0.0079 -0.0498
 2868ntf    fn416011   5.486   1.924   0.422  0.1678  0.4231 -0.1784
 2868ntf    fn416012   5.498   2.066   0.262 -0.1229 -0.1684 -0.2225
 2868ntf    fn416013   5.638   1.911   0.281  0.4569  0.2880 -0.2496
 2868ntf    on516014   5.739   2.028   0.542 -0.0825 -0.1585  0.3017
 2868ntf    on516015   5.736   2.191   0.368 -0.2954 -0.1434 -0.1152
 2868ntf    on516016   5.438   2.337   0.690  0.0383  0.0218 -0.5221
 2868ntf    on516017   5.596   2.170   0.772  0.0086  0.2488 -0.0849
 2868ntf    fn416018   5.245   2.131   0.669  0.2153  0.3043 -0.0208
 2868ntf    fn416019   5.377   1.972   0.618  0.1785 -0.2953  0.3589
 2868ntf    fn416020   5.358   2.034   0.819  0.3507 -0.2488 -0.1217
 2869ntf    cn116021   4.643   4.146   5.309 -0.1688  0.1647 -0.0466
 2869ntf    sn216022   4.529   4.046   5.210 -0.0367  0.1599 -0.1961
 2869ntf    nn316023   4.525   4.119   5.071  0.4196  0.2575 -0.1564
 2869ntf    sn216024   4.582   4.078   4.931 -0.0359 -0.4353 -0.1392
 2869ntf    cn116025   4.430   4.041   4.839 -0.2950  0.0732  0.0833
 2869ntf    fn416026   4.593   4.267   5.329  0.0476  0.2267  0.1176
 2869ntf    fn416027   4.674   4.092   5.425  0.1685 -0.7749 -0.5592
 2869ntf    fn416028   4.756   4.162   5.240 -0.3154 -0.1534 -0.3655
 2869ntf    on516029   4.601   3.921   5.208 -0.2389  0.0412 -0.0396
 2869ntf    on516030   4.409   4.052   5.289  0.4791  0.4582  0.5693
 2869ntf    on516031   4.670   3.965   4.911 -0.0248 -0.4631  0.0626
 2869ntf    on516032   4.624   4.201   4.870  0.0772 -0.4375 -0.0647
 2869ntf    fn416033   4.336   4.127   4.874 -0.3966 -0.0122  0.0217
 2869ntf    fn416034   4.442   4.048   4.707  0.3556  0.0445  0.1393
 2869ntf    fn416035   4.380   3.921   4.864 -0.2123 -0.0775 -0.4567
 2870ntf    cn116036   3.432   5.685   7.109 -0.1590 -0.7071  0.1687
 2870ntf    sn216037   3.289   5.702   6.997  0.0404 -0.0689  0.0088
 2870ntf    nn316038   3.280   5.858   6.979 -0.0675 -0.0947 -0.1571
 2870ntf    sn216039   3.167   5.966   6.996 -0.1502 -0.2013 -0.0305
 2870ntf    cn116040   3.229   6.037   7.152  0.0748 -0.2276 -0.1069
 2870ntf    fn416041   3.396   5.735   7.225  0.1338 -0.2870  0.0803
 2870ntf    fn416042   3.475   5.562   7.133  0.2008 -0.6114  0.0265
 2870ntf    fn416043   3.539   5.751   7.068 -0.3496 -0.4957  0.0054
 2870ntf    on516044   3.330   5.637   6.875 -0.3670 -0.3698  0.0320
 2870ntf    on516045   3.179   5.640   7.067 -0.0071 -0.5485 -0.4914
 2870ntf    on516046   3.032   5.920   7.017  0.1075 -0.9422  0.0370
 2870ntf    on516047   3.192   6.072   6.902  0.2187 -0.5964 -0.3836
 2870ntf    fn416048   3.329   6.122   7.131  0.0578 -0.2389 -0.2358
 2870ntf    fn416049   3.139   6.105   7.221  0.6781  0.6809 -0.1937
 2870ntf    fn416050   3.278   5.951   7.240 -0.2345  0.1146  0.4085
 2871ntf    cn116051   4.136   1.043   2.640  0.3644  0.8446 -0.0666
 2871ntf    sn216052   3.989   1.128   2.705 -0.3309 -0.4580  0.1003
 2871ntf    nn316053   3.907   1.159   2.575  0.4386 -0.1512 -0.3202
 2871ntf    sn216054   3.908   1.288   2.485  0.2492  0.0198 -0.0801
 2871ntf    cn116055   3.737   1.340   2.517  0.2784 -0.0056  0.1244
 2871ntf    fn416056   4.216   1.122   2.570  0.0124  0.5236 -0.8377
 2871ntf    fn416057   4.207   0.986   2.736 -0.1196 -0.5024 -0.4806
 2871ntf    fn416058   4.099   0.944   2.561  0.4028  0.3062  0.5773
 2871ntf    on516059   3.929   1.038   2.801 -0.7040  0.5213  0.8103
 2871ntf    on516060   4.051   1.242   2.768 -0.4148 -0.2225 -0.2421
 2871ntf    on516061   3.897   1.251   2.346  0.4350 -0.6208  0.0696
 2871ntf    on516062   3.993   1.395   2.531  0.5366 -0.1721 -0.1560
 2871ntf    fn416063   3.651   1.240   2.514  0.1509  0.1170 -0.5596
 2871ntf    fn416064   3.725   1.386   2.640 -1.1721  0.1725 -0.0630
 2871ntf    fn416065   3.701   1.435   2.431 -0.4876 -0.1978  0.2212
 2872ntf    cn116066   2.636   4.113   0.606 -0.0039  0.2248  0.1318
 2872ntf    sn216067   2.699   4.243   0.495  0.0726  0.3083  0.2721
 2872ntf    nn316068   2.577   4.341   0.503 -0.3840 -0.1280 -1.1218
 2872ntf    sn216069   2.568   4.468   0.593  0.4681 -0.7286 -0.1695
 2872ntf    cn116070   2.654   4.583   0.481  0.0980 -0.0765  0.2052
 2872ntf    fn416071   2.605   4.171   0.721  0.5327  0.4073  0.1917
 2872ntf    fn416072   2.518   4.066   0.569 -0.0256 -0.0641  0.5739
 2872ntf    fn416073   2.708   4.007   0.639 -0.3460  0.1404  0.6155
 2872ntf    on516074   2.820   4.285   0.562  0.3438 -0.3447  0.1997
 2872ntf    on516075   2.717   4.175   0.369  0.9825  0.3547  0.3679
 2872ntf    on516076   2.651   4.471   0.711 -0.0245 -0.2981  0.1728
 2872ntf    on516077   2.431   4.512   0.611  0.6839 -0.2392  0.3278
 2872ntf    fn416078   2.666   4.528   0.361  0.0007  0.2231  0.0583
 2872ntf    fn416079   2.596   4.698   0.452 -0.2992 -0.1593  0.6491
 2872ntf    fn416080   2.781   4.603   0.514  0.0445  0.0864  0.3117
 2873ntf    cn116081   0.967   3.064   2.755  0.0523 -0.3147 -0.1774
 2873ntf    sn216082   0.988   2.926   2.639  0.1396 -0.3763 -0.0879
 2873ntf    nn316083   0.880   2.950   2.527 -0.0680  0.3357  0.2601
 2873ntf    sn216084   0.774   2.856   2.459  0.2426  0.1999 -0.0411
 2873ntf    cn116085   0.865   2.798   2.313 -0.0452  0.2883 -0.2537
 2873ntf    fn416086   0.846   3.089   2.802  0.3713 -0.0657  0.5274
 2873ntf    fn416087   1.028   3.043   2.870  0.3491 -0.4490 -0.3595
 2873ntf    fn416088   1.020   3.177   2.711  0.0174 -0.0369  0.4930
 2873ntf    on516089   1.125   2.936   2.595  0.1660  0.0968  0.0991
 2873ntf    on516090   0.958   2.816   2.727  0.2415 -0.3167  0.0208
 2873ntf    on516091   0.659   2.924   2.405  0.1635  0.2086  0.1382
 2873ntf    on516092   0.749   2.731   2.527  0.5685 -0.1211 -0.5053
 2873ntf    fn416093   0.966   2.722   2.349 -0.4732  0.0588  0.4893
 2873ntf    fn416094   0.794   2.729   2.225  0.4968 -0.2969 -0.2345
 2873ntf    fn416095   0.931   2.895   2.252 -0.0030  0.1758 -0.3894
 2874ntf    cn116096   5.975   1.048   2.978  0.0793  0.0424 -0.3649
 2874ntf    sn216097   5.858   1.183   3.012 -0.3303 -0.4411  0.1908
 2874ntf    nn316098   5.791   1.205   2.872 -0.0729 -0.0428  0.1264
 2874ntf    sn216099   5.780   1.336   2.785  0.2117  0.0537  0.2349
 2874ntf    cn116100   5.616   1.400   2.831  0.2691  0.1817  0.2610
 2874ntf    fn416101   5.936   0.957   2.890 -0.5769  0.0347 -0.0746
 2874ntf    fn416102   6.085   1.104   2.933  0.2012 -0.4543 -0.6914
 2874ntf    fn416103   6.015   0.978   3.083 -0.4380 -0.3402 -0.4173
 2874ntf    on516104   5.767   1.118   3.103 -0.3535 -0.2768  0.2864
 2874ntf    on516105   5.935   1.294   3.062 -0.2939 -0.3382 -0.0928
 2874ntf    on516106   5.758   1.282   2.653 -0.5707  0.6835  0.1010
 2874ntf    on516107   5.880   1.438   2.799 -0.2536  0.4280  0.8580
 2874ntf    fn416108   5.578   1.501   2.753 -0.0699 -0.4481 -0.3976
 2874ntf    fn416109   5.528   1.302   2.829  0.6476 -0.1513 -0.4492
 2874ntf    fn416110   5.611   1.444   2.955  0.5923  0.2161  0.2633
 2875ntf    cn116111   4.144   4.464   2.300 -0.4123 -0.1221 -0.3100
 2875ntf    sn216112   4.007   4.494   2.185 -0.1934 -0.1142 -0.5686
 2875ntf    nn316113   3.891   4.424   2.264  0.2536  0.2334  0.4004
 2875ntf    sn216114   3.764   4.492   2.326 -0.0537 -0.0583  0.0928
 2875ntf    cn116115   3.647   4.446   2.195 -0.0569 -0.0210  0.0821
 2875ntf    fn416116   4.189   4.342   2.277 -0.1019 -0.0096 -0.3108
 2875ntf    fn416117   4.247   4.547   2.286 -0.4806 -0.0130 -0.1715
 2875ntf    fn416118   4.113   4.477   2.428 -0.0664  0.0588 -0.2421
 2875ntf    on516119   4.003   4.637   2.173 -0.7754 -0.0998 -0.2460
 2875ntf    on516120   4.048   4.422   2.067 -0.3999 -0.0563 -0.6765
 2875ntf    on516121   3.755   4.636   2.335 -0.2511 -0.0186 -0.7294
 2875ntf    on516122   3.720   4.412   2.438 -0.5079 -0.6666 -0.5146
 2875ntf    fn416123   3.696   4.494   2.083 -0.3517  0.0298 -0.0275
 2875ntf    fn416124   3.637   4.314   2.182  0.0287 -0.0457  0.2679
 2875ntf    fn416125   3.523   4.490   2.207  0.0787  0.4302 -0.1759
 2876ntf    cn116126   6.484   1.378   6.126 -0.4005  0.0387 -0.0285
 2876ntf    sn216127   6.536   1.514   6.016  0.2827 -0.2688 -0.0900
 2876ntf    nn316128   6.677   1.467   5.966  0.2770 -0.0438 -0.3224
 2876ntf    sn216129   6.725   1.410   5.828 -0.3186 -0.6160 -0.3011
 2876ntf    cn116130   6.684   1.233   5.832  0.0069 -0.6899 -0.0828
 2876ntf    fn416131   6.524   1.396   6.250  0.0984  0.5518 -0.2563
 2876ntf    fn416132   6.352   1.368   6.135 -0.4137  0.4535  0.2549
 2876ntf    fn416133   6.524   1.261   6.081  0.7025  0.2811  0.2959
 2876ntf    on516134   6.437   1.523   5.912  0.2763  0.6030 -0.0188
 2876ntf    on516135   6.548   1.629   6.102  0.4457 -0.1929 -0.2144
 2876ntf    on516136   6.869   1.411   5.817 -0.3140  0.3884 -0.2172
 2876ntf    on516137   6.656   1.463   5.714  0.2269  1.0986  0.1408
 2876ntf    fn416138   6.731   1.170   5.725  0.5459 -0.3480 -0.0498
 2876ntf    fn416139   6.732   1.174   5.940 -0.4076 -0.6080  0.1479
 2876ntf    fn416140   6.553   1.211   5.826 -0.1781  0.4013 -0.2728
 2877ntf    cn116141   6.908   1.010   2.041  0.2836 -0.1568 -0.1766
 2877ntf    sn216142   6.958   0.938   1.882 -0.0267  0.1833 -0.4297
 2877ntf    nn316143   6.826   0.949   1.798 -0.1553 -0.0322 -0.2562
 2877ntf    sn216144   6.715   0.842   1.771 -0.3586  0.1625 -0.1999
 2877ntf    cn116145   6.560   0.927   1.814 -0.3353  0.1550 -0.1009
 2877ntf    fn416146   7.008   0.987   2.124  0.2564  0.1698 -0.0528
 2877ntf    fn416147   6.876   1.138   2.040 -0.0700 -0.2415 -0.1438
 2877ntf    fn416148   6.800   0.942   2.077  0.3076 -0.2823 -0.3409
 2877ntf    on516149   7.063   1.027   1.839  0.0823  0.1067 -0.3247
 2877ntf    on516150   6.997   0.806   1.924 -0.4885  0.1330 -0.1529
 2877ntf    on516151   6.709   0.733   1.866 -0.5898  0.1563 -0.2197
 2877ntf    on516152   6.685   0.814   1.633 -0.6269  0.3068 -0.1706
 2877ntf    fn416153   6.461   0.842   1.793 -0.1018 -0.2195  0.2823
 2877ntf    fn416154   6.547   0.972   1.938 -0.1392  0.1287 -0.0700
 2877ntf    fn416155   6.536   1.032   1.738 -0.1458 -0.0679 -0.4718
 2878ntf    cn116156   0.342   3.888   5.566  0.1021 -0.4019 -0.0713
 2878ntf    sn216157   0.262   4.014   5.670  0.0125 -0.6447  0.1562
 2878ntf    nn316158   0.259   4.132   5.567 -0.0480 -0.3681  0.4723
 2878ntf    sn216159   0.368   4.233   5.516 -0.1764 -0.3567  0.2155
 2878ntf    cn116160   0.350   4.358   5.647  0.2396  0.3680 -0.4103
 2878ntf    fn416161   0.437   3.922   5.481  0.5871  0.0411  0.6326
 2878ntf    fn416162   0.399   3.796   5.642  0.0790 -0.1239  0.2850
 2878ntf    fn416163   0.258   3.819   5.490 -0.1953 -0.3999  0.2540
 2878ntf    on516164   0.130   3.966   5.702 -0.5366  0.5762 -0.2277
 2878ntf    on516165   0.349   4.023   5.784  0.0545  0.2967  0.0517
 2878ntf    on516166   0.338   4.306   5.396  0.1195 -0.1434  0.2712
 2878ntf    on516167   0.506   4.193   5.517 -0.3921 -1.1952 -1.1192
 2878ntf    fn416168   0.431   4.460   5.621 -0.2651  0.8881  0.0361
 2878ntf    fn416169   0.227   4.406   5.645  0.0147 -0.1891 -0.3316
 2878ntf    fn416170   0.377   4.308   5.767  0.0326  0.0732 -0.4858
 2879ntf    cn116171   5.919   5.867   3.133 -0.0531  0.1158  0.0905
 2879ntf    sn216172   6.041   5.812   3.010 -0.2256  0.0401 -0.0479
 2879ntf    nn316173   5.999   5.661   3.002  0.1458 -0.0532 -0.2767
 2879ntf    sn216174   5.892   5.598   2.905 -0.1910 -0.3326  0.2731
 2879ntf    cn116175   5.968   5.617   2.741  0.3341  0.2541  0.5791
 2879ntf    fn416176   5.935   5.805   3.249  0.8723 -0.0196 -0.1007
 2879ntf    fn416177   5.919   5.998   3.149  0.6235  0.0892  0.3478
 2879ntf    fn416178   5.798   5.837   3.089  0.0663  0.1543 -0.2717
 2879ntf    on516179   6.015   5.889   2.891 -0.0234  0.1274 -0.0375
 2879ntf    on516180   6.166   5.840   3.077 -0.0542 -0.5000 -0.1419
 2879ntf    on516181   5.768   5.670   2.898  0.1027  0.1296 -0.3135
 2879ntf    on516182   5.880   5.455   2.919 -0.1878 -0.3987 -0.3601
 2879ntf    fn416183   5.931   5.520   2.659 -0.1039  0.5126  0.4681
 2879ntf    fn416184   5.940   5.729   2.676  0.1800 -0.1065  0.0221
 2879ntf    fn416185   6.099   5.603   2.757  0.2872 -0.5592  0.2985
 2880ntf    cn116186   4.355   0.556   6.230 -0.0248  0.0831 -0.1338
 2880ntf    sn216187   4.329   0.496   6.400 -0.4214  0.0411 -0.2096
 2880ntf    nn316188   4.173   0.498   6.421 -0.4652  0.6550 -0.5801
 2880ntf    sn216189   4.085   0.467   6.547  0.0989 -0.0818 -0.3587
 2880ntf    cn116190   4.019   0.630   6.593 -0.0398 -0.2318 -0.0240
 2880ntf    fn416191   4.374   0.687   6.234 -0.8344  0.1950  0.1993
 2880ntf    fn416192   4.466   0.504   6.179  0.2744  0.1377  0.4533
 2880ntf    fn416193   4.254   0.539   6.147  0.0975 -0.5689 -0.1540
 2880ntf    on516194   4.390   0.366   6.410  0.1491  0.3517  0.4674
 2880ntf    on516195   4.386   0.595   6.488 -0.7254 -0.3805  0.4686
 2880ntf    on516196   4.154   0.420   6.664 -1.1809  0.1349  0.5045
 2880ntf    on516197   3.967   0.390   6.519  0.4377 -0.7483  0.0307
 2880ntf    fn416198   3.960   0.629   6.711  0.0804 -0.2705  0.0362
 2880ntf    fn416199   4.114   0.723   6.600 -0.3559  0.0896  0.0551
 2880ntf    fn416200   3.936   0.685   6.506 -0.0061 -0.3149 -0.1088
 2881ntf    cn116201   0.823   3.103   6.144 -0.0390 -0.0878  0.0930
 2881ntf    sn216202   0.672   3.198   6.109  0.0889  0.1018  0.0538
 2881ntf    nn316203   0.683   3.311   6.217  0.2053 -0.1012  0.2555
 2881ntf    sn216204   0.627   3.315   6.363  0.1457 -0.3753  0.2401
 2881ntf    cn116205   0.463   3.389   6.336  0.2016 -0.2235  0.3163
 2881ntf    fn416206   0.790   3.055   6.263  0.0167 -0.0873  0.1081
 2881ntf    fn416207   0.851   2.997   6.071 -0.5143  0.3058 -0.6791
 2881ntf    fn416208   0.932   3.177   6.151 -0.0086 -0.1426  0.2044
 2881ntf    on516209   0.692   3.262   5.981  0.4694  0.0503  0.0862
 2881ntf    on516210   0.558   3.109   6.115 -0.2930  0.6027  0.3764
 2881ntf    on516211   0.682   3.420   6.444  0.1746 -0.0467 -0.2036
 2881ntf    on516212   0.608   3.184   6.422  0.6636 -0.4928  0.1485
 2881ntf    fn416213   0.384   3.404   6.441 -0.1385  0.3420 -0.0150
 2881ntf    fn416214   0.469   3.507   6.275  0.3917 -0.0049  0.7560
 2881ntf    fn416215   0.388   3.323   6.248 -0.4740  0.2255  0.5494
 2882ntf    cn116216   5.968   4.369   1.638  0.0534 -0.2923  0.0801
 2882ntf    sn216217   6.010   4.295   1.478  0.0809  0.2998 -0.1895
 2882ntf    nn316218   5.868   4.283   1.412 -0.3955  0.5466  0.7857
 2882ntf    sn216219   5.749   4.182   1.425  0.1962 -0.2381  0.2118
 2882ntf    cn116220   5.772   4.080   1.276  0.1188 -0.0458  0.0678
 2882ntf    fn416221   6.049   4.320   1.731  0.6094  0.3565 -0.0522
 2882ntf    fn416222   5.974   4.502   1.641 -0.0305 -0.2932  0.3806
 2882ntf    fn416223   5.848   4.326   1.672  0.2115 -0.5001  0.3705
 2882ntf    on516224   6.091   4.404   1.429  0.1914  0.3355  0.0706
 2882ntf    on516225   6.074   4.169   1.508 -0.3260  0.2765  0.5746
 2882ntf    on516226   5.621   4.241   1.391  0.7258  0.6454 -0.2733
 2882ntf    on516227   5.757   4.090   1.536  0.2319 -0.1777  0.2595
 2882ntf    fn416228   5.736   4.145   1.167 -0.4017  0.1095  0.3287
 2882ntf    fn416229   5.900   4.059   1.252  0.1653  0.0851  0.1968
 2882ntf    fn416230   5.696   3.972   1.269 -0.0403  0.0844 -0.2062
 2883ntf    cn116231   0.551   6.614   0.224 -0.0030 -0.0266 -0.1916
 2883ntf    sn216232   0.478   6.574   0.062 -0.2482  0.0387 -0.0977
 2883ntf    nn316233   0.326   6.595   0.097  0.0574  0.6052  0.9661
 2883ntf    sn216234   0.240   6.726   0.095 -0.1437  0.4679  0.1694
 2883ntf    cn116235   0.171   6.710  -0.073  0.1665  0.3281  0.0540
 2883ntf    fn416236   0.505   6.542   0.325  0.2108  0.2483  0.1040
 2883ntf    fn416237   0.682   6.597   0.228  0.0401  0.2950 -0.2493
 2883ntf    fn416238   0.525   6.741   0.250 -0.0256 -0.1497  0.4003
 2883ntf    on516239   0.540   6.662  -0.034  0.1230 -0.0821  0.0317
 2883ntf    on516240   0.514   6.435   0.051 -0.7002 -0.1660  0.8414
 2883ntf    on516241   0.318   6.847   0.095  0.1960  0.2517  0.9479
 2883ntf    on516242   0.122   6.725   0.178 -0.1489  0.7737  0.1654
 2883ntf    fn416243   0.067   6.787  -0.100 -0.0090 -0.0242 -0.2773
 2883ntf    fn416244   0.266   6.747  -0.156  0.0950  0.9657  0.2465
 2883ntf    fn416245   0.140   6.584  -0.097 -0.9479  0.7585 -0.8557
 2884ntf    cn116246   0.953   3.205   0.392 -0.3981  0.0891 -0.1908
 2884ntf    sn216247   0.950   3.263   0.564 -0.1844  0.2332 -0.2348
 2884ntf    nn316248   0.844   3.164   0.624  0.1915 -0.4120 -0.6181
 2884ntf    sn216249   0.855   3.011   0.656  0.3972 -0.2538  0.0957
 2884ntf    cn116250   0.895   2.998   0.833  0.2562 -0.0632  0.1414
 2884ntf    fn416251   1.001   3.082   0.385 -0.1269  0.2105 -0.5151
 2884ntf    fn416252   0.832   3.215   0.339 -0.3730 -0.1868 -0.2995
 2884ntf    fn416253   1.035   3.277   0.317  0.5515 -0.3739  0.3821
 2884ntf    on516254   1.081   3.240   0.619 -0.1104  0.3149 -0.3760
 2884ntf    on516255   0.896   3.396   0.546 -0.0456  0.2437 -0.5679
 2884ntf    on516256   0.959   2.936   0.590  0.5162  0.3298 -0.3877
 2884ntf    on516257   0.727   2.946   0.651 -0.0612  0.6624 -0.2436
 2884ntf    fn416258   0.794   3.029   0.912 -0.1046 -0.6634 -0.0772
 2884ntf    fn416259   0.930   2.874   0.861  0.1078 -0.0875  0.2181
 2884ntf    fn416260   0.991   3.081   0.870  0.1399  0.1316  0.0154
 2885ntf    cn116261   5.301   5.192   0.363 -0.2401  0.0062  0.6313
 2885ntf    sn216262   5.129   5.178   0.306  0.0084 -0.3022 -0.0521
 2885ntf    nn316263   5.056   5.116   0.430 -0.2597  0.3883  0.1423
 2885ntf    sn216264   4.952   5.000   0.449  0.1147  0.0611  0.2033
 2885ntf    cn116265   5.059   4.854   0.434 -0.1365 -0.1080  0.0615
 2885ntf    fn416266   5.345   5.076   0.410  0.1594 -0.1634 -0.1473
 2885ntf    fn416267   5.385   5.227   0.267 -1.1069 -0.3719 -0.2761
 2885ntf    fn416268   5.304   5.271   0.469 -0.1345  0.4260  0.3170
 2885ntf    on516269   5.093   5.314   0.271 -0.3675 -0.3732  0.0594
 2885ntf    on516270   5.157   5.089   0.196  0.1502 -0.0154 -0.2502
 2885ntf    on516271   4.850   4.987   0.349  0.2000 -1.2055  0.2609
 2885ntf    on516272   4.909   4.996   0.587  0.3074  0.3573  0.2735
 2885ntf    fn416273   4.988   4.742   0.439 -0.4292  0.0622 -0.2700
 2885ntf    fn416274   5.136   4.856   0.326 -0.0310  0.2941  0.1423
 2885ntf    fn416275   5.144   4.847   0.535  0.2280 -0.0515 -0.2366
 2886ntf    cn116276   3.364   3.801   0.591 -0.1936  0.2359  0.2129
 2886ntf    sn216277   3.194   3.754   0.636 -0.0499 -0.0064  0.5041
 2886ntf    nn316278   3.123   3.723   0.499 -0.1212 -0.1012  0.5621
 2886ntf    sn216279   2.971   3.733   0.462  0.0057 -0.2908 -0.0175
 2886ntf    cn116280   2.926   3.909   0.459 -0.0627 -0.2966  0.5133
 2886ntf    fn416281   3.428   3.871   0.684  0.0666 -0.0243  0.2284
 2886ntf    fn416282   3.449   3.708   0.552 -0.7313 -0.1767  0.0108
 2886ntf    fn416283   3.362   3.888   0.492  0.2347  0.5874  0.5083
 2886ntf    on516284   3.210   3.634   0.714 -0.4612 -0.4079 -0.0179
 2886ntf    on516285   3.150   3.876   0.700 -0.5931  0.1796 -0.2139
 2886ntf    on516286   2.881   3.679   0.561 -0.2351 -0.1095 -0.1371
 2886ntf    on516287   2.959   3.686   0.326  0.3530  0.1450 -0.2020
 2886ntf    fn416288   3.018   3.967   0.383 -0.2221  0.2134  0.7066
 2886ntf    fn416289   2.811   3.935   0.398  0.3561 -0.1960 -0.2555
 2886ntf    fn416290   2.921   3.967   0.577  0.2225  0.5765  0.1070
 2887ntf    cn116291   2.807   6.212   3.239 -0.4679 -0.1167  0.0354
 2887ntf    sn216292   2.900   6.058   3.212  0.1566  0.2001  0.3347
 2887ntf    nn316293   2.969   6.077   3.072 -0.0605  0.3941  0.2537
 2887ntf    sn216294   3.115   6.124   3.041  0.0361 -0.0499  0.0387
 2887ntf    cn116295   3.107   6.182   2.869 -0.0215 -0.0734  0.0337
 2887ntf    fn416296   2.867   6.287   3.330 -0.4366 -0.0655 -0.0278
 2887ntf    fn416297   2.809   6.286   3.130 -0.7543  0.0340  0.1329
 2887ntf    fn416298   2.685   6.184   3.281 -0.5178  0.0658  0.0156
 2887ntf    on516299   2.980   6.048   3.331  0.5748 -1.1000 -0.0378
 2887ntf    on516300   2.797   5.957   3.214 -0.3101  0.6613  0.0323
 2887ntf    on516301   3.219   6.024   3.048 -0.6425 -0.8021 -0.4006
 2887ntf    on516302   3.144   6.248   3.108  0.3808  0.2205 -0.6043
 2887ntf    fn416303   3.189   6.283   2.851  0.2725 -0.3364 -0.1155
 2887ntf    fn416304   3.141   6.086   2.785 -0.0130  0.0931 -0.1518
 2887ntf    fn416305   2.987   6.229   2.839 -0.0306  0.0835  0.3177
 2888ntf    cn116306   5.155   6.022   6.547  0.1159  0.2356  0.3340
 2888ntf    sn216307   5.223   6.099   6.696  0.0953  0.3850  0.2657
 2888ntf    nn316308   5.169   6.245   6.675 -0.6409  0.1197  0.2842
 2888ntf    sn216309   5.254   6.375   6.648 -0.4619 -0.0453  0.0478
 2888ntf    cn116310   5.310   6.430   6.811 -0.1992  0.0140 -0.0628
 2888ntf    fn416311   5.187   5.894   6.547 -0.3078  0.1283  0.4740
 2888ntf    fn416312   5.024   6.035   6.528  0.1713  0.3648  0.0358
 2888ntf    fn416313   5.203   6.071   6.434 -0.7902  0.4114  0.0128
 2888ntf    on516314   5.150   6.044   6.807 -0.0538 -0.0747 -0.0610
 2888ntf    on516315   5.363   6.073   6.675 -0.1346 -0.2016 -0.6123
 2888ntf    on516316   5.159   6.479   6.619 -0.1602  0.2056 -0.0409
 2888ntf    on516317   5.371   6.367   6.563  0.0029  0.3393  0.6498
 2888ntf    fn416318   5.421   6.373   6.856  0.0253  0.4355 -0.0763
 2888ntf    fn416319   5.342   6.558   6.816 -0.0761  0.0018 -0.5566
 2888ntf    fn416320   5.213   6.408   6.898  0.1988 -0.1421  0.3490
 2889ntf    cn116321   6.201   3.260   3.051 -0.4284  0.1110 -0.2745
 2889ntf    sn216322   6.301   3.204   2.909 -0.2994 -0.0697 -0.1128
 2889ntf    nn316323   6.384   3.335   2.885  0.0729 -0.3119 -0.1418
 2889ntf    sn216324   6.537   3.356   2.913 -0.0118  0.3045 -0.1238
 2889ntf    cn116325   6.547   3.416   3.084 -0.4807  0.0164  0.0064
 2889ntf    fn416326   6.113   3.353   3.019  0.0955  0.3998 -0.9179
 2889ntf    fn416327   6.136   3.160   3.107 -0.2398  0.5206  0.6881
 2889ntf    fn416328   6.276   3.316   3.145  0.0347 -0.0908 -0.5187
 2889ntf    on516329   6.363   3.089   2.970  0.0771  0.6889  0.9688
 2889ntf    on516330   6.203   3.193   2.804 -0.2385  0.4249 -0.2265
 2889ntf    on516331   6.566   3.474   2.836  0.3180  0.7408  0.6607
 2889ntf    on516332   6.620   3.238   2.905  0.0922  0.3402  0.3603
 2889ntf    fn416333   6.513   3.321   3.170 -0.1445 -0.2233 -0.1256
 2889ntf    fn416334   6.667   3.452   3.126 -0.3692  0.0552 -0.3431
 2889ntf    fn416335   6.478   3.525   3.114 -0.4136  0.0217  0.1442
 2890ntf    cn116336   3.728   4.048   4.810  0.2717  0.2784 -0.6225
 2890ntf    sn216337   3.856   3.920   4.795  0.2003  0.1334 -0.0233
 2890ntf    nn316338   3.776   3.797   4.851  0.3284 -0.0641 -0.2735
 2890ntf    sn216339   3.754   3.752   5.000 -0.0658 -0.0334 -0.3219
 2890ntf    cn116340   3.572   3.754   5.008 -0.0906 -0.1779 -0.7836
 2890ntf    fn416341   3.654   4.023   4.917  0.2203  0.3407 -0.6441
 2890ntf    fn416342   3.776   4.171   4.804  0.0655  0.3515 -0.8028
 2890ntf    fn416343   3.631   4.053   4.720 -0.3130 -0.3221 -0.0436
 2890ntf    on516344   3.893   3.906   4.656  0.8416 -0.1057  0.1672
 2890ntf    on516345   3.963   3.958   4.884  0.3680  0.3143 -0.2994
 2890ntf    on516346   3.792   3.851   5.097  0.2334  0.3489 -0.8218
 2890ntf    on516347   3.790   3.614   5.021  0.1492  0.0800  0.0619
 2890ntf    fn416348   3.509   3.680   4.918  0.0791 -0.4634 -0.6687
 2890ntf    fn416349   3.532   3.710   5.126  0.0900  1.0515 -0.2425
 2890ntf    fn416350   3.524   3.875   4.984 -0.1843 -0.1298 -0.3651
 2891ntf    cn116351   5.110   1.029   6.055  0.3958 -0.4559 -0.2212
 2891ntf    sn216352   5.086   1.092   6.224 -0.1970 -0.1369 -0.4235
 2891ntf    nn316353   5.155   0.985   6.315 -0.1699  0.3427  0.1241
 2891ntf    sn216354   5.310   0.959   6.322 -0.1857  0.1834 -0.1275
 2891ntf    cn116355   5.342   0.935   6.499 -0.0551 -0.0857 -0.1867
 2891ntf    fn416356   5.078   0.902   6.040 -0.1318 -0.4123  0.4505
 2891ntf    fn416357   5.035   1.090   5.964  0.3165 -0.8120 -0.3982
 2891ntf    fn416358   5.238   1.042   6.024  0.3930 -0.2500 -0.1481
 2891ntf    on516359   5.158   1.216   6.239  0.1865 -0.3271 -0.6794
 2891ntf    on516360   4.942   1.100   6.235 -0.2428 -0.7704 -0.5260
 2891ntf    on516361   5.397   1.072   6.299  0.3242 -0.1243  0.2854
 2891ntf    on516362   5.342   0.834   6.259 -0.0632  0.0392  0.2201
 2891ntf    fn416363   5.447   0.856   6.513 -0.6456 -0.7602  0.5883
 2891ntf    fn416364   5.359   1.053   6.558  0.2283  0.3729 -1.1724
 2891ntf    fn416365   5.242   0.876   6.563  0.3286 -0.6997 -0.1517
 2892ntf    cn116366   4.027   5.640   5.894  0.5722 -0.2039  0.0701
 2892ntf    sn216367   4.002   5.552   6.051 -0.0908 -0.2924 -0.0816
 2892ntf    nn316368   3.884   5.642   6.102 -0.1104 -0.3225 -0.0743
 2892ntf    sn216369   3.734   5.608   6.136 -0.2101  0.2563  0.0844
 2892ntf    cn116370   3.757   5.571   6.312  0.4712 -0.7362 -0.2007
 2892ntf    fn416371   4.141   5.611   5.833  0.6126 -0.4008  0.2390
 2892ntf    fn416372   3.940   5.599   5.803  0.2112  0.2826  0.1940
 2892ntf    fn416373   4.016   5.771   5.907  0.3824 -0.2909  0.8260
 2892ntf    on516374   3.976   5.415   6.014 -0.3115 -0.3521  0.2878
 2892ntf    on516375   4.130   5.576   6.114  0.0325 -0.3315 -0.3160
 2892ntf    on516376   3.683   5.483   6.085 -0.0381 -0.1039  0.7887
 2892ntf    on516377   3.660   5.732   6.130  0.1864  0.4867 -0.1065
 2892ntf    fn416378   3.852   5.480   6.327  0.8628 -0.2990  0.0018
 2892ntf    fn416379   3.800   5.681   6.373 -0.8449 -0.2575 -0.1069
 2892ntf    fn416380   3.654   5.530   6.384  0.2063  0.4667  0.1286
 2893ntf    cn116381   6.338   3.134   0.168 -0.6535  0.0478  0.1117
 2893ntf    sn216382   6.319   3.043   0.324  0.2909 -0.1817  0.0948
 2893ntf    nn316383   6.421   2.927   0.291  0.0066 -0.2212 -0.6670
 2893ntf    sn216384   6.406   2.783   0.351 -0.0748  0.1759  0.2993
 2893ntf    cn116385   6.557   2.710   0.279 -0.0896  0.2847  0.1562
 2893ntf    fn416386   6.411   3.242   0.189  0.0783 -0.3595 -0.2857
 2893ntf    fn416387   6.391   3.067   0.067  0.1937 -0.2511  0.7413
 2893ntf    fn416388   6.227   3.187   0.119 -0.5593 -0.2426 -0.4246
 2893ntf    on516389   6.354   3.143   0.422  1.3713 -0.6839  0.2372
 2893ntf    on516390   6.181   3.003   0.327  0.2613 -0.1255 -0.4180
 2893ntf    on516391   6.303   2.698   0.296  0.5036 -0.2537 -0.1365
 2893ntf    on516392   6.445   2.776   0.489  0.0927  0.1413  0.2509
 2893ntf    fn416393   6.576   2.584   0.314 -0.8645  0.1995  0.3007
 2893ntf    fn416394   6.541   2.709   0.148 -0.1506  0.2035  0.1637
 2893ntf    fn416395   6.666   2.780   0.304  0.0323  0.3703 -0.5957
 2894ntf    cn116396   2.208   6.916   5.842 -0.1367  0.3017 -0.0215
 2894ntf    sn216397   2.356   6.813   5.818 -0.3671  0.0502 -0.3647
 2894ntf    nn316398   2.407   6.880   5.685  0.3570 -0.5984 -0.4185
 2894ntf    sn216399   2.506   7.001   5.676 -0.1580 -0.1504 -0.1200
 2894ntf    cn116400   2.673   6.933   5.702 -0.0909  0.1750  0.3175
 2894ntf    fn416401   2.162   6.902   5.965 -0.0420 -0.0725 -0.0285
 2894ntf    fn416402   2.231   7.045   5.821 -0.7548  0.3988 -0.1360
 2894ntf    fn416403   2.108   6.890   5.760  0.1426  0.0597 -0.2859
 2894ntf    on516404   2.435   6.824   5.938 -0.2780 -0.0377 -0.4156
 2894ntf    on516405   2.297   6.686   5.783 -0.2154 -0.3296  0.7125
 2894ntf    on516406   2.484   7.107   5.772 -0.0866 -0.4360  0.2134
 2894ntf    on516407   2.515   7.032   5.535  0.4453 -0.1393 -0.0835
 2894ntf    fn416408   2.703   6.831   5.623  0.3808  0.7586 -0.2677
 2894ntf    fn416409   2.757   7.033   5.682 -0.3286  0.4264  0.5584
 2894ntf    fn416410   2.707   6.886   5.820 -0.1223  0.1356  0.3109
 2895ntf    cn116411   1.443   2.291   5.979  0.0445 -0.2590 -0.0761
 2895ntf    sn216412   1.593   2.197   6.020  0.1657 -0.0354 -0.0003
 2895ntf    nn316413   1.697   2.281   5.938 -0.3901  0.2540 -0.4133
 2895ntf    sn216414   1.778   2.405   5.989  0.0424 -0.0809 -0.2768
 2895ntf    cn116415   1.910   2.308   6.067 -0.0779 -0.0814 -0.0726
 2895ntf    fn416416   1.344   2.226   6.037  0.2238 -0.1719  0.3305
 2895ntf    fn416417   1.444   2.414   6.028 -0.1713 -0.2813 -0.0174
 2895ntf    fn416418   1.423   2.301   5.849 -0.1744 -0.3041 -0.0450
 2895ntf    on516419   1.605   2.201   6.163  0.2628 -0.3109  0.0012
 2895ntf    on516420   1.566   2.068   5.960  0.1361 -0.3983  0.7865
 2895ntf    on516421   1.728   2.479   6.103  0.2860  0.4523 -0.5140
 2895ntf    on516422   1.842   2.483   5.886  0.0610  0.2177 -0.0420
 2895ntf    fn416423   1.998   2.393   6.118 -0.0141 -0.2728  0.1398
 2895ntf    fn416424   1.866   2.239   6.172  0.5675 -0.1896  0.1297
 2895ntf    fn416425   1.970   2.217   5.992  0.6200  0.1709  0.1719
 2896ntf    cn116426   4.127   5.483   3.648  0.1781  0.1490 -0.0225
 2896ntf    sn216427   3.967   5.563   3.616  0.1181  0.1335  0.2351
 2896ntf    nn316428   3.890   5.532   3.749 -0.5512  0.2638 -0.1156
 2896ntf    sn216429   3.835   5.634   3.855  0.0406  0.0408  0.4166
 2896ntf    cn116430   3.681   5.652   3.759  0.1021  0.2593  0.3568
 2896ntf    fn416431   4.157   5.476   3.777  0.6511  0.7036 -0.0975
 2896ntf    fn416432   4.136   5.360   3.600 -0.2512  0.2714 -0.4259
 2896ntf    fn416433   4.231   5.546   3.596  0.2264  0.4259  0.4022
 2896ntf    on516434   3.997   5.702   3.596  0.1052  0.0888 -0.0969
 2896ntf    on516435   3.918   5.491   3.501  0.1358  1.2919 -0.5113
 2896ntf    on516436   3.902   5.762   3.860 -0.3205  0.2298  0.4792
 2896ntf    on516437   3.792   5.582   3.982 -0.0993 -0.0407  0.3362
 2896ntf    fn416438   3.680   5.751   3.671  0.4784 -0.2016 -0.1720
 2896ntf    fn416439   3.663   5.542   3.688  0.1084  0.5444 -0.0869
 2896ntf    fn416440   3.576   5.674   3.836  0.0457  0.8704  0.1055
 2897ntf    cn116441   4.497   2.663   0.966  0.0048 -0.1564 -0.0647
 2897ntf    sn216442   4.453   2.541   1.093  0.2264 -0.0122  0.1518
 2897ntf    nn316443   4.425   2.413   1.007  0.1426 -0.0296  0.2044
 2897ntf    sn216444   4.401   2.266   1.057  0.4081 -0.0850  0.1705
 2897ntf    cn116445   4.561   2.201   1.001  0.2913 -0.0928 -0.1587
 2897ntf    fn416446   4.417   2.665   0.861 -0.1820  0.9061  0.0847
 2897ntf    fn416447   4.512   2.791   0.997  0.0347 -0.1340 -0.1729
 2897ntf    fn416448   4.611   2.633   0.905  0.1623  0.2530  0.0232
 2897ntf    on516449   4.567   2.535   1.181 -0.0416  0.2602  0.5242
 2897ntf    on516450   4.325   2.590   1.137  0.3606  0.3898  0.0993
 2897ntf    on516451   4.308   2.193   0.974  0.3962 -0.0766  0.1765
 2897ntf    on516452   4.411   2.236   1.198  0.1396 -0.0184  0.2052
 2897ntf    fn416453   4.545   2.071   0.984  0.1607 -0.1406  0.3038
 2897ntf    fn416454   4.595   2.256   0.885 -0.6832 -0.5332 -0.6573
 2897ntf    fn416455   4.657   2.221   1.091  0.2282  0.2365 -0.1604
 2898ntf    cn116456   5.039   0.236   0.550  0.1172 -0.0660 -0.9220
 2898ntf    sn216457   5.026   0.055   0.534  0.0631 -0.1382 -0.0996
 2898ntf    nn316458   5.039   0.040   0.378  0.1715 -0.2450 -0.0798
 2898ntf    sn216459   4.930   0.020   0.267 -0.2168 -0.1198  0.2765
 2898ntf    cn116460   4.946  -0.160   0.248  0.1984 -0.0285 -0.2671
 2898ntf    fn416461   5.117   0.297   0.463  0.2544  0.5776 -0.3493
 2898ntf    fn416462   4.923   0.298   0.544 -0.0857 -0.2705  0.5623
 2898ntf    fn416463   5.090   0.269   0.667  0.0998 -0.6280 -0.7495
 2898ntf    on516464   5.138  -0.012   0.594  0.2561  0.0516 -0.2474
 2898ntf    on516465   4.898   0.023   0.593  0.2633  0.1097  0.4763
 2898ntf    on516466   4.971   0.067   0.137 -0.2313  0.4641  0.4801
 2898ntf    on516467   4.795   0.048   0.308 -0.0626  0.6538  0.2735
 2898ntf    fn416468   4.941  -0.221   0.365  0.1010 -0.2243 -0.3721
 2898ntf    fn416469   4.841  -0.207   0.184 -0.2402  0.0978  0.3484
 2898ntf    fn416470   5.061  -0.197   0.194  0.0182  0.5071 -1.0391
 2899ntf    cn116471   3.109   0.118   5.832  0.3647  0.2746 -0.4663
 2899ntf    sn216472   3.143   0.290   5.784  0.0645  0.4643 -0.0093
 2899ntf    nn316473   3.041   0.365   5.876  0.0177 -0.2365  0.5139
 2899ntf    sn216474   3.049   0.395   6.030  0.0416 -0.2377  0.5129
 2899ntf    cn116475   2.902   0.303   6.085 -0.2684 -0.2508 -0.3325
 2899ntf    fn416476   3.115   0.083   5.959  0.0553 -0.1612 -0.5652
 2899ntf    fn416477   2.983   0.091   5.801  0.3893 -0.3062 -0.0733
 2899ntf    fn416478   3.186   0.030   5.769  0.5173  0.2816 -0.2878
 2899ntf    on516479   3.281   0.322   5.808  0.2012  0.1149 -0.3101
 2899ntf    on516480   3.093   0.299   5.649  0.0582  0.5500 -0.0008
 2899ntf    on516481   3.013   0.533   6.050  0.8801  0.0532  0.0308
 2899ntf    on516482   3.157   0.340   6.108  0.1368  0.0359  0.5744
 2899ntf    fn416483   2.785   0.348   6.043 -0.2939 -0.2765 -0.2901
 2899ntf    fn416484   2.919   0.176   6.051  0.0236 -0.2988 -0.0066
 2899ntf    fn416485   2.897   0.295   6.217  0.0608 -0.1061 -0.3119
 2900ntf    cn116486   7.102   5.113   1.616 -0.2101  0.0664  0.1815
 2900ntf    sn216487   6.925   5.072   1.605 -0.0788 -0.4772  0.0671
 2900ntf    nn316488   6.938   4.922   1.560  0.7261 -0.4601  0.2250
 2900ntf    sn216489   6.866   4.788   1.598 -0.2846  0.0918  0.2936
 2900ntf    cn116490   6.782   4.765   1.439  0.4100 -0.3490 -0.0166
 2900ntf    fn416491   7.163   5.122   1.499 -0.1872  0.2043  0.2038
 2900ntf    fn416492   7.128   5.230   1.672  0.4014  0.2360 -0.4409
 2900ntf    fn416493   7.155   5.007   1.675  0.2439  0.0637 -0.2217
 2900ntf    on516494   6.873   5.090   1.738 -0.3415 -0.2299 -0.0680
 2900ntf    on516495   6.881   5.165   1.504  0.7262  0.2381  0.3643
 2900ntf    on516496   6.756   4.803   1.690 -0.5398 -0.6151  0.1065
 2900ntf    on516497   6.953   4.675   1.620  0.0582  0.4025  0.5463
 2900ntf    fn416498   6.709   4.656   1.421 -0.7247  0.3903 -0.0102
 2900ntf    fn416499   6.702   4.865   1.406  0.2220 -0.3686  0.3697
 2900ntf    fn416500   6.855   4.765   1.329  0.2315 -0.1763 -0.1364
 2901ntf    cn116501   2.199   2.503   5.751 -0.1296 -0.2916  0.5813
 2901ntf    sn216502   2.138   2.506   5.580  0.2221 -0.0718  0.4591
 2901ntf    nn316503   2.266   2.566   5.512 -0.1654  0.4555  0.1822
 2901ntf    sn216504   2.301   2.579   5.360 -0.4118  0.1800  0.1024
 2901ntf    cn116505   2.274   2.756   5.329  0.0139  0.2644  0.2164
 2901ntf    fn416506   2.104   2.467   5.837 -0.5080  0.5853  0.5409
 2901ntf    fn416507   2.299   2.421   5.777  0.6287  0.4597  0.0853
 2901ntf    fn416508   2.232   2.627   5.784  0.0151 -0.1515 -0.0757
 2901ntf    on516509   2.110   2.369   5.546  0.6141  0.0085 -0.2096
 2901ntf    on516510   2.025   2.596   5.578  0.2991  0.0301  0.6240
 2901ntf    on516511   2.209   2.514   5.269 -0.2731 -0.0302  0.1119
 2901ntf    on516512   2.441   2.562   5.330 -0.4588  0.2236 -0.1414
 2901ntf    fn416513   2.155   2.804   5.360  0.1447  0.5173  0.3343
 2901ntf    fn416514   2.360   2.820   5.408 -0.2029  0.4590  0.2973
 2901ntf    fn416515   2.296   2.788   5.203  0.3714 -0.3416  0.1219
 2902ntf    cn116516   5.645   6.371   3.794  0.2338 -0.2037  0.1598
 2902ntf    sn216517   5.528   6.437   3.916  0.0946 -0.1200 -0.0188
 2902ntf    nn316518   5.518   6.307   4.004 -0.4014  0.2986  0.5529
 2902ntf    sn216519   5.404   6.201   3.985  0.1123 -0.0861 -0.4867
 2902ntf    cn116520   5.290   6.265   4.112  0.2638 -0.0159 -0.3857
 2902ntf    fn416521   5.771   6.368   3.835  0.2240 -0.0582  0.1994
 2902ntf    fn416522   5.619   6.245   3.761 -0.2262 -0.1452  0.2990
 2902ntf    fn416523   5.648   6.441   3.682 -0.2997  0.0827  0.3207
 2902ntf    on516524   5.605   6.535   3.988 -0.7343  0.0863  0.6078
 2902ntf    on516525   5.410   6.478   3.844  0.0819  0.6116  0.4031
 2902ntf    on516526   5.442   6.070   4.031  0.2506  0.0280 -0.2719
 2902ntf    on516527   5.334   6.205   3.859 -0.6653  0.1042 -0.0545
 2902ntf    fn416528   5.349   6.289   4.228 -0.3188 -0.5401  0.0233
 2902ntf    fn416529   5.232   6.373   4.062  0.7146  0.6951  0.5984
 2902ntf    fn416530   5.201   6.174   4.149  0.5626  0.1792  0.8634
 2903ntf    cn116531   3.001   2.640   2.686 -0.2302  0.0655  0.2374
 2903ntf    sn216532   3.168   2.580   2.726 -0.1675  0.2147  0.2028
 2903ntf    nn316533   3.171   2.582   2.882  0.3484 -0.0224  0.1987
 2903ntf    sn216534   3.150   2.454   2.970 -0.1105 -0.0458  0.0577
 2903ntf    cn116535   3.140   2.534   3.133 -0.3771  0.3971 -0.1774
 2903ntf    fn416536   3.003   2.685   2.561  0.2822 -0.4289  0.0618
 2903ntf    fn416537   2.907   2.547   2.692  0.8522 -1.0791 -0.1222
 2903ntf    fn416538   2.954   2.737   2.762 -0.3356 -0.3515  0.7058
 2903ntf    on516539   3.183   2.447   2.671  0.6482  0.3331  0.1185
 2903ntf    on516540   3.257   2.675   2.664  0.4005 -0.2223  0.3318
 2903ntf    on516541   3.265   2.366   2.969 -0.0172  0.0776 -0.2625
 2903ntf    on516542   3.016   2.401   2.969 -0.2091  0.2062 -0.0494
 2903ntf    fn416543   3.043   2.625   3.139 -0.8846 -0.1174 -0.4860
 2903ntf    fn416544   3.125   2.440   3.225  0.7684  0.0325 -0.3545
 2903ntf    fn416545   3.247   2.597   3.179 -0.2663 -0.2056  0.3983
 2904ntf    cn116546   4.879   4.225   1.842  0.2910  0.0262 -0.5270
 2904ntf    sn216547   4.879   4.397   1.784  0.2802  0.0239 -0.5351
 2904ntf    nn316548   4.855   4.469   1.922  0.0075 -0.0229 -0.5567
 2904ntf    sn216549   4.771   4.590   1.975  0.6655  0.2395 -0.0951
 2904ntf    cn116550   4.619   4.502   2.022  0.5286  0.1746 -0.6515
 2904ntf    fn416551   4.979   4.188   1.920 -0.0215 -0.2081 -0.2294
 2904ntf    fn416552   4.771   4.189   1.910  0.0932 -0.1240 -0.9143
 2904ntf    fn416553   4.877   4.133   1.747 -0.9847 -0.5188 -0.0016
 2904ntf    on516554   5.011   4.423   1.735  0.2684  0.4999 -0.3187
 2904ntf    on516555   4.770   4.408   1.690 -0.2662  0.3640  0.1294
 2904ntf    on516556   4.728   4.674   1.865 -0.1395 -0.1477 -0.0868
 2904ntf    on516557   4.822   4.649   2.096  0.7115 -0.4527  0.2251
 2904ntf    fn416558   4.558   4.435   1.925 -0.0381 -0.0863 -0.1212
 2904ntf    fn416559   4.640   4.406   2.110  0.5277  0.4207 -0.3812
 2904ntf    fn416560   4.534   4.589   2.074  0.5769  0.0985 -0.4466
 2905ntf    cn116561   4.008   0.242   2.427  0.3034  0.0320  0.0317
 2905ntf    sn216562   3.871   0.289   2.536  0.3067  0.1586 -0.0190
 2905ntf    nn316563   3.867   0.439   2.490 -0.1047  0.2793  0.3966
 2905ntf    sn216564   3.741   0.524   2.449 -0.0315  0.1903 -0.0127
 2905ntf    cn116565   3.736   0.642   2.586 -0.1167  0.4745 -0.2598
 2905ntf    fn416566   4.094   0.152   2.472  0.3869 -0.1482 -0.4889
 2905ntf    fn416567   3.971   0.198   2.308 -0.7136  0.4080  0.1976
 2905ntf    fn416568   4.081   0.348   2.394  0.5972 -0.0698  0.3473
 2905ntf    on516569   3.762   0.206   2.491  0.4941  0.2112 -0.5687
 2905ntf    on516570   3.929   0.263   2.666 -0.5913 -0.3895  0.2820
 2905ntf    on516571   3.614   0.456   2.452  0.2290 -0.2793  0.8038
 2905ntf    on516572   3.761   0.596   2.326  0.1355  0.0332 -0.0792
 2905ntf    fn416573   3.620   0.706   2.595 -0.7299 -0.6555  0.0380
 2905ntf    fn416574   3.751   0.597   2.710  0.3143  0.1586 -0.4247
 2905ntf    fn416575   3.834   0.729   2.568  0.2118  0.1028 -0.2638
 2906ntf    cn116576   1.543   6.470   2.156 -0.4133  0.3056 -0.1637
 2906ntf    sn216577   1.389   6.439   2.248 -0.1630  0.2140  0.2243
 2906ntf    nn316578   1.344   6.580   2.298 -0.4760  0.1541  0.1139
 2906ntf    sn216579   1.348   6.637   2.444  0.1917 -0.0411  0.1756
 2906ntf    cn116580   1.196   6.551   2.495 -0.1785  0.5025 -0.0047
 2906ntf    fn416581   1.617   6.560   2.219 -0.1832  0.3514 -0.4939
 2906ntf    fn416582   1.620   6.366   2.133 -0.8668  0.0484 -0.5463
 2906ntf    fn416583   1.523   6.512   2.032  0.4910 -1.0266 -0.7874
 2906ntf    on516584   1.297   6.380   2.154  0.4107 -0.3400 -0.0024
 2906ntf    on516585   1.426   6.355   2.359  0.3490 -0.3528 -0.3622
 2906ntf    on516586   1.324   6.779   2.435 -0.1544 -0.1048  0.0648
 2906ntf    on516587   1.452   6.596   2.535  0.2045 -0.5730 -0.0733
 2906ntf    fn416588   1.187   6.559   2.627 -0.5719 -0.2417  0.0199
 2906ntf    fn416589   1.089   6.599   2.434  0.3689  0.9618 -0.6153
 2906ntf    fn416590   1.207   6.422   2.470  0.3712  0.4501  0.4759
 2907ntf    cn116591   4.089   3.519   1.354  0.6313  0.1133 -0.0907
 2907ntf    sn216592   4.182   3.507   1.510 -0.1028 -0.0629  0.3420
 2907ntf    nn316593   4.101   3.394   1.581 -0.2763 -0.4742 -0.4938
 2907ntf    sn216594   3.986   3.400   1.689  0.2171  0.2182 -0.0001
 2907ntf    cn116595   4.081   3.421   1.842 -0.2497  0.0762  0.3087
 2907ntf    fn416596   4.081   3.402   1.294  0.2083  0.1709 -0.1539
 2907ntf    fn416597   3.970   3.573   1.378  0.4784 -0.0988 -0.3689
 2907ntf    fn416598   4.151   3.599   1.270 -0.0954  0.1569 -0.5935
 2907ntf    on516599   4.312   3.457   1.473  0.0953  0.1887  0.6933
 2907ntf    on516600   4.178   3.641   1.563 -0.4213 -0.2813  0.8742
 2907ntf    on516601   3.928   3.271   1.714  1.1074 -0.1395  0.2750
 2907ntf    on516602   3.908   3.521   1.684 -0.5779 -0.3113 -0.7818
 2907ntf    fn416603   4.177   3.509   1.819 -0.0287 -0.1359  0.4213
 2907ntf    fn416604   4.011   3.468   1.944  0.0900  0.1440  0.5130
 2907ntf    fn416605   4.135   3.307   1.881  0.5402  0.3058 -0.0940
 2908ntf    cn116606   1.787   0.426   5.057 -0.3452 -0.0627 -0.4774
 2908ntf    sn216607   1.709   0.370   5.212  0.0207 -0.1835 -0.3368
 2908ntf    nn316608   1.798   0.428   5.327 -0.1319 -0.0251 -0.2975
 2908ntf    sn216609   1.804   0.577   5.376  0.0115 -0.1010 -0.0795
 2908ntf    cn116610   1.718   0.559   5.536 -0.1832  0.1577 -0.1541
 2908ntf    fn416611   1.845   0.545   5.069  0.0499 -0.2356 -0.6649
 2908ntf    fn416612   1.875   0.335   5.020  0.1003  0.3054 -0.3326
 2908ntf    fn416613   1.702   0.444   4.957  0.6557  0.0161 -1.3293
 2908ntf    on516614   1.576   0.424   5.200 -0.0296 -0.3512 -0.5378
 2908ntf    on516615   1.718   0.227   5.199 -0.9998 -0.2806 -0.0516
 2908ntf    on516616   1.722   0.672   5.304  0.6966  0.5611  0.0042
 2908ntf    on516617   1.934   0.625   5.414 -0.2633  0.4466  0.1886
 2908ntf    fn416618   1.600   0.504   5.514  0.2745 -0.8449 -0.1623
 2908ntf    fn416619   1.791   0.485   5.617  0.1634  0.1538 -0.4673
 2908ntf    fn416620   1.708   0.675   5.599 -0.2717  0.0842 -0.0330
 2909ntf    cn116621   4.977   3.728   2.031 -0.0433  0.0402  0.4037
 2909ntf    sn216622   5.001   3.609   1.895  0.0308  0.3800  0.1184
 2909ntf    nn316623   5.155   3.624   1.865 -0.1099  0.3148 -0.6313
 2909ntf    sn216624   5.253   3.521   1.799 -0.0509 -0.1871  0.2264
 2909ntf    cn116625   5.239   3.563   1.622  0.4285  0.0716  0.2482
 2909ntf    fn416626   4.846   3.740   2.050 -0.0432  0.1795  0.3198
 2909ntf    fn416627   5.030   3.690   2.146  0.2210 -0.5876  0.0806
 2909ntf    fn416628   5.022   3.849   2.006 -0.6904  0.1053 -0.4888
 2909ntf    on516629   4.969   3.480   1.950 -0.0004  0.3255 -0.0288
 2909ntf    on516630   4.914   3.662   1.793 -0.2250  0.0765  0.1776
 2909ntf    on516631   5.215   3.381   1.797 -0.0229 -0.2053  0.8116
 2909ntf    on516632   5.392   3.545   1.829  0.1891 -0.9090 -0.2623
 2909ntf    fn416633   5.282   3.683   1.588  0.0905  0.1045 -0.0638
 2909ntf    fn416634   5.306   3.477   1.548 -0.2705 -0.0446 -0.2511
 2909ntf    fn416635   5.114   3.558   1.578  0.6480  0.4349 -0.4179
 2910ntf    cn116636   4.819   5.725   6.411 -0.3505 -0.5249  0.3030
 2910ntf    sn216637   4.639   5.706   6.402 -0.3748 -0.0044 -0.4506
 2910ntf    nn316638   4.609   5.856   6.438 -0.6697 -0.1289 -0.1613
 2910ntf    sn216639   4.556   5.917   6.572  0.0481 -0.1716  0.1472
 2910ntf    cn116640   4.377   5.884   6.573 -0.0041  0.0749 -0.7621
 2910ntf    fn416641   4.867   5.792   6.514 -0.6076  0.1189  0.0087
 2910ntf    fn416642   4.897   5.619   6.396  0.2239 -0.0957  0.2079
 2910ntf    fn416643   4.856   5.797   6.306 -0.2140 -0.7275  0.2104
 2910ntf    on516644   4.607   5.665   6.268 -0.2241 -0.9874 -0.1956
 2910ntf    on516645   4.615   5.608   6.506 -0.2616  0.1546 -0.2741
 2910ntf    on516646   4.560   6.060   6.555  0.1400 -0.2358 -0.3789
 2910ntf    on516647   4.607   5.850   6.689  0.0105 -0.2286  0.1308
 2910ntf    fn416648   4.364   5.755   6.549 -0.2267 -0.0834  0.2061
 2910ntf    fn416649   4.309   5.911   6.683 -0.0842 -0.4419 -0.6856
 2910ntf    fn416650   4.313   5.933   6.467 -0.1366 -0.1858 -0.8024
 2911ntf    cn116651   5.194   3.591   0.563 -0.0473  0.3465 -0.1496
 2911ntf    sn216652   5.300   3.628   0.420  0.3741  0.3774  0.1678
 2911ntf    nn316653   5.304   3.493   0.340 -0.1589  0.2652  0.3257
 2911ntf    sn216654   5.263   3.483   0.188  0.0367 -0.2163  0.3030
 2911ntf    cn116655   5.082   3.466   0.192  0.0706 -0.6774 -0.1684
 2911ntf    fn416656   5.081   3.529   0.533  0.4314 -0.8745  0.5005
 2911ntf    fn416657   5.255   3.518   0.656 -0.1546 -0.0292 -0.3722
 2911ntf    fn416658   5.160   3.707   0.617  0.0328 -0.0024  0.6698
 2911ntf    on516659   5.228   3.733   0.352  0.0792 -0.0833 -0.2414
 2911ntf    on516660   5.428   3.667   0.475  0.4546  0.5235 -0.1239
 2911ntf    on516661   5.305   3.356   0.136  0.8936  0.1917 -0.0273
 2911ntf    on516662   5.294   3.603   0.114 -0.3715 -0.5862 -0.4790
 2911ntf    fn416663   5.031   3.583   0.225  0.3351 -0.4728 -0.4809
 2911ntf    fn416664   5.023   3.437   0.077 -0.0524 -0.2433 -0.2131
 2911ntf    fn416665   5.038   3.377   0.280 -0.1024 -0.1681  0.2641
 2912ntf    cn116666   1.321   5.223   5.857  0.3438 -0.0696 -0.0220
 2912ntf    sn216667   1.378   5.299   5.702 -0.2591  0.0746 -0.1743
 2912ntf    nn316668   1.261   5.278   5.599 -0.5639  0.1636  0.1523
 2912ntf    sn216669   1.263   5.180   5.477  0.1128  0.3905 -0.0233
 2912ntf    cn116670   1.097   5.109   5.499  0.0780  0.4735 -0.0202
 2912ntf    fn416671   1.312   5.093   5.838 -0.2795 -0.0216 -0.0614
 2912ntf    fn416672   1.402   5.233   5.962 -0.0894  0.0902  0.2991
 2912ntf    fn416673   1.202   5.262   5.898 -0.1163 -1.0330 -0.4224
 2912ntf    on516674   1.378   5.439   5.735  0.7539  0.0915 -0.2137
 2912ntf    on516675   1.505   5.231   5.694  0.0962  0.7520 -0.3336
 2912ntf    on516676   1.353   5.068   5.460  0.1230  0.3928  0.0159
 2912ntf    on516677   1.250   5.264   5.360  0.1455 -0.3377 -0.5573
 2912ntf    fn416678   1.069   5.064   5.620  0.8070 -0.0295 -0.0351
 2912ntf    fn416679   1.013   5.210   5.479  0.0541  0.4712  0.0720
 2912ntf    fn416680   1.066   5.017   5.410  0.4682  0.0818  0.2454
 2913ntf    cn116681   6.778   0.839   2.612 -0.1234  0.3085  0.1577
 2913ntf    sn216682   6.888   0.984   2.622  0.0552  0.2071 -0.3293
 2913ntf    nn316683   6.978   0.947   2.499  0.1463  0.0826 -0.2258
 2913ntf    sn216684   7.135   0.949   2.488  0.1552  0.0570 -0.0903
 2913ntf    cn116685   7.163   1.107   2.404 -0.1315  0.1372 -0.0364
 2913ntf    fn416686   6.843   0.725   2.597 -0.6829 -0.0758  0.5784
 2913ntf    fn416687   6.711   0.821   2.725 -0.3096 -0.0433 -0.0078
 2913ntf    fn416688   6.685   0.856   2.519 -0.3203 -0.2736  0.2471
 2913ntf    on516689   6.810   1.100   2.586  0.5717  0.6460 -0.0375
 2913ntf    on516690   6.941   0.978   2.756 -0.0413 -0.1265 -0.3058
 2913ntf    on516691   7.178   0.840   2.404  0.7019 -0.2868  0.6192
 2913ntf    on516692   7.207   0.953   2.613 -0.2761 -0.0748  0.1645
 2913ntf    fn416693   7.289   1.140   2.382 -0.1412  0.2795  0.1113
 2913ntf    fn416694   7.093   1.117   2.292 -0.0523  0.1559 -0.0841
 2913ntf    fn416695   7.126   1.212   2.477  0.5281  0.1300  0.3200
 2914ntf    cn116696   2.725   1.196   6.661  0.0453  0.0034  0.1601
 2914ntf    sn216697   2.577   1.277   6.727  0.0498 -0.1275  0.3307
 2914ntf    nn316698   2.512   1.151   6.794 -0.1193 -0.0993  0.2226
 2914ntf    sn216699   2.443   1.024   6.731 -0.4160  0.3584 -0.3862
 2914ntf    cn116700   2.271   1.061   6.773 -0.4118  0.0409 -0.0844
 2914ntf    fn416701   2.702   1.120   6.556 -0.0990 -0.6050  0.6264
 2914ntf    fn416702   2.820   1.282   6.624  0.6080 -0.4683  0.4822
 2914ntf    fn416703   2.789   1.114   6.743  0.2838 -0.2204 -0.2476
 2914ntf    on516704   2.620   1.377   6.822 -0.1501 -0.2891  0.5935
 2914ntf    on516705   2.499   1.319   6.612 -0.1085 -0.0136  0.4790
 2914ntf    on516706   2.477   0.910   6.812  0.1694  1.1066  0.4498
 2914ntf    on516707   2.454   1.014   6.588 -0.1796  0.0466 -0.3472
 2914ntf    fn416708   2.265   1.141   6.879  0.3169 -0.1213  0.0851
 2914ntf    fn416709   2.205   1.115   6.672 -0.1447  0.4140 -0.0614
 2914ntf    fn416710   2.187   0.964   6.805 -0.2833 -0.0726 -0.0964
 2915ntf    cn116711   3.473   5.547   1.909  0.0689  0.1714 -0.2604
 2915ntf    sn216712   3.641   5.586   1.852  0.2377 -0.2288 -0.0422
 2915ntf    nn316713   3.622   5.739   1.821  0.4697 -0.2237 -0.1629
 2915ntf    sn216714   3.722   5.859   1.836 -0.0572  0.1783  0.1854
 2915ntf    cn116715   3.836   5.824   1.699  0.3053  0.1357  0.4946
 2915ntf    fn416716   3.450   5.605   2.025  0.4602 -0.7377  0.2861
 2915ntf    fn416717   3.386   5.593   1.821 -0.5060  0.1838  0.3107
 2915ntf    fn416718   3.445   5.418   1.920 -0.7717  0.3513 -0.2747
 2915ntf    on516719   3.731   5.539   1.955 -0.4148  0.1593  0.7120
 2915ntf    on516720   3.647   5.522   1.723  0.1662  0.5308 -0.4273
 2915ntf    on516721   3.811   5.866   1.950 -0.0071  0.5744  0.1208
 2915ntf    on516722   3.663   5.987   1.807  0.3921  0.3242 -0.1044
 2915ntf    fn416723   3.935   5.908   1.676  0.0499  0.2026 -0.4367
 2915ntf    fn416724   3.890   5.704   1.713  0.4753  0.1377 -0.1209
 2915ntf    fn416725   3.767   5.819   1.586  0.2856  0.1206  0.5071
 2916ntf    cn116726   2.712   3.469   4.601 -0.2260  0.2280 -0.1342
 2916ntf    sn216727   2.870   3.542   4.652 -0.2004  0.1985 -0.1710
 2916ntf    nn316728   2.925   3.590   4.513  0.0064 -0.0128 -0.1654
 2916ntf    sn216729   2.923   3.736   4.453 -0.2382  0.2197  0.3962
 2916ntf    cn116730   3.086   3.801   4.499  0.0939 -0.1477 -0.2438
 2916ntf    fn416731   2.638   3.430   4.703 -0.1758  0.1921 -0.1112
 2916ntf    fn416732   2.643   3.548   4.520  0.2416  0.7858 -0.0019
 2916ntf    fn416733   2.722   3.364   4.521 -0.0066  0.3622 -0.2832
 2916ntf    on516734   2.844   3.650   4.744 -0.0984  0.0566  0.0263
 2916ntf    on516735   2.940   3.428   4.707 -0.2955  0.1185 -0.2162
 2916ntf    on516736   2.835   3.829   4.519  0.3607  0.9403  0.1885
 2916ntf    on516737   2.929   3.747   4.310  0.5409 -0.6692  0.3480
 2916ntf    fn416738   3.114   3.909   4.428  0.5688  0.0209  0.1859
 2916ntf    fn416739   3.081   3.839   4.626 -0.4714 -1.2125  0.0580
 2916ntf    fn416740   3.189   3.718   4.491 -0.0061 -0.3112  0.1410
 2917ntf    cn116741   4.647   3.044   0.394 -0.1981  0.1770 -0.1369
 2917ntf    sn216742   4.679   3.057   0.215 -0.0438 -0.3726 -0.1502
 2917ntf    nn316743   4.636   3.207   0.203  0.2117 -0.3161 -0.3600
 2917ntf    sn216744   4.570   3.290   0.087  0.0105 -0.0912 -0.0849
 2917ntf    cn116745   4.711   3.389   0.031  0.0286  0.0965  0.2910
 2917ntf    fn416746   4.722   3.120   0.472  0.0702 -0.4335  0.2064
 2917ntf    fn416747   4.521   3.076   0.419 -0.3473 -0.3442 -0.2018
 2917ntf    fn416748   4.666   2.916   0.423 -0.3657  0.2626  0.3509
 2917ntf    on516749   4.822   3.041   0.199 -0.0359 -0.4519 -0.0145
 2917ntf    on516750   4.605   2.950   0.153 -0.3695 -0.1872 -0.0783
 2917ntf    on516751   4.469   3.382   0.134  0.0051  0.0905 -0.4513
 2917ntf    on516752   4.529   3.216  -0.030 -0.2103  0.1577 -0.1677
 2917ntf    fn416753   4.761   3.473   0.120  0.0350  0.2608  0.1330
 2917ntf    fn416754   4.811   3.308  -0.000 -0.1511  0.1142 -0.3373
 2917ntf    fn416755   4.679   3.454  -0.079 -0.3804 -0.0676  0.3134
 2918ntf    cn116756   2.943   1.405   6.248 -0.1989 -0.1652 -0.1630
 2918ntf    sn216757   3.124   1.396   6.230 -0.2070  0.1026 -0.3920
 2918ntf    nn316758   3.135   1.293   6.112 -0.2116  0.0825 -0.3753
 2918ntf    sn216759   3.149   1.314   5.957 -0.1694  0.1895 -0.3564
 2918ntf    cn116760   3.193   1.146   5.902 -0.0219  0.1514 -0.1211
 2918ntf    fn416761   2.907   1.451   6.129 -0.1255  0.6614  0.1268
 2918ntf    fn416762   2.885   1.286   6.251 -0.2665 -0.1295 -0.0599
 2918ntf    fn416763   2.899   1.484   6.345 -0.8041  0.0866 -0.6341
 2918ntf    on516764   3.164   1.530   6.197  0.5748 -0.0862 -0.2461
 2918ntf    on516765   3.171   1.333   6.351 -0.0658  0.5350 -0.2233
 2918ntf    on516766   3.256   1.402   5.918  0.2913 -0.4412 -0.5467
 2918ntf    on516767   3.019   1.342   5.900  0.0133  0.1742 -0.7885
 2918ntf    fn416768   3.257   1.154   5.787  0.1303  0.0522 -0.0435
 2918ntf    fn416769   3.277   1.098   5.992 -0.2325 -0.3509 -0.1891
 2918ntf    fn416770   3.092   1.061   5.892 -0.0719  0.1979 -0.0143
 2919ntf    cn116771   3.208   7.005   6.629 -0.2653  0.1229 -0.1214
 2919ntf    sn216772   3.113   7.058   6.775 -0.1432  0.2740 -0.0969
 2919ntf    nn316773   3.205   7.166   6.842  0.5382 -0.4054  0.0849
 2919ntf    sn216774   3.236   7.189   6.994  0.0339 -0.2958  0.1731
 2919ntf    cn116775   3.403   7.262   6.997  0.2143 -0.7081  0.1704
 2919ntf    fn416776   3.334   6.973   6.653 -0.2429 -0.3251 -0.8269
 2919ntf    fn416777   3.165   6.900   6.560 -0.4215 -0.1179  0.3401
 2919ntf    fn416778   3.229   7.103   6.543  0.2570 -0.1665 -0.3275
 2919ntf    on516779   2.993   7.121   6.725 -0.1752  0.4501  0.2021
 2919ntf    on516780   3.104   6.935   6.850  0.0854  0.0311 -0.4610
 2919ntf    on516781   3.251   7.070   7.074 -0.3564 -0.1527  0.4628
 2919ntf    on516782   3.148   7.289   7.050 -0.1898 -0.0926 -0.5306
 2919ntf    fn416783   3.504   7.185   6.962  0.7421  0.3017 -0.5785
 2919ntf    fn416784   3.398   7.365   6.914 -0.7337 -0.6968  0.2281
 2919ntf    fn416785   3.433   7.302   7.119  0.1187 -0.1480  0.0138
 2920ntf    cn116786   6.199   1.723   6.626  0.0868  0.0187 -0.0957
 2920ntf    sn216787   6.209   1.816   6.470 -0.2002  0.0789 -0.0796
 2920ntf    nn316788   6.083   1.762   6.393 -0.0605  0.1130 -0.3355
 2920ntf    sn216789   5.954   1.844   6.355 -0.0557  0.2527 -0.0598
 2920ntf    cn116790   5.822   1.720   6.333  0.1361  0.0400 -0.0255
 2920ntf    fn416791   6.210   1.591   6.627 -0.2723 -0.0141 -0.0670
 2920ntf    fn416792   6.289   1.777   6.706  0.2107 -0.4686  0.0967
 2920ntf    fn416793   6.079   1.746   6.678  0.3147  0.0817  0.3995
 2920ntf    on516794   6.193   1.953   6.513 -0.2662  0.1100 -0.2028
 2920ntf    on516795   6.338   1.774   6.419 -0.3622  0.1978 -0.6005
 2920ntf    on516796   5.963   1.909   6.226  0.1942  0.6325  0.1487
 2920ntf    on516797   5.902   1.926   6.461 -0.6160  0.0576 -0.1800
 2920ntf    fn416798   5.843   1.642   6.229 -0.4453  0.4060 -0.4269
 2920ntf    fn416799   5.811   1.650   6.444 -0.5942 -0.2097 -0.2518
 2920ntf    fn416800   5.700   1.767   6.311  0.2484 -0.0160 -0.7822
 2921ntf    cn116801   0.866   2.206   3.774  0.3106 -0.5358  0.1844
 2921ntf    sn216802   0.769   2.336   3.856  0.4394 -0.2504 -0.1125
 2921ntf    nn316803   0.619   2.291   3.848  0.3943 -0.0814 -0.2173
 2921ntf    sn216804   0.527   2.233   3.961  0.6083  0.0207  0.0093
 2921ntf    cn116805   0.357   2.277   3.913  0.3113 -0.1310  0.8987
 2921ntf    fn416806   0.997   2.227   3.771  0.2630 -0.2541  0.1098
 2921ntf    fn416807   0.857   2.096   3.847 -0.0629 -0.2833  0.5269
 2921ntf    fn416808   0.829   2.170   3.653  0.4189 -0.0519  0.0055
 2921ntf    on516809   0.819   2.350   3.991 -0.2588 -0.4526  0.1745
 2921ntf    on516810   0.794   2.447   3.768 -0.6072 -0.3492 -0.5544
 2921ntf    on516811   0.538   2.301   4.088 -0.3262  0.0001  0.1099
 2921ntf    on516812   0.532   2.089   3.956  0.1094 -0.0351  0.8549
 2921ntf    fn416813   0.274   2.254   4.013 -0.1849  0.1878  0.5598
 2921ntf    fn416814   0.344   2.405   3.883  0.0446 -0.2630  0.4353
 2921ntf    fn416815   0.309   2.212   3.809 -0.1002  0.9049  0.4341
 2922ntf    cn116816   2.083   6.029   5.709  0.2787  0.0949  0.0943
 2922ntf    sn216817   2.112   6.206   5.680  0.1674  0.0846 -0.0828
 2922ntf    nn316818   2.238   6.201   5.588  0.3845  0.1787  0.2066
 2922ntf    sn216819   2.252   6.212   5.432 -0.1524 -0.4718  0.1105
 2922ntf    cn116820   2.333   6.052   5.402  0.1356 -0.3444  0.2134
 2922ntf    fn416821   1.977   6.000   5.783  0.1171 -0.1591 -0.2337
 2922ntf    fn416822   2.078   5.954   5.600 -0.1858 -0.5908  0.5765
 2922ntf    fn416823   2.184   5.981   5.780  0.2855 -0.1903 -0.1064
 2922ntf    on516824   1.984   6.250   5.631  0.0381  0.1369  0.2990
 2922ntf    on516825   2.164   6.254   5.806  0.5063  0.1923 -0.2646
 2922ntf    on516826   2.348   6.313   5.396 -0.7320  0.2012  0.4373
 2922ntf    on516827   2.129   6.205   5.357 -0.2225  0.2007  0.1579
 2922ntf    fn416828   2.463   6.071   5.415  0.0943 -0.0103  0.1375
 2922ntf    fn416829   2.304   5.956   5.489  0.1885 -0.0272  0.5831
 2922ntf    fn416830   2.306   6.003   5.282 -1.0993  0.2061  0.2554
 2923ntf    cn116831   1.221   6.022   5.443  0.3319 -0.6784  0.2135
 2923ntf    sn216832   1.101   6.014   5.580 -0.2421  0.0285 -0.2364
 2923ntf    nn316833   1.039   6.157   5.598 -0.2464 -0.0223  0.1614
 2923ntf    sn216834   1.116   6.280   5.657 -0.0555  0.1154 -0.3661
 2923ntf    cn116835   1.049   6.266   5.826  0.3050 -0.4844 -0.2713
 2923ntf    fn416836   1.219   6.144   5.392 -0.1463 -0.4648  0.7347
 2923ntf    fn416837   1.345   6.019   5.489  0.6561 -0.3162 -0.6185
 2923ntf    fn416838   1.215   5.935   5.344  0.0085 -0.8963  0.4217
 2923ntf    on516839   0.988   5.939   5.532  0.1982 -0.3187 -0.7437
 2923ntf    on516840   1.172   5.950   5.689 -0.2429  0.1795 -0.1464
 2923ntf    on516841   1.064   6.407   5.612 -0.1615  0.0230 -0.5030
 2923ntf    on516842   1.257   6.273   5.684 -0.1121  0.1434 -0.0568
 2923ntf    fn416843   1.073   6.154   5.892  0.3750 -0.2664  0.0792
 2923ntf    fn416844   1.091   6.356   5.913 -0.5982 -0.3614  0.0489
 2923ntf    fn416845   0.919   6.284   5.840  0.4125 -0.0243  0.1303
 2924ntf    cn116846   2.280   1.637   4.167  0.3570  0.1656 -0.0914
 2924ntf    sn216847   2.155   1.769   4.160 -0.1849 -0.3395 -0.0404
 2924ntf    nn316848   2.151   1.806   4.312 -0.5112 -0.8330  0.0724
 2924ntf    sn216849   2.040   1.877   4.398  0.0809 -0.1223  0.2615
 2924ntf    cn116850   2.002   2.010   4.280  0.0373 -0.0790  0.3241
 2924ntf    fn416851   2.398   1.674   4.215  0.4789 -0.2271 -0.0847
 2924ntf    fn416852   2.222   1.545   4.243  0.1170  0.0503 -0.4150
 2924ntf    fn416853   2.308   1.577   4.053 -0.0838  0.1833 -0.2099
 2924ntf    on516854   2.210   1.862   4.064  0.2249  0.1508  0.6675
 2924ntf    on516855   2.041   1.690   4.121 -0.4294  0.1360 -0.2931
 2924ntf    on516856   2.089   1.944   4.516  0.0863  0.2642  0.0387
 2924ntf    on516857   1.922   1.796   4.419  0.3040 -0.5215  0.0039
 2924ntf    fn416858   1.916   1.972   4.186 -0.3197  0.3737  0.4628
 2924ntf    fn416859   1.947   2.110   4.347 -0.6128 -0.1617 -0.0674
 2924ntf    fn416860   2.109   2.050   4.213 -0.0911 -0.3480 -0.0483
 2925ntf    cn116861   0.136   0.499   6.978  0.0479  0.1389 -0.4697
 2925ntf    sn216862   0.178   0.600   7.124 -0.4319 -0.0221 -0.2211
 2925ntf    nn316863   0.128   0.512   7.244  0.1409 -0.5040 -0.3315
 2925ntf    sn216864   0.099   0.571   7.386 -0.0306 -0.3683 -0.4232
 2925ntf    cn116865   0.203   0.464   7.489 -0.0613  0.4825  0.5177
 2925ntf    fn416866   0.202   0.385   6.964 -0.0987 -0.0598  0.4183
 2925ntf    fn416867   0.008   0.467   6.983  0.1400 -0.2493 -0.5250
 2925ntf    fn416868   0.155   0.572   6.870 -0.3666  0.4307 -0.3447
 2925ntf    on516869   0.321   0.616   7.122 -0.4510  0.2095  0.2730
 2925ntf    on516870   0.095   0.715   7.100  0.0468  0.3819  0.0634
 2925ntf    on516871  -0.032   0.539   7.436  0.1805  0.4061  0.6761
 2925ntf    on516872   0.150   0.703   7.417  0.3373 -0.6781  0.3146
 2925ntf    fn416873   0.329   0.462   7.449 -0.1803 -0.4574  0.1494
 2925ntf    fn416874   0.196   0.500   7.616  0.2681  0.8442  0.4330
 2925ntf    fn416875   0.167   0.336   7.489  0.8492  0.2187  0.6708
 2926ntf    cn116876   2.056   4.163   0.680  0.4785  0.3477  0.2215
 2926ntf    sn216877   1.920   4.111   0.788  0.1276  0.1671 -0.3078
 2926ntf    nn316878   1.981   3.983   0.855  0.0465 -0.0313 -0.6066
 2926ntf    sn216879   2.053   3.965   0.993 -0.5525  0.1165 -0.2717
 2926ntf    cn116880   1.917   3.993   1.111 -0.2742 -0.0048  0.0810
 2926ntf    fn416881   2.151   4.205   0.763  0.2813  0.1453  0.5520
 2926ntf    fn416882   2.108   4.063   0.610 -0.3744 -0.1448  0.2831
 2926ntf    fn416883   2.008   4.254   0.597 -0.0939  0.3065  0.5084
 2926ntf    on516884   1.884   4.222   0.873 -0.5459  0.1471 -0.5588
 2926ntf    on516885   1.823   4.077   0.686  0.0789  0.1133 -0.2435
 2926ntf    on516886   2.155   4.059   1.032 -0.2295 -0.3769  0.0990
 2926ntf    on516887   2.079   3.825   1.019 -0.7909  0.1014 -0.1139
 2926ntf    fn416888   1.963   3.990   1.235 -0.4757  1.0072  0.1875
 2926ntf    fn416889   1.855   4.106   1.084 -0.3915 -0.2521 -0.7336
 2926ntf    fn416890   1.826   3.897   1.103 -0.1972 -0.0930  0.2540
 2927ntf    cn116891   1.002   0.304   4.086  0.0504 -0.4585 -0.1475
 2927ntf    sn216892   0.929   0.400   3.951  0.1014 -0.0138  0.1377
 2927ntf    nn316893   0.971   0.544   3.997  0.2591 -0.1255  0.3415
 2927ntf    sn216894   1.040   0.659   3.917 -0.1160  0.0939  0.3329
 2927ntf    cn116895   1.209   0.623   3.974 -0.0826  0.1306  0.2585
 2927ntf    fn416896   0.947   0.185   4.106 -0.0617 -0.3369  0.2739
 2927ntf    fn416897   1.130   0.281   4.058  0.4278  0.0071  1.0866
 2927ntf    fn416898   1.002   0.363   4.205  0.5785 -0.0250 -0.3591
 2927ntf    on516899   1.001   0.340   3.841  0.0083  0.0497  0.0420
 2927ntf    on516900   0.788   0.371   3.958 -0.1084  1.0080  0.1851
 2927ntf    on516901   1.006   0.789   3.971 -0.5726 -0.1783  0.7032
 2927ntf    on516902   1.044   0.655   3.773  0.0404  0.0822  0.3364
 2927ntf    fn416903   1.232   0.644   4.103 -0.6393  0.3181  0.3305
 2927ntf    fn416904   1.243   0.497   3.950  0.1760  0.2090  0.2160
 2927ntf    fn416905   1.298   0.694   3.908 -0.2226  0.0054 -0.0643
 2928ntf    cn116906   4.740   3.946   1.124 -0.1508  0.3632 -0.1641
 2928ntf    sn216907   4.628   3.839   1.028 -0.0213 -0.1176  0.2182
 2928ntf    nn316908   4.576   3.951   0.931 -0.3205 -0.3179  0.1472
 2928ntf    sn216909   4.442   4.033   0.933 -0.1600 -0.0533  0.0849
 2928ntf    cn116910   4.486   4.174   0.828 -0.3173 -0.2326 -0.2216
 2928ntf    fn416911   4.666   4.029   1.194 -0.5878 -0.1248 -0.0438
 2928ntf    fn416912   4.816   3.872   1.203 -0.4709 -0.0514 -0.2407
 2928ntf    fn416913   4.825   4.021   1.055 -0.1371  0.6201  0.1313
 2928ntf    on516914   4.723   3.742   0.979  0.5664  0.5733 -0.0326
 2928ntf    on516915   4.526   3.789   1.117  0.2114 -0.5115  0.2636
 2928ntf    on516916   4.410   4.090   1.062  0.1342 -0.1856  0.2187
 2928ntf    on516917   4.338   3.969   0.856 -0.3108 -0.0747  0.3018
 2928ntf    fn416918   4.607   4.220   0.856 -0.7286  0.6183  0.1833
 2928ntf    fn416919   4.491   4.149   0.698 -0.3244  0.3160 -0.3306
 2928ntf    fn416920   4.399   4.272   0.841  0.1276  0.1015  0.2886
 2929ntf    cn116921   0.841   3.015   4.610 -0.3446  0.0624  0.1147
 2929ntf    sn216922   0.930   2.901   4.720 -0.0392  0.3043  0.1185
 2929ntf    nn316923   1.055   2.987   4.760  0.0240  0.0340  0.5054
 2929ntf    sn216924   1.184   3.012   4.673 -0.3353 -0.1830 -0.0962
 2929ntf    cn116925   1.301   2.900   4.756 -0.0859  0.0958 -0.0713
 2929ntf    fn416926   0.722   2.969   4.575 -0.3045  0.3758 -0.4594
 2929ntf    fn416927   0.827   3.132   4.670 -0.1784  0.2410 -0.1873
 2929ntf    fn416928   0.910   3.035   4.499 -0.3414 -0.8836 -0.0652
 2929ntf    on516929   0.842   2.878   4.831 -0.5541  0.6707 -0.2068
 2929ntf    on516930   0.950   2.782   4.641  0.1672  0.1763  0.3625
 2929ntf    on516931   1.250   3.137   4.699 -0.1172 -0.2911 -0.1235
 2929ntf    on516932   1.179   2.974   4.534  0.2271 -0.3172 -0.0814
 2929ntf    fn416933   1.425   2.926   4.717  0.0530 -0.3881  0.0340
 2929ntf    fn416934   1.306   2.913   4.888 -1.2630  0.2729 -0.0366
 2929ntf    fn416935   1.279   2.772   4.730  0.1766  0.0489 -0.0707
 2930ntf    cn116936   4.979   2.183   5.114 -0.3109 -0.2602 -0.0469
 2930ntf    sn216937   5.061   2.155   5.274 -0.2659  0.0214 -0.0200
 2930ntf    nn316938   5.132   2.293   5.292  0.9961 -0.7032  0.7241
 2930ntf    sn216939   5.147   2.391   5.415  0.1888  0.0398  0.2428
 2930ntf    cn116940   5.146   2.544   5.317  0.6079 -0.2669 -0.2524
 2930ntf    fn416941   4.875   2.264   5.113  0.2172  0.4256 -0.1014
 2930ntf    fn416942   5.063   2.228   5.023 -0.2954  0.2559  0.2215
 2930ntf    fn416943   4.928   2.073   5.062 -0.4350 -0.0564 -0.3552
 2930ntf    on516944   4.949   2.120   5.359 -0.1861  0.1178  0.1265
 2930ntf    on516945   5.144   2.041   5.241 -0.5614 -0.2277  0.0860
 2930ntf    on516946   5.271   2.392   5.487  0.2084 -0.4833  0.2253
 2930ntf    on516947   5.028   2.402   5.495 -0.0686  0.3792 -0.1813
 2930ntf    fn416948   5.022   2.564   5.273  0.4403 -0.4120  0.1485
 2930ntf    fn416949   5.187   2.647   5.389 -0.6119  0.0382  0.0320
 2930ntf    fn416950   5.223   2.549   5.210  0.3092 -0.0338 -0.4610
 2931ntf    cn116951   6.504   7.015   2.647 -0.3229 -0.4028  0.1593
 2931ntf    sn216952   6.446   6.948   2.489  0.0315 -0.2102 -0.0540
 2931ntf    nn316953   6.538   6.823   2.467  0.1090 -0.2318  0.3866
 2931ntf    sn216954   6.521   6.674   2.514 -0.1993 -0.2540  0.2123
 2931ntf    cn116955   6.650   6.582   2.424 -0.2912  0.0555 -0.2404
 2931ntf    fn416956   6.509   6.914   2.733 -0.2909 -0.1183  0.4960
 2931ntf    fn416957   6.632   7.050   2.645 -0.3630 -0.2784 -0.1568
 2931ntf    fn416958   6.421   7.103   2.699 -0.4598 -0.0875 -0.5889
 2931ntf    on516959   6.307   6.919   2.514 -0.1250  0.1220 -0.5321
 2931ntf    on516960   6.469   7.051   2.390  0.7166 -0.1116  0.2019
 2931ntf    on516961   6.409   6.600   2.462  0.1001 -0.4271 -0.1880
 2931ntf    on516962   6.560   6.658   2.652  0.9598  0.6363  0.0111
 2931ntf    fn416963   6.626   6.453   2.441 -0.3421  0.0680 -0.2200
 2931ntf    fn416964   6.653   6.609   2.295  0.5278 -0.3011 -0.3037
 2931ntf    fn416965   6.774   6.600   2.465 -0.2920 -0.1650 -0.1377
 2932ntf    cn116966   4.833   5.391   4.294  0.1608 -0.3931 -0.1426
 2932ntf    sn216967   4.659   5.438   4.272  0.4788  0.7852 -0.2179
 2932ntf    nn316968   4.596   5.345   4.162  0.6158  0.1088  0.2695
 2932ntf    sn216969   4.499   5.223   4.183  0.3077  0.4157  0.6525
 2932ntf    cn116970   4.620   5.098   4.129 -0.2493  0.0280  0.2882
 2932ntf    fn416971   4.833   5.287   4.375 -0.9563 -0.0637  0.2961
 2932ntf    fn416972   4.890   5.356   4.180  0.3802  0.2557 -0.2328
 2932ntf    fn416973   4.896   5.496   4.344  0.3173 -0.4865 -0.1444
 2932ntf    on516974   4.615   5.420   4.408 -0.9082 -0.0654 -0.7470
 2932ntf    on516975   4.665   5.574   4.225  0.3621  0.7131 -0.4466
 2932ntf    on516976   4.392   5.207   4.087 -0.2179  0.0701  1.2946
 2932ntf    on516977   4.463   5.191   4.319 -0.0723 -0.0613  0.4446
 2932ntf    fn416978   4.730   5.102   4.202  0.1027  0.0316 -0.2427
 2932ntf    fn416979   4.566   4.977   4.133  0.0510 -0.1466 -0.8016
 2932ntf    fn416980   4.652   5.119   4.003 -0.5634  0.0817  0.2159
 2933ntf    cn116981   1.574   3.117   5.056 -0.2946  0.2851  0.3030
 2933ntf    sn216982   1.746   3.059   5.073 -0.2140  0.4507  0.0594
 2933ntf    nn316983   1.800   3.160   5.181 -0.2714  0.2336  0.2932
 2933ntf    sn216984   1.882   3.144   5.314  0.0356 -0.1355  0.0645
 2933ntf    cn116985   2.031   3.239   5.274  0.2053 -0.3160  0.2676
 2933ntf    fn416986   1.502   3.136   5.165  0.1095  0.1574  0.5940
 2933ntf    fn416987   1.569   3.230   4.987 -0.2140  0.0009 -0.1725
 2933ntf    fn416988   1.499   3.034   4.985  0.8050 -0.0470 -0.4933
 2933ntf    on516989   1.724   2.925   5.121  0.1047  0.5992  0.6323
 2933ntf    on516990   1.800   3.066   4.940 -0.2275  0.3038  0.0463
 2933ntf    on516991   1.932   3.012   5.345 -0.1377 -0.3024 -0.3598
 2933ntf    on516992   1.828   3.225   5.420 -0.0489 -0.1184  0.0090
 2933ntf    fn416993   2.109   3.251   5.381  0.9994 -0.1206 -0.3204
 2933ntf    fn416994   2.104   3.188   5.176 -0.1721  0.0699 -0.2193
 2933ntf    fn416995   2.003   3.364   5.240 -0.1611 -0.6198 -0.5557
 2934ntf    cn116996   1.836   1.126   1.966  0.0136  0.4880 -0.1153
 2934ntf    sn216997   1.967   0.999   1.970 -0.3105  0.1594  0.1744
 2934ntf    nn316998   2.073   1.057   2.070  0.3808 -0.1736 -0.3591
 2934ntf    sn216999   2.083   1.018   2.222  0.1859  0.1041 -0.2737
 2934ntf    cn117000   2.185   0.868   2.216 -0.0716 -0.0963  0.2920
 2934ntf    fn417001   1.740   1.104   2.054  0.1114 -0.2636 -0.1820
 2934ntf    fn417002   1.886   1.247   1.984 -0.0500  0.5707 -0.4908
 2934ntf    fn417003   1.778   1.123   1.847 -0.5280 -0.8700  0.1645
 2934ntf    on517004   1.906   0.877   2.015  0.3093 -0.3493 -0.3481
 2934ntf    on517005   2.027   1.001   1.839 -0.5767 -0.6331  0.0398
 2934ntf    on517006   1.961   0.984   2.290  0.1462  0.8041  0.0088
 2934ntf    on517007   2.166   1.115   2.288 -0.1515  0.3155 -0.1591
 2934ntf    fn417008   2.230   0.842   2.338 -0.2119 -0.2424  0.3121
 2934ntf    fn417009   2.130   0.759   2.166  0.3813 -0.2866  0.1997
 2934ntf    fn417010   2.292   0.892   2.141 -0.2374  0.0174  0.0905
 2935ntf    cn117011   0.777   3.827   3.540  0.0009  0.1312 -0.1896
 2935ntf    sn217012   0.845   3.658   3.529 -0.6565 -0.1385 -0.1864
 2935ntf    nn317013   0.954   3.672   3.641 -0.3238 -0.1486 -0.5070
 2935ntf    sn217014   0.960   3.577   3.766 -0.1061  0.0196 -0.3907
 2935ntf    cn117015   1.119   3.627   3.839 -0.3776 -0.2717  0.4082
 2935ntf    fn417016   0.870   3.920   3.536 -0.0170  0.1444 -0.3114
 2935ntf    fn417017   0.694   3.851   3.440 -0.0826 -0.0960 -0.1757
 2935ntf    fn417018   0.706   3.840   3.651 -0.2002  0.1536 -0.3188
 2935ntf    on517019   0.729   3.578   3.559 -0.7259  0.1386  0.2991
 2935ntf    on517020   0.898   3.664   3.395 -0.4012 -0.1382 -0.0861
 2935ntf    on517021   0.976   3.438   3.731 -0.0351 -0.0849  0.0464
 2935ntf    on517022   0.857   3.601   3.864 -0.2193 -0.3427 -0.4206
 2935ntf    fn417023   1.176   3.554   3.934 -0.0046  0.0889  0.4652
 2935ntf    fn417024   1.213   3.649   3.749 -0.4223  0.1720  0.4695
 2935ntf    fn417025   1.104   3.742   3.903 -0.0646 -0.2049  0.3663
 2936ntf    cn117026   7.073   6.253   5.430  0.6062 -0.0328  0.0399
 2936ntf    sn217027   7.083   6.099   5.335  0.0301 -0.0852  0.0618
 2936ntf    nn317028   6.945   6.034   5.374 -0.0025 -0.1008 -0.0776
 2936ntf    sn217029   6.804   6.045   5.305 -0.1063  0.2326  0.1835
 2936ntf    cn117030   6.800   5.905   5.190  0.3979  0.3250  0.0487
 2936ntf    fn417031   7.171   6.341   5.419  0.7564 -0.2281 -0.1778
 2936ntf    fn417032   6.964   6.319   5.395  0.1324 -0.5623  0.4957
 2936ntf    fn417033   7.059   6.229   5.559  0.6080 -0.7336 -0.0859
 2936ntf    on517034   7.092   6.135   5.196  0.3241 -0.2755  0.0312
 2936ntf    on517035   7.192   6.031   5.399 -0.0538 -0.4486 -0.1763
 2936ntf    on517036   6.786   6.163   5.224  0.1746 -0.2461 -0.5916
 2936ntf    on517037   6.697   6.018   5.397 -0.0571 -0.4310  0.0496
 2936ntf    fn417038   6.685   5.887   5.127  0.4436 -0.9863  0.3103
 2936ntf    fn417039   6.893   5.908   5.096  0.5560  0.2469  0.2029
 2936ntf    fn417040   6.827   5.790   5.250  0.2875  0.0604 -0.4011
 2937ntf    cn117041   5.458   2.520   2.957  0.0411 -0.1864  0.1413
 2937ntf    sn217042   5.610   2.471   2.871  0.1245 -0.2668  0.3337
 2937ntf    nn317043   5.580   2.317   2.879 -0.0549 -0.2577 -0.1388
 2937ntf    sn217044   5.645   2.214   2.978  0.1368 -0.0089 -0.0026
 2937ntf    cn117045   5.783   2.149   2.878  0.2757 -0.1207  0.2624
 2937ntf    fn417046   5.423   2.437   3.054  0.1910 -0.1424  0.2336
 2937ntf    fn417047   5.462   2.638   3.015 -0.5886  0.0720 -0.3265
 2937ntf    fn417048   5.358   2.514   2.870  0.4214 -0.0087 -0.3133
 2937ntf    on517049   5.593   2.520   2.737  0.5845 -0.3829  0.2296
 2937ntf    on517050   5.718   2.531   2.947  0.4713 -0.2589 -0.1559
 2937ntf    on517051   5.552   2.104   2.990  0.0293  0.0795 -0.0274
 2937ntf    on517052   5.713   2.259   3.097  0.4693  0.0269 -0.2031
 2937ntf    fn417053   5.869   2.246   2.847  0.1468 -0.2538 -0.5183
 2937ntf    fn417054   5.848   2.048   2.935  0.1968 -0.1015  0.3882
 2937ntf    fn417055   5.738   2.099   2.765  0.3001 -0.0848  0.2364
 2938ntf    cn117056   4.999   0.177   1.294  0.0673  0.0424  0.7361
 2938ntf    sn217057   4.893   0.029   1.297  0.4856 -0.2721  0.2306
 2938ntf    nn317058   4.937  -0.021   1.440 -0.0355  0.1457  0.5431
 2938ntf    sn217059   4.972  -0.168   1.484  0.4123  0.0507 -0.1111
 2938ntf    cn117060   4.842  -0.205   1.606 -0.0484 -0.5817 -0.7886
 2938ntf    fn417061   5.008   0.247   1.406  0.1804  0.1788  0.6420
 2938ntf    fn417062   5.123   0.142   1.262 -0.2122 -0.3781  0.0903
 2938ntf    fn417063   4.964   0.266   1.203 -0.1728 -0.8169 -0.0260
 2938ntf    on517064   4.757   0.077   1.297  0.6013  0.0624 -0.1981
 2938ntf    on517065   4.937  -0.040   1.179 -0.9997 -0.5796 -0.1666
 2938ntf    on517066   5.083  -0.178   1.575 -0.1804 -0.2546  0.5803
 2938ntf    on517067   4.968  -0.272   1.384  0.2349  0.1272 -0.1848
 2938ntf    fn417068   4.840  -0.121   1.708  0.4187 -0.5896 -0.7684
 2938ntf    fn417069   4.722  -0.193   1.551 -0.3452 -0.3283 -0.0937
 2938ntf    fn417070   4.840  -0.330   1.650  0.0171 -0.4426 -0.3849
 2939ntf    cn117071   2.198   3.767   5.977 -0.5487 -0.2372  0.2914
 2939ntf    sn217072   2.356   3.707   6.043 -0.1195  0.1991 -0.3184
 2939ntf    nn317073   2.347   3.552   6.016 -0.3823  0.2024 -0.2535
 2939ntf    sn217074   2.418   3.471   5.902  0.0741  0.0522  0.1379
 2939ntf    cn117075   2.571   3.450   5.998 -0.0065  0.4118  0.3473
 2939ntf    fn417076   2.175   3.897   5.978  0.3179 -0.0841  0.3694
 2939ntf    fn417077   2.189   3.728   5.851 -0.1516  0.1799  0.1291
 2939ntf    fn417078   2.098   3.706   6.038 -0.5052 -0.4405  0.1610
 2939ntf    on517079   2.454   3.776   5.964  0.2787 -0.0177 -0.0187
 2939ntf    on517080   2.357   3.730   6.186 -0.6062 -0.0576 -0.2677
 2939ntf    on517081   2.462   3.552   5.791 -0.0831  0.4692  0.3796
 2939ntf    on517082   2.376   3.335   5.878 -0.0992  0.0957  0.1926
 2939ntf    fn417083   2.638   3.561   6.026  0.8674 -0.0984  0.3163
 2939ntf    fn417084   2.555   3.389   6.114 -0.6563 -0.4081 -0.1630
 2939ntf    fn417085   2.654   3.368   5.935 -0.6692 -0.2579  0.3323
 2940ntf    cn117086   3.944   6.510   7.076  0.4886  0.5907  0.3486
 2940ntf    sn217087   4.035   6.370   7.002  0.3275  0.6402  0.0541
 2940ntf    nn317088   4.010   6.377   6.848 -0.2941 -0.1831  0.1105
 2940ntf    sn217089   4.106   6.425   6.733 -0.3711 -0.1569  0.0581
 2940ntf    cn117090   4.169   6.268   6.665 -0.0647  0.0627 -0.1690
 2940ntf    fn417091   3.819   6.515   7.031  0.6956 -0.6445 -0.4397
 2940ntf    fn417092   3.945   6.522   7.208  0.7761  0.0492  0.3996
 2940ntf    fn417093   3.985   6.630   7.039  0.5549  0.5166  0.1802
 2940ntf    on517094   4.169   6.399   7.046  0.6848 -0.3121 -0.3904
 2940ntf    on517095   3.970   6.253   7.056 -0.3722  0.6449 -0.7522
 2940ntf    on517096   4.229   6.491   6.766 -0.1195 -0.6604  0.1379
 2940ntf    on517097   4.031   6.485   6.624 -0.1740 -0.0793 -0.0356
 2940ntf    fn417098   4.242   6.195   6.748 -0.4465  0.1213  0.2272
 2940ntf    fn417099   4.077   6.190   6.612  0.4656 -0.2768 -0.5908
 2940ntf    fn417100   4.255   6.290   6.567  0.2750  0.1333  0.1397
 2941ntf    cn117101   1.354   1.594   3.971 -0.3850 -0.0583 -0.1882
 2941ntf    sn217102   1.330   1.414   3.965  0.1331 -0.1234 -0.3729
 2941ntf    nn317103   1.271   1.382   4.107 -0.3532  0.1231 -0.5166
 2941ntf    sn217104   1.130   1.333   4.156 -0.2152  0.4571  0.2284
 2941ntf    cn117105   1.143   1.153   4.132  0.1132  0.5186 -0.0664
 2941ntf    fn417106   1.375   1.638   3.848  1.0022 -0.1986 -0.0195
 2941ntf    fn417107   1.246   1.658   4.013 -0.1740  0.3560 -0.2663
 2941ntf    fn417108   1.463   1.632   4.036 -0.2693 -0.6777 -0.0121
 2941ntf    on517109   1.246   1.394   3.849 -0.6515  0.5870  0.0609
 2941ntf    on517110   1.462   1.357   3.959  0.0458 -0.3166 -0.4823
 2941ntf    on517111   1.025   1.382   4.069 -0.5473 -0.0206  0.3591
 2941ntf    on517112   1.116   1.349   4.298  0.0496 -0.2150  0.3310
 2941ntf    fn417113   1.040   1.089   4.186 -0.2863  0.7057 -0.5892
 2941ntf    fn417114   1.139   1.119   4.004  0.4605  0.7810 -0.1498
 2941ntf    fn417115   1.255   1.118   4.193  0.1792  0.5057 -0.1950
 2942ntf    cn117116   3.821   1.748   1.849  0.0175  0.3102 -0.3484
 2942ntf    sn217117   3.697   1.832   1.952  0.0689  0.0904 -0.1058
 2942ntf    nn317118   3.583   1.836   1.844 -0.1282 -0.1756  0.0936
 2942ntf    sn217119   3.432   1.879   1.857 -0.0852  0.0102 -0.0226
 2942ntf    cn117120   3.359   1.719   1.903 -0.3034  0.1917  0.2669
 2942ntf    fn417121   3.854   1.816   1.740  0.5365  0.4487 -0.1090
 2942ntf    fn417122   3.927   1.708   1.918  0.3195  0.0367 -0.9526
 2942ntf    fn417123   3.779   1.632   1.802  0.0947  0.0445  0.2306
 2942ntf    on517124   3.686   1.744   2.066 -0.5331  0.1508 -0.1147
 2942ntf    on517125   3.752   1.963   1.975 -0.5641  0.3476 -0.0561
 2942ntf    on517126   3.377   1.930   1.734 -0.4244 -0.0954  0.0852
 2942ntf    on517127   3.403   1.960   1.973 -0.5521  0.0197 -0.1444
 2942ntf    fn417128   3.228   1.729   1.918 -0.3807  0.4136 -0.5298
 2942ntf    fn417129   3.381   1.622   1.816  0.0793  0.9030 -0.4492
 2942ntf    fn417130   3.413   1.671   2.014  0.2403  0.7733  0.2608
 2943ntf    cn117131   0.883   0.806   0.035 -0.8510 -0.0912 -0.1155
 2943ntf    sn217132   0.823   0.805   0.207  0.0001 -0.1083  0.1849
 2943ntf    nn317133   0.766   0.951   0.209  0.1444 -0.0617  0.9145
 2943ntf    sn217134   0.797   1.071   0.305 -0.2146  0.5903  0.2256
 2943ntf    cn117135   0.882   1.183   0.190 -0.1974  0.1875 -0.1558
 2943ntf    fn417136   0.792   0.791  -0.061 -0.7175 -0.8201 -0.1374
 2943ntf    fn417137   0.948   0.917   0.007 -0.4398 -0.2702  0.1199
 2943ntf    fn417138   0.978   0.714   0.031 -0.7062  0.0479  0.1066
 2943ntf    on517139   0.720   0.705   0.210 -0.0831 -0.0466 -0.4360
 2943ntf    on517140   0.943   0.783   0.284  0.2868  0.1572 -0.1772
 2943ntf    on517141   0.894   1.051   0.410 -0.6591 -0.0778  0.5127
 2943ntf    on517142   0.674   1.145   0.327 -0.2089  0.4446  0.7784
 2943ntf    fn417143   0.925   1.294   0.250 -0.2864 -0.0156  0.2915
 2943ntf    fn417144   0.986   1.129   0.129 -0.7778 -0.2417 -0.7749
 2943ntf    fn417145   0.798   1.228   0.098 -0.4841 -0.1416 -0.0554
 2944ntf    cn117146   5.348   2.991   0.839  0.2376  0.0070  0.5734
 2944ntf    sn217147   5.413   3.160   0.849  0.1309  0.0678  0.2395
 2944ntf    nn317148   5.282   3.244   0.865  0.4971  0.7208 -0.1257
 2944ntf    sn217149   5.220   3.303   0.996  0.1058  0.2486 -0.0948
 2944ntf    cn117150   5.045   3.304   0.944  0.2320 -0.3717 -0.5376
 2944ntf    fn417151   5.432   2.916   0.769 -0.7592 -0.3316 -0.2788
 2944ntf    fn417152   5.321   2.932   0.955 -0.3115 -0.2740  0.3086
 2944ntf    fn417153   5.238   3.000   0.766  0.5904  0.1494  0.0537
 2944ntf    on517154   5.510   3.155   0.955  0.5548 -0.9388 -0.1817
 2944ntf    on517155   5.469   3.177   0.717 -0.4336  0.0700 -0.0016
 2944ntf    on517156   5.248   3.445   0.997 -0.1900  0.3086 -0.0626
 2944ntf    on517157   5.217   3.230   1.120 -0.8705  0.0384 -0.2276
 2944ntf    fn417158   5.034   3.380   0.837  0.4393 -0.1257 -0.3862
 2944ntf    fn417159   5.009   3.179   0.917  0.2111 -0.3791 -0.4757
 2944ntf    fn417160   4.971   3.353   1.042  0.3796 -0.1073 -0.5588
 2945ntf    cn117161   4.017   7.123   1.953 -0.0948 -0.1165 -0.1906
 2945ntf    sn217162   3.990   7.296   1.904 -0.3027 -0.0971 -0.0066
 2945ntf    nn317163   3.858   7.304   1.819 -0.2546  0.4488 -0.0351
 2945ntf    sn217164   3.709   7.285   1.864 -0.1730  0.2526  0.1525
 2945ntf    cn117165   3.624   7.320   1.707  0.0871  0.4265  0.0494
 2945ntf    fn417166   4.140   7.085   1.982 -0.2859 -0.1402  0.6035
 2945ntf    fn417167   3.943   7.085   2.056  0.5384 -0.2421  0.2265
 2945ntf    fn417168   3.983   7.042   1.855 -0.1178  0.0741 -0.3408
 2945ntf    on517169   3.996   7.375   2.025  0.8499  0.2881 -0.3089
 2945ntf    on517170   4.107   7.316   1.823 -0.0656 -0.4721  0.2427
 2945ntf    on517171   3.655   7.388   1.948 -0.6137  0.5251 -0.4558
 2945ntf    on517172   3.683   7.148   1.900  0.2877  0.0654 -0.2240
 2945ntf    fn417173   3.636   7.447   1.671 -0.3499  0.1088 -1.2749
 2945ntf    fn417174   3.672   7.250   1.606 -0.4634 -0.2563  0.2470
 2945ntf    fn417175   3.496   7.288   1.718  0.1624 -0.0156 -0.3428
 2946ntf    cn117176   0.977   3.939   4.864 -0.0573  0.1139  0.2219
 2946ntf    sn217177   1.119   4.045   4.905 -0.0464  0.1019  0.2146
 2946ntf    nn317178   1.112   4.160   4.799  0.4196  0.2069  0.2981
 2946ntf    sn217179   1.081   4.312   4.824 -0.1019  0.1252  0.1601
 2946ntf    cn117180   0.903   4.297   4.791 -0.0361 -0.0727 -0.1218
 2946ntf    fn417181   0.930   3.955   4.741 -0.2036 -0.0385  0.2572
 2946ntf    fn417182   1.004   3.811   4.879  0.2355  0.1553  0.0630
 2946ntf    fn417183   0.870   3.958   4.940  0.3933 -0.2192  0.9430
 2946ntf    on517184   1.092   4.091   5.039  0.3114  0.1263  0.2789
 2946ntf    on517185   1.236   3.964   4.878 -0.2325 -0.0964 -0.0045
 2946ntf    on517186   1.127   4.398   4.717 -0.9724  0.0449 -0.2863
 2946ntf    on517187   1.094   4.355   4.961  0.2884 -0.2841  0.2563
 2946ntf    fn417188   0.845   4.242   4.897  0.3000  0.4136  0.3207
 2946ntf    fn417189   0.849   4.418   4.786  0.0853 -0.0169 -0.0844
 2946ntf    fn417190   0.867   4.232   4.682 -0.5975  0.1607 -0.0800
 2947ntf    cn117191   4.845   3.929   6.130  0.0077  0.1157  0.0073
 2947ntf    sn217192   4.938   3.838   6.003 -0.2680  0.0503 -0.1487
 2947ntf    nn317193   4.891   3.691   6.032 -0.3269  0.1669  0.3505
 2947ntf    sn217194   4.988   3.568   6.038 -0.2524  0.2208  0.2371
 2947ntf    cn117195   4.974   3.543   6.217  0.1365  0.2088  0.2683
 2947ntf    fn417196   4.723   3.880   6.147 -0.0885  0.6779  1.0143
 2947ntf    fn417197   4.910   3.914   6.244 -0.5136  0.1334  0.3074
 2947ntf    fn417198   4.830   4.057   6.104  0.2060  0.0538 -0.4253
 2947ntf    on517199   4.887   3.895   5.881  0.0932  0.5293 -0.0819
 2947ntf    on517200   5.075   3.874   6.031 -0.0496 -0.4648 -0.5343
 2947ntf    on517201   5.125   3.595   6.001 -0.2764 -0.2740 -0.2264
 2947ntf    on517202   4.936   3.447   5.980  0.0463  0.2226 -0.0422
 2947ntf    fn417203   4.997   3.651   6.291  0.0213  0.1449  0.3979
 2947ntf    fn417204   4.845   3.520   6.236 -0.0396  0.2761 -0.7780
 2947ntf    fn417205   5.052   3.445   6.258  0.3224  0.1067 -0.3267
 2948ntf    cn117206   4.780   7.039   3.653 -0.1702  0.0788 -0.1697
 2948ntf    sn217207   4.786   6.939   3.501 -0.2057 -0.1434 -0.0264
 2948ntf    nn317208   4.773   7.055   3.395  0.6369  0.3523  0.3999
 2948ntf    sn217209   4.883   7.130   3.311  0.2233  0.1244 -0.3589
 2948ntf    cn117210   4.812   7.297   3.312  0.0598  0.0566  0.3187
 2948ntf    fn417211   4.811   6.971   3.762 -0.3016  0.3925  0.0651
 2948ntf    fn417212   4.868   7.138   3.662 -0.0366 -0.0908  0.3811
 2948ntf    fn417213   4.664   7.097   3.677  0.0807  0.5027  0.0392
 2948ntf    on517214   4.908   6.865   3.521 -0.2163  0.0262  0.6942
 2948ntf    on517215   4.660   6.869   3.497 -0.2168 -0.1546  0.4593
 2948ntf    on517216   4.873   7.100   3.171  0.3339  0.2691 -0.3976
 2948ntf    on517217   5.012   7.152   3.371 -0.0623  0.0061  0.3126
 2948ntf    fn417218   4.802   7.365   3.425 -0.1012  0.0486  0.3097
 2948ntf    fn417219   4.873   7.377   3.225  0.4023 -0.3395  0.1930
 2948ntf    fn417220   4.688   7.293   3.266  0.4097 -0.0669 -0.6341
 2949ntf    cn117221   1.005   1.578   5.662 -0.0596  0.3612 -0.2110
 2949ntf    sn217222   0.839   1.619   5.600 -0.1706  0.1034 -0.0841
 2949ntf    nn317223   0.751   1.513   5.675 -0.0695  0.1037  0.0364
 2949ntf    sn217224   0.663   1.539   5.803 -0.1644  0.1833 -0.0442
 2949ntf    cn117225   0.691   1.368   5.857 -0.0927  0.2967  0.2740
 2949ntf    fn417226   0.998   1.568   5.793  0.5569  0.1785 -0.1862
 2949ntf    fn417227   1.047   1.457   5.629  0.3051  0.4956 -0.2466
 2949ntf    fn417228   1.102   1.663   5.630  0.2761  0.2144  0.4016
 2949ntf    on517229   0.816   1.758   5.631 -0.1377  0.0409  0.2220
 2949ntf    on517230   0.852   1.592   5.459  0.2300  0.1404 -0.0569
 2949ntf    on517231   0.522   1.553   5.777 -0.2038 -0.2242 -0.0671
 2949ntf    on517232   0.732   1.607   5.909  0.1030  0.0848 -0.1536
 2949ntf    fn417233   0.815   1.326   5.881  0.0515  0.2495 -0.5483
 2949ntf    fn417234   0.630   1.344   5.972 -0.0647  0.0706  0.2438
 2949ntf    fn417235   0.630   1.285   5.774 -0.0571  0.4208  0.1249
 2950ntf    cn117236   6.086   6.595   3.581  0.0308 -0.1712 -0.4287
 2950ntf    sn217237   6.158   6.737   3.495  0.1469 -0.0336 -0.1040
 2950ntf    nn317238   6.216   6.811   3.621  0.1651 -0.1232 -0.0595
 2950ntf    sn217239   6.133   6.897   3.724  0.3852 -0.1690  0.1575
 2950ntf    cn117240   6.212   7.060   3.711  0.2573 -0.0693  0.6245
 2950ntf    fn417241   6.024   6.512   3.498 -0.4164 -0.3943  0.1161
 2950ntf    fn417242   6.174   6.525   3.650  0.5504  0.3687 -0.5415
 2950ntf    fn417243   5.992   6.640   3.663  0.3629  0.0989 -0.1957
 2950ntf    on517244   6.251   6.679   3.402  0.6703 -0.2904  0.5674
 2950ntf    on517245   6.046   6.800   3.430 -0.4288 -0.9440 -0.0014
 2950ntf    on517246   6.163   6.873   3.863  0.5618 -0.6355  0.0421
 2950ntf    on517247   5.998   6.936   3.696  0.0689 -0.6830  0.9232
 2950ntf    fn417248   6.271   7.071   3.593  0.5827  0.1307  0.8052
 2950ntf    fn417249   6.126   7.161   3.714  0.3818  0.0492  0.2115
 2950ntf    fn417250   6.315   7.074   3.793  0.7517 -0.1335  0.0195
 2951ntf    cn117251   0.719   4.610   3.915 -0.4206  0.1059 -0.1247
 2951ntf    sn217252   0.630   4.533   4.053 -0.1365 -0.2323 -0.1288
 2951ntf    nn317253   0.670   4.634   4.167 -0.0244 -0.9818  0.5091
 2951ntf    sn217254   0.776   4.630   4.282  0.4173  0.0251  0.1523
 2951ntf    cn117255   0.693   4.508   4.389 -0.2791  0.1408 -0.2476
 2951ntf    fn417256   0.685   4.552   3.802 -0.1396  0.5223 -0.4246
 2951ntf    fn417257   0.690   4.739   3.906  0.0035  0.1906 -0.3340
 2951ntf    fn417258   0.850   4.592   3.929 -0.3356  0.1701 -0.8235
 2951ntf    on517259   0.492   4.548   4.014 -0.0275  0.3031 -0.3069
 2951ntf    on517260   0.686   4.400   4.057 -0.2670 -0.3026 -0.5624
 2951ntf    on517261   0.790   4.743   4.371 -0.4131 -0.0356  0.3719
 2951ntf    on517262   0.899   4.568   4.238  0.5933  0.3543  0.1805
 2951ntf    fn417263   0.565   4.537   4.398 -0.3189  0.0875 -0.6213
 2951ntf    fn417264   0.695   4.383   4.346 -0.1313  0.2107 -0.4464
 2951ntf    fn417265   0.736   4.501   4.514 -0.1244 -0.4989 -0.3340
 2952ntf    cn117266   2.378   1.912   5.877  0.0894 -0.0195  0.3157
 2952ntf    sn217267   2.444   1.824   5.732 -0.2404  0.2596 -0.0074
 2952ntf    nn317268   2.461   1.677   5.784  0.2324  0.2915 -0.0608
 2952ntf    sn217269   2.415   1.545   5.712 -0.1224  0.0488  0.6017
 2952ntf    cn117270   2.259   1.526   5.804 -0.4525 -0.3820 -0.0454
 2952ntf    fn417271   2.367   2.040   5.843  0.4844 -0.0097  0.2148
 2952ntf    fn417272   2.263   1.862   5.918  0.0363 -0.0685  0.1120
 2952ntf    fn417273   2.449   1.914   5.988  0.5498 -0.4709  0.0355
 2952ntf    on517274   2.352   1.839   5.622 -0.2695  0.8760  0.0994
 2952ntf    on517275   2.580   1.870   5.720 -0.0530 -0.3241 -0.1338
 2952ntf    on517276   2.486   1.436   5.775  0.0737  0.1787  0.6060
 2952ntf    on517277   2.382   1.553   5.572 -0.5830 -0.2238  0.6922
 2952ntf    fn417278   2.200   1.408   5.792  0.6605 -0.9539 -0.0024
 2952ntf    fn417279   2.280   1.556   5.931  0.5021  0.3544 -0.3677
 2952ntf    fn417280   2.172   1.612   5.754 -0.0728 -0.1072 -0.2320
 2953ntf    cn117281   3.645   2.450   4.056 -0.5807  0.2771  0.1623
 2953ntf    sn217282   3.592   2.399   3.890 -0.1062 -0.5132  0.2485
 2953ntf    nn317283   3.639   2.251   3.872 -0.3213 -0.5380 -0.1253
 2953ntf    sn217284   3.698   2.176   3.747  0.1138 -0.3465 -0.0373
 2953ntf    cn117285   3.617   2.015   3.769 -0.5320 -0.0274 -0.0503
 2953ntf    fn417286   3.593   2.377   4.153 -0.6634  0.1375  0.0137
 2953ntf    fn417287   3.777   2.443   4.067 -0.5386  0.1171 -0.4148
 2953ntf    fn417288   3.602   2.574   4.071 -0.0338  0.4437  0.3820
 2953ntf    on517289   3.448   2.401   3.901 -0.1384 -0.0716 -0.1902
 2953ntf    on517290   3.650   2.491   3.795  0.1243 -0.3898  0.5050
 2953ntf    on517291   3.839   2.144   3.747  0.3011  0.4519 -0.1828
 2953ntf    on517292   3.636   2.216   3.623  0.2696  0.6713  0.1963
 2953ntf    fn417293   3.637   1.921   3.678  0.2134  0.0582  0.0195
 2953ntf    fn417294   3.664   1.964   3.881 -0.2165 -0.9361 -0.5793
 2953ntf    fn417295   3.487   2.014   3.794 -0.5376  0.1248 -0.0744
 2954ntf    cn117296   3.152   5.971   6.105  0.0080  0.1250 -0.0990
 2954ntf    sn217297   2.996   6.033   6.174  0.1699  0.2610  0.1492
 2954ntf    nn317298   3.050   6.152   6.261  0.2035  0.2802  0.1031
 2954ntf    sn217299   3.092   6.156   6.412  0.2106 -0.0877  0.1110
 2954ntf    cn117300   2.923   6.183   6.474  0.2425 -0.2036  0.2498
 2954ntf    fn417301   3.233   6.062   6.053 -0.4090  0.2681 -0.5028
 2954ntf    fn417302   3.213   5.895   6.194  0.3676  0.4196 -0.0899
 2954ntf    fn417303   3.127   5.878   6.014  0.4112 -0.0560 -0.0266
 2954ntf    on517304   2.927   6.079   6.055  0.3907  0.7915  0.2212
 2954ntf    on517305   2.944   5.918   6.243  0.3346 -0.2988 -0.6357
 2954ntf    on517306   3.152   6.283   6.442 -0.1683  0.1791 -0.2593
 2954ntf    on517307   3.142   6.036   6.476  0.1605 -0.0317  0.2538
 2954ntf    fn417308   2.905   6.133   6.595  0.7674 -0.2350  0.3173
 2954ntf    fn417309   2.899   6.312   6.495 -0.2597 -0.2643  0.0528
 2954ntf    fn417310   2.824   6.136   6.401 -0.0813  0.1552  0.4566
 2955ntf    cn117311   5.671   5.721   5.487  0.3123  0.2415 -0.2466
 2955ntf    sn217312   5.716   5.847   5.363  0.6635  0.2887 -0.0733
 2955ntf    nn317313   5.621   5.961   5.415  0.3869  0.4988 -1.0213
 2955ntf    sn217314   5.654   6.098   5.483  0.0332 -0.0322  0.2559
 2955ntf    cn117315   5.541   6.070   5.623 -0.3425  0.1338 -0.0109
 2955ntf    fn417316   5.543   5.706   5.515  0.4176 -0.5170 -0.1503
 2955ntf    fn417317   5.711   5.606   5.434 -0.0062 -0.1551  0.3679
 2955ntf    fn417318   5.731   5.743   5.603  0.2737  0.1962 -0.2185
 2955ntf    on517319   5.857   5.872   5.382  0.6120  0.7004 -0.2288
 2955ntf    on517320   5.673   5.782   5.242  0.8068  0.1628 -0.0574
 2955ntf    on517321   5.591   6.209   5.414  0.3044 -0.0903 -0.0859
 2955ntf    on517322   5.782   6.112   5.547  0.0498 -0.0919  0.2360
 2955ntf    fn417323   5.520   6.178   5.696 -0.6298  0.0411  0.0437
 2955ntf    fn417324   5.429   6.023   5.570  0.0167  0.0209 -0.6929
 2955ntf    fn417325   5.581   5.972   5.703 -0.7729  0.4126  0.5549
 2956ntf    cn117326   0.059   0.030   3.455 -0.0845 -0.1379 -0.5608
 2956ntf    sn217327  -0.085  -0.080   3.449 -0.1557 -0.0671 -0.1882
 2956ntf    nn317328  -0.121  -0.068   3.601  0.1164  0.3939 -0.1601
 2956ntf    sn217329  -0.219   0.037   3.666 -0.1309  0.1415 -0.1257
 2956ntf    cn117330  -0.157   0.024   3.836  0.0882  0.0339 -0.2125
 2956ntf    fn417331   0.044   0.137   3.532 -0.0921 -0.4509 -0.1298
 2956ntf    fn417332   0.170  -0.035   3.486  0.0201  0.3115  0.0257
 2956ntf    fn417333   0.072   0.081   3.333 -0.3992 -0.0622 -0.5630
 2956ntf    on517334  -0.171  -0.020   3.349 -0.4564 -0.1762  0.0044
 2956ntf    on517335  -0.030  -0.206   3.408  0.3936  0.1581 -0.1489
 2956ntf    on517336  -0.358  -0.001   3.663 -0.2300  0.5295 -0.6796
 2956ntf    on517337  -0.201   0.177   3.640  0.5560  0.0357 -0.2416
 2956ntf    fn417338  -0.173  -0.098   3.883  0.1402  0.0705 -0.0986
 2956ntf    fn417339  -0.028   0.054   3.839  0.0984 -0.0260 -0.0414
 2956ntf    fn417340  -0.225   0.099   3.922  0.4295 -0.0352  0.1223
 2957ntf    cn117341   7.117   5.395   6.835 -0.1840  0.4162  0.2033
 2957ntf    sn217342   7.068   5.324   6.994 -0.2065 -0.1893 -0.0706
 2957ntf    nn317343   7.158   5.415   7.085 -0.1677 -0.1494 -0.1506
 2957ntf    sn217344   7.134   5.481   7.225  0.5981 -0.0500 -0.0579
 2957ntf    cn117345   7.220   5.359   7.327  0.1520  0.0993  0.5008
 2957ntf    fn417346   7.242   5.438   6.844  0.2095 -0.5687 -0.3201
 2957ntf    fn417347   7.109   5.307   6.736 -0.6784 -0.1243  0.7126
 2957ntf    fn417348   7.047   5.499   6.794  0.1168  0.3726 -0.4371
 2957ntf    on517349   6.925   5.341   7.002 -0.0359  1.0407  0.6400
 2957ntf    on517350   7.113   5.187   6.983  0.3110 -0.0195 -0.0885
 2957ntf    on517351   6.998   5.469   7.271  0.5250  0.0523 -0.2412
 2957ntf    on517352   7.203   5.604   7.255  0.4686  0.0790 -0.2772
 2957ntf    fn417353   7.337   5.316   7.284  0.2532  0.8676  0.0108
 2957ntf    fn417354   7.244   5.416   7.444  0.3508 -0.1778  0.5973
 2957ntf    fn417355   7.152   5.247   7.350 -0.3744  0.1362 -0.8159
 2958ntf    cn117356   6.569   5.580   3.754  0.0647  0.3071 -0.1584
 2958ntf    sn217357   6.533   5.633   3.924 -0.2864  0.0696 -0.1569
 2958ntf    nn317358   6.471   5.775   3.900  0.2127  0.2010 -0.6731
 2958ntf    sn217359   6.324   5.826   3.915  0.2236 -0.0301  0.2789
 2958ntf    cn117360   6.353   5.988   3.993 -0.2702  0.3350 -0.2830
 2958ntf    fn417361   6.681   5.627   3.702 -0.0812  0.3220 -0.4596
 2958ntf    fn417362   6.584   5.449   3.768  0.4562  0.3881  0.2223
 2958ntf    fn417363   6.474   5.602   3.665  0.1930 -0.0668 -0.3870
 2958ntf    on517364   6.434   5.539   3.972 -0.1475  0.1209  0.2408
 2958ntf    on517365   6.654   5.641   4.003 -0.4191 -0.2552  0.0812
 2958ntf    on517366   6.244   5.762   4.016 -0.0048  0.1804  0.2312
 2958ntf    on517367   6.258   5.868   3.794  0.2301 -0.4641  0.1244
 2958ntf    fn417368   6.402   6.078   3.909  0.1770  0.5257  0.1794
 2958ntf    fn417369   6.245   6.050   4.038 -0.2590 -0.3739  0.7498
 2958ntf    fn417370   6.440   5.984   4.092 -0.4298  0.4151 -0.1393
 2959ntf    cn117371   4.986   4.386   0.404 -0.0297  0.1911 -0.3108
 2959ntf    sn217372   4.865   4.361   0.271  0.1060  0.0123 -0.4010
 2959ntf    nn317373   4.752   4.456   0.323  0.2513  0.2001 -0.4242
 2959ntf    sn217374   4.595   4.459   0.320  0.2484  0.4201 -0.1589
 2959ntf    cn117375   4.562   4.480   0.498  0.0524 -0.0426 -0.1370
 2959ntf    fn417376   4.932   4.363   0.523 -0.3545 -0.0167 -0.4991
 2959ntf    fn417377   5.079   4.292   0.395 -0.1185  0.0504  0.1923
 2959ntf    fn417378   5.037   4.508   0.410  0.2536  0.0662 -0.1670
 2959ntf    on517379   4.936   4.415   0.157 -0.3272  0.1123 -0.6251
 2959ntf    on517380   4.837   4.221   0.281  0.4793 -0.0561 -0.2733
 2959ntf    on517381   4.530   4.333   0.290 -0.2221  0.3940  0.9260
 2959ntf    on517382   4.550   4.579   0.254 -0.7283 -0.0773 -0.4249
 2959ntf    fn417383   4.598   4.599   0.543  0.1461 -0.1774  0.1439
 2959ntf    fn417384   4.434   4.467   0.527 -0.0690 -0.2052 -0.7221
 2959ntf    fn417385   4.632   4.394   0.569  0.3353  0.3791  0.1003
 2960ntf    cn117386   2.013   0.427   2.579  0.1706 -0.2839  0.7604
 2960ntf    sn217387   2.163   0.472   2.488 -0.0447  0.0644  0.5766
 2960ntf    nn317388   2.259   0.501   2.608  0.5742  0.5188 -0.0176
 2960ntf    sn217389   2.244   0.610   2.719 -0.1057  0.1216  0.2864
 2960ntf    cn117390   2.378   0.727   2.680 -0.0533 -0.0376 -0.0146
 2960ntf    fn417391   1.944   0.333   2.515  0.3577  0.1326 -0.0641
 2960ntf    fn417392   2.049   0.366   2.691  0.4000 -0.3102  0.6724
 2960ntf    fn417393   1.931   0.523   2.620 -0.1397 -0.1271 -0.2119
 2960ntf    on517394   2.210   0.351   2.425  0.0908  0.1832  0.4477
 2960ntf    on517395   2.125   0.586   2.407 -0.2068  0.1479  0.7702
 2960ntf    on517396   2.279   0.546   2.843  0.1632 -0.3005 -0.0058
 2960ntf    on517397   2.126   0.693   2.705  0.1716  0.5291  0.3314
 2960ntf    fn417398   2.395   0.810   2.782  0.1292 -0.6914  0.4986
 2960ntf    fn417399   2.499   0.676   2.663 -0.1255 -0.3729  0.4515
 2960ntf    fn417400   2.350   0.804   2.576  0.3009 -0.1467 -0.1914
 2961ntf    cn117401   4.179   5.239   1.044  0.0168  0.0726 -0.2073
 2961ntf    sn217402   4.157   5.173   0.876  0.1132  0.0783 -0.2223
 2961ntf    nn317403   4.270   5.233   0.785  0.2309  0.1123 -0.0524
 2961ntf    sn217404   4.263   5.352   0.683 -0.1406  0.0023 -0.1568
 2961ntf    cn117405   4.238   5.252   0.534  0.0174 -0.2535 -0.0140
 2961ntf    fn417406   4.176   5.371   1.060 -0.3137 -0.0366  0.6694
 2961ntf    fn417407   4.095   5.180   1.127  0.6020 -0.4156  0.0448
 2961ntf    fn417408   4.296   5.213   1.099 -0.2029 -0.1993  0.1290
 2961ntf    on517409   4.190   5.033   0.882 -0.1604  0.0390  0.4525
 2961ntf    on517410   4.023   5.199   0.828 -0.1864 -0.4436  0.3168
 2961ntf    on517411   4.392   5.416   0.672 -0.0439 -0.1715 -0.0368
 2961ntf    on517412   4.156   5.448   0.689  0.0734  0.2253  0.1163
 2961ntf    fn417413   4.118   5.195   0.537 -0.1669  0.1193 -0.1504
 2961ntf    fn417414   4.244   5.335   0.430 -0.6441  0.0538  0.1867
 2961ntf    fn417415   4.339   5.168   0.519  0.1551  0.0092 -0.6152
 2962ntf    cn117416   6.601   7.086   0.734 -0.0081  0.6190  0.0656
 2962ntf    sn217417   6.781   7.062   0.715 -0.0807  0.4058 -0.3739
 2962ntf    nn317418   6.838   7.194   0.777  0.1404  0.1464 -0.0117
 2962ntf    sn217419   6.903   7.312   0.696  0.8402 -0.1933  0.0540
 2962ntf    cn117420   7.070   7.243   0.670  0.7371 -0.3857 -0.1056
 2962ntf    fn417421   6.567   7.209   0.699  0.2091  0.5511 -0.3976
 2962ntf    fn417422   6.533   7.000   0.660  0.7901  0.3746 -0.4039
 2962ntf    fn417423   6.564   7.070   0.860  0.3890  0.0683  0.1181
 2962ntf    on517424   6.807   6.962   0.816 -0.1562  1.0038  0.2424
 2962ntf    on517425   6.793   7.027   0.576 -0.0200  0.1114 -0.2961
 2962ntf    on517426   6.921   7.428   0.780 -0.1432 -0.1272  0.1855
 2962ntf    on517427   6.867   7.336   0.558  0.0492 -0.5159  0.2017
 2962ntf    fn417428   7.078   7.142   0.585 -0.0390 -0.4014 -0.1718
 2962ntf    fn417429   7.154   7.336   0.628  0.2319 -0.0265 -0.3325
 2962ntf    fn417430   7.105   7.190   0.786  0.0918  0.5375  0.5294
 2963ntf    cn117431   2.930   7.053   2.093 -0.1098 -0.1717  0.5617
 2963ntf    sn217432   2.962   7.232   2.083  0.2121 -0.2594  0.0091
 2963ntf    nn317433   2.929   7.264   2.233  0.0776  0.0669 -0.0895
 2963ntf    sn217434   3.007   7.365   2.326  0.0573  0.1318 -0.1427
 2963ntf    cn117435   3.012   7.258   2.473 -0.3973  0.3590  0.0395
 2963ntf    fn417436   2.955   6.991   1.979 -0.2234 -0.3576  0.6376
 2963ntf    fn417437   3.000   6.996   2.190 -0.1445 -0.7596  0.2482
 2963ntf    fn417438   2.805   7.021   2.122 -0.3223  0.5632  0.4717
 2963ntf    on517439   3.100   7.246   2.043  0.2135  0.1298  0.1489
 2963ntf    on517440   2.864   7.287   1.992 -0.4506 -0.6394  0.4801
 2963ntf    on517441   2.924   7.470   2.378  0.3402 -0.1899  0.9868
 2963ntf    on517442   3.148   7.381   2.304  0.2039  0.0222  0.6970
 2963ntf    fn417443   3.130   7.273   2.530  0.0439  0.1754 -0.8113
 2963ntf    fn417444   2.925   7.281   2.570 -0.1849 -0.0372  0.3293
 2963ntf    fn417445   3.013   7.135   2.426  0.2777  0.4576 -0.2140
 2964ntf    cn117446   5.651   0.924   1.532  0.6959  0.5797  0.0043
 2964ntf    sn217447   5.529   0.861   1.651  0.6576  0.5080 -0.0725
 2964ntf    nn317448   5.540   0.978   1.755  0.0944  0.3726  0.1438
 2964ntf    sn217449   5.473   1.119   1.738 -0.1719  0.1825 -0.4188
 2964ntf    cn117450   5.338   1.082   1.855  0.0564  0.3743 -0.0914
 2964ntf    fn417451   5.758   0.987   1.576  0.6361  0.4643  0.3117
 2964ntf    fn417452   5.689   0.822   1.456 -0.4104  0.1229  0.0483
 2964ntf    fn417453   5.592   1.015   1.456 -0.3610  0.1774  0.3294
 2964ntf    on517454   5.409   0.847   1.572  0.4931 -0.0100  0.2668
 2964ntf    on517455   5.595   0.743   1.701  0.3450  0.2736 -0.2071
 2964ntf    on517456   5.409   1.160   1.616 -0.3715 -0.0582 -0.3975
 2964ntf    on517457   5.551   1.220   1.805 -0.3135  0.1967 -0.2756
 2964ntf    fn417458   5.264   0.985   1.805 -0.0118  0.3392  0.0777
 2964ntf    fn417459   5.385   1.035   1.970 -0.3012 -0.4384 -0.2671
 2964ntf    fn417460   5.262   1.189   1.871 -0.2848  0.1144  0.0345
 2965ntf    cn117461   2.715   3.098   1.455  0.1716 -0.4284  0.4938
 2965ntf    sn217462   2.877   3.038   1.400  0.0024  0.1488 -0.6808
 2965ntf    nn317463   2.829   2.938   1.289  0.0648 -0.2240 -0.3734
 2965ntf    sn217464   2.874   2.944   1.139  0.3665 -0.0018 -0.2754
 2965ntf    cn117465   2.736   3.031   1.059 -0.0390  0.0114  0.4314
 2965ntf    fn417466   2.665   3.035   1.560  0.0110 -0.6625  0.2785
 2965ntf    fn417467   2.722   3.227   1.483 -0.1339 -0.3481  0.2066
 2965ntf    fn417468   2.616   3.092   1.367  0.4352 -0.0717  0.1695
 2965ntf    on517469   2.934   3.161   1.352  0.0269  0.3117 -0.2422
 2965ntf    on517470   2.931   2.979   1.520  0.3351  0.3298 -0.7404
 2965ntf    on517471   2.865   2.812   1.080  0.4019  0.0295 -0.3508
 2965ntf    on517472   2.983   3.030   1.102 -0.1520  0.5188 -0.6039
 2965ntf    fn417473   2.772   3.065   0.937  0.3931  0.3775  0.6586
 2965ntf    fn417474   2.629   2.954   1.047  0.0199  0.0069 -0.0816
 2965ntf    fn417475   2.704   3.144   1.121  0.0319  0.0952  0.3149
 2966ntf    cn117476   0.032   6.590   1.140 -0.1304 -0.4717 -0.3081
 2966ntf    sn217477  -0.032   6.494   1.281 -0.3124 -0.0930 -0.1314
 2966ntf    nn317478  -0.187   6.515   1.271 -0.2916  0.0056 -0.2484
 2966ntf    sn217479  -0.293   6.608   1.340 -0.0595  0.0709  0.0203
 2966ntf    cn117480  -0.447   6.522   1.298  0.0224  0.0883 -0.3181
 2966ntf    fn417481   0.164   6.591   1.129 -0.1449 -0.7440 -0.5059
 2966ntf    fn417482  -0.017   6.562   1.021 -0.0682  0.6001 -0.5882
 2966ntf    fn417483   0.002   6.717   1.157 -0.2944 -0.5047 -0.3509
 2966ntf    on517484   0.014   6.360   1.251  0.5225  0.2741 -0.5133
 2966ntf    on517485   0.022   6.556   1.399 -0.0581 -0.6908  0.0688
 2966ntf    on517486  -0.323   6.730   1.269 -0.6161 -0.1757 -0.1774
 2966ntf    on517487  -0.285   6.608   1.484  0.1582 -0.2908  0.0094
 2966ntf    fn417488  -0.466   6.507   1.168  0.3534 -0.0191 -0.3546
 2966ntf    fn417489  -0.452   6.403   1.356 -0.0547  0.2479  0.0098
 2966ntf    fn417490  -0.549   6.594   1.343 -0.1967 -0.4010 -0.0193
 2967ntf    cn117491   3.388   6.741   6.320 -0.0061  0.2480  0.2166
 2967ntf    sn217492   3.477   6.707   6.165 -0.2095 -0.1146  0.1806
 2967ntf    nn317493   3.574   6.829   6.157  0.0041 -0.3140 -0.2867
 2967ntf    sn217494   3.725   6.844   6.198 -0.1893 -0.0359  0.3436
 2967ntf    cn117495   3.806   6.827   6.036 -0.9374  0.1136 -0.0504
 2967ntf    fn417496   3.297   6.837   6.308 -0.1645  0.1599  0.6904
 2967ntf    fn417497   3.338   6.626   6.361  0.9162 -0.2276  0.0204
 2967ntf    fn417498   3.478   6.775   6.410 -0.0970 -0.1314  0.4509
 2967ntf    on517499   3.534   6.576   6.190 -0.2075  0.0183  0.9036
 2967ntf    on517500   3.370   6.710   6.069  0.3762 -0.0627 -0.4772
 2967ntf    on517501   3.762   6.730   6.278 -0.2191 -0.5534 -0.3649
 2967ntf    on517502   3.755   6.976   6.246 -0.2657  0.0372  0.1915
 2967ntf    fn417503   3.824   6.940   5.969  0.6548 -0.1552 -0.1239
 2967ntf    fn417504   3.927   6.774   6.048 -0.8812  0.2614  0.0517
 2967ntf    fn417505   3.737   6.743   5.961 -0.3397 -0.6587  0.2511
 2968ntf    cn117506   5.824   0.228   6.771  0.0129  0.1243  0.2011
 2968ntf    sn217507   5.937   0.098   6.713  0.1194  0.2901  0.0341
 2968ntf    nn317508   6.067   0.114   6.800  0.2900  0.0634 -0.1788
 2968ntf    sn217509   6.095   0.076   6.950 -0.2930 -0.2327 -0.1448
 2968ntf    cn117510   6.203  -0.066   6.914 -0.0741 -0.0022 -0.3937
 2968ntf    fn417511   5.812   0.229   6.903 -0.0959 -0.2575  0.1930
 2968ntf    fn417512   5.880   0.345   6.745 -0.8390  0.4339 -0.2696
 2968ntf    fn417513   5.707   0.230   6.710 -0.1382  0.4669  0.4948
 2968ntf    on517514   5.860  -0.023   6.730  1.1550 -0.3201  0.4981
 2968ntf    on517515   5.966   0.134   6.577  0.3846  0.1852  0.0615
 2968ntf    on517516   5.982   0.019   7.020 -0.5597  0.4214 -0.0396
 2968ntf    on517517   6.178   0.176   7.011 -0.3510 -0.2721 -0.0017
 2968ntf    fn417518   6.162  -0.151   6.821 -1.0320 -0.1376  0.1474
 2968ntf    fn417519   6.327  -0.041   6.874 -0.1263  0.1171 -0.4837
 2968ntf    fn417520   6.213  -0.136   7.026  0.3188  0.0351 -0.4028
 2969ntf    cn117521   1.712   1.801   1.975 -0.5018  0.3574 -0.2877
 2969ntf    sn217522   1.719   1.791   1.793 -0.4310 -0.0262 -0.2664
 2969ntf    nn317523   1.566   1.822   1.771 -0.5011 -0.3871 -0.2988
 2969ntf    sn217524   1.503   1.958   1.725  0.0750 -0.0740 -0.1818
 2969ntf    cn117525   1.513   1.944   1.544 -0.1991 -0.1861 -0.1891
 2969ntf    fn417526   1.826   1.766   2.032 -0.4784  0.4332 -0.2892
 2969ntf    fn417527   1.692   1.926   2.012  0.2187  0.2233  0.5774
 2969ntf    fn417528   1.615   1.730   2.030 -0.1025  0.2668  0.2989
 2969ntf    on517529   1.821   1.888   1.764  0.2205 -0.5535  0.2468
 2969ntf    on517530   1.762   1.657   1.764 -0.5967 -0.2432  0.4730
 2969ntf    on517531   1.570   2.080   1.763  0.4411 -0.4875  0.5229
 2969ntf    on517532   1.360   1.970   1.743  0.2538  0.0790  1.2403
 2969ntf    fn417533   1.637   1.957   1.501 -0.1146  0.1081  0.1347
 2969ntf    fn417534   1.453   1.835   1.499  0.1162 -0.3364 -0.2439
 2969ntf    fn417535   1.452   2.040   1.476 -0.3019 -0.3570 -0.3382
 2970ntf    cn117536   6.124   0.889   3.995  0.1050  0.0411 -0.1867
 2970ntf    sn217537   6.066   0.726   3.938 -0.2360  0.1391 -0.1206
 2970ntf    nn317538   6.131   0.628   4.042 -0.2254  0.4534  0.1725
 2970ntf    sn217539   6.255   0.532   4.036 -0.4794  0.1287  0.0674
 2970ntf    cn117540   6.381   0.627   4.127 -0.0554  0.1877 -0.5727
 2970ntf    fn417541   6.072   0.988   3.925 -0.2912  0.1551  0.2618
 2970ntf    fn417542   6.105   0.916   4.123  0.4448  0.7691 -0.2870
 2970ntf    fn417543   6.256   0.884   3.988  0.0972 -0.5005 -0.0442
 2970ntf    on517544   5.924   0.736   3.960 -0.1912 -0.4085  0.4583
 2970ntf    on517545   6.110   0.725   3.801  0.1653  0.0236  0.0079
 2970ntf    on517546   6.308   0.499   3.906  0.5921 -0.0436  0.5351
 2970ntf    on517547   6.222   0.421   4.122 -0.3211  0.1930  0.2119
 2970ntf    fn417548   6.459   0.546   4.196 -0.8018  0.0654  0.1456
 2970ntf    fn417549   6.456   0.706   4.052  0.1885  0.4415 -0.0616
 2970ntf    fn417550   6.317   0.700   4.217 -0.4157 -0.9178  0.0967
 2971ntf    cn117551   3.347   2.687   1.567 -0.4731 -0.3133 -0.2166
 2971ntf    sn217552   3.457   2.779   1.455 -0.2707 -0.1357  0.1243
 2971ntf    nn317553   3.522   2.660   1.376  0.4979  0.0654  0.4491
 2971ntf    sn217554   3.676   2.646   1.349  0.4307  0.0408  0.0717
 2971ntf    cn117555   3.691   2.795   1.246  0.2140 -0.1330 -0.2126
 2971ntf    fn417556   3.250   2.771   1.599 -0.2157  0.0799 -0.4621
 2971ntf    fn417557   3.285   2.596   1.493 -0.3670 -0.5440 -0.0261
 2971ntf    fn417558   3.409   2.642   1.675 -0.4155 -0.5558 -0.3492
 2971ntf    on517559   3.364   2.848   1.369  0.4790  0.1119 -0.4924
 2971ntf    on517560   3.537   2.855   1.548  0.4175  0.2311 -0.7554
 2971ntf    on517561   3.703   2.538   1.257  0.4576  0.1108 -0.0030
 2971ntf    on517562   3.769   2.665   1.458  0.0825 -0.5517  0.4788
 2971ntf    fn417563   3.710   2.905   1.315 -0.8835 -0.2522  0.2901
 2971ntf    fn417564   3.797   2.792   1.166  0.4150  0.1694  0.0423
 2971ntf    fn417565   3.588   2.813   1.165 -0.2644  0.0033  0.4198
 2972ntf    cn117566   4.876   6.463   2.497  0.1683 -0.2585  0.3003
 2972ntf    sn217567   4.758   6.516   2.369  0.1446  0.1421  0.4867
 2972ntf    nn317568   4.824   6.650   2.320 -0.1472  0.1850  0.2117
 2972ntf    sn217569   4.787   6.795   2.367  0.2421  0.3918 -0.1179
 2972ntf    cn117570   4.642   6.833   2.264  0.0081  0.2216  0.1483
 2972ntf    fn417571   4.904   6.559   2.583  0.1516  0.3767 -0.3873
 2972ntf    fn417572   4.832   6.362   2.570 -0.5447 -0.0962  0.1006
 2972ntf    fn417573   4.992   6.435   2.440 -0.2450 -0.0920 -0.6391
 2972ntf    on517574   4.768   6.409   2.273  0.1806 -0.0042  0.6524
 2972ntf    on517575   4.630   6.529   2.435 -0.1659 -0.3684 -0.0057
 2972ntf    on517576   4.876   6.895   2.314  0.1047  0.6394  0.1131
 2972ntf    on517577   4.758   6.808   2.507  0.3896  0.2359 -0.0734
 2972ntf    fn417578   4.531   6.769   2.296  0.3845 -0.4276  0.1668
 2972ntf    fn417579   4.614   6.962   2.278  0.1239  0.1645  0.9547
 2972ntf    fn417580   4.660   6.809   2.135  0.3023 -0.4482  0.3124
 2973ntf    cn117581   5.663   5.304   1.895  0.0292 -0.3497  0.0343
 2973ntf    sn217582   5.726   5.417   2.024  0.0683 -0.0163 -0.2758
 2973ntf    nn317583   5.881   5.394   2.014  0.1317  0.1466  0.3547
 2973ntf    sn217584   5.977   5.294   2.087 -0.2600 -0.2283  0.3563
 2973ntf    cn117585   6.002   5.384   2.243  0.0902  0.1762  0.0712
 2973ntf    fn417586   5.535   5.322   1.872  0.1324 -0.0100 -0.2778
 2973ntf    fn417587   5.731   5.309   1.782  0.3121 -0.0561  0.2119
 2973ntf    fn417588   5.670   5.177   1.933  0.2613 -0.2925  0.1876
 2973ntf    on517589   5.689   5.547   1.973  0.1405  0.2873  0.4385
 2973ntf    on517590   5.657   5.368   2.140 -0.0045 -0.2470 -0.4151
 2973ntf    on517591   6.108   5.287   2.026 -0.5745 -0.1926 -0.3235
 2973ntf    on517592   5.915   5.168   2.122 -0.2727 -0.1813  0.5024
 2973ntf    fn417593   6.067   5.498   2.235  0.5256 -0.0994 -0.3647
 2973ntf    fn417594   5.885   5.415   2.296  0.2384  0.3882  0.2709
 2973ntf    fn417595   6.060   5.310   2.336 -0.0496  0.8178  0.6734
 2974ntf    cn117596   5.102   6.092   0.984  0.0899 -0.0331 -0.5388
 2974ntf    sn217597   5.114   6.236   1.094 -0.1746 -0.4564  0.0440
 2974ntf    nn317598   4.961   6.267   1.113 -0.0938  0.0896 -0.1761
 2974ntf    sn217599   4.873   6.280   1.243 -0.1061 -0.3868 -0.1343
 2974ntf    cn117600   4.841   6.107   1.288  0.3338 -0.3275  0.4151
 2974ntf    fn417601   5.061   6.132   0.865  0.6309  0.2522 -0.6322
 2974ntf    fn417602   5.221   6.039   0.958  0.1146 -0.3462  0.1874
 2974ntf    fn417603   5.017   6.001   1.028  0.3746 -0.5888 -1.1074
 2974ntf    on517604   5.179   6.176   1.208  0.4445 -0.5462 -0.3561
 2974ntf    on517605   5.198   6.322   1.016  0.0044 -0.8022 -0.1467
 2974ntf    on517606   4.742   6.339   1.233 -0.0032 -0.1306  0.0398
 2974ntf    on517607   4.949   6.335   1.352 -0.7433  0.0298  0.1074
 2974ntf    fn417608   4.954   6.051   1.327  0.6094  0.0846  0.2057
 2974ntf    fn417609   4.751   6.100   1.385  0.0861 -0.0018  0.2097
 2974ntf    fn417610   4.793   6.029   1.193  0.0709 -0.1355  0.3881
 2975ntf    cn117611   1.099   6.234   4.098 -0.1944  0.0416  0.0682
 2975ntf    sn217612   1.223   6.224   3.966 -0.0487 -0.2090  0.2230
 2975ntf    nn317613   1.237   6.375   3.923 -0.3780 -0.4758 -0.8558
 2975ntf    sn217614   1.367   6.448   3.875 -0.1099 -0.2373  0.1970
 2975ntf    cn117615   1.384   6.389   3.704 -0.0088 -0.0468  0.1417
 2975ntf    fn417616   1.135   6.182   4.214 -0.3992 -0.4129 -0.0677
 2975ntf    fn417617   1.093   6.364   4.122 -0.4734  0.0839 -0.2242
 2975ntf    fn417618   0.974   6.203   4.068  0.0731 -0.7152 -0.3080
 2975ntf    on517619   1.340   6.161   4.021  0.2606 -0.1155 -0.3152
 2975ntf    on517620   1.150   6.158   3.861 -0.8780  0.2178  0.5249
 2975ntf    on517621   1.483   6.401   3.946  0.1014 -0.0020  0.0085
 2975ntf    on517622   1.342   6.589   3.862  0.2873 -0.1927 -0.0940
 2975ntf    fn417623   1.285   6.436   3.630  0.1344 -0.1672 -0.1310
 2975ntf    fn417624   1.493   6.436   3.645 -0.0092 -0.1242  0.0775
 2975ntf    fn417625   1.389   6.257   3.690  0.5502  0.0003 -0.1443
 2976ntf    cn117626   3.052   5.264   3.412  0.0018  0.1098 -0.1951
 2976ntf    sn217627   3.111   5.109   3.487  0.0825  0.2185 -0.0332
 2976ntf    nn317628   3.244   5.170   3.545  0.0287 -0.0435  0.3755
 2976ntf    sn217629   3.377   5.192   3.464 -0.1357  0.1117  0.1443
 2976ntf    cn117630   3.473   5.287   3.586 -0.4345  0.4222  0.1394
 2976ntf    fn417631   2.921   5.270   3.400 -0.0519  0.3742  0.4576
 2976ntf    fn417632   3.078   5.371   3.486 -0.2215  0.2605 -0.3370
 2976ntf    fn417633   3.113   5.292   3.298 -0.6381  0.1459 -0.5326
 2976ntf    on517634   3.004   5.089   3.581 -0.0758  0.4645 -0.1600
 2976ntf    on517635   3.137   5.015   3.381 -0.1911 -0.0485  0.1368
 2976ntf    on517636   3.371   5.281   3.351  0.3112 -0.2646 -0.1778
 2976ntf    on517637   3.456   5.072   3.449 -0.0603  0.1559  0.1836
 2976ntf    fn417638   3.418   5.398   3.633 -0.0597  0.5084  0.3833
 2976ntf    fn417639   3.506   5.214   3.691  0.5438  0.1475 -0.3455
 2976ntf    fn417640   3.583   5.337   3.532  0.1694 -0.7795  0.2269
 2977ntf    cn117641   0.006   0.979   4.619  0.1011 -0.3240  0.0125
 2977ntf    sn217642   0.119   1.103   4.549 -0.1029 -0.2971 -0.2706
 2977ntf    nn317643   0.109   1.211   4.662  0.4104 -0.4157 -0.1072
 2977ntf    sn217644   0.220   1.290   4.739 -0.0014  0.0209  0.0444
 2977ntf    cn117645   0.232   1.176   4.880 -0.5533  0.4372  0.4311
 2977ntf    fn417646   0.009   0.869   4.545  0.6115 -0.2962 -0.0137
 2977ntf    fn417647   0.037   0.941   4.742  0.2432  0.1371  0.1201
 2977ntf    fn417648  -0.121   1.014   4.625  0.1188 -0.1638 -0.5056
 2977ntf    on517649   0.233   1.015   4.532 -0.0668 -0.2712 -0.1627
 2977ntf    on517650   0.043   1.131   4.430  0.5455 -0.1507 -0.6574
 2977ntf    on517651   0.176   1.412   4.803 -0.6938 -0.0871 -0.2179
 2977ntf    on517652   0.351   1.288   4.679 -0.2319 -0.1255 -0.4576
 2977ntf    fn417653   0.284   1.237   4.986 -0.2679  0.5834  0.2107
 2977ntf    fn417654   0.121   1.117   4.919  0.0214 -0.9444  0.0386
 2977ntf    fn417655   0.312   1.076   4.849 -0.4205  0.6501  0.0734
 2978ntf    cn117656   3.629   5.916   2.238 -0.2830 -0.0359 -0.2301
 2978ntf    sn217657   3.482   5.939   2.343 -0.2200 -0.1553 -0.1142
 2978ntf    nn317658   3.554   6.026   2.453 -0.3211  0.1343 -0.2739
 2978ntf    sn217659   3.588   5.990   2.602 -0.1424  0.0874 -0.3262
 2978ntf    cn117660   3.468   6.097   2.687 -0.3034 -0.0942 -0.3264
 2978ntf    fn417661   3.654   6.030   2.175  0.7427  0.0341  0.2778
 2978ntf    fn417662   3.737   5.893   2.311  0.0196  0.1957 -0.5986
 2978ntf    fn417663   3.615   5.819   2.150  0.5693 -0.3645 -0.0148
 2978ntf    on517664   3.405   6.027   2.257 -0.5549 -0.4948 -0.1623
 2978ntf    on517665   3.441   5.803   2.364  0.0539 -0.2001  0.1322
 2978ntf    on517666   3.722   6.024   2.642 -0.3195 -0.0787  0.4231
 2978ntf    on517667   3.551   5.859   2.647  0.1249  0.1274  0.0143
 2978ntf    fn417668   3.475   6.099   2.819  0.4837  0.0288 -0.3679
 2978ntf    fn417669   3.498   6.221   2.652 -0.4646  0.0275 -0.0355
 2978ntf    fn417670   3.341   6.077   2.654 -0.2201 -0.4480 -0.4450
 2979ntf    cn117671   5.803   1.592   1.305 -0.0642  0.3141  0.1948
 2979ntf    sn217672   5.722   1.487   1.181  0.0344  0.5638 -0.0825
 2979ntf    nn317673   5.825   1.499   1.063 -0.4129  0.4975 -0.4844
 2979ntf    sn217674   5.806   1.473   0.909  0.1055 -0.1008 -0.4543
 2979ntf    cn117675   5.915   1.328   0.904  0.1980 -0.0373 -0.2706
 2979ntf    fn417676   5.918   1.537   1.340 -0.3107 -0.2566  0.1164
 2979ntf    fn417677   5.838   1.710   1.257 -0.3606 -0.0194 -0.8752
 2979ntf    fn417678   5.733   1.613   1.415 -0.0276 -0.0243  0.2831
 2979ntf    on517679   5.701   1.357   1.239 -0.1869  0.4571 -0.3958
 2979ntf    on517680   5.599   1.556   1.152 -0.4120 -0.2552 -0.1848
 2979ntf    on517681   5.878   1.560   0.819  0.1838  0.1718 -0.1304
 2979ntf    on517682   5.678   1.423   0.865 -0.2408  0.0160  0.3820
 2979ntf    fn417683   6.030   1.349   0.967  0.1156  0.2815 -0.2231
 2979ntf    fn417684   5.863   1.233   0.979 -0.0665  0.0784 -0.3065
 2979ntf    fn417685   5.940   1.272   0.787 -0.0272 -0.2163 -0.2310
 2980ntf    cn117686   2.525   0.325   4.972 -0.0661 -0.2351 -0.2739
 2980ntf    sn217687   2.490   0.185   5.083  0.0926  0.2800  0.4306
 2980ntf    nn317688   2.381   0.118   4.993 -0.0225  0.0888  0.7114
 2980ntf    sn217689   2.225   0.133   5.009 -0.1018 -0.3168  0.3404
 2980ntf    cn117690   2.173   0.242   4.874  0.0803 -0.3406  0.2515
 2980ntf    fn417691   2.641   0.384   4.994 -0.0388 -0.4047  0.0350
 2980ntf    fn417692   2.527   0.285   4.846  0.4174 -0.3920 -0.2152
 2980ntf    fn417693   2.433   0.420   4.976 -0.0436 -0.2244 -0.0190
 2980ntf    on517694   2.614   0.111   5.084 -0.2331 -0.2798 -0.1336
 2980ntf    on517695   2.450   0.249   5.206  0.0384 -0.1213  0.6244
 2980ntf    on517696   2.184   0.208   5.125 -0.0863  0.1183  0.0660
 2980ntf    on517697   2.158   0.009   4.981 -0.0222 -0.3836  0.4441
 2980ntf    fn417698   2.192   0.369   4.906  0.2710 -0.0059 -1.1287
 2980ntf    fn417699   2.220   0.234   4.751  0.9649 -0.2110  0.5746
 2980ntf    fn417700   2.043   0.230   4.851  0.0403  0.6135 -0.0801
 2981ntf    cn117701   0.273   3.923   0.836 -0.3058  0.0369 -0.5180
 2981ntf    sn217702   0.147   3.836   0.737 -0.3621 -0.0525 -0.3693
 2981ntf    nn317703   0.161   3.695   0.805 -0.0789 -0.0042 -0.3233
 2981ntf    sn217704   0.050   3.621   0.887  0.1508 -0.3598 -0.3350
 2981ntf    cn117705   0.101   3.447   0.870 -0.0754 -0.4532 -0.0679
 2981ntf    fn417706   0.394   3.869   0.834 -0.4437 -0.3387  0.6334
 2981ntf    fn417707   0.301   4.048   0.803  0.5007  0.0803  0.2951
 2981ntf    fn417708   0.232   3.942   0.960  0.4126 -0.0240 -0.2716
 2981ntf    on517709   0.020   3.903   0.747 -0.6361 -0.5209 -0.6657
 2981ntf    on517710   0.205   3.829   0.605 -0.0581  0.0340 -0.2415
 2981ntf    on517711  -0.088   3.637   0.846  0.0552 -0.1084  0.0853
 2981ntf    on517712   0.065   3.648   1.028  0.4631 -1.0682 -0.2287
 2981ntf    fn417713   0.026   3.362   0.938 -0.7833  0.0435 -0.2112
 2981ntf    fn417714   0.111   3.409   0.744  0.0295  0.1278 -0.2390
 2981ntf    fn417715   0.220   3.434   0.925 -0.0446 -0.0161 -0.0251
 2982ntf    cn117716   0.576   2.028   5.003 -0.2829  0.0302  0.0854
 2982ntf    sn217717   0.501   2.096   4.853  0.1153  0.4385  0.0675
 2982ntf    nn317718   0.594   2.222   4.841  0.6241  0.0734  0.1688
 2982ntf    sn217719   0.559   2.374   4.825 -0.1055 -0.1336 -0.2409
 2982ntf    cn117720   0.422   2.384   4.706 -0.1996 -0.1793 -0.1365
 2982ntf    fn417721   0.704   2.001   4.980 -0.1040  0.6657  0.3151
 2982ntf    fn417722   0.575   2.109   5.108 -0.1211 -0.4524  0.4641
 2982ntf    fn417723   0.527   1.911   5.040  0.1323 -0.1864 -0.0397
 2982ntf    on517724   0.519   1.996   4.750  0.0962 -0.0265  0.5138
 2982ntf    on517725   0.368   2.119   4.904  0.2227  0.3971  0.3641
 2982ntf    on517726   0.656   2.439   4.741 -0.2377 -0.6105 -0.7734
 2982ntf    on517727   0.513   2.449   4.939 -0.5909 -0.0599 -0.4795
 2982ntf    fn417728   0.323   2.299   4.730  0.3327 -0.6665  0.3573
 2982ntf    fn417729   0.369   2.505   4.699 -0.5436 -0.3571 -0.6763
 2982ntf    fn417730   0.461   2.355   4.583 -0.3450 -0.4757 -0.1139
 2983ntf    cn117731   4.875   1.908   2.243  0.0924  0.1000 -0.0448
 2983ntf    sn217732   5.047   1.850   2.243  0.0995  0.1205 -0.0897
 2983ntf    nn317733   5.071   1.807   2.392  0.0167  0.0776 -0.0889
 2983ntf    sn217734   5.036   1.668   2.457 -0.2347  0.2797  0.2094
 2983ntf    cn117735   4.930   1.715   2.597 -0.5555  0.2610 -0.0271
 2983ntf    fn417736   4.871   2.027   2.302  0.0515  0.2564 -0.3591
 2983ntf    fn417737   4.823   1.914   2.122 -0.0237  0.0760  0.0036
 2983ntf    fn417738   4.803   1.823   2.315  0.8082 -0.4525  0.0277
 2983ntf    on517739   5.050   1.746   2.144  0.2889  0.5527 -0.5465
 2983ntf    on517740   5.118   1.971   2.207 -0.0367  0.0958 -0.4447
 2983ntf    on517741   5.152   1.607   2.518 -0.6529 -0.3449  0.3900
 2983ntf    on517742   4.956   1.584   2.372 -0.2875  0.2847  0.2543
 2983ntf    fn417743   4.984   1.803   2.680 -0.7595  0.1252  0.2490
 2983ntf    fn417744   4.815   1.770   2.564 -0.4376  0.6036  0.1258
 2983ntf    fn417745   4.904   1.605   2.665  0.4079  0.2002  0.2541
 2984ntf    cn117746   4.969   4.763   4.271 -0.6728 -0.3583 -0.2423
 2984ntf    sn217747   4.972   4.700   4.101  0.2646 -0.3697 -0.2305
 2984ntf    nn317748   4.914   4.554   4.111  0.2121 -0.3691 -0.5306
 2984ntf    sn217749   4.774   4.513   4.052 -0.1055 -0.0335 -0.0093
 2984ntf    cn117750   4.748   4.350   4.127 -0.0756 -0.1162 -0.1798
 2984ntf    fn417751   5.033   4.879   4.282 -0.2719 -0.5573 -0.4716
 2984ntf    fn417752   4.846   4.775   4.319 -0.5731 -0.8585  0.1504
 2984ntf    fn417753   5.039   4.676   4.342 -0.6252 -0.0198  0.1317
 2984ntf    on517754   4.897   4.803   4.034  0.4564 -0.0428  0.0568
 2984ntf    on517755   5.110   4.697   4.062  0.2729 -0.0573 -0.2243
 2984ntf    on517756   4.793   4.472   3.916  0.2138 -0.4393  0.1556
 2984ntf    on517757   4.653   4.583   4.088  0.0883  0.3427 -0.0833
 2984ntf    fn417758   4.642   4.280   4.088 -0.2585 -0.1954  0.4420
 2984ntf    fn417759   4.853   4.271   4.110 -0.0238 -0.2616  0.7617
 2984ntf    fn417760   4.735   4.356   4.259 -0.1920  0.9252 -0.2319
 2985ntf    cn117761   3.585   3.158   0.541 -0.1111 -0.4748 -0.0382
 2985ntf    sn217762   3.644   3.246   0.688 -0.1743 -0.4101 -0.0520
 2985ntf    nn317763   3.665   3.131   0.793 -0.6574 -0.2075  0.2699
 2985ntf    sn217764   3.740   2.994   0.782 -0.1955  0.0460  0.2250
 2985ntf    cn117765   3.857   3.016   0.920 -0.3412 -0.2484  0.3976
 2985ntf    fn417766   3.482   3.077   0.560 -0.1426 -0.4910 -0.2687
 2985ntf    fn417767   3.524   3.237   0.455  0.1824 -0.1113  0.0880
 2985ntf    fn417768   3.683   3.092   0.481  0.0500 -0.0589 -0.2312
 2985ntf    on517769   3.772   3.295   0.642 -0.5139  0.8473  0.2998
 2985ntf    on517770   3.542   3.343   0.718  0.4908  0.2588  0.0967
 2985ntf    on517771   3.817   2.963   0.664  0.4422  0.5668  0.4987
 2985ntf    on517772   3.656   2.889   0.835 -0.7616  0.4387  0.1110
 2985ntf    fn417773   3.937   3.121   0.916 -0.3008 -0.2831  0.2664
 2985ntf    fn417774   3.792   3.018   1.035 -0.4575 -0.3620  0.3340
 2985ntf    fn417775   3.942   2.915   0.920 -0.0516 -0.0106 -0.0584
 2986ntf    cn117776   5.512   6.210   7.140  0.0017  0.0304 -0.5663
 2986ntf    sn217777   5.673   6.287   7.174 -0.1204  0.1650 -0.2813
 2986ntf    nn317778   5.767   6.182   7.105  0.1305  0.1795  0.0344
 2986ntf    sn217779   5.832   6.186   6.962 -0.2801 -0.3597 -0.1705
 2986ntf    cn117780   5.998   6.252   6.992 -0.3809 -0.3208  0.3052
 2986ntf    fn417781   5.494   6.097   7.206  0.0313  0.6900  0.6031
 2986ntf    fn417782   5.402   6.281   7.162 -0.1274 -0.2759 -0.1937
 2986ntf    fn417783   5.502   6.183   7.011  0.6450 -0.0478 -0.6019
 2986ntf    on517784   5.667   6.412   7.102 -0.8955  0.0611 -0.4032
 2986ntf    on517785   5.686   6.292   7.317  0.2746 -0.0524 -0.3082
 2986ntf    on517786   5.779   6.282   6.869  0.2031  0.1317  0.0608
 2986ntf    on517787   5.862   6.052   6.918  0.3578 -0.2470 -0.0791
 2986ntf    fn417788   6.081   6.216   6.895 -0.0788  0.3135  0.3242
 2986ntf    fn417789   6.004   6.383   7.003  0.2115 -0.3015 -0.1619
 2986ntf    fn417790   6.051   6.206   7.104  0.3395 -0.1994  0.0245
 2987ntf    cn117791   2.058   3.155   6.874  0.3677 -0.3010  0.5120
 2987ntf    sn217792   2.093   3.314   6.957 -0.2856  0.2168 -0.1947
 2987ntf    nn317793   1.957   3.380   6.914 -0.0465  0.2570 -0.9019
 2987ntf    sn217794   1.874   3.493   6.984  0.5155  0.0058  0.1877
 2987ntf    cn117795   1.731   3.385   7.016  0.4396  0.1362  0.2886
 2987ntf    fn417796   2.032   3.174   6.746  0.7189 -0.0900  0.4701
 2987ntf    fn417797   2.154   3.065   6.885  0.3481 -0.3755  0.0870
 2987ntf    fn417798   1.953   3.102   6.933  0.3859 -0.3553  0.4955
 2987ntf    on517799   2.100   3.263   7.091  0.1933 -0.3198 -0.4174
 2987ntf    on517800   2.212   3.371   6.900 -0.1768 -0.4117 -0.6032
 2987ntf    on517801   1.831   3.602   6.900  0.6225 -0.5515 -0.5904
 2987ntf    on517802   1.912   3.525   7.120  0.2215  0.4309  0.1721
 2987ntf    fn417803   1.759   3.274   7.082 -0.1682 -0.2169 -0.0397
 2987ntf    fn417804   1.631   3.445   7.080  0.2693 -0.0903  0.2349
 2987ntf    fn417805   1.685   3.328   6.906  0.2143  0.1671  0.3655
 2988ntf    cn117806   6.581   4.592   5.793  0.0273  0.4074  0.2063
 2988ntf    sn217807   6.761   4.569   5.796 -0.0207  0.0333  0.3162
 2988ntf    nn317808   6.784   4.626   5.941  0.0747  0.2896  0.2027
 2988ntf    sn217809   6.881   4.563   6.047 -0.1406 -0.0575  0.1973
 2988ntf    cn117810   7.025   4.511   5.950 -0.0106  0.4435  0.1188
 2988ntf    fn417811   6.551   4.716   5.829 -0.8700  0.4152 -0.5255
 2988ntf    fn417812   6.538   4.582   5.669  0.2080 -0.1768  0.1890
 2988ntf    fn417813   6.518   4.507   5.873  0.2259  0.3398  0.2913
 2988ntf    on517814   6.767   4.425   5.796 -0.7697 -0.0167 -1.1828
 2988ntf    on517815   6.800   4.645   5.679 -0.2391 -0.4292 -0.0579
 2988ntf    on517816   6.827   4.444   6.107  0.1322 -0.0907  0.3764
 2988ntf    on517817   6.934   4.665   6.135  0.4405  0.1656 -0.4004
 2988ntf    fn417818   7.127   4.475   6.027  0.0548  1.0950  0.3406
 2988ntf    fn417819   6.995   4.419   5.860  0.1484  0.1983  0.3157
 2988ntf    fn417820   7.078   4.611   5.880 -0.0493  0.0762 -0.4448
 2989ntf    cn117821   5.211   1.884   6.324  0.3944  0.3289  0.2562
 2989ntf    sn217822   5.319   1.952   6.454  0.1441  0.2929  0.4829
 2989ntf    nn317823   5.262   2.098   6.458 -0.4016  0.1034 -0.1783
 2989ntf    sn217824   5.171   2.157   6.572  0.0777  0.1867  0.1621
 2989ntf    cn117825   5.289   2.216   6.696  0.1023  0.0865  0.1864
 2989ntf    fn417826   5.258   1.768   6.279 -0.0466  0.1748  0.1911
 2989ntf    fn417827   5.091   1.854   6.371 -0.0014 -0.2045 -1.0437
 2989ntf    fn417828   5.193   1.952   6.212  0.4647  1.0719  0.6966
 2989ntf    on517829   5.297   1.862   6.565  0.4052 -0.9341 -0.4298
 2989ntf    on517830   5.448   1.943   6.390 -0.1782 -0.0955 -0.1309
 2989ntf    on517831   5.089   2.067   6.650  0.6240 -0.4298  0.0420
 2989ntf    on517832   5.118   2.281   6.522 -0.1897  0.0683  0.1469
 2989ntf    fn417833   5.229   2.264   6.804 -0.2372 -0.1821  0.1175
 2989ntf    fn417834   5.352   2.110   6.745 -0.0693 -0.1117 -0.0233
 2989ntf    fn417835   5.370   2.315   6.660  0.1006 -0.0273 -0.1314
 2990ntf    cn117836   6.958   2.791   5.185 -0.3836 -0.2604 -0.4449
 2990ntf    sn217837   6.869   2.725   5.041 -0.4917 -0.1869 -0.4109
 2990ntf    nn317838   6.810   2.591   5.097 -0.0092 -0.3411 -0.2732
 2990ntf    sn217839   6.669   2.578   5.164  0.1486  0.1663  0.1591
 2990ntf    cn117840   6.567   2.535   5.019 -0.2005  0.3113  0.3587
 2990ntf    fn417841   6.880   2.814   5.289  0.8695 -0.1027  0.4922
 2990ntf    fn417842   7.052   2.709   5.231 -0.2258  0.1252 -0.0649
 2990ntf    fn417843   7.020   2.901   5.146  0.4039 -0.2821  0.6817
 2990ntf    on517844   6.774   2.828   5.005 -0.0316  0.4757  0.2276
 2990ntf    on517845   6.980   2.690   4.956 -0.0010  0.4804 -0.0577
 2990ntf    on517846   6.613   2.703   5.211 -0.9114 -0.2659  0.0771
 2990ntf    on517847   6.660   2.471   5.259 -0.3973  0.5386  0.5329
 2990ntf    fn417848   6.561   2.633   4.931  0.5597 -0.0035 -0.0573
 2990ntf    fn417849   6.616   2.435   4.947  0.5323  0.3175  0.8347
 2990ntf    fn417850   6.449   2.497   5.064 -0.2542  0.1394  0.0709
 2991ntf    cn117851   0.279   5.237   3.049 -0.2717 -0.1613 -0.0677
 2991ntf    sn217852   0.194   5.266   2.891 -0.4698 -0.0229  0.0626
 2991ntf    nn317853   0.043   5.245   2.928 -0.3974  0.5151  0.6863
 2991ntf    sn217854  -0.079   5.250   2.829  0.3196  0.2126 -0.2323
 2991ntf    cn117855  -0.177   5.382   2.907  0.1135 -0.0136 -0.1081
 2991ntf    fn417856   0.293   5.112   3.089  0.2135 -0.2440 -0.4928
 2991ntf    fn417857   0.404   5.282   3.051 -0.3913  0.1694  0.4498
 2991ntf    fn417858   0.201   5.277   3.149  0.4538  0.6299  0.1983
 2991ntf    on517859   0.235   5.401   2.862 -0.7005  0.1623  0.5807
 2991ntf    on517860   0.249   5.163   2.805 -0.4461 -0.0363  0.0942
 2991ntf    on517861  -0.163   5.134   2.843 -0.5987  0.8944  0.0019
 2991ntf    on517862  -0.062   5.315   2.701 -0.3387 -0.1574 -0.5141
 2991ntf    fn417863  -0.289   5.409   2.843  0.2173  0.3929 -0.1178
 2991ntf    fn417864  -0.207   5.360   3.035  0.2734 -0.6308 -0.1732
 2991ntf    fn417865  -0.109   5.495   2.912 -0.2843  0.2203  0.0403
 2992ntf    cn117866   2.895   1.934   1.409  0.2067 -0.3127 -0.1902
 2992ntf    sn217867   2.962   2.011   1.259 -0.2767  0.0575 -0.2171
 2992ntf    nn317868   2.836   2.006   1.165 -0.1851  0.0423 -0.3399
 2992ntf    sn217869   2.733   2.119   1.128 -0.0162  0.3814  0.2087
 2992ntf    cn117870   2.801   2.165   0.966  0.6143  0.1592  0.4091
 2992ntf    fn417871   2.793   2.007   1.452  0.5181 -0.2535  0.4697
 2992ntf    fn417872   2.839   1.816   1.388 -0.3802  0.0270 -0.5584
 2992ntf    fn417873   2.983   1.926   1.508 -0.0300 -0.0051  0.0481
 2992ntf    on517874   3.015   2.138   1.303 -0.5515  0.0039  0.2749
 2992ntf    on517875   3.067   1.920   1.222 -0.4682  0.0913 -0.8568
 2992ntf    on517876   2.731   2.237   1.211  0.1650 -0.1712  1.0177
 2992ntf    on517877   2.607   2.068   1.081 -0.1847  0.3845  0.6490
 2992ntf    fn417878   2.710   2.227   0.893  0.8423 -0.0592 -0.0667
 2992ntf    fn417879   2.908   2.243   0.972  0.3714  0.5677 -0.4728
 2992ntf    fn417880   2.840   2.055   0.903  0.3983  0.1048  0.3712
 2993ntf    cn117881   5.840   5.794   6.258 -0.3548 -0.0317 -0.2666
 2993ntf    sn217882   5.796   5.623   6.299 -0.0533  0.0573  0.4319
 2993ntf    nn317883   5.914   5.548   6.228  0.0498  0.2927  0.3533
 2993ntf    sn217884   5.931   5.392   6.212  0.0283  0.3708 -0.4410
 2993ntf    cn117885   5.924   5.392   6.030 -0.2849 -0.0457 -0.4300
 2993ntf    fn417886   5.959   5.838   6.294 -0.2079 -0.9949  0.4522
 2993ntf    fn417887   5.824   5.824   6.130  0.0061  0.4844 -0.1960
 2993ntf    fn417888   5.752   5.871   6.320  0.1033  0.1415  0.1754
 2993ntf    on517889   5.799   5.618   6.443  0.3105  0.2484  0.4324
 2993ntf    on517890   5.669   5.605   6.233  0.3689  0.3409 -0.4778
 2993ntf    on517891   5.815   5.313   6.243  0.2278  0.6575  1.0887
 2993ntf    on517892   6.061   5.342   6.250 -0.5536 -0.6614  0.2043
 2993ntf    fn417893   5.816   5.449   5.982 -0.6935  0.2839  0.8417
 2993ntf    fn417894   6.030   5.450   5.975 -0.1932  0.0841 -0.1184
 2993ntf    fn417895   5.925   5.267   5.987 -0.3348  0.0115 -0.5967
 2994ntf    cn117896   5.237   2.671   3.767 -0.2109 -0.1408 -0.0460
 2994ntf    sn217897   5.132   2.665   3.619 -0.6052 -0.1022  0.2311
 2994ntf    nn317898   5.228   2.706   3.502  0.1571 -0.3922  0.7453
 2994ntf    sn217899   5.383   2.683   3.490  0.1696  0.1596 -0.2817
 2994ntf    cn117900   5.384   2.580   3.340 -0.2281 -0.0247 -0.1607
 2994ntf    fn417901   5.301   2.564   3.810 -0.1269 -0.1572 -0.2115
 2994ntf    fn417902   5.326   2.769   3.774 -0.1895 -0.2002  0.5975
 2994ntf    fn417903   5.158   2.692   3.871 -0.5461 -0.7208 -0.1813
 2994ntf    on517904   5.075   2.533   3.606 -0.8587  0.0200  0.0810
 2994ntf    on517905   5.036   2.765   3.658 -0.4873 -0.0715  0.4458
 2994ntf    on517906   5.432   2.589   3.588 -0.0009  0.0519 -0.2974
 2994ntf    on517907   5.461   2.798   3.454  0.5091  0.0885  0.2178
 2994ntf    fn417908   5.505   2.546   3.299 -0.2787 -0.4086  0.0053
 2994ntf    fn417909   5.327   2.464   3.368  0.2344 -0.2382 -0.0850
 2994ntf    fn417910   5.310   2.628   3.241  0.3324  0.5127 -0.3270
 2995ntf    cn117911   1.639   3.218   1.397 -0.2191 -0.4358 -0.3589
 2995ntf    sn217912   1.707   3.125   1.538 -0.1605  0.6269  0.3276
 2995ntf    nn317913   1.822   3.040   1.473 -0.5525  0.9628 -0.8326
 2995ntf    sn217914   1.968   3.069   1.425  0.0050  0.0060  0.2317
 2995ntf    cn117915   2.064   2.993   1.560  0.5465 -0.3524 -0.3489
 2995ntf    fn417916   1.515   3.260   1.415  0.0492  0.2360 -0.0384
 2995ntf    fn417917   1.712   3.324   1.365  0.5486 -0.6639  0.5684
 2995ntf    fn417918   1.629   3.142   1.290  0.4205 -0.9479 -0.0636
 2995ntf    on517919   1.747   3.221   1.637 -0.3542  0.4263  0.6030
 2995ntf    on517920   1.592   3.046   1.576 -0.1555  0.4297 -0.0632
 2995ntf    on517921   2.013   3.206   1.428  0.0353  0.0215 -0.6587
 2995ntf    on517922   2.010   2.990   1.312  0.0206 -0.4938  0.5840
 2995ntf    fn417923   2.031   3.055   1.672  0.3245 -0.5624 -0.2991
 2995ntf    fn417924   2.024   2.869   1.577  0.6207 -0.3788 -0.3660
 2995ntf    fn417925   2.196   2.989   1.556  0.5434 -0.7384 -0.0614
 2996ntf    cn117926   0.725   0.789   5.462 -0.0480  0.1072  0.2575
 2996ntf    sn217927   0.754   0.611   5.442 -0.0215  0.1225  0.1615
 2996ntf    nn317928   0.784   0.615   5.288  0.0587  0.1669  0.1781
 2996ntf    sn217929   0.872   0.513   5.207  0.1567  0.0480  0.4352
 2996ntf    cn117930   0.809   0.535   5.038  0.1689 -0.3753  0.3756
 2996ntf    fn417931   0.843   0.846   5.477  0.3090 -0.5792  0.0917
 2996ntf    fn417932   0.667   0.840   5.355  0.1188 -0.6570 -0.2001
 2996ntf    fn417933   0.657   0.811   5.574  0.1776  1.1859  0.1937
 2996ntf    on517934   0.862   0.585   5.534 -0.3794 -0.1367  0.5146
 2996ntf    on517935   0.626   0.552   5.472 -0.1216 -0.0698 -0.6214
 2996ntf    on517936   0.862   0.374   5.242  0.4779 -0.0019  0.3334
 2996ntf    on517937   1.005   0.567   5.189 -0.1785  0.7366 -0.0215
 2996ntf    fn417938   0.846   0.654   4.993 -0.3707 -0.3993 -0.1390
 2996ntf    fn417939   0.864   0.447   4.956  0.7057 -0.0947  0.4317
 2996ntf    fn417940   0.677   0.526   5.035  0.1398 -0.0955  0.7377
 2997ntf    cn117941   0.849   5.689   2.459  0.4966 -0.3561  0.1677
 2997ntf    sn217942   0.772   5.550   2.370  0.1533 -0.1482  0.1419
 2997ntf    nn317943   0.650   5.513   2.463  0.1107 -0.2284  0.0536
 2997ntf    sn217944   0.508   5.580   2.456  0.1857 -0.1270 -0.5206
 2997ntf    cn117945   0.421   5.458   2.353 -0.1700 -0.1661 -0.1736
 2997ntf    fn417946   0.848   5.676   2.591 -0.1084 -0.3900  0.1587
 2997ntf    fn417947   0.970   5.708   2.409  0.0050  0.3530 -0.7701
 2997ntf    fn417948   0.786   5.803   2.439  0.7965 -0.0888  0.7074
 2997ntf    on517949   0.738   5.611   2.244 -0.0209  0.4444  0.4666
 2997ntf    on517950   0.881   5.456   2.365  0.0985 -0.1883 -0.2936
 2997ntf    on517951   0.500   5.707   2.387 -0.0715  0.0025 -0.2538
 2997ntf    on517952   0.438   5.566   2.580  0.0476 -0.0047 -0.5847
 2997ntf    fn417953   0.446   5.341   2.408  0.5696  0.1298  0.1391
 2997ntf    fn417954   0.290   5.475   2.355 -0.0758  0.5299  0.5770
 2997ntf    fn417955   0.465   5.461   2.228  0.2502  0.2940 -0.0218
 2998ntf    cn117956   0.677   6.660   5.176  0.0093  0.5073 -0.1110
 2998ntf    sn217957   0.652   6.575   5.334 -0.1587  0.2291 -0.2865
 2998ntf    nn317958   0.566   6.452   5.289  0.7360 -0.1756 -0.9224
 2998ntf    sn217959   0.550   6.303   5.336  0.1187  0.1429 -0.0944
 2998ntf    cn117960   0.384   6.305   5.409  0.2483 -0.1848  0.2161
 2998ntf    fn417961   0.767   6.592   5.106 -0.0886  0.2216  0.0412
 2998ntf    fn417962   0.571   6.675   5.098  0.1153  0.1847 -0.3156
 2998ntf    fn417963   0.733   6.779   5.188 -0.1681  0.5463  0.3320
 2998ntf    on517964   0.784   6.527   5.366  0.0038  0.4572 -0.6112
 2998ntf    on517965   0.589   6.671   5.421  0.1665  0.1699  0.0170
 2998ntf    on517966   0.631   6.256   5.446  0.0210  0.1633 -0.0134
 2998ntf    on517967   0.532   6.214   5.225  0.2906  0.5660 -0.4660
 2998ntf    fn417968   0.373   6.357   5.530  0.4810  0.0582  0.1357
 2998ntf    fn417969   0.290   6.364   5.336 -0.0616 -1.0175 -0.0650
 2998ntf    fn417970   0.350   6.178   5.419 -0.7901  0.0327 -0.3626
 2999ntf    cn117971   5.561   5.984   2.028  0.5687 -0.1829 -0.1589
 2999ntf    sn217972   5.514   6.152   2.078 -0.1142 -0.3242 -0.3141
 2999ntf    nn317973   5.611   6.243   1.994  0.2229 -0.3908  0.0001
 2999ntf    sn217974   5.602   6.313   1.854 -0.0295  0.1314  0.2771
 2999ntf    cn117975   5.768   6.279   1.786 -0.1882  0.0123 -0.0492
 2999ntf    fn417976   5.653   5.933   2.109  0.0352 -0.2602  0.4028
 2999ntf    fn417977   5.454   5.907   2.034  0.4645  0.0211  0.8493
 2999ntf    fn417978   5.616   5.983   1.908 -0.1782 -0.1122 -0.5057
 2999ntf    on517979   5.373   6.170   2.057 -0.0319  0.3087 -0.3636
 2999ntf    on517980   5.554   6.147   2.217 -0.1202 -0.0726 -0.3030
 2999ntf    on517981   5.592   6.457   1.857  0.0979  0.1458  0.0248
 2999ntf    on517982   5.523   6.236   1.762  0.0869  0.6147 -0.2316
 2999ntf    fn417983   5.853   6.363   1.842 -0.0217 -0.4278  0.3673
 2999ntf    fn417984   5.806   6.155   1.810  0.7133  0.3252  0.1630
 2999ntf    fn417985   5.779   6.293   1.655 -0.2000 -0.7923 -0.1417
 3000ntf    cn117986   4.479   2.279   3.131 -0.0838 -0.1103  0.5626
 3000ntf    sn217987   4.631   2.181   3.109 -0.0640  0.0714 -0.1487
 3000ntf    nn317988   4.693   2.263   2.991  0.2510 -0.0897 -0.0967
 3000ntf    sn217989   4.819   2.223   2.906  0.0653  0.4262 -0.6272
 3000ntf    cn117990   4.729   2.221   2.748 -0.1117 -0.1409 -0.5237
 3000ntf    fn417991   4.401   2.221   3.221 -0.9221  0.0880 -0.0239
 3000ntf    fn417992   4.506   2.405   3.159  0.2768 -0.1141  0.2396
 3000ntf    fn417993   4.406   2.283   3.021  0.0149 -0.6182  0.4760
 3000ntf    on517994   4.700   2.192   3.236 -0.3161 -0.6011  0.0542
 3000ntf    on517995   4.581   2.049   3.077  0.1831  0.1059 -0.6886
 3000ntf    on517996   4.864   2.087   2.923 -0.3479  0.3212 -0.3625
 3000ntf    on517997   4.924   2.321   2.895  0.4016  0.1651  0.1467
 3000ntf    fn417998   4.631   2.132   2.749 -0.5539  0.3382 -0.4083
 3000ntf    fn417999   4.677   2.336   2.709  0.1830  0.0672 -0.3053
 3000ntf    fn418000   4.804   2.181   2.647  0.1844 -0.1084 -0.3205
 3001ntf    cn118001   4.430   1.387   4.606  0.2344  0.4111  0.2819
 3001ntf    sn218002   4.270   1.332   4.540  0.3780  0.2672  0.0576
 3001ntf    nn318003   4.328   1.275   4.405  0.4767 -0.2656  0.3211
 3001ntf    sn218004   4.268   1.167   4.308  0.0392  0.0630  0.2235
 3001ntf    cn118005   4.150   1.261   4.207  0.4174 -0.0013 -0.2807
 3001ntf    fn418006   4.471   1.497   4.545 -0.4310  0.0658 -0.8185
 3001ntf    fn418007   4.401   1.432   4.727 -1.1355  0.0309  0.1128
 3001ntf    fn418008   4.529   1.300   4.615 -0.4772 -0.5104 -0.6209
 3001ntf    on518009   4.218   1.233   4.631 -0.1419 -0.3406 -0.8835
 3001ntf    on518010   4.192   1.450   4.516 -0.2239 -0.1461 -0.0297
 3001ntf    on518011   4.191   1.060   4.367 -0.0821 -0.0980 -0.2242
 3001ntf    on518012   4.370   1.132   4.212 -0.3119 -0.4237  0.0261
 3001ntf    fn418013   4.082   1.185   4.123  0.4552 -0.0594 -0.2592
 3001ntf    fn418014   4.058   1.319   4.283  0.0655 -1.2141  0.2379
 3001ntf    fn418015   4.215   1.351   4.134  0.2382  0.2764 -0.1012
 3002ntf    cn118016   2.135   6.101   4.776  0.3359 -0.0131 -0.2258
 3002ntf    sn218017   1.956   6.084   4.749  0.3230 -0.0306 -0.1293
 3002ntf    nn318018   1.921   5.965   4.845 -0.3537  0.1145 -0.1967
 3002ntf    sn218019   1.842   5.833   4.813 -0.1122 -0.0339 -0.1784
 3002ntf    cn118020   1.980   5.734   4.747  0.0322 -0.0261  0.1113
 3002ntf    fn418021   2.189   6.204   4.712 -0.1845  0.5400  0.2170
 3002ntf    fn418022   2.173   6.117   4.902 -0.0145 -0.2849 -0.0866
 3002ntf    fn418023   2.197   5.991   4.736 -0.1572 -0.4623  0.2397
 3002ntf    on518024   1.899   6.207   4.797  0.0871 -0.1569 -0.0857
 3002ntf    on518025   1.939   6.054   4.609  0.1720  0.0288 -0.1234
 3002ntf    on518026   1.741   5.840   4.711  0.0223  0.1337 -0.3006
 3002ntf    on518027   1.802   5.749   4.923 -0.7991  0.0314 -0.3747
 3002ntf    fn418028   1.985   5.607   4.785 -0.4233 -0.0304  0.1716
 3002ntf    fn418029   1.986   5.736   4.615 -0.1775  0.4248  0.1075
 3002ntf    fn418030   2.096   5.781   4.789  0.1151 -0.3893  0.2931
 3003ntf    cn118031   2.179   1.094   4.829 -0.4815  0.2598 -0.4930
 3003ntf    sn218032   2.259   0.937   4.784 -0.1907  0.3452 -0.2810
 3003ntf    nn318033   2.141   0.847   4.835  0.5191 -0.3507  0.1539
 3003ntf    sn218034   2.001   0.830   4.764  0.6719  0.1295 -0.2687
 3003ntf    cn118035   2.027   0.690   4.650 -0.0500 -0.0681 -0.1960
 3003ntf    fn418036   2.137   1.100   4.955  0.4887  0.4523 -0.1716
 3003ntf    fn418037   2.262   1.194   4.811 -0.3166  0.3612  0.7350
 3003ntf    fn418038   2.067   1.126   4.766 -0.9530  0.3178  0.3576
 3003ntf    on518039   2.290   0.939   4.643  0.1802 -0.0842 -0.2066
 3003ntf    on518040   2.372   0.922   4.872 -0.3241 -0.7434 -0.2771
 3003ntf    on518041   1.971   0.929   4.665 -0.3422  0.1878  0.0894
 3003ntf    on518042   1.903   0.788   4.862  0.1315  0.6186 -0.5976
 3003ntf    fn418043   2.039   0.576   4.716 -0.1242 -0.0750 -0.1948
 3003ntf    fn418044   1.922   0.682   4.570 -0.4430 -0.6259  0.3670
 3003ntf    fn418045   2.134   0.707   4.574 -0.0203 -0.6056 -0.2774
 3004ntf    cn118046   0.765   1.150   1.060  0.1216  0.5650 -0.2898
 3004ntf    sn218047   0.611   1.062   1.099  0.5727 -0.1707 -0.1432
 3004ntf    nn318048   0.673   0.979   1.217  0.0332 -0.0090  0.2565
 3004ntf    sn218049   0.730   0.833   1.210 -0.1183 -0.0442 -0.2670
 3004ntf    cn118050   0.584   0.751   1.282  0.1867 -0.2667  0.1013
 3004ntf    fn418051   0.853   1.079   0.991 -0.3438  0.2623 -0.5758
 3004ntf    fn418052   0.750   1.257   0.984  0.2285  0.3731 -0.5809
 3004ntf    fn418053   0.823   1.183   1.175 -0.4436 -0.4286  0.3017
 3004ntf    on518054   0.520   1.159   1.156  0.6537 -0.2830  0.1803
 3004ntf    on518055   0.579   1.006   0.970  0.0273 -0.2288  0.0147
 3004ntf    on518056   0.833   0.807   1.307  0.2322  0.0958 -0.6017
 3004ntf    on518057   0.751   0.777   1.079 -0.0371 -0.5093 -0.0589
 3004ntf    fn418058   0.604   0.626   1.318  0.4531 -0.1106  0.4980
 3004ntf    fn418059   0.551   0.816   1.393  0.1226 -0.1872  0.0362
 3004ntf    fn418060   0.480   0.749   1.200 -0.0446  0.2919  0.3754
 3005ntf    cn118061   2.277   6.090   0.071  0.2064 -0.2207 -0.1037
 3005ntf    sn218062   2.289   6.266   0.115 -0.3044 -0.1758 -0.1511
 3005ntf    nn318063   2.168   6.316   0.028  0.0780 -0.6492 -0.9598
 3005ntf    sn218064   2.162   6.448  -0.058 -0.2673 -0.1366 -0.1553
 3005ntf    cn118065   2.200   6.415  -0.232 -0.1522  0.3235 -0.2174
 3005ntf    fn418066   2.328   6.068  -0.049 -0.3589 -0.1101 -0.3670
 3005ntf    fn418067   2.351   6.021   0.157  0.4736  0.3710  0.1471
 3005ntf    fn418068   2.154   6.045   0.053  0.3353 -0.5278 -0.2156
 3005ntf    on518069   2.263   6.276   0.257 -0.2186 -0.7216 -0.0942
 3005ntf    on518070   2.410   6.323   0.063 -0.4523 -0.7078 -1.1043
 3005ntf    on518071   2.262   6.544  -0.019 -0.4991  0.0938 -0.1245
 3005ntf    on518072   2.029   6.504  -0.066 -0.0504  0.3951 -0.0448
 3005ntf    fn418073   2.322   6.364  -0.233 -0.1067  0.4235  0.1409
 3005ntf    fn418074   2.136   6.313  -0.288  0.0069 -0.0648  0.2985
 3005ntf    fn418075   2.196   6.519  -0.315  0.5878 -0.1634 -0.8866
 3006ntf    cn118076   4.405   2.348   0.217 -0.0771  0.0759 -0.7034
 3006ntf    sn218077   4.332   2.316   0.380  0.2351  0.1293 -0.5510
 3006ntf    nn318078   4.408   2.187   0.425 -0.3359  0.1874  0.6021
 3006ntf    sn218079   4.374   2.034   0.408  0.0119  0.1752  0.0129
 3006ntf    cn118080   4.487   1.971   0.536  0.3600 -0.2195 -0.4804
 3006ntf    fn418081   4.531   2.307   0.210 -0.1441 -0.2544 -0.0547
 3006ntf    fn418082   4.345   2.283   0.118 -0.2068 -0.0407 -0.5485
 3006ntf    fn418083   4.410   2.476   0.184  0.0234  0.1782 -0.2915
 3006ntf    on518084   4.372   2.426   0.463 -0.2867  0.2309 -0.4317
 3006ntf    on518085   4.189   2.303   0.363  0.1545  0.4536 -0.1304
 3006ntf    on518086   4.430   1.968   0.292  0.4344 -0.1487  0.3984
 3006ntf    on518087   4.244   1.994   0.455  0.0429 -0.3460 -0.3431
 3006ntf    fn418088   4.459   1.848   0.576  0.6963 -0.2831 -0.4366
 3006ntf    fn418089   4.612   1.966   0.494  0.6892 -0.0135  0.4432
 3006ntf    fn418090   4.480   2.036   0.652 -0.1792 -0.4656 -0.3709
 3007ntf    cn118091   7.091   6.418   2.243  0.1413 -0.1891  0.2957
 3007ntf    sn218092   7.026   6.513   2.102 -0.2156 -0.0845  0.5303
 3007ntf    nn318093   7.072   6.658   2.142  0.0369  0.0012 -0.0621
 3007ntf    sn218094   7.057   6.794   2.067  0.4059  0.2236  0.2650
 3007ntf    cn118095   7.224   6.866   2.076  0.4059  0.2130  0.3451
 3007ntf    fn418096   7.041   6.295   2.240  0.0589 -0.1557  0.2735
 3007ntf    fn418097   7.222   6.402   2.235  0.2455  0.6147  0.3497
 3007ntf    fn418098   7.061   6.470   2.361  0.1573 -0.0351  0.2319
 3007ntf    on518099   7.088   6.448   1.989 -1.0657  0.2596 -0.1469
 3007ntf    on518100   6.883   6.499   2.118 -0.2844  0.0291  0.0213
 3007ntf    on518101   6.969   6.889   2.130  0.0487 -0.0413  0.1680
 3007ntf    on518102   7.036   6.780   1.925 -0.8380  1.1335  0.3367
 3007ntf    fn418103   7.223   6.980   2.010 -0.4037  0.3741  0.6266
 3007ntf    fn418104   7.255   6.885   2.203  0.0660 -0.4015  0.5269
 3007ntf    fn418105   7.316   6.788   2.021  0.2821  0.2690  0.0593
 3008ntf    cn118106   6.142   3.161   5.530  0.0132 -0.2541 -0.0853
 3008ntf    sn218107   6.302   3.217   5.466 -0.1735  0.0442 -0.2977
 3008ntf    nn318108   6.314   3.356   5.539  0.5979  0.0378 -0.3967
 3008ntf    sn218109   6.384   3.489   5.493 -0.1498  0.6296  0.1522
 3008ntf    cn118110   6.470   3.531   5.647 -0.0608 -0.4683  0.4139
 3008ntf    fn418111   6.044   3.230   5.474  0.4944  0.0550 -0.5508
 3008ntf    fn418112   6.109   3.038   5.493  0.6893 -0.5597  0.3187
 3008ntf    fn418113   6.126   3.170   5.661 -0.0782  0.0293 -0.1149
 3008ntf    on518114   6.388   3.118   5.527 -0.3173 -0.0591 -0.2632
 3008ntf    on518115   6.280   3.229   5.324  0.4229  0.7324 -0.3395
 3008ntf    on518116   6.298   3.598   5.452 -0.4220  0.2733 -0.2318
 3008ntf    on518117   6.496   3.450   5.412 -0.6022 -0.3987  0.0040
 3008ntf    fn418118   6.389   3.586   5.736  0.1721  0.7415 -0.0990
 3008ntf    fn418119   6.532   3.435   5.714  0.1046 -0.9094 -0.3615
 3008ntf    fn418120   6.557   3.631   5.637  0.0182 -0.6156 -0.4800
 3009ntf    cn118121   0.495   2.929   3.621  0.3201 -0.1793  0.1522
 3009ntf    sn218122   0.504   2.977   3.445  0.1592 -0.0124  0.1891
 3009ntf    nn318123   0.351   3.008   3.428  0.1609 -0.1364 -0.0533
 3009ntf    sn218124   0.236   2.908   3.389  0.2173 -0.0701 -0.3897
 3009ntf    cn118125   0.256   2.917   3.208 -0.1196 -0.3162 -0.4396
 3009ntf    fn418126   0.413   2.830   3.650 -0.0429 -0.0647 -0.4511
 3009ntf    fn418127   0.616   2.889   3.655  0.3842  0.0977  0.2520
 3009ntf    fn418128   0.477   3.028   3.706 -0.2298 -0.0134 -0.1525
 3009ntf    on518129   0.567   3.106   3.446 -0.3139  0.2200  0.3599
 3009ntf    on518130   0.555   2.867   3.367  0.9380  0.2376  0.3389
 3009ntf    on518131   0.104   2.957   3.419  0.2288 -0.1016 -0.2891
 3009ntf    on518132   0.259   2.769   3.416  0.5586 -0.0662 -0.6590
 3009ntf    fn418133   0.323   3.024   3.170 -0.1329  0.0720  0.5768
 3009ntf    fn418134   0.325   2.812   3.166  0.2562 -0.3654  0.2812
 3009ntf    fn418135   0.138   2.935   3.150 -0.0093 -0.3309 -0.6684
 3010ntf    cn118136   0.792   2.545   1.926  0.0944 -0.0084  0.1464
 3010ntf    sn218137   0.895   2.402   1.886  0.0264  0.0259 -0.1526
 3010ntf    nn318138   0.868   2.314   2.013  0.4498 -0.1511 -0.1821
 3010ntf    sn218139   0.765   2.195   2.020  0.1843  0.0774 -0.1603
 3010ntf    cn118140   0.869   2.055   1.967 -0.0880  0.0035 -0.5019
 3010ntf    fn418141   0.828   2.600   2.041  0.0470 -0.4198  0.3597
 3010ntf    fn418142   0.798   2.637   1.830  0.2897 -0.1001  0.0722
 3010ntf    fn418143   0.665   2.510   1.942  0.0905  0.1356  0.4349
 3010ntf    on518144   0.839   2.350   1.763 -0.8393 -0.1773  0.3245
 3010ntf    on518145   1.026   2.463   1.883  0.0455 -0.0096 -0.0218
 3010ntf    on518146   0.645   2.190   1.940 -0.2383  0.1822  0.4631
 3010ntf    on518147   0.742   2.176   2.161 -0.0896  0.5492 -0.1388
 3010ntf    fn418148   0.798   1.944   1.985 -0.2466  0.2227  0.2623
 3010ntf    fn418149   0.889   2.063   1.837  1.4171  0.0251 -0.2795
 3010ntf    fn418150   0.986   2.046   2.028 -0.0902 -0.2823 -0.5349
 3011ntf    cn118151   2.214   4.905   1.445 -0.3149  0.1389 -0.0310
 3011ntf    sn218152   2.057   4.988   1.485 -0.1749  0.3163  0.1477
 3011ntf    nn318153   2.124   5.121   1.537  0.1818  0.2211 -0.0655
 3011ntf    sn218154   2.121   5.189   1.678  0.2950 -0.2697  0.1785
 3011ntf    cn118155   1.981   5.301   1.647  0.1046 -0.5203  0.1292
 3011ntf    fn418156   2.305   4.897   1.541 -0.3651 -0.0303  0.0034
 3011ntf    fn418157   2.192   4.783   1.399  0.0895  0.2199 -0.4501
 3011ntf    fn418158   2.274   4.968   1.345 -0.4393 -0.2583 -0.3575
 3011ntf    on518159   1.993   5.000   1.357 -0.8202 -1.1335  0.3205
 3011ntf    on518160   1.996   4.909   1.589  1.2000 -0.2741  0.5358
 3011ntf    on518161   2.224   5.281   1.718  0.2333 -0.1679  0.1027
 3011ntf    on518162   2.068   5.112   1.788 -0.0897  0.8127  0.7706
 3011ntf    fn418163   1.881   5.230   1.598 -0.2732 -0.4146  0.7375
 3011ntf    fn418164   1.931   5.367   1.750  0.2405  0.1335 -0.2134
 3011ntf    fn418165   2.019   5.395   1.561 -0.4859 -0.2796  0.1291
 3012ntf    cn118166   6.098   5.841   0.984  0.5919 -0.0556 -0.5007
 3012ntf    sn218167   6.171   5.884   1.144 -0.3969  0.2306 -0.1176
 3012ntf    nn318168   6.324   5.873   1.108 -0.3464  0.2309  0.0928
 3012ntf    sn218169   6.413   5.971   1.024 -0.1202 -0.3072 -0.3023
 3012ntf    cn118170   6.477   6.082   1.153 -0.3871 -0.1467 -0.3051
 3012ntf    fn418171   6.133   5.722   0.938 -0.0831 -0.2010 -0.6567
 3012ntf    fn418172   5.966   5.845   1.000  0.7088 -0.0595  0.5309
 3012ntf    fn418173   6.129   5.925   0.886  0.6345 -0.1604 -0.5769
 3012ntf    on518174   6.127   6.019   1.171  0.5151  0.3875  0.6612
 3012ntf    on518175   6.125   5.780   1.232  0.0050  0.3515  0.2429
 3012ntf    on518176   6.344   6.065   0.938 -0.2991 -0.3862 -0.2468
 3012ntf    on518177   6.531   5.908   0.971  0.1977 -0.0194  0.0670
 3012ntf    fn418178   6.569   6.029   1.232 -0.3937  0.0745 -0.1504
 3012ntf    fn418179   6.528   6.192   1.101 -0.5949  0.2014  0.2280
 3012ntf    fn418180   6.375   6.123   1.226 -0.2848  0.0102 -0.2488
 3013ntf    cn118181   5.292   5.025   3.547  0.2216  0.4694  0.0070
 3013ntf    sn218182   5.293   5.200   3.498 -0.1141  0.4202 -0.1784
 3013ntf    nn318183   5.139   5.231   3.493 -0.1014  0.4549 -0.3702
 3013ntf    sn218184   5.062   5.319   3.388 -0.3475  0.4095 -0.2279
 3013ntf    cn118185   5.043   5.197   3.255  0.0968 -0.3578  0.4062
 3013ntf    fn418186   5.243   4.987   3.664  0.1358 -0.2372 -0.2537
 3013ntf    fn418187   5.221   4.959   3.457  0.8088 -0.4243  0.1943
 3013ntf    fn418188   5.412   4.972   3.560 -0.1728 -0.3871  0.2676
 3013ntf    on518189   5.357   5.272   3.605 -0.2468  1.2149 -0.6256
 3013ntf    on518190   5.368   5.218   3.377  0.0357 -0.0296 -0.1535
 3013ntf    on518191   5.140   5.433   3.348  0.5703 -0.1827 -0.1422
 3013ntf    on518192   4.927   5.354   3.426 -0.4197 -0.1012 -0.0048
 3013ntf    fn418193   4.922   5.217   3.204  0.3130  0.2324  0.1299
 3013ntf    fn418194   5.129   5.213   3.156  0.4664  0.1396  0.8066
 3013ntf    fn418195   5.050   5.067   3.283  1.0495 -0.2576  0.6605
 3014ntf    cn118196   1.687   2.262   3.089  0.5106 -0.1398 -0.3691
 3014ntf    sn218197   1.776   2.298   2.935  0.6894  0.3773 -0.1445
 3014ntf    nn318198   1.847   2.159   2.924  0.0105 -0.0037  0.2119
 3014ntf    sn218199   1.804   2.022   2.860 -0.1183  0.2665 -0.2833
 3014ntf    cn118200   1.868   2.035   2.691 -0.1423  0.1697 -0.3001
 3014ntf    fn418201   1.567   2.210   3.067  0.1182  0.2797  0.7062
 3014ntf    fn418202   1.747   2.181   3.175  0.0827  0.0565  0.1234
 3014ntf    fn418203   1.667   2.374   3.157 -0.3384 -0.7292  0.3866
 3014ntf    on518204   1.676   2.333   2.838  0.0317  0.0912  0.4241
 3014ntf    on518205   1.875   2.399   2.964 -0.1716  1.3220 -0.4402
 3014ntf    on518206   1.661   2.001   2.852 -0.0483 -0.4619  0.2550
 3014ntf    on518207   1.873   1.909   2.916 -0.6400  0.0908  0.0136
 3014ntf    fn418208   1.830   1.928   2.623 -0.2466  0.2762 -0.4106
 3014ntf    fn418209   1.823   2.138   2.621 -0.1985  0.1816 -0.2457
 3014ntf    fn418210   2.001   2.035   2.689 -0.1391 -0.0916 -0.1131
 3015ntf    cn118211   6.652   4.180   0.358 -0.4531  0.3016 -0.0647
 3015ntf    sn218212   6.699   4.194   0.183 -0.3334  0.0082 -0.0557
 3015ntf    nn318213   6.598   4.296   0.119 -0.4977 -0.0100  0.1736
 3015ntf    sn218214   6.468   4.271   0.036 -0.3360 -0.0814 -0.0568
 3015ntf    cn118215   6.529   4.314  -0.130 -0.0463 -0.1373  0.0344
 3015ntf    fn418216   6.526   4.144   0.372 -0.4447  0.2450 -0.1376
 3015ntf    fn418217   6.727   4.096   0.427 -0.2403  0.0571 -0.5932
 3015ntf    fn418218   6.663   4.288   0.434 -0.3200 -0.0117  0.3633
 3015ntf    on518219   6.829   4.255   0.184 -0.1848 -0.3150  0.8426
 3015ntf    on518220   6.685   4.059   0.134 -0.1344  0.1063 -0.3905
 3015ntf    on518221   6.358   4.361   0.056  0.0191  0.3044  0.1571
 3015ntf    on518222   6.443   4.129   0.019  0.4532 -0.2127 -0.1666
 3015ntf    fn418223   6.637   4.240  -0.149 -0.2267 -0.4744  0.3109
 3015ntf    fn418224   6.435   4.282  -0.218 -0.3493 -0.4401  0.4675
 3015ntf    fn418225   6.559   4.442  -0.145 -0.1286 -0.0731  0.4011
 3016ntf    cn118226   7.066   0.605   5.167  0.0782 -0.1567  0.1817
 3016ntf    sn218227   7.080   0.473   5.043 -0.1384 -0.0654  0.0589
 3016ntf    nn318228   7.053   0.346   5.132 -0.2687 -0.1214 -0.0592
 3016ntf    sn218229   7.155   0.261   5.216 -0.1784  0.1497  0.1077
 3016ntf    cn118230   7.198   0.121   5.108  0.1576  0.4585 -0.1641
 3016ntf    fn418231   7.061   0.730   5.123 -0.1649 -0.4596 -0.6806
 3016ntf    fn418232   6.955   0.590   5.238 -0.3759  0.3612 -0.4002
 3016ntf    fn418233   7.163   0.601   5.257  0.0115 -0.3697  0.2443
 3016ntf    on518234   6.975   0.499   4.948 -0.1266 -0.3462 -0.0308
 3016ntf    on518235   7.214   0.481   4.991  0.1963 -0.3911  0.8435
 3016ntf    on518236   7.088   0.183   5.317 -0.3103 -0.5683 -0.5242
 3016ntf    on518237   7.281   0.324   5.248 -0.3903  0.7935 -0.2912
 3016ntf    fn418238   7.206   0.149   4.979 -0.1411 -0.0978 -0.3042
 3016ntf    fn418239   7.312   0.057   5.127  0.4137  0.9879  0.0909
 3016ntf    fn418240   7.106   0.027   5.116  0.3072  0.3374  0.1375
 3017ntf    cn118241   1.179   0.216   6.033 -0.0440 -0.0912 -0.0209
 3017ntf    sn218242   1.149   0.339   6.164 -0.0995  0.0435 -0.1610
 3017ntf    nn318243   1.021   0.412   6.109 -0.1523  0.0304 -0.0559
 3017ntf    sn218244   0.872   0.362   6.109 -0.1279 -0.0414  0.0096
 3017ntf    cn118245   0.813   0.462   5.969  0.4554  0.3411  0.0341
 3017ntf    fn418246   1.290   0.146   6.048  0.3958  0.5700 -0.1590
 3017ntf    fn418247   1.081   0.129   6.018 -0.1800  0.0551  0.0169
 3017ntf    fn418248   1.192   0.277   5.916 -0.3346 -0.7160 -0.3822
 3017ntf    on518249   1.130   0.257   6.280  0.0569  0.1612 -0.0518
 3017ntf    on518250   1.265   0.425   6.167 -0.0926  0.0312 -0.0696
 3017ntf    on518251   0.804   0.406   6.229 -0.4339  0.3717 -0.3136
 3017ntf    on518252   0.853   0.227   6.062  0.1303  0.0573 -0.3771
 3017ntf    fn418253   0.777   0.585   6.001 -0.1395  0.1923 -0.0609
 3017ntf    fn418254   0.906   0.474   5.876  0.3033 -0.6071 -0.2529
 3017ntf    fn418255   0.707   0.404   5.917  0.1035  0.4178  0.6575
 3018ntf    cn118256   2.201   2.658   3.152 -0.1079  0.2771  0.4763
 3018ntf    sn218257   2.254   2.707   3.319  0.4498 -0.2918  0.4728
 3018ntf    nn318258   2.217   2.584   3.409  0.1417 -0.6289 -0.1077
 3018ntf    sn218259   2.232   2.578   3.565  0.3424  0.1975 -0.0916
 3018ntf    cn118260   2.370   2.459   3.566  0.1850  0.0078 -0.5048
 3018ntf    fn418261   2.264   2.723   3.055  0.3751 -0.5671  0.2095
 3018ntf    fn418262   2.218   2.528   3.130  0.1691  0.3526  0.2412
 3018ntf    fn418263   2.074   2.683   3.126 -0.3550 -0.8783  0.5148
 3018ntf    on518264   2.395   2.732   3.301  0.0896  1.1758 -0.5285
 3018ntf    on518265   2.168   2.819   3.349  0.5038 -0.1450  0.0888
 3018ntf    on518266   2.129   2.500   3.628  0.3589 -0.1773 -0.5204
 3018ntf    on518267   2.281   2.692   3.639  0.3362  0.0328  0.1685
 3018ntf    fn418268   2.414   2.435   3.689 -0.2676  1.1009 -0.1152
 3018ntf    fn418269   2.336   2.339   3.522 -0.3461 -0.1679  0.3632
 3018ntf    fn418270   2.480   2.499   3.505  0.6533  0.0986  0.3799
 3019ntf    cn118271   1.806   3.078   6.255 -0.3648 -0.0849  0.1907
 3019ntf    sn218272   1.634   3.049   6.202 -0.2637 -0.0569 -0.1563
 3019ntf    nn318273   1.565   3.160   6.289 -0.3225 -0.0569 -0.2032
 3019ntf    sn218274   1.450   3.143   6.395 -0.2961  0.0368 -0.1597
 3019ntf    cn118275   1.523   3.217   6.545 -0.2829 -0.1133 -0.0915
 3019ntf    fn418276   1.887   2.976   6.233 -0.1409  0.0864  0.2114
 3019ntf    fn418277   1.858   3.185   6.196 -0.3622 -0.4876 -0.5494
 3019ntf    fn418278   1.809   3.104   6.385 -0.4171  0.0543  0.1644
 3019ntf    on518279   1.632   3.085   6.063 -0.2151 -0.0174 -0.1471
 3019ntf    on518280   1.623   2.909   6.234 -0.1515 -0.1061 -0.3303
 3019ntf    on518281   1.420   3.013   6.450  0.0878 -0.1228 -0.3255
 3019ntf    on518282   1.339   3.229   6.364 -0.0830  0.3606 -0.0318
 3019ntf    fn418283   1.521   3.349   6.539  0.0703 -0.1043 -0.0249
 3019ntf    fn418284   1.446   3.178   6.646  0.0359  0.2873  0.3077
 3019ntf    fn418285   1.645   3.173   6.572 -0.1699  0.3125  0.1022
 3020ntf    cn118286   1.311   1.029   0.984  0.1398 -0.6306  0.4289
 3020ntf    sn218287   1.466   1.075   0.900 -0.0126 -0.2822  0.3350
 3020ntf    nn318288   1.562   0.953   0.924  0.1428 -0.2243  0.0097
 3020ntf    sn218289   1.709   0.939   0.977  0.1031 -0.0735  0.1586
 3020ntf    cn118290   1.683   0.856   1.136  0.3297 -0.3949  0.0282
 3020ntf    fn418291   1.256   0.918   0.939 -0.0654 -0.3743  0.0361
 3020ntf    fn418292   1.320   1.009   1.114 -0.0651 -0.6232  0.4440
 3020ntf    fn418293   1.219   1.124   0.981  0.4608 -0.3215  0.2543
 3020ntf    on518294   1.428   1.079   0.761  0.1670 -0.4185  0.2808
 3020ntf    on518295   1.510   1.201   0.955  0.4646 -0.2776 -0.0459
 3020ntf    on518296   1.778   1.057   1.025 -0.3461  0.3605 -0.2418
 3020ntf    on518297   1.790   0.846   0.903 -0.2593 -0.4067  0.1835
 3020ntf    fn418298   1.617   0.921   1.231 -0.3283 -0.3653 -0.4469
 3020ntf    fn418299   1.631   0.734   1.128 -0.5268 -0.0675  0.4635
 3020ntf    fn418300   1.804   0.837   1.187  0.1410  0.5565  0.8735
 3021ntf    cn118301   3.026   7.121   4.271  0.1861  0.0808  0.5261
 3021ntf    sn218302   3.200   7.166   4.298  0.2464  0.1772 -0.0278
 3021ntf    nn318303   3.200   7.323   4.303 -0.2855  0.1646  0.3513
 3021ntf    sn218304   3.291   7.417   4.216 -0.3821  0.1406  0.2240
 3021ntf    cn118305   3.193   7.570   4.226 -0.3443  0.1581  0.3310
 3021ntf    fn418306   2.941   7.182   4.352 -0.2188 -0.3593  0.4420
 3021ntf    fn418307   2.986   7.172   4.156  0.1538  0.0773  0.5359
 3021ntf    fn418308   2.994   6.993   4.279  0.3083  0.0314  0.2261
 3021ntf    on518309   3.242   7.109   4.423  0.7657  0.4007 -0.0957
 3021ntf    on518310   3.263   7.112   4.180  0.0323 -0.3025  0.0767
 3021ntf    on518311   3.275   7.398   4.074 -0.0057 -0.5853  0.2765
 3021ntf    on518312   3.421   7.457   4.264  0.1972 -0.8475 -0.5007
 3021ntf    fn418313   3.077   7.572   4.162  0.0031 -0.0929 -0.3181
 3021ntf    fn418314   3.157   7.614   4.345 -0.5671 -0.7175  0.5903
 3021ntf    fn418315   3.252   7.677   4.174 -0.8046  0.0952 -0.3276
 3022ntf    cn118316   1.331   6.198   6.116 -0.0832 -0.3305  0.2850
 3022ntf    sn218317   1.421   6.285   6.247  0.0731  0.1577 -0.1436
 3022ntf    nn318318   1.298   6.338   6.330  0.8499  0.4121  0.8727
 3022ntf    sn218319   1.229   6.244   6.435 -0.0669 -0.0341 -0.1106
 3022ntf    cn118320   1.317   6.308   6.580  0.3578 -0.3645 -0.2211
 3022ntf    fn418321   1.225   6.133   6.163 -0.2291 -0.4109 -0.1472
 3022ntf    fn418322   1.286   6.282   6.024 -0.1200 -0.2125  0.4119
 3022ntf    fn418323   1.405   6.105   6.058 -0.2314 -0.1249 -0.2455
 3022ntf    on518324   1.501   6.179   6.305 -0.1877  0.0415  0.0054
 3022ntf    on518325   1.486   6.392   6.175  0.3732  0.0297 -0.0671
 3022ntf    on518326   1.268   6.105   6.440 -0.0590 -0.0342 -0.1615
 3022ntf    on518327   1.088   6.269   6.454 -0.1381  0.3330 -1.0402
 3022ntf    fn418328   1.258   6.254   6.686  0.4419  0.1431  0.0888
 3022ntf    fn418329   1.445   6.274   6.589  0.5305  0.4674  0.6041
 3022ntf    fn418330   1.308   6.439   6.589  0.0470 -0.3822 -0.2620
 3023ntf    cn118331   2.602   4.122   1.552  0.1399  0.0461 -0.0403
 3023ntf    sn218332   2.739   4.159   1.438  0.2798 -0.3129  0.0096
 3023ntf    nn318333   2.787   4.294   1.502 -0.1438 -0.2088  0.1149
 3023ntf    sn218334   2.766   4.442   1.454  0.0796 -0.2059  0.0253
 3023ntf    cn118335   2.587   4.471   1.464  0.1791  0.3006  0.3824
 3023ntf    fn418336   2.542   4.005   1.536  0.4915 -0.0828 -0.4394
 3023ntf    fn418337   2.630   4.143   1.679 -0.4814 -0.1589  0.1356
 3023ntf    fn418338   2.502   4.208   1.537 -0.1345 -0.2690 -0.0216
 3023ntf    on518339   2.835   4.058   1.473  0.2103 -0.3457  0.1037
 3023ntf    on518340   2.679   4.161   1.307 -0.0529 -1.1509  0.1444
 3023ntf    on518341   2.798   4.456   1.314  0.0995  0.3163  0.0813
 3023ntf    on518342   2.833   4.539   1.537  0.2465 -0.1080 -0.2193
 3023ntf    fn418343   2.552   4.598   1.454 -0.3109  0.1561  0.2581
 3023ntf    fn418344   2.524   4.408   1.365  0.2523  0.0586  0.4889
 3023ntf    fn418345   2.532   4.422   1.573 -0.0183 -0.1017  0.1052
 3024ntf    cn118346   4.345   4.300   2.568  0.0063 -0.0763 -0.1728
 3024ntf    sn218347   4.504   4.214   2.591  0.1477  0.1353 -0.3497
 3024ntf    nn318348   4.523   4.137   2.456 -0.0510  0.0508 -0.3301
 3024ntf    sn218349   4.587   3.995   2.435 -0.0071  0.0709 -0.3347
 3024ntf    cn118350   4.686   4.035   2.288 -0.0181 -0.5464 -0.5109
 3024ntf    fn418351   4.262   4.207   2.523  0.0488 -0.0276 -0.3540
 3024ntf    fn418352   4.303   4.354   2.681 -0.1443 -0.2280 -0.1559
 3024ntf    fn418353   4.358   4.397   2.479 -0.3582  0.4319  0.3188
 3024ntf    on518354   4.600   4.319   2.612  0.4025 -0.0930 -0.3728
 3024ntf    on518355   4.475   4.128   2.703 -0.2569 -0.3920 -0.8516
 3024ntf    on518356   4.493   3.905   2.372  0.4491 -0.0301 -0.8768
 3024ntf    on518357   4.671   3.933   2.534  0.1472  0.3488 -0.2933
 3024ntf    fn418358   4.775   4.123   2.328 -0.6313 -0.0416 -0.2334
 3024ntf    fn418359   4.754   3.935   2.234  0.2747 -0.2444 -0.7015
 3024ntf    fn418360   4.624   4.091   2.186 -0.0601 -0.0641 -0.2201
 3025ntf    cn118361   6.000   5.538   3.860 -0.0416  0.1324  0.0393
 3025ntf    sn218362   5.844   5.451   3.895  0.0678  0.0249  0.2612
 3025ntf    nn318363   5.894   5.304   3.873 -0.5424 -0.2001  0.3477
 3025ntf    sn218364   5.887   5.222   3.739  0.1625  0.1106  0.1124
 3025ntf    cn118365   5.715   5.164   3.730  0.0863  0.4532 -0.7128
 3025ntf    fn418366   6.098   5.462   3.905 -0.5085 -0.6296 -0.2180
 3025ntf    fn418367   6.028   5.556   3.732  0.0096 -0.5608 -0.0468
 3025ntf    fn418368   6.011   5.660   3.910  0.1257  0.2184 -0.2076
 3025ntf    on518369   5.823   5.482   4.034 -0.1035  0.2701  0.1821
 3025ntf    on518370   5.752   5.501   3.795  0.3396 -0.1495 -0.0778
 3025ntf    on518371   5.966   5.101   3.744 -0.0013 -0.0047 -0.0576
 3025ntf    on518372   5.902   5.291   3.614 -1.0554  0.1002 -0.0509
 3025ntf    fn418373   5.623   5.256   3.757 -0.1996  0.1840 -0.7579
 3025ntf    fn418374   5.688   5.106   3.615  0.3611  0.2570 -0.6776
 3025ntf    fn418375   5.689   5.065   3.815  0.1688  0.2706 -0.9004
 3026ntf    cn118376   5.597   7.098   5.988  0.0272  0.2786 -0.0070
 3026ntf    sn218377   5.645   7.184   6.142  0.1424  0.3689 -0.0930
 3026ntf    nn318378   5.793   7.130   6.141 -0.0768 -0.2498 -0.4995
 3026ntf    sn218379   5.931   7.205   6.140 -0.1928 -0.0042  0.3354
 3026ntf    cn118380   5.939   7.218   5.958 -0.1616 -0.2284  0.3211
 3026ntf    fn418381   5.608   6.967   6.004  0.1347  0.2963  0.0732
 3026ntf    fn418382   5.475   7.131   5.951 -0.0942  0.0313  0.1674
 3026ntf    fn418383   5.681   7.129   5.890  0.1821  0.3662  0.1512
 3026ntf    on518384   5.626   7.322   6.107 -0.0816  0.3050 -0.2315
 3026ntf    on518385   5.554   7.133   6.242  0.1662 -0.3889 -0.4452
 3026ntf    on518386   6.039   7.116   6.172 -0.2695 -0.1449  0.2048
 3026ntf    on518387   5.927   7.343   6.184 -0.4662 -0.1973  0.9204
 3026ntf    fn418388   5.917   7.100   5.904 -0.1295 -0.2089  0.2660
 3026ntf    fn418389   5.852   7.304   5.906 -0.2769 -0.1633  0.6189
 3026ntf    fn418390   6.057   7.266   5.923 -0.4429  0.4752  0.3119
 3027ntf    cn118391   5.718   6.395   3.290 -0.8405 -0.2171 -0.4509
 3027ntf    sn218392   5.760   6.494   3.144 -0.1878  0.2573  0.0503
 3027ntf    nn318393   5.666   6.431   3.035  0.0583  0.0240 -0.0301
 3027ntf    sn218394   5.696   6.368   2.895 -0.3835 -0.0648 -0.0875
 3027ntf    cn118395   5.602   6.479   2.786 -0.1211  0.4767  0.2325
 3027ntf    fn418396   5.612   6.445   3.352 -0.1295 -0.2247  0.8031
 3027ntf    fn418397   5.700   6.265   3.279 -0.7196 -0.2806  0.0428
 3027ntf    fn418398   5.821   6.410   3.372 -0.6424 -0.5280 -0.6445
 3027ntf    on518399   5.736   6.632   3.179  0.3963  0.2009  0.7013
 3027ntf    on518400   5.896   6.450   3.123 -0.2230 -0.1899  0.7259
 3027ntf    on518401   5.624   6.245   2.875 -0.3551 -0.1088  0.0782
 3027ntf    on518402   5.829   6.368   2.840 -0.1812 -0.7608  0.3825
 3027ntf    fn418403   5.636   6.471   2.659  0.8110 -0.4080  0.5203
 3027ntf    fn418404   5.470   6.462   2.788 -0.1289  0.5124 -0.0139
 3027ntf    fn418405   5.624   6.606   2.814  0.1601  0.5890 -0.4960
 3028ntf    cn118406   2.967   3.019   4.435 -0.2298 -0.3280 -0.1362
 3028ntf    sn218407   3.041   2.931   4.576 -0.2115 -0.1742 -0.0490
 3028ntf    nn318408   3.188   2.913   4.526 -0.1657  0.2005 -0.0511
 3028ntf    sn218409   3.265   2.777   4.505 -0.1946  0.2088 -0.2123
 3028ntf    cn118410   3.429   2.819   4.571 -0.0528 -0.3678 -0.2007
 3028ntf    fn418411   2.835   3.015   4.428 -0.2673  0.2935  0.1725
 3028ntf    fn418412   3.004   3.146   4.430 -0.0010 -0.3614  0.5852
 3028ntf    fn418413   3.025   2.973   4.326  0.4761  0.3525 -0.0573
 3028ntf    on518414   3.024   3.010   4.695 -0.0424 -0.0502 -0.1075
 3028ntf    on518415   2.962   2.810   4.571 -0.1592 -0.2671  1.1086
 3028ntf    on518416   3.303   2.748   4.369  0.5311 -0.1509  0.0646
 3028ntf    on518417   3.223   2.667   4.587  0.4468  0.0583 -0.0791
 3028ntf    fn418418   3.520   2.734   4.525  0.0175 -0.1721 -0.4227
 3028ntf    fn418419   3.473   2.939   4.538  0.1456 -0.4268 -0.1560
 3028ntf    fn418420   3.437   2.806   4.703 -0.2548  0.7701 -0.0711
 3029ntf    cn118421   1.851   0.801   0.122  0.0585  0.1266 -0.0684
 3029ntf    sn218422   1.846   0.888   0.282  0.2172 -0.1970  0.1114
 3029ntf    nn318423   1.899   1.026   0.229 -0.6016 -0.1652 -0.6417
 3029ntf    sn218424   1.839   1.170   0.249  0.1902  0.1087 -0.2089
 3029ntf    cn118425   1.988   1.267   0.285  0.3717 -0.3052  0.1682
 3029ntf    fn418426   1.964   0.818   0.056  0.0388 -0.5282 -0.2725
 3029ntf    fn418427   1.821   0.673   0.135 -0.0290  0.1070 -0.4340
 3029ntf    fn418428   1.757   0.852   0.043 -0.0204 -0.6293 -0.4727
 3029ntf    on518429   1.713   0.866   0.333  0.0916 -0.0832 -0.1671
 3029ntf    on518430   1.941   0.808   0.356 -0.0846 -0.8011 -0.1399
 3029ntf    on518431   1.756   1.193   0.364 -0.3585 -0.3676 -0.4998
 3029ntf    on518432   1.795   1.236   0.129 -0.0158 -0.0181 -0.2029
 3029ntf    fn418433   2.076   1.211   0.367  0.6660  0.2883  0.2641
 3029ntf    fn418434   2.057   1.293   0.175  0.0628  0.2939  0.1131
 3029ntf    fn418435   1.965   1.391   0.327  0.3032 -0.2807  0.0577
 3030ntf    cn118436   3.629   4.643   0.426 -0.1865  0.2388 -0.2300
 3030ntf    sn218437   3.501   4.619   0.553  0.0249  0.0327 -0.0538
 3030ntf    nn318438   3.400   4.736   0.523 -0.0578  0.0476  0.2770
 3030ntf    sn218439   3.436   4.885   0.487  0.3427 -0.2432 -0.5514
 3030ntf    cn118440   3.287   4.966   0.551  0.7079 -0.0252  0.0246
 3030ntf    fn418441   3.587   4.621   0.303 -0.4022  0.1305 -0.1369
 3030ntf    fn418442   3.688   4.762   0.433 -0.0604  0.1879 -0.4244
 3030ntf    fn418443   3.722   4.551   0.444 -0.3893 -0.0393 -0.6184
 3030ntf    on518444   3.439   4.493   0.525 -0.4453  0.2976 -0.2193
 3030ntf    on518445   3.565   4.634   0.682 -0.1955 -0.0942  0.0703
 3030ntf    on518446   3.435   4.908   0.345 -0.0877 -0.3634 -0.5684
 3030ntf    on518447   3.536   4.938   0.576 -0.3372  0.0238  0.0606
 3030ntf    fn418448   3.289   4.995   0.681 -0.1094  0.4278 -0.0570
 3030ntf    fn418449   3.258   5.079   0.489 -0.2552 -0.2239  0.0960
 3030ntf    fn418450   3.175   4.897   0.539  0.4054  0.3594  0.5655
 3031ntf    cn118451   1.871   5.971   1.812  0.2864 -0.4217 -0.1814
 3031ntf    sn218452   1.980   5.937   1.953  0.2680 -0.2039 -0.1143
 3031ntf    nn318453   2.032   5.800   1.896 -0.2474 -0.3472 -0.2518
 3031ntf    sn218454   2.070   5.680   1.990  0.0604 -0.1524 -0.1248
 3031ntf    cn118455   1.914   5.588   1.994  0.2091 -0.4206 -0.4002
 3031ntf    fn418456   1.785   5.874   1.788  0.3815 -0.4504 -0.4106
 3031ntf    fn418457   1.802   6.084   1.816 -0.3076 -0.7501 -0.8270
 3031ntf    fn418458   1.957   5.982   1.711  0.1089  0.1260 -0.2772
 3031ntf    on518459   2.082   6.039   1.949  0.6257 -0.5670 -0.3754
 3031ntf    on518460   1.879   5.941   2.056  0.3005 -0.4459 -0.0713
 3031ntf    on518461   2.088   5.719   2.128  0.2113 -0.1331 -0.1495
 3031ntf    on518462   2.172   5.591   1.941  0.0475 -0.3811  0.2601
 3031ntf    fn418463   1.923   5.486   1.910  0.9403 -0.3243 -0.4420
 3031ntf    fn418464   1.893   5.529   2.110  0.5339  0.0550 -0.0944
 3031ntf    fn418465   1.807   5.662   1.967  0.4242 -0.0971 -0.3738
 3032ntf    cn118466   4.803   5.729   1.372  0.0057 -0.0627 -0.0229
 3032ntf    sn218467   4.909   5.589   1.325 -0.2780 -0.4661  0.5161
 3032ntf    nn318468   4.956   5.522   1.459  1.1560 -0.6497 -0.0552
 3032ntf    sn218469   4.858   5.439   1.550  0.0564  0.1671 -0.4663
 3032ntf    cn118470   4.890   5.558   1.683  0.1840 -0.0624 -0.2910
 3032ntf    fn418471   4.689   5.693   1.429 -0.3047  0.1465 -0.5080
 3032ntf    fn418472   4.861   5.808   1.461  0.4819 -0.1193 -0.2852
 3032ntf    fn418473   4.775   5.810   1.272 -0.3934  0.2354  0.3255
 3032ntf    on518474   4.836   5.506   1.233 -0.3439  0.1406  0.0094
 3032ntf    on518475   5.020   5.665   1.272 -0.3339 -0.4606  0.4070
 3032ntf    on518476   4.925   5.317   1.587 -0.2985  0.1421  0.1094
 3032ntf    on518477   4.717   5.445   1.519 -0.1258 -0.1366  0.2851
 3032ntf    fn418478   4.828   5.525   1.795  0.4218  0.5022  0.0122
 3032ntf    fn418479   5.022   5.564   1.698  0.1476  0.3098 -0.0979
 3032ntf    fn418480   4.863   5.683   1.650 -0.0047 -0.0359 -0.0342
 3033ntf    cn118481   0.130   1.540   2.066  0.2625  0.3101  0.2063
 3033ntf    sn218482   0.098   1.698   2.149  0.1392  0.2924  0.1917
 3033ntf    nn318483  -0.059   1.686   2.149  0.2057 -0.6135 -0.1076
 3033ntf    sn218484  -0.156   1.713   2.029  0.1974 -0.0246  0.0288
 3033ntf    cn118485  -0.201   1.882   2.079  0.2907  0.1874 -0.5918
 3033ntf    fn418486   0.047   1.447   2.110  0.1457 -0.0926 -0.8344
 3033ntf    fn418487   0.119   1.538   1.934 -0.3117 -0.1588  0.2561
 3033ntf    fn418488   0.248   1.489   2.099  0.2601  0.1071 -0.0884
 3033ntf    on518489   0.156   1.677   2.279 -0.8176 -0.2179  0.5435
 3033ntf    on518490   0.154   1.800   2.064 -0.6863  0.4122 -0.2147
 3033ntf    on518491  -0.281   1.643   2.044 -0.1927  0.5158 -0.6394
 3033ntf    on518492  -0.098   1.706   1.897  0.1363  0.5171 -0.0279
 3033ntf    fn418493  -0.106   1.973   2.061  0.3237  0.1898 -0.4012
 3033ntf    fn418494  -0.305   1.937   2.020 -0.0715 -0.4038 -0.5113
 3033ntf    fn418495  -0.235   1.888   2.207 -0.0436 -0.1902 -0.6590
 3034ntf    cn118496   3.129   5.541   5.393 -0.2271 -0.0704  0.0575
 3034ntf    sn218497   2.990   5.640   5.331 -0.1193  0.1800  0.2132
 3034ntf    nn318498   3.034   5.786   5.369 -0.0362  0.2129 -0.0107
 3034ntf    sn218499   2.942   5.894   5.437  0.0367 -0.1131  0.6139
 3034ntf    cn118500   3.065   6.026   5.448  0.0872 -0.1419  0.3938
 3034ntf    fn418501   3.123   5.411   5.370  0.5186 -0.0546 -0.2761
 3034ntf    fn418502   3.250   5.584   5.360 -0.3718 -0.0959 -0.5142
 3034ntf    fn418503   3.132   5.544   5.526  0.5522 -0.3764  0.0558
 3034ntf    on518504   2.993   5.618   5.189  0.1082  1.2070  0.0491
 3034ntf    on518505   2.877   5.588   5.404  0.3099 -0.8969  0.1241
 3034ntf    on518506   2.900   5.864   5.572 -0.2153  0.3099  0.6308
 3034ntf    on518507   2.850   5.943   5.337  0.5186 -0.1336  0.1549
 3034ntf    fn418508   3.174   5.985   5.511  0.7146  0.9130  0.0416
 3034ntf    fn418509   3.100   6.074   5.329  0.8352  0.3100  0.7860
 3034ntf    fn418510   3.007   6.123   5.517  0.0221 -0.0977  0.2794
 3035ntf    cn118511   4.775   1.363   0.066 -0.4605  0.0815  0.3558
 3035ntf    sn218512   4.860   1.512   0.125 -0.2743  0.1960 -0.1936
 3035ntf    nn318513   4.737   1.593   0.181 -0.3466 -0.0305 -0.0172
 3035ntf    sn218514   4.665   1.588   0.320 -0.0133  0.1470  0.1640
 3035ntf    cn118515   4.732   1.740   0.394 -0.0798  0.4459 -0.3793
 3035ntf    fn418516   4.857   1.284  -0.001 -0.5162 -0.0299  0.4181
 3035ntf    fn418517   4.720   1.293   0.164 -0.1201 -0.1117  0.4116
 3035ntf    fn418518   4.679   1.399  -0.017  0.1005 -0.1545 -0.4056
 3035ntf    on518519   4.950   1.458   0.224 -0.1995  0.3027 -0.2040
 3035ntf    on518520   4.919   1.563   0.004 -0.6249  0.4245 -0.2692
 3035ntf    on518521   4.692   1.475   0.405  0.0645 -0.3387 -0.4913
 3035ntf    on518522   4.528   1.626   0.297 -0.0753 -0.5883 -0.7666
 3035ntf    fn418523   4.864   1.741   0.398 -0.0867 -0.0752  0.0495
 3035ntf    fn418524   4.699   1.851   0.331 -0.6449  0.4866 -0.0212
 3035ntf    fn418525   4.685   1.754   0.517  0.5500 -0.0874 -0.0713
 3036ntf    cn118526   6.217   4.336   3.492 -0.5284 -0.3232 -0.5611
 3036ntf    sn218527   6.287   4.210   3.382 -0.0670 -0.0903 -0.5350
 3036ntf    nn318528   6.171   4.198   3.277 -0.4826  0.2765 -0.1210
 3036ntf    sn218529   6.040   4.118   3.306 -0.1483 -0.1859  0.1278
 3036ntf    cn118530   6.091   3.955   3.243  0.0827 -0.1539  0.2317
 3036ntf    fn418531   6.132   4.288   3.581  0.1880 -0.4675  0.0548
 3036ntf    fn418532   6.320   4.377   3.563 -0.0380 -0.4060 -1.2170
 3036ntf    fn418533   6.158   4.438   3.431 -1.0070 -0.2770 -0.0300
 3036ntf    on518534   6.407   4.259   3.319  0.3077  0.0043  0.2387
 3036ntf    on518535   6.298   4.103   3.478 -1.3211  0.8291  0.6717
 3036ntf    on518536   5.939   4.141   3.205  0.1350  0.3867 -0.0259
 3036ntf    on518537   5.995   4.100   3.442 -0.0159 -0.4516  0.1375
 3036ntf    fn418538   6.006   3.856   3.264 -0.3704  0.0817 -0.4414
 3036ntf    fn418539   6.126   3.935   3.117  0.2082 -0.7055  0.3485
 3036ntf    fn418540   6.194   3.916   3.316 -0.1872 -0.4650  0.4501
 3037ntf    cn118541   0.372   1.999   1.279 -0.4322  0.0634  0.2794
 3037ntf    sn218542   0.335   1.954   1.106  0.1883  0.0965  0.1352
 3037ntf    nn318543   0.352   1.798   1.111 -0.0050  0.0634 -0.2443
 3037ntf    sn218544   0.480   1.707   1.104  0.1762  0.2839  0.1473
 3037ntf    cn118545   0.490   1.671   0.926 -0.4683  0.4589  0.0722
 3037ntf    fn418546   0.471   1.927   1.328  0.0681  0.4522 -0.1457
 3037ntf    fn418547   0.398   2.128   1.299 -0.1859 -0.0008  0.3786
 3037ntf    fn418548   0.258   1.985   1.345 -0.5803 -0.5811 -0.1029
 3037ntf    on518549   0.198   1.992   1.086  0.0003 -0.3520  0.5299
 3037ntf    on518550   0.436   2.023   1.030  0.1582  0.2846  0.2649
 3037ntf    on518551   0.443   1.580   1.162  0.2396  0.1039 -0.2017
 3037ntf    on518552   0.604   1.763   1.151 -0.0836  0.7596  0.2703
 3037ntf    fn418553   0.520   1.782   0.861  0.5949  0.0905 -0.0829
 3037ntf    fn418554   0.582   1.579   0.902 -0.3983  0.3826  0.6143
 3037ntf    fn418555   0.377   1.624   0.877 -0.0505 -0.1777 -0.2992
 3038ntf    cn118556   4.556   3.023   5.520  0.5369 -0.0685 -0.1355
 3038ntf    sn218557   4.512   2.847   5.528  0.0176  0.0780  0.2397
 3038ntf    nn318558   4.377   2.847   5.608 -0.2378  0.6038 -0.1823
 3038ntf    sn218559   4.263   2.740   5.610 -0.2039  0.5721  0.2617
 3038ntf    cn118560   4.145   2.838   5.512 -0.1937  0.2126 -0.1189
 3038ntf    fn418561   4.625   3.066   5.415  0.0724  0.2547 -0.3118
 3038ntf    fn418562   4.451   3.103   5.521  0.4621 -0.1708  0.2139
 3038ntf    fn418563   4.621   3.067   5.626 -0.9282 -0.4714  0.9514
 3038ntf    on518564   4.497   2.812   5.389  0.3414  0.4182  0.1175
 3038ntf    on518565   4.629   2.793   5.593  0.3072 -0.3323 -0.6176
 3038ntf    on518566   4.201   2.720   5.739  0.5994 -0.5795  0.4804
 3038ntf    on518567   4.288   2.621   5.532 -0.2518  0.2294  0.7648
 3038ntf    fn418568   4.026   2.780   5.514  0.3083 -0.8347 -0.2279
 3038ntf    fn418569   4.131   2.966   5.546 -0.1318  0.1621  0.1000
 3038ntf    fn418570   4.178   2.845   5.385 -0.6165  0.1713 -0.2328
 3039ntf    cn118571   3.653   5.784   5.598  0.1326 -0.0034  0.4532
 3039ntf    sn218572   3.686   5.730   5.427  0.2613  0.2510  0.3966
 3039ntf    nn318573   3.617   5.589   5.429 -0.0255  0.3906  0.3628
 3039ntf    sn218574   3.675   5.448   5.468 -0.0313  0.2945  0.0298
 3039ntf    cn118575   3.541   5.341   5.408  0.4320 -0.2874  0.0297
 3039ntf    fn418576   3.681   5.689   5.685 -0.4877 -0.6699 -0.0570
 3039ntf    fn418577   3.734   5.882   5.634 -0.1125  0.2458  0.3418
 3039ntf    fn418578   3.528   5.823   5.617  0.1462  0.3544 -0.1651
 3039ntf    on518579   3.615   5.829   5.350  0.8685  0.0953 -0.3730
 3039ntf    on518580   3.829   5.728   5.408  0.2176  0.6582  0.0274
 3039ntf    on518581   3.671   5.438   5.612  0.1521 -0.6227 -0.0241
 3039ntf    on518582   3.800   5.412   5.405 -0.1046  0.8660 -0.4554
 3039ntf    fn418583   3.537   5.327   5.276  0.1112  0.2778 -0.0209
 3039ntf    fn418584   3.570   5.221   5.457  0.2397 -0.3190  0.0639
 3039ntf    fn418585   3.420   5.375   5.448  0.4526  0.0567 -0.1946
 3040ntf    cn118586   1.536   5.632   6.792 -0.3318 -0.0445  0.4571
 3040ntf    sn218587   1.708   5.678   6.756 -0.2710 -0.4248  0.2528
 3040ntf    nn318588   1.732   5.579   6.637 -0.2289  0.1517 -0.2258
 3040ntf    sn218589   1.685   5.574   6.487 -0.2598  0.1542 -0.2167
 3040ntf    cn118590   1.839   5.539   6.397 -0.3096  0.1916 -0.3169
 3040ntf    fn418591   1.488   5.697   6.896 -0.0346  0.0405  0.5424
 3040ntf    fn418592   1.458   5.644   6.685  0.6291  0.4911 -0.1980
 3040ntf    fn418593   1.530   5.501   6.809 -0.2538 -0.0758  0.2455
 3040ntf    on518594   1.714   5.818   6.722 -0.1161 -0.3643  0.5250
 3040ntf    on518595   1.768   5.645   6.882 -0.4623 -0.6137  0.2951
 3040ntf    on518596   1.652   5.703   6.433 -0.4446  0.0196 -0.4279
 3040ntf    on518597   1.600   5.465   6.446 -0.1012  0.1172 -0.4507
 3040ntf    fn418598   1.925   5.639   6.402 -0.0747  0.0013 -0.5428
 3040ntf    fn418599   1.906   5.440   6.454  0.1723  0.0916 -1.0394
 3040ntf    fn418600   1.823   5.512   6.269  0.3232 -0.2988 -0.2968
 3041ntf    cn118601   2.237   5.526   4.606 -0.2836 -0.1802 -0.3055
 3041ntf    sn218602   2.190   5.446   4.449  0.2229 -0.3566 -0.3695
 3041ntf    nn318603   2.034   5.440   4.466  0.2238  0.4263 -0.0241
 3041ntf    sn218604   1.914   5.496   4.380  0.1271  0.2001 -0.0380
 3041ntf    cn118605   1.836   5.332   4.369  0.2318  0.1573 -0.1472
 3041ntf    fn418606   2.367   5.549   4.609 -0.4614  0.8128  0.1491
 3041ntf    fn418607   2.185   5.647   4.621  0.3380  0.0478  0.0491
 3041ntf    fn418608   2.205   5.459   4.715 -0.8488  0.5405 -0.0136
 3041ntf    on518609   2.236   5.543   4.353  0.6635  0.1005  0.2964
 3041ntf    on518610   2.242   5.313   4.464  0.5259 -0.2093 -0.0960
 3041ntf    on518611   1.939   5.532   4.243 -0.5022 -0.0646 -0.2256
 3041ntf    on518612   1.820   5.576   4.454 -0.5758 -0.7781  0.1520
 3041ntf    fn418613   1.800   5.287   4.488 -0.2482 -0.3090 -0.4652
 3041ntf    fn418614   1.724   5.325   4.299  0.4400  0.0299 -0.4688
 3041ntf    fn418615   1.913   5.237   4.319 -0.0087 -0.4148  0.5553
 3042ntf    cn118616   0.662   0.181   0.508 -0.3622 -0.0280  0.2106
 3042ntf    sn218617   0.763   0.045   0.441 -0.1775  0.1120  0.2061
 3042ntf    nn318618   0.876   0.136   0.381 -0.1050  0.0178  0.2013
 3042ntf    sn218619   1.019   0.161   0.442  0.1966 -0.5794 -0.2493
 3042ntf    cn118620   0.968   0.273   0.576  0.1982 -0.3774 -0.4164
 3042ntf    fn418621   0.717   0.301   0.514 -0.4197  0.0039  0.1098
 3042ntf    fn418622   0.554   0.212   0.438 -0.1019  0.3806 -0.0092
 3042ntf    fn418623   0.622   0.157   0.632  0.2998  0.1257  0.4550
 3042ntf    on518624   0.807  -0.038   0.550  0.4614  0.3624  0.1415
 3042ntf    on518625   0.671  -0.016   0.348  0.0434 -0.0286  0.0787
 3042ntf    on518626   1.101   0.240   0.353  0.4539 -0.1211  0.3853
 3042ntf    on518627   1.078   0.049   0.511  0.2910 -0.3542  0.0356
 3042ntf    fn418628   1.074   0.298   0.651 -0.0446 -0.6907  0.0339
 3042ntf    fn418629   0.926   0.391   0.536  0.0626 -0.4104 -0.3726
 3042ntf    fn418630   0.875   0.213   0.649  0.2190 -0.2515 -0.2873
 3043ntf    cn118631   4.468   1.070   1.727 -0.2641  0.2039  0.6010
 3043ntf    sn218632   4.536   0.995   1.878  0.1536 -0.0595  0.2872
 3043ntf    nn318633   4.664   0.920   1.827  0.5272  0.3749  0.5693
 3043ntf    sn218634   4.724   0.777   1.852 -0.4175 -0.1856 -0.3197
 3043ntf    cn118635   4.770   0.727   1.683 -0.1297 -0.1512 -0.2508
 3043ntf    fn418636   4.565   1.136   1.665 -0.3556 -0.1464  0.0808
 3043ntf    fn418637   4.407   0.977   1.655  0.6904 -0.3333  0.4661
 3043ntf    fn418638   4.382   1.166   1.757 -0.1603  0.5964 -0.3159
 3043ntf    on518639   4.561   1.113   1.958 -0.1551  0.0719  0.1912
 3043ntf    on518640   4.418   0.919   1.910 -0.5428  0.7219 -0.3561
 3043ntf    on518641   4.626   0.681   1.899 -0.1293 -0.1964  0.2617
 3043ntf    on518642   4.851   0.790   1.918 -0.2348 -0.0620 -0.6911
 3043ntf    fn418643   4.895   0.758   1.653 -0.3132  0.6291 -0.2217
 3043ntf    fn418644   4.756   0.596   1.672  0.5695 -0.2316 -0.2270
 3043ntf    fn418645   4.700   0.785   1.587  0.2965 -0.1954 -0.5936
 3044ntf    cn118646   6.527   5.775   6.179 -0.1893 -0.4629 -0.3944
 3044ntf    sn218647   6.468   5.734   6.346 -0.3200  0.6556 -0.1615
 3044ntf    nn318648   6.576   5.803   6.437 -0.0697 -0.0463  0.0825
 3044ntf    sn218649   6.616   5.772   6.586 -0.2204  0.1225  0.1584
 3044ntf    cn118650   6.762   5.667   6.562 -0.2924  0.0251  0.1516
 3044ntf    fn418651   6.524   5.905   6.158  0.4880 -0.3632  0.0736
 3044ntf    fn418652   6.655   5.752   6.150 -0.0870 -0.8464  0.3413
 3044ntf    fn418653   6.458   5.717   6.083  0.1436 -0.1689 -0.8157
 3044ntf    on518654   6.348   5.813   6.355 -0.3839  0.6123 -0.6427
 3044ntf    on518655   6.475   5.591   6.359  0.5886  0.7155  0.1249
 3044ntf    on518656   6.518   5.690   6.652  0.1762 -0.4400  0.0521
 3044ntf    on518657   6.666   5.887   6.658 -0.5415  0.2952  0.1091
 3044ntf    fn418658   6.816   5.602   6.663  0.5102  0.5770  0.0868
 3044ntf    fn418659   6.750   5.583   6.460 -0.4183  0.4798 -0.2134
 3044ntf    fn418660   6.865   5.742   6.527 -0.1922 -0.1901 -0.0230
 3045ntf    cn118661   4.719   0.573   3.670 -0.2069  0.3098  0.2671
 3045ntf    sn218662   4.785   0.530   3.834 -0.1551 -0.2343  0.1027
 3045ntf    nn318663   4.687   0.610   3.926 -0.3148 -0.5081  0.1727
 3045ntf    sn218664   4.545   0.557   3.968 -0.3454 -0.1080  0.5929
 3045ntf    cn118665   4.590   0.473   4.123  0.0042 -0.4270  0.3217
 3045ntf    fn418666   4.610   0.505   3.639  0.2789 -0.3617 -0.0021
 3045ntf    fn418667   4.695   0.703   3.663  0.1529  0.3826  0.3602
 3045ntf    fn418668   4.803   0.533   3.576 -0.5202 -0.3230  0.2514
 3045ntf    on518669   4.768   0.386   3.837 -0.6043 -0.1868 -0.0155
 3045ntf    on518670   4.921   0.578   3.833 -0.1294 -0.3067  0.0433
 3045ntf    on518671   4.482   0.463   3.878 -0.3615  0.4225  0.0459
 3045ntf    on518672   4.468   0.671   4.009 -0.4340  0.1685 -0.3148
 3045ntf    fn418673   4.663   0.364   4.105 -0.4191 -0.5596 -0.6590
 3045ntf    fn418674   4.656   0.564   4.192 -0.3040 -0.4039  0.5848
 3045ntf    fn418675   4.488   0.426   4.194 -0.4840  0.0753 -0.0376
 3046ntf    cn118676   1.852   6.371   1.011  0.1398  0.1755  0.3121
 3046ntf    sn218677   1.975   6.506   1.018 -0.0090  0.3244  0.0620
 3046ntf    nn318678   1.901   6.606   0.921 -0.1584  0.3496  0.2015
 3046ntf    sn218679   1.944   6.749   0.873 -0.3164  0.2846 -0.1307
 3046ntf    cn118680   1.801   6.804   0.775 -0.5284 -0.0877 -0.0334
 3046ntf    fn418681   1.874   6.279   1.103  0.1793  0.0671  0.1946
 3046ntf    fn418682   1.730   6.407   1.045  0.1754  0.2217  0.3908
 3046ntf    fn418683   1.848   6.308   0.894  0.2421 -0.4512  0.6435
 3046ntf    on518684   1.975   6.542   1.157  0.3911 -0.2099  0.2042
 3046ntf    on518685   2.084   6.428   0.964  0.2362  0.0301  0.9674
 3046ntf    on518686   2.056   6.736   0.784 -0.0282 -0.5172  0.3374
 3046ntf    on518687   1.941   6.841   0.984  0.1414  0.6160 -0.3911
 3046ntf    fn418688   1.795   6.751   0.654  0.2636  0.6700 -0.4244
 3046ntf    fn418689   1.688   6.772   0.835 -0.2667 -0.1319  0.4402
 3046ntf    fn418690   1.795   6.935   0.757 -0.1186 -0.1168 -0.4147
 3047ntf    cn118691   1.815   0.202   0.520  0.1074  0.0707 -0.0297
 3047ntf    sn218692   1.746   0.274   0.368  0.3916  0.1245 -0.1334
 3047ntf    nn318693   1.615   0.188   0.365  0.4912 -0.0416  0.1836
 3047ntf    sn218694   1.587   0.075   0.259 -0.0559  0.6888 -0.4644
 3047ntf    cn118695   1.593   0.165   0.101  0.1428  0.3261 -0.6642
 3047ntf    fn418696   1.822   0.070   0.524  0.3079  0.0703 -0.3517
 3047ntf    fn418697   1.934   0.251   0.554  0.2874 -0.0058 -0.5495
 3047ntf    fn418698   1.750   0.231   0.632 -0.1929 -0.4741 -0.0645
 3047ntf    on518699   1.717   0.412   0.398  0.3859  0.0189  0.3656
 3047ntf    on518700   1.848   0.258   0.267  0.2836 -0.6513 -0.1300
 3047ntf    on518701   1.454   0.024   0.277  0.1304  0.3254 -0.1110
 3047ntf    on518702   1.689  -0.025   0.241 -0.1727  0.4300  0.2614
 3047ntf    fn418703   1.474   0.160   0.042 -0.2109 -0.3791  0.0901
 3047ntf    fn418704   1.603   0.293   0.130 -0.4568  0.1307  0.4620
 3047ntf    fn418705   1.690   0.129   0.019  0.5119  0.0348 -0.1024
 3048ntf    cn118706   1.177   3.223   5.728  0.5113  0.1052  0.1903
 3048ntf    sn218707   1.009   3.269   5.779  0.4679  0.0808  0.0707
 3048ntf    nn318708   0.971   3.386   5.681 -0.3144 -0.5301 -0.3720
 3048ntf    sn218709   0.948   3.372   5.527 -0.2402 -0.2190 -0.4122
 3048ntf    cn118710   1.048   3.504   5.452  0.1295 -0.2978 -0.0654
 3048ntf    fn418711   1.182   3.126   5.638 -0.6875  0.2264 -0.0272
 3048ntf    fn418712   1.230   3.330   5.670  0.3246 -0.0831 -0.3386
 3048ntf    fn418713   1.258   3.187   5.826  0.6130  0.1163  0.1114
 3048ntf    on518714   0.927   3.151   5.770  0.9738 -0.2911  0.3215
 3048ntf    on518715   1.022   3.326   5.911  0.4909  1.1589 -0.3873
 3048ntf    on518716   0.813   3.409   5.495 -0.2193 -0.6488 -1.0294
 3048ntf    on518717   1.004   3.255   5.464 -0.2171  0.0531 -0.9023
 3048ntf    fn418718   1.017   3.550   5.331  0.2475  0.2536  0.1122
 3048ntf    fn418719   1.018   3.615   5.517 -0.2272 -0.0469 -0.6517
 3048ntf    fn418720   1.178   3.488   5.465  0.1180 -0.5070 -0.1996
 3049ntf    cn118721   6.011   1.874   3.611 -0.4749 -0.1041  0.2194
 3049ntf    sn218722   5.838   1.862   3.556 -0.3817 -0.2451 -0.0452
 3049ntf    nn318723   5.814   1.710   3.523 -0.0959 -0.3261  0.1148
 3049ntf    sn218724   5.741   1.597   3.604 -0.0406 -0.1706  0.3825
 3049ntf    cn118725   5.824   1.450   3.538  0.1926 -0.0674  0.4457
 3049ntf    fn418726   6.038   2.001   3.636  0.0922 -0.1902  0.0479
 3049ntf    fn418727   6.032   1.801   3.718 -0.1004  0.2377  0.3824
 3049ntf    fn418728   6.093   1.836   3.514 -0.2523 -0.0927  0.4027
 3049ntf    on518729   5.766   1.918   3.668 -0.2341 -0.4416  0.1492
 3049ntf    on518730   5.826   1.951   3.443 -0.2217  0.0257  0.1493
 3049ntf    on518731   5.605   1.573   3.560  0.0426  0.3803 -0.2059
 3049ntf    on518732   5.763   1.607   3.746 -0.5871  0.7179  0.4139
 3049ntf    fn418733   5.812   1.347   3.620  0.7439 -0.8022 -0.3755
 3049ntf    fn418734   5.765   1.410   3.427 -0.4167  0.7542  0.4642
 3049ntf    fn418735   5.954   1.465   3.519  0.2791 -0.6004  0.5897
 3050ntf    cn118736   1.139   0.462   4.670 -0.4179 -0.1036  0.6057
 3050ntf    sn218737   1.256   0.599   4.697  0.0294 -0.3061 -0.2731
 3050ntf    nn318738   1.353   0.591   4.574 -0.1888  0.0668 -0.4711
 3050ntf    sn218739   1.487   0.672   4.564  0.1924 -0.4860  0.0790
 3050ntf    cn118740   1.434   0.811   4.459  0.6198 -0.1075  0.3590
 3050ntf    fn418741   1.097   0.448   4.545  0.1109  0.5349  0.3518
 3050ntf    fn418742   1.203   0.353   4.709 -0.1371 -0.4118 -0.6742
 3050ntf    fn418743   1.031   0.479   4.745 -1.1261 -0.1192 -0.3825
 3050ntf    on518744   1.169   0.714   4.703 -0.0771 -0.3887 -0.2275
 3050ntf    on518745   1.309   0.554   4.823  0.0472 -0.1562 -0.2277
 3050ntf    on518746   1.589   0.619   4.477  0.0989 -0.2301 -0.1909
 3050ntf    on518747   1.533   0.743   4.681  0.7415 -0.1066 -0.3614
 3050ntf    fn418748   1.379   0.765   4.348 -0.0875 -0.2570  0.7674
 3050ntf    fn418749   1.334   0.872   4.520  0.1030 -0.1311 -0.4446
 3050ntf    fn418750   1.526   0.901   4.428  0.1115  0.3128  0.0762
 3051ntf    cn118751   1.361   2.272   4.822  0.5626  0.3821  0.1784
 3051ntf    sn218752   1.475   2.330   4.952  0.5128  0.0801  0.3575
 3051ntf    nn318753   1.386   2.324   5.082 -0.1018 -0.1564 -0.0662
 3051ntf    sn218754   1.433   2.326   5.231 -0.1432  0.2022 -0.0565
 3051ntf    cn118755   1.381   2.494   5.278 -0.1178  0.2747 -0.2876
 3051ntf    fn418756   1.287   2.176   4.875  0.4127  0.2936 -0.1889
 3051ntf    fn418757   1.286   2.375   4.784 -0.2822 -0.2674  0.0560
 3051ntf    fn418758   1.428   2.217   4.722 -0.1850  0.1969 -0.2299
 3051ntf    on518759   1.578   2.231   4.940  0.5659  0.1938 -0.1550
 3051ntf    on518760   1.504   2.462   4.902  0.1155  0.0396  0.0102
 3051ntf    on518761   1.576   2.317   5.254 -0.1697 -0.2731 -0.0721
 3051ntf    on518762   1.355   2.241   5.317  0.5220 -0.3057  0.0595
 3051ntf    fn418763   1.250   2.493   5.292 -0.0514  0.0945  0.3454
 3051ntf    fn418764   1.430   2.524   5.397 -0.3757  0.1691 -0.1545
 3051ntf    fn418765   1.423   2.589   5.196  0.2884  0.5936  0.2835
 3052ntf    cn118766   6.585   6.089   2.950 -0.4236  0.0294  0.2474
 3052ntf    sn218767   6.688   5.939   2.955 -0.4746 -0.0039  0.2781
 3052ntf    nn318768   6.832   5.990   2.990 -0.2303 -0.3900 -0.1608
 3052ntf    sn218769   6.896   6.030   3.127  0.2478  0.0118 -0.4956
 3052ntf    cn118770   6.932   5.870   3.205 -0.4117  0.2306  0.2816
 3052ntf    fn418771   6.469   6.060   2.893 -0.1439  0.2031 -0.4187
 3052ntf    fn418772   6.560   6.137   3.071 -0.4790  0.0407  0.2316
 3052ntf    fn418773   6.640   6.192   2.887  0.1620 -0.3992  0.0445
 3052ntf    on518774   6.628   5.861   3.061  0.7136  0.2848  1.1813
 3052ntf    on518775   6.690   5.885   2.822  0.4221  0.3290  0.1545
 3052ntf    on518776   6.808   6.107   3.213 -0.2428 -0.1141 -0.8801
 3052ntf    on518777   7.025   6.092   3.109  0.0222  0.3928 -0.8320
 3052ntf    fn418778   7.030   5.872   3.294  0.0026 -0.1655 -0.1546
 3052ntf    fn418779   6.824   5.825   3.266 -0.2576  0.2870  0.5933
 3052ntf    fn418780   6.958   5.778   3.113  0.1339  0.4607  0.2016
 3053ntf    cn118781   1.707   3.040   3.439  0.0729  0.2950 -0.0087
 3053ntf    sn218782   1.601   2.898   3.400  0.2520  0.0438  0.4126
 3053ntf    nn318783   1.466   2.974   3.375 -0.0381 -0.4887  0.3521
 3053ntf    sn218784   1.391   3.010   3.242  0.4189 -0.6529  0.0503
 3053ntf    cn118785   1.328   3.173   3.291  0.2700 -0.7716  0.2569
 3053ntf    fn418786   1.818   3.010   3.504  0.1785  0.4914 -0.0986
 3053ntf    fn418787   1.751   3.116   3.340  0.3055 -0.5797 -0.5867
 3053ntf    fn418788   1.652   3.124   3.526 -0.4323  0.3019 -0.3344
 3053ntf    on518789   1.662   2.831   3.288 -0.3429 -0.0693  0.1554
 3053ntf    on518790   1.608   2.826   3.525 -0.1390 -0.5908  0.0744
 3053ntf    on518791   1.270   2.934   3.226  0.2685 -0.3353 -0.3340
 3053ntf    on518792   1.475   3.043   3.129  0.8309  0.1036  0.5730
 3053ntf    fn418793   1.231   3.172   3.381 -0.1909 -0.1962 -0.2202
 3053ntf    fn418794   1.428   3.254   3.322 -0.2575  0.1770 -0.4422
 3053ntf    fn418795   1.274   3.235   3.187 -0.0000  0.2509  0.9979
 3054ntf    cn118796   3.459   6.017   3.824 -0.0739 -0.2113  0.4841
 3054ntf    sn218797   3.339   6.089   3.940 -0.0433 -0.1359  0.4687
 3054ntf    nn318798   3.209   6.055   3.858 -0.1561  0.5486  0.3557
 3054ntf    sn218799   3.106   6.148   3.784 -0.0336  0.1538 -0.3288
 3054ntf    cn118800   2.969   6.035   3.750  0.1711 -0.1780 -0.0590
 3054ntf    fn418801   3.431   5.891   3.797  0.2455 -0.1685 -0.0397
 3054ntf    fn418802   3.466   6.075   3.706 -0.1282 -1.0516  0.0656
 3054ntf    fn418803   3.583   6.019   3.869  0.3877 -0.4268 -0.7440
 3054ntf    on518804   3.366   6.008   4.056  0.0779 -0.0500  0.5010
 3054ntf    on518805   3.373   6.227   3.965  0.5758 -0.1734 -0.1607
 3054ntf    on518806   3.149   6.207   3.660  0.0270 -0.4658 -0.6004
 3054ntf    on518807   3.047   6.240   3.879 -0.0678  0.2761 -0.4678
 3054ntf    fn418808   2.870   6.111   3.706  0.1834  0.0669  0.3388
 3054ntf    fn418809   2.989   5.943   3.656 -0.1056 -0.4335  0.1273
 3054ntf    fn418810   2.926   5.972   3.858  0.0939 -0.2396 -0.1246
 3055ntf    cn118811   4.137   5.511   6.619  0.4387 -0.0674  0.2477
 3055ntf    sn218812   4.117   5.435   6.783  0.5928 -0.0304  0.2848
 3055ntf    nn318813   4.026   5.543   6.852  0.1591 -0.2978  0.1356
 3055ntf    sn218814   3.903   5.515   6.947  0.0075 -0.1229 -0.0105
 3055ntf    cn118815   3.780   5.508   6.813 -0.0478  0.2714  0.0184
 3055ntf    fn418816   4.219   5.443   6.540  0.2763 -0.2200  0.2109
 3055ntf    fn418817   4.024   5.530   6.554  0.3794  0.9232  0.6236
 3055ntf    fn418818   4.185   5.635   6.627 -0.6449  0.3410  0.6231
 3055ntf    on518819   4.044   5.317   6.743  0.7693  0.0831 -0.3900
 3055ntf    on518820   4.248   5.409   6.837  0.8069  0.1202 -0.1558
 3055ntf    on518821   3.875   5.637   7.019  0.0915 -0.2552  0.2468
 3055ntf    on518822   3.904   5.391   7.019  0.0999  0.1841  0.5234
 3055ntf    fn418823   3.784   5.403   6.733  0.3411 -0.1494  0.5799
 3055ntf    fn418824   3.665   5.509   6.878 -0.0988 -0.3261 -0.0650
 3055ntf    fn418825   3.788   5.616   6.737  0.3018  0.4678  0.3285
 3056ntf    cn118826   1.440   7.008   5.065  0.0329  0.0680  0.0746
 3056ntf    sn218827   1.437   6.929   5.229 -0.3659  0.3749  0.2186
 3056ntf    nn318828   1.364   6.796   5.188  0.0660  0.2380 -0.1135
 3056ntf    sn218829   1.412   6.647   5.204 -0.2445  0.0930 -0.5090
 3056ntf    cn118830   1.537   6.621   5.074  0.3049  0.1406  0.0049
 3056ntf    fn418831   1.524   6.949   4.982 -0.8313 -0.1012 -0.6917
 3056ntf    fn418832   1.324   7.013   5.002  0.3791 -0.0903 -0.5784
 3056ntf    fn418833   1.476   7.134   5.085 -0.4419  0.1760  0.2677
 3056ntf    on518834   1.574   6.919   5.274 -0.2366  0.0629 -0.2283
 3056ntf    on518835   1.355   7.025   5.298 -0.5312  0.3899  0.0034
 3056ntf    on518836   1.307   6.555   5.168 -0.2011 -0.0253 -0.3300
 3056ntf    on518837   1.485   6.616   5.324 -0.4192  0.2448 -0.3638
 3056ntf    fn418838   1.505   6.673   4.956  0.0785  0.3135  0.1396
 3056ntf    fn418839   1.646   6.682   5.117  0.2121  0.2961  0.0245
 3056ntf    fn418840   1.561   6.492   5.059  0.0984  0.0684  0.2923
 3057ntf    cn118841   5.913   3.090   7.055 -0.0515  0.1193  0.2701
 3057ntf    sn218842   5.898   2.925   7.129  0.4374  0.1296  0.3935
 3057ntf    nn318843   5.767   2.880   7.054  0.7113  0.3803 -0.2417
 3057ntf    sn218844   5.734   2.775   6.942 -0.2739  0.0468  0.3561
 3057ntf    cn118845   5.724   2.618   7.032  0.2345 -0.1023  0.1504
 3057ntf    fn418846   5.883   3.074   6.927  0.6298  0.1822  0.1025
 3057ntf    fn418847   5.834   3.183   7.107 -0.2388  0.1527 -0.0692
 3057ntf    fn418848   6.037   3.134   7.064 -0.0871  0.3658 -0.3797
 3057ntf    on518849   6.018   2.858   7.083  0.2497  0.1074 -0.0776
 3057ntf    on518850   5.867   2.958   7.265 -0.0948  0.5806  0.1660
 3057ntf    on518851   5.834   2.756   6.840 -0.2514  0.7842  0.2326
 3057ntf    on518852   5.598   2.794   6.897 -0.0275 -0.5767 -0.6822
 3057ntf    fn418853   5.721   2.521   6.941  0.1510  0.1438 -0.1123
 3057ntf    fn418854   5.829   2.590   7.107 -0.1636 -0.1104  0.7106
 3057ntf    fn418855   5.624   2.597   7.115 -0.3500  0.2466 -0.4575
 3058ntf    cn118856   1.177   1.931   6.587 -0.0970 -0.0516  0.2273
 3058ntf    sn218857   1.121   2.103   6.605 -0.2987 -0.0947  0.0174
 3058ntf    nn318858   1.257   2.180   6.625 -0.3120 -0.1004  0.1257
 3058ntf    sn218859   1.329   2.215   6.760  0.2154  0.1457 -0.2192
 3058ntf    cn118860   1.485   2.124   6.736  0.0501 -0.0856 -0.4191
 3058ntf    fn418861   1.110   1.852   6.505  0.0657 -0.2514  0.2860
 3058ntf    fn418862   1.300   1.945   6.539 -0.2072 -0.0192 -0.0496
 3058ntf    fn418863   1.182   1.859   6.697 -0.2891 -0.2350  0.1158
 3058ntf    on518864   1.052   2.139   6.483 -0.3113  0.1697  0.1006
 3058ntf    on518865   1.033   2.104   6.719  0.6196  0.8433  0.7451
 3058ntf    on518866   1.281   2.160   6.884  0.8871 -0.2050 -0.1097
 3058ntf    on518867   1.359   2.356   6.757 -0.4074  0.2950  0.2738
 3058ntf    fn418868   1.511   2.123   6.606  0.2978 -0.8475 -0.3651
 3058ntf    fn418869   1.590   2.172   6.800 -0.3244 -0.0055  0.1387
 3058ntf    fn418870   1.477   1.995   6.763 -0.0882  0.0677  0.3035
 3059ntf    cn118871   0.182   1.037   3.995  0.1336 -0.0798 -0.5664
 3059ntf    sn218872   0.341   1.107   4.046 -0.2345  0.1542  0.2739
 3059ntf    nn318873   0.302   1.241   4.119 -0.0238  0.2985  0.1248
 3059ntf    sn218874   0.357   1.385   4.092  0.1696  0.1688 -0.1741
 3059ntf    cn118875   0.245   1.442   3.961  0.2881  0.1363 -0.2906
 3059ntf    fn418876   0.193   0.923   3.928  0.2354 -0.1185 -0.4825
 3059ntf    fn418877   0.115   1.020   4.108  0.0434 -0.5173 -0.6840
 3059ntf    fn418878   0.117   1.119   3.914 -0.1313  0.1322 -0.1429
 3059ntf    on518879   0.393   1.009   4.138  0.4124 -0.4208 -0.6768
 3059ntf    on518880   0.420   1.114   3.925  0.2736 -0.3126  0.5740
 3059ntf    on518881   0.488   1.383   4.031  0.3146  0.1855  0.1336
 3059ntf    on518882   0.344   1.478   4.201 -0.0662  0.1757 -0.2081
 3059ntf    fn418883   0.119   1.413   3.987  0.4523  0.1493  0.5407
 3059ntf    fn418884   0.253   1.573   3.940  0.5754  0.0677 -0.6039
 3059ntf    fn418885   0.277   1.394   3.842 -0.2806 -0.4004 -0.2289
 3060ntf    cn118886   4.653   6.697   5.226 -0.0935 -0.0981 -0.1198
 3060ntf    sn218887   4.524   6.824   5.245  0.0570  0.0316  0.0323
 3060ntf    nn318888   4.520   6.829   5.401 -0.5692  0.5279  0.0035
 3060ntf    sn218889   4.497   6.942   5.508  0.0974  0.1523  0.5566
 3060ntf    cn118890   4.335   6.898   5.577 -0.2926  0.3017 -0.2477
 3060ntf    fn418891   4.772   6.737   5.266  0.0721 -0.6883 -0.0143
 3060ntf    fn418892   4.621   6.598   5.307  0.3958 -0.2533 -0.1126
 3060ntf    fn418893   4.668   6.651   5.102 -0.7968 -0.2228 -0.1647
 3060ntf    on518894   4.570   6.941   5.174 -0.1905 -0.0429 -0.2533
 3060ntf    on518895   4.405   6.760   5.195  0.0292 -0.2666  0.4816
 3060ntf    on518896   4.475   7.074   5.452  0.0587 -0.0069  0.1948
 3060ntf    on518897   4.576   6.941   5.628 -0.1060 -0.2957  0.6907
 3060ntf    fn418898   4.295   6.972   5.679 -0.2100  0.1242 -0.0855
 3060ntf    fn418899   4.236   6.913   5.490 -0.3259 -0.1538 -0.2897
 3060ntf    fn418900   4.332   6.772   5.617 -0.7251  0.4985  0.3501
 3061ntf    cn118901   2.118   1.922   7.111 -0.1364 -0.1349  0.3301
 3061ntf    sn218902   1.940   1.938   7.081 -0.0310  0.3101 -0.0895
 3061ntf    nn318903   1.880   1.807   7.144 -0.0052  0.2736 -0.1410
 3061ntf    sn218904   1.788   1.699   7.076 -0.1478  0.2883  0.0283
 3061ntf    cn118905   1.635   1.768   7.146 -0.0212  0.1850  0.4091
 3061ntf    fn418906   2.180   2.036   7.081 -0.0749 -0.2661 -0.0507
 3061ntf    fn418907   2.150   1.888   7.235  0.2372 -0.1184  0.2402
 3061ntf    fn418908   2.159   1.826   7.029  0.0468  0.2153  0.0035
 3061ntf    on518909   1.905   2.051   7.163  0.3490  0.3801 -0.0220
 3061ntf    on518910   1.923   1.952   6.939 -0.8055 -0.6421 -0.1046
 3061ntf    on518911   1.793   1.566   7.133 -0.5567  0.4872  0.5446
 3061ntf    on518912   1.757   1.707   6.936  0.1351 -0.2278 -0.0661
 3061ntf    fn418913   1.637   1.787   7.277 -0.4454 -0.5619  0.5289
 3061ntf    fn418914   1.598   1.881   7.089  0.5372  0.2636  0.1957
 3061ntf    fn418915   1.534   1.684   7.133  0.4209 -0.2512 -0.2695
 3062ntf    cn118916   5.898   0.687   5.812 -0.1269 -0.0259  0.2593
 3062ntf    sn218917   5.807   0.759   5.672 -0.1978 -0.2033  0.2132
 3062ntf    nn318918   5.690   0.842   5.736 -0.3918 -0.3938  0.1086
 3062ntf    sn218919   5.546   0.868   5.681 -0.0573  0.5001 -0.3652
 3062ntf    cn118920   5.516   1.033   5.751 -0.3088  0.2741  0.0601
 3062ntf    fn418921   5.995   0.762   5.860 -0.3166  0.2040  0.2883
 3062ntf    fn418922   5.821   0.650   5.913 -0.3062  0.3010  0.2420
 3062ntf    fn418923   5.957   0.575   5.774  0.0764  0.1390  0.0924
 3062ntf    on518924   5.903   0.851   5.616 -0.9355 -0.0877 -0.8972
 3062ntf    on518925   5.765   0.648   5.591  1.0478 -0.4832 -0.0694
 3062ntf    on518926   5.446   0.789   5.749  0.1720  0.6187  0.1146
 3062ntf    on518927   5.543   0.895   5.539 -0.2020  0.4167 -0.3778
 3062ntf    fn418928   5.591   1.135   5.713  0.1319  0.1064  0.4583
 3062ntf    fn418929   5.393   1.078   5.734 -0.4228  0.0224  0.2100
 3062ntf    fn418930   5.536   1.039   5.882  0.0889  0.2860  0.0011
 3063ntf    cn118931   0.157   2.049   5.456  0.0155  0.0944 -0.6799
 3063ntf    sn218932   0.175   1.892   5.366  0.2834 -0.1492 -0.2068
 3063ntf    nn318933   0.031   1.873   5.307  0.1457 -0.0058  0.0829
 3063ntf    sn218934  -0.093   1.817   5.385  0.3981 -0.4279  0.1828
 3063ntf    cn118935  -0.085   1.646   5.324  0.2784 -0.0783 -0.8269
 3063ntf    fn418936   0.135   2.156   5.383  0.0990  0.0727 -0.7361
 3063ntf    fn418937   0.053   2.046   5.538  0.6227  0.2705  0.1117
 3063ntf    fn418938   0.266   2.080   5.525 -0.0028  0.0183 -0.6157
 3063ntf    on518939   0.264   1.929   5.258  0.5105  0.0172  0.0353
 3063ntf    on518940   0.221   1.788   5.455  0.1051 -0.2583 -0.2435
 3063ntf    on518941  -0.218   1.874   5.343  0.9496  0.3758 -0.4020
 3063ntf    on518942  -0.080   1.812   5.529 -0.4337  0.1556  0.2877
 3063ntf    fn418943  -0.107   1.652   5.194  0.4249  0.2967 -0.8343
 3063ntf    fn418944   0.031   1.593   5.360  0.5439  0.9690 -0.0945
 3063ntf    fn418945  -0.179   1.564   5.369  0.8130 -0.1205  0.2431
 3064ntf    cn118946   6.378   5.181   4.873  0.0653 -0.3400 -0.4550
 3064ntf    sn218947   6.212   5.116   4.836 -0.2095  0.0988 -0.0003
 3064ntf    nn318948   6.241   5.011   4.723  0.2663  0.2475 -0.0195
 3064ntf    sn218949   6.309   4.869   4.730  0.1476  0.1772 -0.3122
 3064ntf    cn118950   6.281   4.821   4.556 -0.0249  1.0247 -0.5258
 3064ntf    fn418951   6.469   5.090   4.902  0.3986  0.0954 -0.1285
 3064ntf    fn418952   6.428   5.245   4.768  0.4050 -0.1714 -0.1912
 3064ntf    fn418953   6.381   5.262   4.977 -0.4812 -0.8135 -0.0602
 3064ntf    on518954   6.175   5.060   4.963  0.0455  0.1064  0.0783
 3064ntf    on518955   6.126   5.223   4.792 -0.1684  0.0557 -0.1861
 3064ntf    on518956   6.243   4.768   4.808  0.2926  0.0015 -0.4153
 3064ntf    on518957   6.453   4.874   4.730  0.1995 -1.0006  0.5618
 3064ntf    fn418958   6.323   4.698   4.528 -0.4563  0.7855 -0.1420
 3064ntf    fn418959   6.150   4.816   4.537 -0.0338 -0.2653 -0.2431
 3064ntf    fn418960   6.334   4.901   4.466  0.4510  0.8004 -0.4488
 3065ntf    cn118961   1.278   4.005   3.470 -0.2293  0.1748 -0.4195
 3065ntf    sn218962   1.316   4.152   3.568  0.1615  0.0861 -0.4383
 3065ntf    nn318963   1.470   4.181   3.549  0.2600  0.0233  0.2341
 3065ntf    sn218964   1.598   4.141   3.630  0.0944 -0.2868  0.3469
 3065ntf    cn118965   1.711   4.079   3.502 -0.0738  0.6041 -0.2426
 3065ntf    fn418966   1.269   4.029   3.340  0.3444 -0.7372 -0.6427
 3065ntf    fn418967   1.360   3.902   3.476  0.4287  0.7183 -0.0312
 3065ntf    fn418968   1.156   3.966   3.503 -0.3330  0.7584 -0.1099
 3065ntf    on518969   1.258   4.257   3.488 -0.1004  0.3597  0.1053
 3065ntf    on518970   1.264   4.117   3.698  0.2009  0.2548 -0.3761
 3065ntf    on518971   1.584   4.042   3.734  0.3487 -0.5325  0.1491
 3065ntf    on518972   1.660   4.264   3.675  0.7680 -0.2940 -0.5483
 3065ntf    fn418973   1.747   4.173   3.416  0.2849  0.3243 -0.4024
 3065ntf    fn418974   1.821   4.046   3.567 -0.3237  1.0762  0.4297
 3065ntf    fn418975   1.660   3.973   3.441 -0.4725  0.3105  0.5777
 3066ntf    cn118976   6.668   3.734   4.256  0.3281 -0.2001 -0.1216
 3066ntf    sn218977   6.760   3.878   4.193  0.1451  0.0242  0.1179
 3066ntf    nn318978   6.791   3.827   4.047  0.4038  0.4029  0.0395
 3066ntf    sn218979   6.921   3.761   3.990  0.2315  0.0563  0.0463
 3066ntf    cn118980   7.036   3.901   3.976  0.1831  0.1008  0.1016
 3066ntf    fn418981   6.636   3.747   4.384  0.4962 -0.0351 -0.0952
 3066ntf    fn418982   6.553   3.716   4.195  0.2847  0.3294 -0.2014
 3066ntf    fn418983   6.734   3.623   4.227  0.9249 -0.0640  0.6555
 3066ntf    on518984   6.664   3.985   4.195 -0.2350 -0.3071 -0.2617
 3066ntf    on518985   6.873   3.898   4.280 -0.1711  0.2620  0.4740
 3066ntf    on518986   6.895   3.734   3.851  0.5177 -0.0335  0.0091
 3066ntf    on518987   6.990   3.659   4.066 -0.2559 -0.6235 -0.4155
 3066ntf    fn418988   7.142   3.873   3.902  0.0380  0.5995 -0.3067
 3066ntf    fn418989   6.974   4.001   3.915  0.1811  0.2947  0.4153
 3066ntf    fn418990   7.081   3.947   4.092  0.0162 -0.3962  0.3646
 3067ntf    cn118991   3.854   3.727   5.971  0.2578 -0.1356 -0.0272
 3067ntf    sn218992   3.989   3.817   5.890  0.1410 -0.2584 -0.3584
 3067ntf    nn318993   4.072   3.693   5.842 -0.0788 -0.5562  0.0311
 3067ntf    sn218994   4.174   3.607   5.926  0.4504  0.1115  0.0777
 3067ntf    cn118995   4.120   3.450   5.853  0.3190  0.3306 -0.3030
 3067ntf    fn418996   3.765   3.674   5.889  0.3927 -0.0193 -0.2490
 3067ntf    fn418997   3.885   3.642   6.067  0.0510  0.0993  0.2511
 3067ntf    fn418998   3.785   3.822   6.033 -0.6896 -0.4793 -0.5475
 3067ntf    on518999   3.918   3.876   5.779 -0.3334  0.2501  0.2085
 3067ntf    on519000   4.062   3.907   5.976 -0.3710 -0.4970  0.3286
 3067ntf    on519001   4.148   3.581   6.065  0.3275 -0.1838  0.0007
 3067ntf    on519002   4.309   3.629   5.881  0.4455 -0.4309 -0.2049
 3067ntf    fn419003   4.176   3.341   5.903 -0.0346  0.0616 -0.4842
 3067ntf    fn419004   3.990   3.438   5.877  0.4349  0.0515  0.1949
 3067ntf    fn419005   4.138   3.431   5.723  0.3341 -0.0308 -0.2505
 3068ntf    cn119006   0.660   4.395   0.233 -0.1127 -0.0474  0.1184
 3068ntf    sn219007   0.627   4.529   0.115  0.1700  0.0275  0.1243
 3068ntf    nn319008   0.517   4.621   0.180  0.0808  0.3539 -0.4803
 3068ntf    sn219009   0.377   4.666   0.127  0.0358  0.2178 -0.4766
 3068ntf    cn119010   0.266   4.601   0.256  0.4676  0.0949 -0.1661
 3068ntf    fn419011   0.755   4.309   0.202 -0.5655 -0.3817 -0.3741
 3068ntf    fn419012   0.691   4.443   0.353  0.2850  0.2990 -0.1232
 3068ntf    fn419013   0.557   4.312   0.246 -0.2700  0.0688 -0.3689
 3068ntf    on519014   0.755   4.593   0.102  0.4104 -0.5141 -0.1955
 3068ntf    on519015   0.583   4.460  -0.003  0.0477  0.3372 -0.0134
 3068ntf    on519016   0.330   4.594   0.011  0.2519 -0.3391 -0.2223
 3068ntf    on519017   0.359   4.808   0.142 -0.5258  0.0816  0.1901
 3068ntf    fn419018   0.143   4.649   0.256  0.1888 -0.5722  1.1138
 3068ntf    fn419019   0.234   4.473   0.239 -0.6166  0.3634 -0.2283
 3068ntf    fn419020   0.313   4.624   0.377  0.3499  0.0277 -0.1078
 3069ntf    cn119021   2.495   3.671   0.681  0.1966  0.1779  0.0877
 3069ntf    sn219022   2.401   3.533   0.753  0.1259  0.1918  0.0223
 3069ntf    nn319023   2.495   3.414   0.714  0.2191  0.2733 -0.0040
 3069ntf    sn219024   2.585   3.324   0.806 -0.0124 -0.0419 -0.0855
 3069ntf    cn119025   2.488   3.170   0.818 -0.0764 -0.0245 -0.3660
 3069ntf    fn419026   2.491   3.673   0.549  0.6137  0.2691  0.0756
 3069ntf    fn419027   2.457   3.791   0.722 -0.5093 -0.0260  0.0499
 3069ntf    fn419028   2.619   3.665   0.726  0.0464  0.6432  0.5692
 3069ntf    on519029   2.396   3.562   0.894  1.0811 -0.4142  0.1919
 3069ntf    on519030   2.284   3.522   0.670  0.8409 -0.3777 -0.9260
 3069ntf    on519031   2.596   3.355   0.947  0.3694 -0.0928 -0.1030
 3069ntf    on519032   2.704   3.268   0.747  0.1844  0.1745  0.1032
 3069ntf    fn419033   2.499   3.093   0.712 -0.1727  0.0235 -0.4099
 3069ntf    fn419034   2.534   3.096   0.918 -0.0296  0.8083  0.2451
 3069ntf    fn419035   2.361   3.189   0.847  0.1584  0.0271  0.6860
 3070ntf    cn119036   5.467   2.562   2.154 -0.2929 -0.1242  0.5582
 3070ntf    sn219037   5.306   2.589   2.074  0.0398 -0.2151 -0.1470
 3070ntf    nn319038   5.330   2.569   1.920  0.0092  0.2446 -0.2128
 3070ntf    sn219039   5.325   2.435   1.838 -0.0972  0.3460 -0.3728
 3070ntf    cn119040   5.161   2.442   1.759 -0.3282 -0.1270  0.0598
 3070ntf    fn419041   5.517   2.439   2.148  0.0897  0.0157  0.8769
 3070ntf    fn419042   5.559   2.642   2.103 -0.3674 -0.0089  0.6049
 3070ntf    fn419043   5.452   2.600   2.280 -0.0710  0.0995  0.5157
 3070ntf    on519044   5.220   2.506   2.155  0.3630  0.2373  0.6740
 3070ntf    on519045   5.301   2.728   2.110 -0.0064 -0.1533 -0.3870
 3070ntf    on519046   5.330   2.308   1.906  0.3210  0.2297 -0.6171
 3070ntf    on519047   5.420   2.447   1.730  0.2762  0.4936 -0.0311
 3070ntf    fn419048   5.059   2.458   1.842 -0.1052  0.3307  0.2501
 3070ntf    fn419049   5.163   2.541   1.672  0.1703 -0.3817 -0.2237
 3070ntf    fn419050   5.137   2.334   1.686  0.7572 -0.2542 -0.1365
 3071ntf    cn119051   5.777   4.098   7.046  0.1098  0.3839 -0.0852
 3071ntf    sn219052   5.819   4.097   6.869 -0.0392  0.4451 -0.1214
 3071ntf    nn319053   5.854   3.948   6.833  0.8188  0.5775  0.1475
 3071ntf    sn219054   5.983   3.866   6.871  0.4834 -0.0862 -0.1245
 3071ntf    cn119055   6.069   3.856   6.712  0.3946  0.2997 -0.2002
 3071ntf    fn419056   5.868   4.048   7.128  0.1726 -0.1140 -0.4542
 3071ntf    fn419057   5.763   4.225   7.080  0.3237  0.3753  0.0351
 3071ntf    fn419058   5.665   4.030   7.065 -0.1912  0.6906 -0.7397
 3071ntf    on519059   5.696   4.138   6.807 -0.0108  0.2264 -0.3229
 3071ntf    on519060   5.931   4.188   6.865 -0.0838  0.5169  0.2430
 3071ntf    on519061   5.961   3.728   6.905 -0.5679  0.1161  0.0523
 3071ntf    on519062   6.076   3.937   6.956  0.1046  0.0279  0.2020
 3071ntf    fn419063   6.001   3.777   6.630  1.0209 -0.7536  0.2609
 3071ntf    fn419064   6.083   3.972   6.651  0.0111  0.5080  0.1047
 3071ntf    fn419065   6.185   3.792   6.723  0.0251 -0.2582  0.4924
 3072ntf    cn119066   0.435   3.149   4.386 -0.3199 -0.5227 -0.2360
 3072ntf    sn219067   0.491   3.081   4.227  0.3250 -0.0988 -0.1919
 3072ntf    nn319068   0.451   2.932   4.255 -0.5911  0.1259 -0.2502
 3072ntf    sn219069   0.413   2.816   4.156 -0.1606  0.2385 -0.5519
 3072ntf    cn119070   0.235   2.846   4.136 -0.3288 -0.3433  0.0353
 3072ntf    fn419071   0.487   3.083   4.488  0.4707  0.1867 -0.1747
 3072ntf    fn419072   0.466   3.277   4.397 -0.5477 -0.4647 -0.2460
 3072ntf    fn419073   0.303   3.141   4.392 -0.3673  0.0294 -0.4740
 3072ntf    on519074   0.410   3.159   4.136  0.0628 -0.1375  0.0055
 3072ntf    on519075   0.633   3.106   4.226  0.3633 -0.2961  0.4087
 3072ntf    on519076   0.427   2.687   4.218  0.1236  0.3379 -0.4062
 3072ntf    on519077   0.471   2.841   4.026 -0.4340 -0.2453 -0.7708
 3072ntf    fn419078   0.172   2.862   4.252 -0.3904 -0.3279 -0.0005
 3072ntf    fn419079   0.206   2.951   4.060 -0.7886  0.2911  1.0586
 3072ntf    fn419080   0.170   2.751   4.072  0.1758 -0.5332 -0.1974
 3073ntf    cn119081   5.661   0.912   6.877  0.0454  0.0814 -0.1856
 3073ntf    sn219082   5.654   1.091   6.843  0.0823  0.1135 -0.0241
 3073ntf    nn319083   5.805   1.134   6.839 -0.0537  0.5828 -0.0624
 3073ntf    sn219084   5.918   1.103   6.943 -0.1418  0.0100 -0.1371
 3073ntf    cn119085   5.987   1.266   6.984 -0.0642 -0.1027  0.1827
 3073ntf    fn419086   5.544   0.862   6.841 -0.0461 -0.1531  0.4284
 3073ntf    fn419087   5.748   0.836   6.812 -0.2742 -0.5038  0.0629
 3073ntf    fn419088   5.673   0.872   7.002  0.2428 -0.0318 -0.2398
 3073ntf    on519089   5.587   1.107   6.716  0.0306 -0.4507 -0.0706
 3073ntf    on519090   5.581   1.155   6.949  0.0056  0.4350 -0.2733
 3073ntf    on519091   6.030   1.034   6.883  0.4004  0.1888  0.6581
 3073ntf    on519092   5.878   1.056   7.073  0.5105  0.4695  0.2365
 3073ntf    fn419093   6.046   1.320   6.879 -0.3274 -0.7771 -0.3184
 3073ntf    fn419094   5.902   1.356   7.032 -0.1084 -0.0081 -0.0729
 3073ntf    fn419095   6.090   1.253   7.065  0.4006  0.6511 -0.2740
 3074ntf    cn119096   6.210   0.374   5.859  0.0803  0.3212  0.2057
 3074ntf    sn219097   6.378   0.310   5.887  0.0830  0.1840 -0.1190
 3074ntf    nn319098   6.420   0.275   5.740 -0.4220 -0.3343 -0.1433
 3074ntf    sn219099   6.456   0.137   5.673  0.0893 -0.2031 -0.1451
 3074ntf    cn119100   6.289   0.072   5.641  0.0225 -0.0397 -0.1310
 3074ntf    fn419101   6.133   0.290   5.793 -0.2256  0.4719  0.3709
 3074ntf    fn419102   6.137   0.399   5.966  0.1189 -1.4605  0.6745
 3074ntf    fn419103   6.218   0.486   5.789  0.1727  0.0519 -0.2185
 3074ntf    on519104   6.448   0.427   5.934 -0.2413  0.2583  0.1771
 3074ntf    on519105   6.371   0.204   5.984 -0.4409  0.5570  0.2503
 3074ntf    on519106   6.524   0.044   5.760 -0.1911  0.2266  0.5422
 3074ntf    on519107   6.506   0.150   5.538  0.0288 -0.3213 -0.1794
 3074ntf    fn419108   6.212   0.155   5.572  0.2382 -0.0969 -0.4384
 3074ntf    fn419109   6.288  -0.050   5.591  0.1007 -0.4258  0.7898
 3074ntf    fn419110   6.223   0.065   5.756 -0.2366  0.4854 -0.2414
 3075ntf    cn119111   5.849   6.648   0.882 -0.4252  0.0053  0.3823
 3075ntf    sn219112   5.723   6.719   0.992 -0.2942  0.0453  0.5066
 3075ntf    nn319113   5.827   6.759   1.103  0.1787  0.5959 -0.1293
 3075ntf    sn219114   5.799   6.840   1.234  0.1817 -0.0420  0.2710
 3075ntf    cn119115   5.911   6.753   1.348  0.3675 -0.2826 -0.0959
 3075ntf    fn419116   5.920   6.549   0.934 -0.2629 -0.2410 -0.3014
 3075ntf    fn419117   5.785   6.598   0.777  0.2373 -0.7541  0.3338
 3075ntf    fn419118   5.939   6.734   0.837 -0.2405 -0.3184  0.1254
 3075ntf    on519119   5.674   6.832   0.918  0.0945  0.3024  0.6435
 3075ntf    on519120   5.629   6.615   1.028 -0.3726 -0.2596 -0.5420
 3075ntf    on519121   5.663   6.832   1.282  0.0091  0.2161 -0.1726
 3075ntf    on519122   5.850   6.974   1.224 -0.0846  0.0587  0.2436
 3075ntf    fn419123   5.915   6.809   1.468  0.2985  0.0154 -0.2318
 3075ntf    fn419124   5.881   6.626   1.372 -0.2977 -0.0083  0.5479
 3075ntf    fn419125   6.037   6.759   1.308  0.2708 -0.3412 -0.4123
 3076ntf    cn119126   5.453   5.014   1.751  0.5881  0.3781 -0.3081
 3076ntf    sn219127   5.448   4.842   1.693  0.0740  0.1487  0.4073
 3076ntf    nn319128   5.488   4.863   1.543 -0.2863  0.2902  0.3299
 3076ntf    sn219129   5.581   4.779   1.448 -0.4815  0.3108  0.1173
 3076ntf    cn119130   5.476   4.635   1.414  0.0237  0.0152 -0.1979
 3076ntf    fn419131   5.570   5.067   1.720  0.9201 -0.2591 -0.1452
 3076ntf    fn419132   5.368   5.098   1.693  0.4613  0.2736 -0.2737
 3076ntf    fn419133   5.430   5.027   1.881  0.1631 -0.0436 -0.3384
 3076ntf    on519134   5.546   4.783   1.781 -0.1459 -0.2181  0.4078
 3076ntf    on519135   5.308   4.807   1.705  0.0783  0.0488  0.1567
 3076ntf    on519136   5.709   4.748   1.507 -0.5243 -0.2466 -0.0862
 3076ntf    on519137   5.601   4.847   1.322  0.4802 -0.3200 -0.0811
 3076ntf    fn419138   5.482   4.533   1.498  0.3049 -0.1501 -0.4148
 3076ntf    fn419139   5.350   4.674   1.413  0.0888  0.2408  0.2568
 3076ntf    fn419140   5.502   4.596   1.290  0.3430 -0.2752 -0.0411
 3077ntf    cn119141   3.549   6.452   1.637 -0.2050  0.2013  0.3164
 3077ntf    sn219142   3.386   6.495   1.705 -0.2357  0.0594  0.3319
 3077ntf    nn319143   3.424   6.635   1.764  0.2216  0.1402 -0.1428
 3077ntf    sn219144   3.340   6.767   1.761  0.0068  0.0108  0.1177
 3077ntf    cn119145   3.462   6.899   1.791 -0.2090  0.0977  0.6159
 3077ntf    fn419146   3.574   6.547   1.548 -0.7773 -0.2303 -0.3140
 3077ntf    fn419147   3.643   6.457   1.730  0.2601 -0.5959 -0.1036
 3077ntf    fn419148   3.555   6.337   1.573  0.4208 -0.0102  0.7439
 3077ntf    on519149   3.307   6.488   1.584  0.2010  0.3227  0.0271
 3077ntf    on519150   3.374   6.390   1.803 -0.0087 -0.4659 -0.1911
 3077ntf    on519151   3.254   6.781   1.876 -0.3638  0.2890 -0.1880
 3077ntf    on519152   3.285   6.803   1.633 -0.3056  0.7330  0.4474
 3077ntf    fn419153   3.504   6.946   1.675 -0.5410 -0.7233  0.1541
 3077ntf    fn419154   3.409   7.009   1.844 -0.3008  0.2113  0.2873
 3077ntf    fn419155   3.549   6.860   1.883 -0.2170 -0.4308  0.3995
 3078ntf    cn119156   5.125   0.807   7.036 -0.0161 -0.0910  0.1882
 3078ntf    sn219157   5.029   0.954   7.080  0.0157  0.0489 -0.2004
 3078ntf    nn319158   4.951   0.909   7.209  0.3575  0.1185  0.0338
 3078ntf    sn219159   4.806   0.849   7.213  0.2973  0.2598  0.0040
 3078ntf    cn119160   4.786   0.830   7.392  0.6919  0.2045  0.0425
 3078ntf    fn419161   5.056   0.698   7.006  0.3370 -0.3926  0.4501
 3078ntf    fn419162   5.203   0.823   6.930 -0.5987 -0.1391 -0.2543
 3078ntf    fn419163   5.212   0.773   7.130 -0.3181 -0.5309  0.3077
 3078ntf    on519164   5.128   1.054   7.113  0.2449 -0.3756  0.4142
 3078ntf    on519165   4.943   0.980   6.967  0.2053 -0.6565 -0.5115
 3078ntf    on519166   4.788   0.712   7.172 -0.4236  0.3200  0.0998
 3078ntf    on519167   4.695   0.936   7.182 -0.0170  0.0084  0.4183
 3078ntf    fn419168   4.672   0.771   7.425  0.6022  0.1576 -0.3530
 3078ntf    fn419169   4.885   0.762   7.447  0.6037  0.0896  0.0594
 3078ntf    fn419170   4.771   0.941   7.463 -0.4595 -0.1262  0.3475
 3079ntf    cn119171   3.606   1.904   0.226  0.1582 -0.1633  0.0637
 3079ntf    sn219172   3.495   1.791   0.138  0.2915 -0.0464 -0.2544
 3079ntf    nn319173   3.580   1.761   0.008  0.3625 -0.0905 -0.1983
 3079ntf    sn219174   3.617   1.619  -0.048 -0.3373 -0.3324 -0.0636
 3079ntf    cn119175   3.799   1.627  -0.046 -0.3577  0.2614 -0.1400
 3079ntf    fn419176   3.563   1.922   0.350 -0.4568 -0.2501 -0.1329
 3079ntf    fn419177   3.733   1.868   0.233  0.4197  0.5365 -0.9056
 3079ntf    fn419178   3.610   2.023   0.167  0.4346 -0.2364 -0.0674
 3079ntf    on519179   3.481   1.683   0.232  0.0025  0.5313  0.3705
 3079ntf    on519180   3.390   1.883   0.106 -0.0783 -0.4949 -0.3415
 3079ntf    on519181   3.591   1.603  -0.188 -0.4105 -0.3468 -0.0486
 3079ntf    on519182   3.592   1.502   0.032 -0.3828 -0.2162  0.0938
 3079ntf    fn419183   3.851   1.665   0.069 -0.1713 -0.1116 -0.0984
 3079ntf    fn419184   3.850   1.507  -0.069  0.0306  0.5856 -1.0060
 3079ntf    fn419185   3.836   1.699  -0.151  0.1062  0.1702 -0.0397
 3080ntf    cn119186   4.781   2.971   0.719 -0.0873 -0.5800  0.1174
 3080ntf    sn219187   4.661   3.099   0.766  0.3414 -0.1499  0.0585
 3080ntf    nn319188   4.636   3.066   0.917  0.1505  0.0412  0.0685
 3080ntf    sn219189   4.535   3.132   1.018 -0.0449 -0.3121  0.1031
 3080ntf    cn119190   4.633   3.260   1.101  0.1416 -0.2006 -0.2885
 3080ntf    fn419191   4.873   3.008   0.631 -0.6927  0.1080 -0.2361
 3080ntf    fn419192   4.853   2.938   0.825 -0.1505  0.5074  0.5131
 3080ntf    fn419193   4.728   2.859   0.673 -0.8030 -0.2136  0.0496
 3080ntf    on519194   4.714   3.232   0.750 -0.9425  0.2933 -0.6999
 3080ntf    on519195   4.541   3.088   0.686  0.3879  0.1815 -0.0575
 3080ntf    on519196   4.512   3.040   1.128 -0.1309  0.0111  0.3565
 3080ntf    on519197   4.424   3.208   0.968  0.2002 -0.1451 -0.1839
 3080ntf    fn419198   4.564   3.352   1.165  0.3886 -0.3436  0.1883
 3080ntf    fn419199   4.712   3.216   1.198  0.1441  0.1633 -0.1249
 3080ntf    fn419200   4.717   3.325   1.022  0.5381  0.1056  0.3758
 3081ntf    cn119201   0.050   2.565   5.712  0.0274 -0.2230  0.0556
 3081ntf    sn219202  -0.065   2.687   5.642 -0.0650 -0.1027  0.4162
 3081ntf    nn319203   0.033   2.787   5.571 -0.2124 -0.1994  0.0759
 3081ntf    sn219204   0.011   2.925   5.500 -0.2531 -0.2840 -0.0781
 3081ntf    cn119205   0.087   3.035   5.624  0.1053 -0.1782 -0.3878
 3081ntf    fn419206   0.117   2.495   5.621  0.2362 -0.1584  0.1586
 3081ntf    fn419207   0.143   2.615   5.793 -0.0231 -0.1475  0.0665
 3081ntf    fn419208  -0.012   2.481   5.793 -0.1244  0.0086  0.1812
 3081ntf    on519209  -0.143   2.610   5.548 -0.1131  0.5685 -0.0983
 3081ntf    on519210  -0.133   2.736   5.760 -0.4638  0.0621  0.1188
 3081ntf    on519211  -0.127   2.965   5.492 -0.2046  0.1178  0.9319
 3081ntf    on519212   0.089   2.940   5.380  0.0468 -0.1294  0.1325
 3081ntf    fn419213   0.051   3.015   5.750  0.0516  0.0183 -0.3710
 3081ntf    fn419214   0.218   3.022   5.617  0.1903  0.3409  0.1555
 3081ntf    fn419215   0.049   3.159   5.597  0.0222 -0.0952  0.1045
 3082ntf    cn119216   2.037   4.304   3.579  0.2834 -0.6255  0.0606
 3082ntf    sn219217   2.102   4.429   3.694 -0.1030 -0.1089 -0.2751
 3082ntf    nn319218   1.976   4.516   3.726 -0.3548 -0.3475 -0.6098
 3082ntf    sn219219   1.956   4.664   3.677  0.1144 -0.0838 -0.0114
 3082ntf    cn119220   2.097   4.752   3.751  0.1481  0.0334 -0.2150
 3082ntf    fn419221   1.947   4.219   3.626  0.1643 -0.5035  0.0547
 3082ntf    fn419222   1.980   4.357   3.472 -0.1249 -0.2763  0.4526
 3082ntf    fn419223   2.136   4.228   3.534  0.0981 -1.0213  0.3104
 3082ntf    on519224   2.141   4.358   3.814  0.0238 -1.0095 -0.8341
 3082ntf    on519225   2.211   4.490   3.621  0.6706 -0.2929  0.7072
 3082ntf    on519226   1.841   4.731   3.733 -0.5436 -0.2382 -1.1467
 3082ntf    on519227   1.968   4.671   3.534 -0.3078 -0.0442 -0.0475
 3082ntf    fn419228   2.209   4.738   3.682 -0.4951 -0.8047 -1.1098
 3082ntf    fn419229   2.078   4.882   3.767  0.5652  0.1259 -0.4673
 3082ntf    fn419230   2.122   4.712   3.875 -0.1763 -0.1671 -0.2132
 3083ntf    cn119231   4.889   3.202   6.818 -0.1106  0.3047 -0.2027
 3083ntf    sn219232   4.968   3.052   6.753 -0.2513  0.1134  0.0632
 3083ntf    nn319233   5.084   3.119   6.671 -0.2471  0.0691  0.0336
 3083ntf    sn219234   5.124   3.118   6.519  0.1058 -0.1304  0.1256
 3083ntf    cn119235   5.243   2.982   6.528 -0.0989 -0.3355 -0.2370
 3083ntf    fn419236   4.856   3.280   6.717  0.1320  0.3716 -0.2299
 3083ntf    fn419237   4.783   3.169   6.891  0.4062 -0.4908  0.1977
 3083ntf    fn419238   4.968   3.271   6.899  0.0684  0.1502 -0.2454
 3083ntf    on519239   5.006   2.990   6.877 -0.5105  1.0515  0.6221
 3083ntf    on519240   4.860   2.996   6.675  0.0253  0.5580 -0.6488
 3083ntf    on519241   5.191   3.237   6.472 -0.2675  0.4050  0.9251
 3083ntf    on519242   5.022   3.060   6.435 -0.5400  0.6753  0.3417
 3083ntf    fn419243   5.298   2.949   6.412  0.2485 -0.0993 -0.1401
 3083ntf    fn419244   5.344   3.016   6.607 -0.5935  0.4745  0.0487
 3083ntf    fn419245   5.178   2.883   6.587  0.1726 -0.3135  0.1035
 3084ntf    cn119246   1.613   5.526   3.345 -0.2614  0.2783 -0.0867
 3084ntf    sn219247   1.595   5.543   3.525 -0.1252  0.2329 -0.0690
 3084ntf    nn319248   1.701   5.441   3.579 -0.1428 -0.0815 -0.6182
 3084ntf    sn219249   1.701   5.284   3.590  0.4034 -0.0226  0.3282
 3084ntf    cn119250   1.714   5.262   3.770  0.2145 -0.4376  0.2940
 3084ntf    fn419251   1.509   5.569   3.274 -0.1222  0.0537 -0.4313
 3084ntf    fn419252   1.714   5.582   3.280 -0.4828  0.2831 -0.4335
 3084ntf    fn419253   1.618   5.399   3.310 -0.1682  0.1582  0.3663
 3084ntf    on519254   1.640   5.678   3.548 -0.0372  0.1956 -0.0231
 3084ntf    on519255   1.456   5.524   3.557 -0.1056 -0.5163 -0.4134
 3084ntf    on519256   1.818   5.223   3.532 -0.2301 -0.4326 -0.5410
 3084ntf    on519257   1.574   5.226   3.553  0.4071  0.1492  0.0403
 3084ntf    fn419258   1.613   5.325   3.828  0.1454  0.2462 -0.5440
 3084ntf    fn419259   1.700   5.140   3.818 -0.3908 -0.3913  0.2358
 3084ntf    fn419260   1.824   5.314   3.823  0.1339 -0.4392  0.4630
 3085ntf    cn119261   4.130   5.642   2.937  0.5671 -0.3665 -0.2045
 3085ntf    sn219262   4.092   5.472   2.992  0.1555 -0.2564 -0.1478
 3085ntf    nn319263   3.936   5.475   3.015  0.1747  0.7091 -0.0899
 3085ntf    sn219264   3.826   5.436   2.911 -0.0138 -0.0580  0.3866
 3085ntf    cn119265   3.715   5.313   2.984 -0.0871 -0.2145  0.0140
 3085ntf    fn419266   4.102   5.732   3.030  0.0271 -0.7583  0.0171
 3085ntf    fn419267   4.258   5.656   2.908  0.4873 -0.4092 -0.5824
 3085ntf    fn419268   4.060   5.673   2.829  0.6072 -0.4436 -0.2527
 3085ntf    on519269   4.141   5.391   2.883  0.3927 -0.1177 -0.1441
 3085ntf    on519270   4.166   5.461   3.115  0.4035 -0.3476 -0.3052
 3085ntf    on519271   3.869   5.369   2.790  0.0490 -0.3786  0.5872
 3085ntf    on519272   3.749   5.556   2.888  0.1719 -0.0500 -0.2336
 3085ntf    fn419273   3.624   5.257   2.904 -0.5889 -0.0601  0.4694
 3085ntf    fn419274   3.785   5.207   3.021  0.1743  0.1600  0.5939
 3085ntf    fn419275   3.650   5.362   3.088 -0.4274  0.3572 -0.4622
 3086ntf    cn119276   3.789   0.797   3.437  0.4650 -0.0774 -0.2175
 3086ntf    sn219277   3.752   0.625   3.484 -0.0819  0.0496 -0.1791
 3086ntf    nn319278   3.703   0.575   3.343 -0.1046  0.5455 -0.3505
 3086ntf    sn219279   3.594   0.468   3.310  0.2906 -0.0496  0.2384
 3086ntf    cn119280   3.675   0.384   3.170 -0.2027  0.1324 -0.1608
 3086ntf    fn419281   3.833   0.872   3.537  0.1527 -0.1372 -0.0328
 3086ntf    fn419282   3.891   0.794   3.353  0.5667 -0.1447 -0.0924
 3086ntf    fn419283   3.685   0.858   3.383 -0.1569 -0.1542  0.8490
 3086ntf    on519284   3.884   0.576   3.515 -0.2391 -0.4131 -0.2432
 3086ntf    on519285   3.653   0.638   3.588  0.1861 -0.1960  0.1062
 3086ntf    on519286   3.484   0.532   3.242  0.1591 -0.0061  0.4920
 3086ntf    on519287   3.569   0.377   3.419 -0.0031 -0.7374 -0.3907
 3086ntf    fn419288   3.804   0.412   3.171 -0.1056 -0.2844 -0.7838
 3086ntf    fn419289   3.654   0.254   3.164  0.0598  0.0912 -0.1968
 3086ntf    fn419290   3.636   0.430   3.053 -0.3252 -0.5366 -0.3860
 3087ntf    cn119291   6.797   5.124   3.696 -0.1315  0.0978  0.0780
 3087ntf    sn219292   6.722   4.958   3.704 -0.0185  0.0374 -0.1009
 3087ntf    nn319293   6.598   4.988   3.795  0.0331  0.2932 -0.1122
 3087ntf    sn219294   6.567   4.911   3.928  0.1440  0.3809 -0.0360
 3087ntf    cn119295   6.410   4.988   3.979  0.1452  0.1653  0.2966
 3087ntf    fn419296   6.882   5.141   3.596 -0.6202  0.7484 -0.2354
 3087ntf    fn419297   6.705   5.218   3.682  0.3094  0.5052 -0.0838
 3087ntf    fn419298   6.859   5.140   3.811  0.5902 -0.1899 -0.2682
 3087ntf    on519299   6.683   4.920   3.571  0.0228 -0.5204  0.0464
 3087ntf    on519300   6.828   4.879   3.761  0.2228  0.4095 -0.0314
 3087ntf    on519301   6.641   4.947   4.047 -0.3115 -0.5260  0.5370
 3087ntf    on519302   6.536   4.771   3.914 -0.2055  0.4606 -0.0769
 3087ntf    fn419303   6.354   4.910   4.070 -0.4593 -0.0256 -0.2327
 3087ntf    fn419304   6.438   5.104   4.037  0.4958  0.1093  0.2426
 3087ntf    fn419305   6.322   5.007   3.883 -0.1677  0.6847  0.6773
 3088ntf    cn119306   3.471   2.982   2.123  0.3847 -0.0957 -0.1214
 3088ntf    sn219307   3.441   2.803   2.113 -0.0295 -0.0292 -0.0699
 3088ntf    nn319308   3.319   2.791   2.212 -0.3165  0.3022 -0.3802
 3088ntf    sn219309   3.168   2.774   2.175 -0.3417 -0.2121 -0.0509
 3088ntf    cn119310   3.164   2.593   2.160 -0.0324 -0.2599  0.4306
 3088ntf    fn419311   3.363   3.057   2.108  0.2105 -0.2920  0.1420
 3088ntf    fn419312   3.518   3.012   2.243 -0.3756  0.3773  0.0675
 3088ntf    fn419313   3.566   3.027   2.043  0.6478 -0.2599  0.0975
 3088ntf    on519314   3.417   2.783   1.972 -0.1126 -0.7170  0.0375
 3088ntf    on519315   3.559   2.747   2.174  0.0116 -0.0808 -0.1966
 3088ntf    on519316   3.131   2.818   2.043 -0.1945 -0.5491 -0.2056
 3088ntf    on519317   3.075   2.816   2.277 -0.2289 -0.0033 -0.0339
 3088ntf    fn419318   3.225   2.535   2.262  0.1031 -0.4978  0.2184
 3088ntf    fn419319   3.039   2.552   2.155 -0.1991  0.3290 -0.5448
 3088ntf    fn419320   3.225   2.541   2.054  0.0868 -0.1260  0.4330
 3089ntf    cn119321   0.058   2.569   0.539  0.3059  0.2579  0.0952
 3089ntf    sn219322   0.113   2.739   0.572  0.2938  0.2876 -0.0360
 3089ntf    nn319323   0.002   2.810   0.486 -0.1245 -0.3242 -0.0105
 3089ntf    sn219324   0.002   2.964   0.453  0.0181 -0.3125  0.0427
 3089ntf    cn119325   0.101   2.975   0.301  0.0931 -0.0597  0.1088
 3089ntf    fn419326  -0.058   2.534   0.590  0.1180  0.8532  0.0858
 3089ntf    fn419327   0.061   2.532   0.412  0.2950 -0.7284  0.3731
 3089ntf    fn419328   0.142   2.482   0.593  0.1024  0.3607  0.5757
 3089ntf    on519329   0.094   2.760   0.714 -0.8900  0.1523 -0.1617
 3089ntf    on519330   0.242   2.750   0.509 -0.0705  1.1946 -0.6457
 3089ntf    on519331   0.070   3.055   0.542 -0.0982 -0.5339  0.3580
 3089ntf    on519332  -0.130   2.995   0.406 -0.0228  0.3140  0.5649
 3089ntf    fn419333   0.080   3.090   0.238  0.4897 -0.0357  0.0162
 3089ntf    fn419334   0.228   2.958   0.332  0.0550  0.4137  0.5399
 3089ntf    fn419335   0.078   2.877   0.215  0.0843  0.2057 -0.1956
 3090ntf    cn119336   6.085   0.638   4.507 -0.1377  0.5207 -0.0201
 3090ntf    sn219337   5.913   0.647   4.567 -0.0374  0.1605  0.3212
 3090ntf    nn319338   5.879   0.792   4.517  0.7440  0.1330 -0.3166
 3090ntf    sn219339   5.747   0.866   4.476  0.3852 -0.3127  0.0179
 3090ntf    cn119340   5.708   0.941   4.637 -0.3212 -0.2751 -0.1686
 3090ntf    fn419341   6.088   0.650   4.375  0.7104 -0.2975 -0.0889
 3090ntf    fn419342   6.168   0.724   4.563  0.0953  0.0143  0.4167
 3090ntf    fn419343   6.146   0.521   4.518 -0.0942  0.5596  0.1455
 3090ntf    on519344   5.848   0.547   4.486  0.2871  0.2952 -0.1121
 3090ntf    on519345   5.918   0.620   4.709 -0.0502  0.0400  0.2993
 3090ntf    on519346   5.634   0.782   4.444  0.1167  0.1484 -0.2558
 3090ntf    on519347   5.776   0.982   4.396 -0.2337  0.0280  0.2806
 3090ntf    fn419348   5.579   0.964   4.655 -0.1237  0.0082  0.9102
 3090ntf    fn419349   5.744   0.856   4.732 -0.1043 -0.1690 -0.1556
 3090ntf    fn419350   5.772   1.055   4.653 -0.3544 -0.3767  0.7128
 3091ntf    cn119351   4.041   2.558   0.036  0.2829  0.6930 -0.1107
 3091ntf    sn219352   3.906   2.673   0.076 -0.4257 -0.1320 -0.0885
 3091ntf    nn319353   3.914   2.770  -0.048  0.9333  0.0802  0.1555
 3091ntf    sn219354   3.818   2.873  -0.116  0.1813 -0.5335  0.2835
 3091ntf    cn119355   3.803   2.794  -0.279  0.1560  0.2249 -0.0823
 3091ntf    fn419356   4.039   2.521  -0.091  0.0360 -0.1218  0.1201
 3091ntf    fn419357   4.162   2.608   0.052  0.6209 -0.2513  0.3721
 3091ntf    fn419358   4.035   2.445   0.105 -0.1525  0.3961 -0.6195
 3091ntf    on519359   3.791   2.587   0.082  0.0179 -0.7261 -0.0643
 3091ntf    on519360   3.963   2.738   0.191 -0.2431 -0.1013 -0.1950
 3091ntf    on519361   3.888   2.993  -0.152  0.1709 -0.5082  0.3481
 3091ntf    on519362   3.682   2.872  -0.066  0.1036  0.7599  0.1285
 3091ntf    fn419363   3.732   2.857  -0.372 -0.1523 -0.4533 -0.3139
 3091ntf    fn419364   3.926   2.791  -0.328 -0.1112 -0.3505 -0.7317
 3091ntf    fn419365   3.749   2.674  -0.274  0.5426  0.0600  0.1575
 3092ntf    cn119366   0.669   3.434   1.393 -0.2483  0.0002  0.1243
 3092ntf    sn219367   0.755   3.547   1.279 -0.1068 -0.2856 -0.0536
 3092ntf    nn319368   0.648   3.661   1.265  0.1650  0.0352  0.4418
 3092ntf    sn219369   0.637   3.807   1.322 -0.0597  0.1653  0.0683
 3092ntf    cn119370   0.762   3.897   1.226  0.0672  0.2241  0.2882
 3092ntf    fn419371   0.709   3.309   1.408 -0.0011  0.0320 -0.2426
 3092ntf    fn419372   0.671   3.479   1.517 -0.1928  0.5856 -0.0824
 3092ntf    fn419373   0.545   3.423   1.349  0.1381 -0.5455 -0.8745
 3092ntf    on519374   0.881   3.579   1.343  0.0132 -0.5205 -0.1732
 3092ntf    on519375   0.777   3.471   1.159  0.5067 -0.6426  0.2818
 3092ntf    on519376   0.678   3.829   1.458  0.1123  0.2342  0.0055
 3092ntf    on519377   0.514   3.866   1.274 -0.1235 -0.0326 -0.0139
 3092ntf    fn419378   0.706   3.988   1.147 -0.2148  0.1650  0.4179
 3092ntf    fn419379   0.860   3.953   1.295  0.3884 -0.2758  0.2345
 3092ntf    fn419380   0.830   3.820   1.143 -0.1311 -0.2049  0.5239
 3093ntf    cn119381   4.945   3.472   3.689  0.1855  0.0566 -0.3328
 3093ntf    sn219382   4.854   3.359   3.799  0.3467  0.1205 -0.1331
 3093ntf    nn319383   4.707   3.412   3.790  0.1538 -0.2490  0.7866
 3093ntf    sn219384   4.576   3.331   3.821 -0.1958 -0.0796 -0.2034
 3093ntf    cn119385   4.502   3.423   3.960  0.0708  0.1545 -0.2161
 3093ntf    fn419386   4.916   3.600   3.704 -0.0316 -0.0195 -0.0950
 3093ntf    fn419387   5.077   3.464   3.694  0.1352 -0.5224  0.1225
 3093ntf    fn419388   4.903   3.458   3.564 -0.1130  1.1073 -0.3626
 3093ntf    on519389   4.875   3.232   3.733  0.0648 -0.0177  0.0459
 3093ntf    on519390   4.912   3.387   3.928 -0.2637  0.4519  0.0720
 3093ntf    on519391   4.593   3.196   3.868 -0.7231 -0.0412  0.1105
 3093ntf    on519392   4.466   3.339   3.727 -0.1090 -0.6994 -0.3578
 3093ntf    fn419393   4.399   3.360   4.014 -0.1772  0.7629  0.0251
 3093ntf    fn419394   4.584   3.437   4.063  0.0574 -0.0587 -0.1760
 3093ntf    fn419395   4.452   3.543   3.933  0.4595  0.1564 -0.9470
 3094ntf    cn119396   4.852   0.652   5.793 -0.1498  0.0027  0.2032
 3094ntf    sn219397   4.832   0.475   5.757 -0.1527  0.0136  0.1516
 3094ntf    nn319398   4.742   0.432   5.878 -0.2698  0.1202  0.1026
 3094ntf    sn219399   4.658   0.300   5.884  0.0425 -0.0790  0.0992
 3094ntf    cn119400   4.736   0.226   6.031 -0.6997 -0.4360  0.3210
 3094ntf    fn419401   4.933   0.699   5.700 -0.5792 -0.0636 -0.2044
 3094ntf    fn419402   4.739   0.718   5.778 -0.0050  0.1186 -0.3774
 3094ntf    fn419403   4.899   0.678   5.915  0.7768  0.6658 -0.2791
 3094ntf    on519404   4.766   0.476   5.628  0.7884  0.3967 -0.3348
 3094ntf    on519405   4.965   0.419   5.756 -0.1371  0.0444  0.4005
 3094ntf    on519406   4.672   0.196   5.785 -0.3104  0.1976 -0.2410
 3094ntf    on519407   4.524   0.332   5.926  0.0089  0.3142 -0.3148
 3094ntf    fn419408   4.712   0.096   6.037 -0.0018 -0.6280 -0.7006
 3094ntf    fn419409   4.867   0.239   6.012 -0.7413  0.2737  0.4771
 3094ntf    fn419410   4.706   0.289   6.143 -0.9681  0.2190 -0.1149
 3095ntf    cn119411   1.314   2.884   1.200 -0.0158 -0.2102  0.4479
 3095ntf    sn219412   1.204   2.757   1.130  0.0798 -0.1875  0.2568
 3095ntf    nn319413   1.250   2.631   1.211  0.4046 -0.3216 -0.1318
 3095ntf    sn219414   1.288   2.488   1.157  0.1783 -0.3660 -0.1756
 3095ntf    cn119415   1.462   2.512   1.111  0.0953  0.3514 -0.1303
 3095ntf    fn419416   1.318   2.875   1.332  0.4645 -0.0792  0.4427
 3095ntf    fn419417   1.437   2.889   1.152 -0.2450 -0.4486 -0.1874
 3095ntf    fn419418   1.269   3.003   1.165  0.6154 -0.3474 -0.9190
 3095ntf    on519419   1.073   2.808   1.163 -0.3457 -0.8214 -0.3977
 3095ntf    on519420   1.235   2.758   0.989  0.0427  0.5247  0.2525
 3095ntf    on519421   1.220   2.444   1.037  0.2442 -0.2315 -0.2639
 3095ntf    on519422   1.299   2.397   1.267  0.4052 -0.6636 -0.4423
 3095ntf    fn419423   1.544   2.499   1.214  0.3239  0.0064 -0.3508
 3095ntf    fn419424   1.498   2.433   1.010  0.1060  0.3060 -0.0908
 3095ntf    fn419425   1.483   2.634   1.065  0.2776  0.1059 -0.7118
 3096ntf    cn119426   5.252   6.927   4.284  0.0489  0.0644 -0.2318
 3096ntf    sn219427   5.429   6.940   4.323  0.1242 -0.2833 -0.4572
 3096ntf    nn319428   5.433   6.828   4.432  0.5575  0.2741  0.1066
 3096ntf    sn219429   5.423   6.855   4.587 -0.4933 -0.0391  0.1059
 3096ntf    cn119430   5.521   6.723   4.664  0.1438  0.1260 -0.4070
 3096ntf    fn419431   5.180   7.026   4.335 -0.2587 -0.3405  0.1337
 3096ntf    fn419432   5.235   6.914   4.154 -0.6125 -0.2182 -0.1211
 3096ntf    fn419433   5.199   6.822   4.345  0.0856  0.3786  0.3490
 3096ntf    on519434   5.492   6.910   4.197  0.4033 -0.4371 -0.2797
 3096ntf    on519435   5.433   7.077   4.368 -0.5737 -0.3291 -0.2481
 3096ntf    on519436   5.296   6.831   4.650 -0.4030 -0.2776  0.1998
 3096ntf    on519437   5.505   6.963   4.636  0.0342 -0.1142 -0.6010
 3096ntf    fn419438   5.483   6.600   4.634 -0.0537  0.1067 -0.0890
 3096ntf    fn419439   5.649   6.741   4.637  0.3384 -0.5573  0.0097
 3096ntf    fn419440   5.507   6.736   4.795 -0.3439  0.8301 -0.5260
 3097ntf    cn119441   0.359   1.006   3.497 -0.1179  0.4897 -0.0446
 3097ntf    sn219442   0.474   1.036   3.360 -0.1982  0.1736 -0.1823
 3097ntf    nn319443   0.499   0.894   3.296 -0.2357 -0.0708  0.3434
 3097ntf    sn219444   0.430   0.821   3.176 -0.1893 -0.2419  0.4203
 3097ntf    cn119445   0.566   0.819   3.055 -0.1259  0.0402  0.4846
 3097ntf    fn419446   0.417   0.923   3.582 -0.1637 -0.2297 -0.7025
 3097ntf    fn419447   0.329   1.118   3.560  0.1017  0.6693 -0.2584
 3097ntf    fn419448   0.251   0.946   3.449  0.2811 -0.0973 -0.2148
 3097ntf    on519449   0.400   1.125   3.274 -0.4478 -0.0546 -0.2076
 3097ntf    on519450   0.591   1.082   3.429 -0.1883 -0.0171 -0.0709
 3097ntf    on519451   0.317   0.897   3.127  0.2763  0.2819  0.1491
 3097ntf    on519452   0.397   0.685   3.210 -0.3645 -0.2708  0.1392
 3097ntf    fn419453   0.543   0.752   2.943  0.5456  0.1904  0.2528
 3097ntf    fn419454   0.590   0.945   3.026 -0.0849  0.0354  0.4982
 3097ntf    fn419455   0.674   0.763   3.107  0.2514 -0.1026 -0.4254
 3098ntf    cn119456   1.802   1.803   4.845 -0.2183  0.0461 -0.0345
 3098ntf    sn219457   1.693   1.658   4.865 -0.0178 -0.1576 -0.4013
 3098ntf    nn319458   1.653   1.667   5.017  0.2727 -0.7791 -0.2835
 3098ntf    sn219459   1.574   1.556   5.094 -0.1805 -0.0766  0.2814
 3098ntf    cn119460   1.717   1.465   5.159  0.1987  0.1704 -0.2008
 3098ntf    fn419461   1.878   1.803   4.736 -0.0053  0.2338  0.1130
 3098ntf    fn419462   1.729   1.913   4.839 -0.0710  0.1488  0.0613
 3098ntf    fn419463   1.884   1.822   4.947 -0.1788 -0.0543 -0.0474
 3098ntf    on519464   1.581   1.701   4.785 -0.0483 -0.8375 -0.7247
 3098ntf    on519465   1.774   1.548   4.818  0.4955 -0.0029  0.1009
 3098ntf    on519466   1.498   1.463   5.014 -0.0798 -0.1205  0.2364
 3098ntf    on519467   1.504   1.607   5.209 -0.2016 -0.0110  0.2404
 3098ntf    fn419468   1.765   1.526   5.266  0.8219  0.5779 -0.7017
 3098ntf    fn419469   1.682   1.343   5.197 -0.6786  0.3868 -0.3057
 3098ntf    fn419470   1.823   1.466   5.079  0.2650  0.3081 -0.1123
 3099ntf    cn119471   2.211   1.394   5.064  0.1703 -0.2117  0.2385
 3099ntf    sn219472   2.270   1.559   5.112 -0.2290 -0.0370  0.1348
 3099ntf    nn319473   2.418   1.532   5.156 -0.0129  0.0069 -0.5508
 3099ntf    sn219474   2.552   1.546   5.076  0.0360  0.6287 -0.3688
 3099ntf    cn119475   2.573   1.726   5.087  0.4340  0.5588  0.0186
 3099ntf    fn419476   2.256   1.304   5.150 -0.1136 -0.4257  0.1658
 3099ntf    fn419477   2.080   1.379   5.069  0.0854  0.1986 -0.5403
 3099ntf    fn419478   2.246   1.350   4.944  0.0142 -0.1786  0.1802
 3099ntf    on519479   2.272   1.647   4.998  0.3105 -0.4282 -0.1605
 3099ntf    on519480   2.182   1.599   5.219 -0.0050  0.0947  0.2699
 3099ntf    on519481   2.546   1.518   4.934  0.4740  0.0647 -0.2802
 3099ntf    on519482   2.658   1.488   5.155 -0.0787  0.6838 -0.1747
 3099ntf    fn419483   2.566   1.771   5.211  0.0163 -0.1936  0.2701
 3099ntf    fn419484   2.683   1.773   5.030  0.7962  0.4281  0.5994
 3099ntf    fn419485   2.478   1.790   5.022 -0.2781 -0.0119  0.4873
 3100ntf    cn119486   0.164   3.774   3.130  0.0651 -0.2713  0.2321
 3100ntf    sn219487   0.187   3.685   3.287  0.0505  0.0409  0.4113
 3100ntf    nn319488   0.266   3.796   3.365  0.1030  0.1170  0.2514
 3100ntf    sn219489   0.196   3.904   3.455 -0.3998  0.1386 -0.1632
 3100ntf    cn119490   0.199   3.820   3.617  0.4174 -0.0869 -0.2895
 3100ntf    fn419491   0.067   3.861   3.153  0.1141 -0.1542 -0.0014
 3100ntf    fn419492   0.264   3.848   3.085 -0.2828  0.1490  0.1491
 3100ntf    fn419493   0.129   3.691   3.033  0.2538  0.4699 -0.4881
 3100ntf    on519494   0.053   3.658   3.334  0.0291 -0.4240  0.0866
 3100ntf    on519495   0.271   3.574   3.252 -0.2492 -0.1800  0.3889
 3100ntf    on519496   0.056   3.927   3.428 -0.4993  0.1938  0.3757
 3100ntf    on519497   0.277   4.020   3.479 -0.3686  0.1990 -0.5576
 3100ntf    fn419498   0.134   3.705   3.617  0.0417  0.1222 -0.0183
 3100ntf    fn419499   0.324   3.795   3.651  0.3156  0.2567  0.3543
 3100ntf    fn419500   0.148   3.894   3.714 -0.3614 -0.7643 -0.1662
 3101ntf    cn119501   1.932   5.282   5.578 -0.2038  0.1762  0.3036
 3101ntf    sn219502   2.025   5.137   5.520 -0.1347  0.1820  0.3987
 3101ntf    nn319503   2.111   5.194   5.402 -0.5632  0.5148  0.2461
 3101ntf    sn219504   2.240   5.283   5.403 -0.1512 -0.0801  0.0361
 3101ntf    cn119505   2.358   5.145   5.417 -0.0540 -0.0585 -0.5152
 3101ntf    fn419506   1.830   5.242   5.652 -0.1016 -0.6829 -0.0106
 3101ntf    fn419507   2.010   5.360   5.653 -0.2292  0.4634  0.0333
 3101ntf    fn419508   1.885   5.353   5.477  0.3619  0.1737  0.0308
 3101ntf    on519509   2.098   5.082   5.632  0.4672 -0.3042 -0.2285
 3101ntf    on519510   1.920   5.049   5.475  0.0648 -0.0439  0.3692
 3101ntf    on519511   2.264   5.370   5.515 -0.2494  0.0844 -0.0696
 3101ntf    on519512   2.270   5.338   5.273  1.6824 -0.1982  0.3731
 3101ntf    fn419513   2.485   5.181   5.413 -0.0660 -0.0205 -0.5458
 3101ntf    fn419514   2.331   5.086   5.532 -0.2153  0.1564 -0.4418
 3101ntf    fn419515   2.353   5.051   5.325 -0.0060 -0.2538 -0.3191
 3102ntf    cn119516   1.598   0.760   1.715  0.2003 -0.0686 -0.3567
 3102ntf    sn219517   1.472   0.708   1.834  0.4590  0.1172 -0.0010
 3102ntf    nn319518   1.423   0.845   1.894  0.2221 -0.2138  0.5767
 3102ntf    sn219519   1.287   0.918   1.865  0.5470  0.1672 -0.0087
 3102ntf    cn119520   1.345   1.053   1.759 -0.2320  0.3174 -0.2550
 3102ntf    fn419521   1.682   0.661   1.688  0.3153 -0.0997  0.1113
 3102ntf    fn419522   1.548   0.798   1.598  0.0131 -0.3922 -0.3838
 3102ntf    fn419523   1.669   0.862   1.759 -0.5347  0.3551 -0.1400
 3102ntf    on519524   1.382   0.630   1.753  0.3464 -0.2532  0.4696
 3102ntf    on519525   1.541   0.634   1.937  0.0581 -0.0352  0.1640
 3102ntf    on519526   1.243   0.991   1.981 -0.1209 -0.2151 -0.0098
 3102ntf    on519527   1.191   0.856   1.776  0.2457  0.1700  0.3129
 3102ntf    fn419528   1.399   1.149   1.833  0.0706 -0.0527  0.0076
 3102ntf    fn419529   1.440   1.013   1.675 -0.0841  0.6047 -0.2264
 3102ntf    fn419530   1.248   1.118   1.696 -0.2830  0.0813 -0.4214
 3103ntf    cn119531   1.148   3.214   1.589 -0.0181  0.1685  0.3324
 3103ntf    sn219532   1.022   3.233   1.719  0.1767  0.3770  0.4921
 3103ntf    nn319533   1.095   3.324   1.824  0.2141  0.1122  0.6945
 3103ntf    sn219534   1.091   3.480   1.827  0.2179  0.1247  0.0982
 3103ntf    cn119535   0.955   3.502   1.946  0.1225 -0.3713  0.0814
 3103ntf    fn419536   1.107   3.179   1.468  0.1160  0.2882  0.2521
 3103ntf    fn419537   1.222   3.323   1.574  0.4029 -0.1581  0.0353
 3103ntf    fn419538   1.240   3.122   1.610  0.5147  0.5158 -0.4063
 3103ntf    on519539   0.907   3.283   1.648  0.1226  0.1545  0.4236
 3103ntf    on519540   0.999   3.096   1.756 -0.5443  0.2611 -0.3528
 3103ntf    on519541   1.045   3.540   1.704  0.6375 -0.1662 -0.2036
 3103ntf    on519542   1.207   3.532   1.894  0.7535  0.0655 -0.7681
 3103ntf    fn419543   0.906   3.624   1.956  0.4391 -0.2701  0.4135
 3103ntf    fn419544   0.858   3.415   1.925 -0.3208  0.1447 -0.0100
 3103ntf    fn419545   1.006   3.479   2.066  0.1335  0.2714  0.2051
 3104ntf    cn119546   7.122   5.918   4.592 -0.3355  0.0947 -0.1106
 3104ntf    sn219547   7.268   5.951   4.488 -0.2687 -0.2119 -0.1151
 3104ntf    nn319548   7.244   6.105   4.467  0.5071 -0.1018 -0.1976
 3104ntf    sn219549   7.176   6.175   4.345  0.0416 -0.0824  0.0723
 3104ntf    cn119550   7.111   6.323   4.429 -0.5122 -0.2367 -0.0783
 3104ntf    fn419551   7.017   5.928   4.513 -0.8880  0.3093  0.6350
 3104ntf    fn419552   7.122   5.795   4.641  0.0747 -0.0678 -0.5097
 3104ntf    fn419553   7.110   5.994   4.700 -0.3615  0.2447 -0.2187
 3104ntf    on519554   7.378   5.907   4.569 -0.3407 -0.1421  0.0198
 3104ntf    on519555   7.241   5.865   4.375 -0.0099  0.2676 -0.5483
 3104ntf    on519556   7.059   6.109   4.293 -0.2947 -0.3038  1.0950
 3104ntf    on519557   7.268   6.225   4.246  0.4623 -1.0566 -0.0415
 3104ntf    fn419558   7.010   6.388   4.374 -0.2354  0.5311  0.3025
 3104ntf    fn419559   7.073   6.288   4.551 -0.3047 -0.1263  0.0197
 3104ntf    fn419560   7.212   6.406   4.448 -0.9052  0.2184  0.0396
 3105ntf    cn119561   3.684   4.248   1.466  0.2697  0.3408  0.0801
 3105ntf    sn219562   3.565   4.324   1.352 -0.2258 -0.1523  0.2632
 3105ntf    nn319563   3.604   4.476   1.344  0.2355 -0.2781  0.1386
 3105ntf    sn219564   3.697   4.545   1.238  0.0709  0.0112  0.1822
 3105ntf    cn119565   3.766   4.682   1.336  0.0934  0.3231 -0.2643
 3105ntf    fn419566   3.679   4.313   1.581  0.0056 -0.2533  0.4119
 3105ntf    fn419567   3.675   4.117   1.484 -0.6407  0.4077  0.1538
 3105ntf    fn419568   3.801   4.264   1.406  0.0601 -0.0006 -0.4306
 3105ntf    on519569   3.587   4.251   1.230 -0.6685 -0.3418  0.2918
 3105ntf    on519570   3.442   4.288   1.418  0.0482 -0.1776  0.7620
 3105ntf    on519571   3.613   4.599   1.134  0.0826 -0.0635  0.1338
 3105ntf    on519572   3.811   4.470   1.191  0.1754  0.0907  0.3096
 3105ntf    fn419573   3.830   4.641   1.444 -0.2552  0.1810 -0.1088
 3105ntf    fn419574   3.841   4.762   1.262 -0.0941  0.2359 -0.5539
 3105ntf    fn419575   3.669   4.758   1.384  0.3131  0.0524  0.6192
 3106ntf    cn119576   2.708   6.742   4.520  0.4158  0.3867 -0.1020
 3106ntf    sn219577   2.842   6.618   4.524  0.0015 -0.0668 -0.1548
 3106ntf    nn319578   2.954   6.698   4.598 -0.5988  0.5182  0.1390
 3106ntf    sn219579   2.987   6.699   4.752 -0.2299 -0.2945  0.0687
 3106ntf    cn119580   3.087   6.547   4.745  0.7194  0.3147  0.3242
 3106ntf    fn419581   2.639   6.722   4.631  0.3599  0.1258 -0.1822
 3106ntf    fn419582   2.757   6.862   4.496  0.6910  0.3279  0.1583
 3106ntf    fn419583   2.613   6.730   4.428 -0.0995  0.3477  0.4326
 3106ntf    on519584   2.784   6.507   4.595 -0.0553 -0.3021 -0.5632
 3106ntf    on519585   2.874   6.604   4.384 -0.0894 -0.8419 -0.1012
 3106ntf    on519586   2.880   6.648   4.834  0.3551 -0.1365  0.9346
 3106ntf    on519587   3.078   6.801   4.797 -0.0722 -0.4603  0.1282
 3106ntf    fn419588   3.214   6.584   4.741  0.7183  0.2522 -0.5877
 3106ntf    fn419589   3.070   6.453   4.836  0.1413  0.0620 -0.0386
 3106ntf    fn419590   3.060   6.495   4.626 -0.1178 -0.3203  0.7879
 3107ntf    cn119591   1.101   1.212   5.256  0.0305 -0.5084  0.2457
 3107ntf    sn219592   1.021   1.157   5.102  0.2333 -0.2994  0.0665
 3107ntf    nn319593   1.031   1.290   5.018 -0.5150 -0.0000  0.4449
 3107ntf    sn219594   0.925   1.359   4.925 -0.2078 -0.0272  0.0757
 3107ntf    cn119595   0.955   1.532   4.972 -0.2377 -0.0984  0.3592
 3107ntf    fn419596   1.037   1.317   5.305 -0.5027 -0.4022 -0.6553
 3107ntf    fn419597   1.098   1.113   5.344 -0.7956 -0.4124  0.3350
 3107ntf    fn419598   1.228   1.248   5.248 -0.1185 -0.0606 -0.1425
 3107ntf    on519599   1.103   1.053   5.046  0.6277  0.2676 -0.4179
 3107ntf    on519600   0.890   1.123   5.153 -0.1675  0.7583 -0.2241
 3107ntf    on519601   0.785   1.330   4.935 -0.1591 -0.1003  0.5701
 3107ntf    on519602   0.971   1.357   4.788 -0.2500 -0.3798  0.0667
 3107ntf    fn419603   1.079   1.574   4.951 -0.2987  0.0253  0.2457
 3107ntf    fn419604   0.860   1.619   4.942 -0.1946 -0.2723 -0.2943
 3107ntf    fn419605   0.951   1.531   5.104  0.6618  0.0826  0.3965
 3108ntf    cn119606   2.580   4.709   3.698 -0.4603  0.0708  0.1092
 3108ntf    sn219607   2.667   4.835   3.600 -0.0700 -0.0946  0.2410
 3108ntf    nn319608   2.575   4.960   3.630  0.6175  0.4164  0.2404
 3108ntf    sn219609   2.439   5.003   3.566  0.5380 -0.3384 -0.1130
 3108ntf    cn119610   2.498   5.136   3.458 -0.2619  0.1815  0.0814
 3108ntf    fn419611   2.607   4.584   3.666  0.7415  0.3342  0.0760
 3108ntf    fn419612   2.611   4.718   3.826 -0.2610  0.0134  0.0646
 3108ntf    fn419613   2.450   4.726   3.679 -0.4590 -0.0205  0.0195
 3108ntf    on519614   2.796   4.847   3.663 -0.0877  0.4718  0.1760
 3108ntf    on519615   2.669   4.785   3.465 -0.9425  0.0141  0.1815
 3108ntf    on519616   2.359   5.051   3.677  0.1113 -0.6325 -0.2892
 3108ntf    on519617   2.367   4.911   3.481  0.1523 -0.4463  0.3204
 3108ntf    fn419618   2.550   5.239   3.522 -1.0572  0.2746  0.5847
 3108ntf    fn419619   2.593   5.088   3.380 -0.2689  0.1398  0.0987
 3108ntf    fn419620   2.401   5.196   3.390 -0.6417 -0.6244 -0.0934
 3109ntf    cn119621   3.167   0.555   0.442 -0.1499  0.1877  0.4253
 3109ntf    sn219622   3.135   0.726   0.495 -0.0262  0.2987  0.1429
 3109ntf    nn319623   3.020   0.718   0.602 -0.0060 -0.3213  0.1214
 3109ntf    sn219624   2.868   0.741   0.572 -0.0495 -0.1589  0.4607
 3109ntf    cn119625   2.850   0.922   0.568  0.3384 -0.1322 -0.1347
 3109ntf    fn419626   3.168   0.457   0.531  0.2690 -0.3317 -0.1424
 3109ntf    fn419627   3.077   0.519   0.351  0.2892 -0.5046  0.2563
 3109ntf    fn419628   3.275   0.552   0.367 -0.0914  0.2292  0.5078
 3109ntf    on519629   3.260   0.752   0.562  0.1149  0.3010 -0.1225
 3109ntf    on519630   3.108   0.807   0.379 -0.0290 -0.0048 -0.0713
 3109ntf    on519631   2.781   0.699   0.679 -0.0915  0.2183  0.5775
 3109ntf    on519632   2.828   0.703   0.439  0.2016  0.0178  0.3321
 3109ntf    fn419633   2.825   0.960   0.692  0.2368 -0.6045 -0.0103
 3109ntf    fn419634   2.965   0.983   0.542  0.0216  0.1964 -0.7835
 3109ntf    fn419635   2.750   0.961   0.491 -0.5052 -0.2720  0.8740
 3110ntf    cn119636   1.291   3.818   5.320  0.4995  0.0781  0.2634
 3110ntf    sn219637   1.251   3.908   5.473  0.0776 -0.2347  0.3381
 3110ntf    nn319638   1.352   4.028   5.467  0.0180 -0.2115 -0.1883
 3110ntf    sn219639   1.338   4.172   5.526  0.0241 -0.3949  0.2630
 3110ntf    cn119640   1.457   4.169   5.663  0.5363  0.0784 -0.1656
 3110ntf    fn419641   1.253   3.868   5.204  0.3627 -0.2900  0.1486
 3110ntf    fn419642   1.423   3.820   5.310  0.4600  0.4679 -0.1893
 3110ntf    fn419643   1.252   3.692   5.322 -0.1154  0.2726  0.8507
 3110ntf    on519644   1.113   3.942   5.455  0.1340 -0.3343 -0.2844
 3110ntf    on519645   1.284   3.816   5.579  0.1341 -0.4498  0.1345
 3110ntf    on519646   1.212   4.213   5.583 -0.1828  0.2891 -0.6597
 3110ntf    on519647   1.399   4.262   5.432  0.6050 -0.0831  0.9255
 3110ntf    fn419648   1.486   4.286   5.717 -0.2126  0.2779 -0.1933
 3110ntf    fn419649   1.409   4.093   5.761  0.0274  0.2796 -0.2589
 3110ntf    fn419650   1.577   4.134   5.619  0.4691 -0.2838 -0.0709
 3111ntf    cn119651   3.768   1.166   3.560  0.1588  0.2212  0.0212
 3111ntf    sn219652   3.771   1.314   3.666  0.0392  0.1336  0.1471
 3111ntf    nn319653   3.736   1.247   3.804 -0.2271 -0.0198  0.0049
 3111ntf    sn219654   3.830   1.175   3.907 -0.0801  0.1016 -0.0438
 3111ntf    cn119655   3.734   1.025   3.945 -0.2385  0.2845  0.2814
 3111ntf    fn419656   3.874   1.088   3.575  0.2038  0.2499 -0.1478
 3111ntf    fn419657   3.664   1.089   3.585  0.1160  0.4812  0.6656
 3111ntf    fn419658   3.760   1.187   3.430 -1.3288 -0.4735 -0.0188
 3111ntf    on519659   3.906   1.360   3.646  0.0209 -0.1554 -0.6587
 3111ntf    on519660   3.670   1.402   3.614  0.5770  0.7695  0.1681
 3111ntf    on519661   3.837   1.254   4.027 -0.3491  0.0888 -0.0173
 3111ntf    on519662   3.955   1.120   3.860 -0.2313 -0.0766 -0.2400
 3111ntf    fn419663   3.738   0.946   3.839 -0.0289 -0.2494  0.6847
 3111ntf    fn419664   3.791   0.956   4.042  0.7053  0.5121 -0.0996
 3111ntf    fn419665   3.607   1.051   3.972 -0.4137 -0.0762 -0.1781
 3112ntf    cn119666   6.776   1.833   0.415  0.0002 -0.4016  0.4562
 3112ntf    sn219667   6.746   1.666   0.350 -0.1120 -0.0919 -0.3082
 3112ntf    nn319668   6.887   1.597   0.353 -0.1338 -0.1456 -0.5550
 3112ntf    sn219669   6.922   1.449   0.391 -0.2481 -0.0564 -0.1026
 3112ntf    cn119670   6.902   1.375   0.226 -0.2712 -0.4330  0.0666
 3112ntf    fn419671   6.675   1.913   0.387  0.4232 -0.0920 -0.2291
 3112ntf    fn419672   6.806   1.849   0.542  0.7465 -0.2902  0.2727
 3112ntf    fn419673   6.883   1.889   0.361 -0.2237 -0.0585  0.3650
 3112ntf    on519674   6.655   1.616   0.451 -0.1286  0.4175 -0.0710
 3112ntf    on519675   6.690   1.684   0.219 -0.1186 -0.4835 -0.3617
 3112ntf    on519676   6.818   1.385   0.467 -0.2528  0.2355  0.1409
 3112ntf    on519677   7.062   1.430   0.423 -0.0536  0.1159 -0.8258
 3112ntf    fn419678   6.775   1.364   0.193 -0.1870  0.3350 -0.5445
 3112ntf    fn419679   6.951   1.447   0.127 -0.1948 -0.0229  0.3972
 3112ntf    fn419680   6.959   1.257   0.214  0.0517 -0.3090  0.3454
 3113ntf    cn119681   2.475   0.908   1.334  0.1500  0.1143  0.1793
 3113ntf    sn219682   2.501   0.969   1.503  0.2777  0.0556  0.1809
 3113ntf    nn319683   2.495   0.835   1.585 -0.0085  0.2278  0.4442
 3113ntf    sn219684   2.390   0.719   1.579  0.2935 -0.0334  0.1275
 3113ntf    cn119685   2.327   0.727   1.750  0.0713  0.3996  0.0273
 3113ntf    fn419686   2.539   0.794   1.317  0.2327  0.0725  0.7592
 3113ntf    fn419687   2.348   0.885   1.305  0.2456 -0.2541  0.0489
 3113ntf    fn419688   2.522   0.987   1.238  0.3444 -0.1155  0.0830
 3113ntf    on519689   2.633   1.026   1.488  0.4092 -0.2270  0.2587
 3113ntf    on519690   2.387   1.056   1.516  0.2093  0.0025 -0.0644
 3113ntf    on519691   2.461   0.594   1.570 -0.1476 -0.2242 -0.7706
 3113ntf    on519692   2.276   0.733   1.491  0.0699 -0.0612  0.4102
 3113ntf    fn419693   2.236   0.634   1.774  0.5374 -0.0838 -0.0621
 3113ntf    fn419694   2.415   0.687   1.840 -0.1166  0.2009  0.1256
 3113ntf    fn419695   2.276   0.842   1.790 -0.1472  0.2132  0.2897
 3114ntf    cn119696   0.637   4.660   2.714 -0.6773 -0.0637  0.1576
 3114ntf    sn219697   0.483   4.748   2.756 -0.3358  0.4481  0.3515
 3114ntf    nn319698   0.434   4.662   2.878 -0.1504 -0.0612  0.0720
 3114ntf    sn219699   0.353   4.528   2.889 -0.1345 -0.0892 -0.1431
 3114ntf    cn119700   0.192   4.607   2.915 -0.0611 -0.0436  0.1784
 3114ntf    fn419701   0.707   4.632   2.823 -0.1436  0.5349 -0.0204
 3114ntf    fn419702   0.613   4.548   2.648  0.2681  0.0249 -0.3610
 3114ntf    fn419703   0.715   4.736   2.639 -0.6665 -0.2436 -0.0151
 3114ntf    on519704   0.523   4.880   2.797  0.0594  0.3408  0.3203
 3114ntf    on519705   0.413   4.738   2.630 -0.0872 -0.5206  0.2796
 3114ntf    on519706   0.381   4.458   3.012  0.5714 -0.4000 -0.4724
 3114ntf    on519707   0.344   4.454   2.766 -0.2211 -0.1729 -0.0866
 3114ntf    fn419708   0.194   4.690   3.019  0.1821 -0.1828  0.2858
 3114ntf    fn419709   0.162   4.690   2.816  0.1139 -0.9372 -0.6379
 3114ntf    fn419710   0.086   4.528   2.925  0.2499 -0.5165 -0.2033
 3115ntf    cn119711   2.752   6.018   2.142 -0.1351 -0.0190  0.0251
 3115ntf    sn219712   2.855   5.954   2.006 -0.1805  0.2312 -0.1275
 3115ntf    nn319713   2.855   6.075   1.906  0.0241  0.2016 -0.1635
 3115ntf    sn219714   2.962   6.098   1.794  0.5510  0.0891  0.3115
 3115ntf    cn119715   2.878   6.017   1.654  0.8364 -0.0085  0.1958
 3115ntf    fn419716   2.737   5.925   2.235 -0.1608  0.1112  0.1501
 3115ntf    fn419717   2.808   6.117   2.209 -0.0120 -0.4461  0.5607
 3115ntf    fn419718   2.632   6.057   2.103 -0.2085 -0.3110 -0.0439
 3115ntf    on519719   2.981   5.929   2.071 -0.4052  0.5657  0.4443
 3115ntf    on519720   2.778   5.839   1.963  0.4357 -0.3132  0.2163
 3115ntf    on519721   3.085   6.023   1.805  0.2484 -0.4768 -0.0936
 3115ntf    on519722   2.977   6.237   1.757  0.4177 -0.1738 -0.7640
 3115ntf    fn419723   2.848   5.892   1.686  0.2557  0.1512  0.2785
 3115ntf    fn419724   2.763   6.068   1.613  0.2379 -0.5603  1.1464
 3115ntf    fn419725   2.960   6.006   1.551 -0.1397 -0.0608 -0.5893
 3116ntf    cn119726   2.498   0.569   6.094 -0.1686  0.2160 -0.2863
 3116ntf    sn219727   2.339   0.595   6.178  0.0797  0.1074  0.2204
 3116ntf    nn319728   2.249   0.650   6.062  0.0009  0.3446  0.3910
 3116ntf    sn219729   2.094   0.636   6.043  0.0770 -0.3104  0.2235
 3116ntf    cn119730   2.072   0.476   5.960 -0.0559 -0.1598 -0.0328
 3116ntf    fn419731   2.536   0.678   6.031  0.2842  0.4944  0.4603
 3116ntf    fn419732   2.597   0.533   6.174 -0.2576  0.1073 -0.2236
 3116ntf    fn419733   2.490   0.467   6.009  0.2947  0.1517 -0.2540
 3116ntf    on519734   2.309   0.459   6.215  0.0534 -0.0520 -0.3827
 3116ntf    on519735   2.362   0.687   6.288 -0.3429  0.5538 -0.0583
 3116ntf    on519736   2.045   0.723   5.939  0.4558 -0.4146 -0.0434
 3116ntf    on519737   2.013   0.626   6.162 -0.2905 -0.5237 -0.0419
 3116ntf    fn419738   2.147   0.375   6.001 -0.2306 -0.2512  0.0631
 3116ntf    fn419739   1.944   0.443   5.961 -0.0125 -0.3271  0.0563
 3116ntf    fn419740   2.109   0.482   5.833 -0.7676 -0.6493 -0.2702
 3117ntf    cn119741   0.169   5.667   0.936  0.0546 -0.1234 -0.0664
 3117ntf    sn219742   0.008   5.740   0.894  0.1129 -0.0708 -0.1976
 3117ntf    nn319743   0.024   5.739   0.738  0.7544 -0.0250 -0.1357
 3117ntf    sn219744  -0.042   5.643   0.633 -0.0507  0.3901 -0.0201
 3117ntf    cn119745  -0.055   5.760   0.494 -0.5036  0.2117 -0.1294
 3117ntf    fn419746   0.169   5.650   1.067 -0.4090 -0.0531 -0.0564
 3117ntf    fn419747   0.197   5.549   0.883 -0.5300 -0.3362  0.0893
 3117ntf    fn419748   0.272   5.747   0.910  0.1201 -0.2962 -0.3432
 3117ntf    on519749  -0.096   5.653   0.942  0.6084 -0.3996  0.2884
 3117ntf    on519750   0.013   5.872   0.952 -0.1840  0.0632 -0.4738
 3117ntf    on519751  -0.179   5.603   0.653 -0.0759  0.3935 -0.1831
 3117ntf    on519752   0.046   5.541   0.581 -0.0584  0.1343  0.4667
 3117ntf    fn419753  -0.149   5.852   0.514 -0.6526  0.0178  0.0779
 3117ntf    fn419754   0.059   5.818   0.461 -0.3620  0.3029  0.4889
 3117ntf    fn419755  -0.094   5.703   0.382 -0.5426  0.6677 -0.3509
 3118ntf    cn119756   4.806   0.861   5.501 -0.2749  0.2357  0.2666
 3118ntf    sn219757   4.764   0.959   5.355  0.2221 -0.0496 -0.0682
 3118ntf    nn319758   4.634   0.889   5.303 -0.0232  0.0351  0.4377
 3118ntf    sn219759   4.628   0.807   5.170  0.0757  0.1610  0.3569
 3118ntf    cn119760   4.487   0.891   5.092  0.2156  0.1653  0.1038
 3118ntf    fn419761   4.776   0.734   5.479  0.5964  0.0082  0.3574
 3118ntf    fn419762   4.935   0.871   5.526 -0.2616  0.2735  0.1827
 3118ntf    fn419763   4.744   0.891   5.614  0.4522  0.1645  0.6922
 3118ntf    on519764   4.733   1.089   5.409 -0.1619 -0.0491 -0.2845
 3118ntf    on519765   4.884   0.943   5.275  0.5620  0.6018  0.2988
 3118ntf    on519766   4.573   0.675   5.183  0.2023  0.0462 -0.2152
 3118ntf    on519767   4.720   0.826   5.060  0.7600  0.0736  0.9055
 3118ntf    fn419768   4.376   0.878   5.163  0.0374  0.1927 -0.1677
 3118ntf    fn419769   4.517   1.020   5.088  0.1226  0.1664 -0.5442
 3118ntf    fn419770   4.449   0.848   4.973 -0.2011  0.1196  0.2500
 3119ntf    cn119771   5.221   5.187   6.868  0.1544  0.1155 -0.1409
 3119ntf    sn219772   5.373   5.087   6.869  0.0550 -0.0353 -0.1617
 3119ntf    nn319773   5.463   5.148   6.756  0.1080  0.0657 -0.0654
 3119ntf    sn219774   5.592   5.237   6.769  0.0827  0.0753  0.1231
 3119ntf    cn119775   5.703   5.116   6.846  0.4701  0.2661 -0.1358
 3119ntf    fn419776   5.149   5.169   6.758 -0.3068  0.2572  0.1379
 3119ntf    fn419777   5.140   5.154   6.966 -0.1018 -0.5500 -0.5689
 3119ntf    fn419778   5.242   5.317   6.880  0.0819  0.1567 -0.4330
 3119ntf    on519779   5.419   5.119   7.002  0.2923 -0.0064 -0.2503
 3119ntf    on519780   5.315   4.958   6.838  0.4236 -0.3159  0.2974
 3119ntf    on519781   5.558   5.351   6.851  0.1782  0.6780 -0.6657
 3119ntf    on519782   5.647   5.266   6.639 -0.5166 -0.6663 -0.3050
 3119ntf    fn419783   5.669   5.083   6.969  0.6506 -0.3571 -0.2494
 3119ntf    fn419784   5.710   5.002   6.778 -0.0962 -0.0374  0.3021
 3119ntf    fn419785   5.823   5.170   6.862  0.2809  0.5069  0.4658
 3120ntf    cn119786   5.673   4.621   0.403  0.1614  0.2999  0.0549
 3120ntf    sn219787   5.770   4.552   0.540  0.2305 -0.0700 -0.1803
 3120ntf    nn319788   5.664   4.453   0.602 -0.3515  0.9061  0.4136
 3120ntf    sn219789   5.617   4.439   0.751 -0.0219  0.2628  0.4597
 3120ntf    cn119790   5.768   4.369   0.825 -0.1196 -0.1854  0.2410
 3120ntf    fn419791   5.553   4.656   0.448 -0.0870  0.0118 -0.3796
 3120ntf    fn419792   5.727   4.726   0.343 -0.1807  0.3082 -0.2422
 3120ntf    fn419793   5.647   4.526   0.316  0.5908 -0.1425  0.4066
 3120ntf    on519794   5.882   4.494   0.470  0.4047  0.1228 -0.0633
 3120ntf    on519795   5.796   4.666   0.624 -0.5147 -0.0218 -0.0099
 3120ntf    on519796   5.521   4.335   0.779  0.6920 -0.5302  0.0173
 3120ntf    on519797   5.593   4.561   0.824 -0.2116  0.2450  0.4265
 3120ntf    fn419798   5.825   4.447   0.915 -0.2015  0.1626 -0.0064
 3120ntf    fn419799   5.735   4.255   0.883 -0.2444 -0.1073  0.3233
 3120ntf    fn419800   5.856   4.344   0.729 -0.6468  0.2635 -0.3763
 3121ntf    cn119801   6.276   0.783   4.980  0.1048 -0.2560 -0.1740
 3121ntf    sn219802   6.372   0.930   5.028 -0.2250 -0.0163 -0.2406
 3121ntf    nn319803   6.463   0.882   5.146 -0.1671  0.3984 -0.1146
 3121ntf    sn219804   6.608   0.820   5.144 -0.2818  0.1387 -0.4255
 3121ntf    cn119805   6.696   0.979   5.141 -0.0607  0.0248  0.0179
 3121ntf    fn419806   6.171   0.816   4.905 -0.0158  0.2302  0.2074
 3121ntf    fn419807   6.345   0.696   4.908 -0.2349 -0.0262 -0.7903
 3121ntf    fn419808   6.233   0.720   5.087  0.4515 -0.1065  0.0539
 3121ntf    on519809   6.437   0.980   4.910 -0.0430  0.6464  0.1315
 3121ntf    on519810   6.270   1.013   5.087  0.7331  0.6495  0.5113
 3121ntf    on519811   6.627   0.754   5.017  0.1738  0.0103 -0.2915
 3121ntf    on519812   6.648   0.761   5.269 -0.2656  0.7004 -0.1634
 3121ntf    fn419813   6.651   1.067   5.053 -0.4067 -0.3571 -0.1879
 3121ntf    fn419814   6.687   1.039   5.259 -0.1956  0.8241 -0.3926
 3121ntf    fn419815   6.825   0.966   5.119 -0.0576 -0.0774  0.0969
 3122ntf    cn119816   0.553   5.380   6.953  0.2781  0.1704 -0.0890
 3122ntf    sn219817   0.734   5.392   6.955  0.2696  0.2970 -0.0655
 3122ntf    nn319818   0.753   5.518   7.047  0.0288  0.1143  0.2359
 3122ntf    sn219819   0.823   5.655   7.016 -0.1492  0.1952  0.1925
 3122ntf    cn119820   0.999   5.630   7.054 -0.0305  0.3854 -0.2248
 3122ntf    fn419821   0.495   5.482   6.891 -0.1453 -0.2617 -0.4042
 3122ntf    fn419822   0.494   5.279   6.893  0.4589 -0.0797  0.1533
 3122ntf    fn419823   0.493   5.382   7.071  0.3898  0.2672 -0.0340
 3122ntf    on519824   0.772   5.272   7.025  0.0968  0.1707 -0.1868
 3122ntf    on519825   0.762   5.403   6.814  0.0908  0.4707 -0.0888
 3122ntf    on519826   0.780   5.746   7.119  0.3636  0.5570  0.0915
 3122ntf    on519827   0.812   5.702   6.880  0.0081  0.1581  0.1671
 3122ntf    fn419828   1.079   5.708   6.983  0.0514 -0.0292 -0.5971
 3122ntf    fn419829   1.031   5.640   7.182 -0.1804  0.4177 -0.1899
 3122ntf    fn419830   1.034   5.513   7.002 -0.2855  0.2947 -0.1953
 3123ntf    cn119831   5.616   2.348   4.506  0.1341  0.1767 -0.1049
 3123ntf    sn219832   5.635   2.380   4.684  0.2583 -0.3569 -0.0208
 3123ntf    nn319833   5.705   2.520   4.680 -0.2153 -0.0945  0.7926
 3123ntf    sn219834   5.663   2.663   4.729 -0.2241  0.1284  0.1455
 3123ntf    cn119835   5.605   2.743   4.576 -0.1496  0.6207  0.3729
 3123ntf    fn419836   5.536   2.245   4.481  0.5276  0.0191 -0.7467
 3123ntf    fn419837   5.572   2.450   4.434 -0.1681  0.2441  0.1753
 3123ntf    fn419838   5.734   2.318   4.455  0.2010  0.1479  0.0669
 3123ntf    on519839   5.498   2.379   4.728  0.0760  0.3755 -0.5539
 3123ntf    on519840   5.722   2.272   4.722 -0.0268 -0.4013  0.5117
 3123ntf    on519841   5.782   2.735   4.765 -0.1760  0.1633 -0.0818
 3123ntf    on519842   5.545   2.674   4.812 -0.1633  0.5111  0.1820
 3123ntf    fn419843   5.513   2.833   4.610 -0.0206  1.0893 -0.5040
 3123ntf    fn419844   5.698   2.811   4.511 -0.4625  0.8422  0.1505
 3123ntf    fn419845   5.550   2.656   4.493  0.3751  0.9259 -0.3023
 3124ntf    cn119846   2.803   0.786   4.304  0.0142  0.3137  0.6083
 3124ntf    sn219847   2.775   0.953   4.238  0.2539  0.2222  0.2742
 3124ntf    nn319848   2.739   0.925   4.088  0.4011  0.3711  0.2110
 3124ntf    sn219849   2.835   0.890   3.969 -0.0812 -0.0994 -0.0470
 3124ntf    cn119850   2.763   0.726   3.940  0.1462 -0.3216  0.6464
 3124ntf    fn419851   2.848   0.785   4.428  0.3395 -1.2101  0.4961
 3124ntf    fn419852   2.694   0.710   4.305 -0.0376  0.3851  0.4309
 3124ntf    fn419853   2.891   0.716   4.235 -0.9445 -0.0736 -0.2629
 3124ntf    on519854   2.660   1.005   4.307  0.2044  0.7494 -0.1994
 3124ntf    on519855   2.899   1.022   4.268  0.4512 -0.2181  0.4859
 3124ntf    on519856   2.969   0.855   4.010 -0.0401  0.6331  0.4622
 3124ntf    on519857   2.820   0.964   3.845  0.2434  0.8514  0.4677
 3124ntf    fn419858   2.802   0.675   3.825 -0.6467  0.6548 -0.0700
 3124ntf    fn419859   2.796   0.635   4.031  0.1277 -0.5236  0.4518
 3124ntf    fn419860   2.632   0.741   3.947  0.1046 -0.1556 -0.4248
 3125ntf    cn119861   2.240   6.292   3.837  0.1369  0.0098 -0.3424
 3125ntf    sn219862   2.222   6.155   3.956  0.0347  0.1803 -0.1605
 3125ntf    nn319863   2.354   6.171   4.040  0.2073  0.3222 -0.4569
 3125ntf    sn219864   2.415   6.059   4.131 -0.0417  0.5063 -0.0598
 3125ntf    cn119865   2.513   5.960   4.013 -0.5283 -0.5739  0.4261
 3125ntf    fn419866   2.357   6.288   3.775  0.0645 -0.0934 -0.4706
 3125ntf    fn419867   2.154   6.285   3.738 -0.6456 -0.5506  0.3618
 3125ntf    fn419868   2.232   6.410   3.896 -0.4018 -0.3014  0.2216
 3125ntf    on519869   2.104   6.183   4.033 -0.1618 -0.7684 -0.1154
 3125ntf    on519870   2.217   6.040   3.870 -0.1691 -0.1928  0.3497
 3125ntf    on519871   2.311   5.970   4.177  0.0387  0.3181 -0.2344
 3125ntf    on519872   2.516   6.111   4.220 -0.0696 -0.1986  0.3958
 3125ntf    fn419873   2.616   5.893   4.062 -0.0360 -0.2504 -0.1591
 3125ntf    fn419874   2.438   5.870   3.952 -0.3852 -0.0621 -0.5183
 3125ntf    fn419875   2.563   6.037   3.918 -0.0676 -0.3115  0.8803
 3126ntf    cn119876   1.406   1.975   0.352  0.0058 -0.1109  0.5380
 3126ntf    sn219877   1.335   1.960   0.519 -0.3270 -0.1916  0.3907
 3126ntf    nn319878   1.207   2.049   0.503 -0.3305 -0.3622 -0.6421
 3126ntf    sn219879   1.058   2.001   0.486 -0.3942 -0.3652 -0.1059
 3126ntf    cn119880   0.976   2.144   0.563 -0.0922 -0.1414 -0.1950
 3126ntf    fn419881   1.412   2.097   0.300 -0.2979 -0.0843  0.5630
 3126ntf    fn419882   1.524   1.922   0.327 -0.0412  0.1472 -0.2676
 3126ntf    fn419883   1.322   1.928   0.261  0.1379  0.2383  0.2354
 3126ntf    on519884   1.324   1.816   0.529  0.1601 -0.2583  0.0416
 3126ntf    on519885   1.437   2.024   0.598 -0.2319 -0.3466  0.3944
 3126ntf    on519886   1.015   1.892   0.570  0.3822 -0.4610  0.1740
 3126ntf    on519887   1.003   2.014   0.354 -0.3575  0.0416 -0.0828
 3126ntf    fn419888   0.987   2.158   0.694 -0.4877  0.2251 -0.1976
 3126ntf    fn419889   1.015   2.260   0.512  0.1358 -0.2016 -0.1574
 3126ntf    fn419890   0.847   2.134   0.536 -0.1817  0.3166  0.0482
 3127ntf    cn119891   2.100   1.401   0.816 -0.1656  0.2013 -0.7947
 3127ntf    sn219892   2.201   1.518   0.720  0.4971  0.0108 -0.3381
 3127ntf    nn319893   2.326   1.427   0.693  0.1620 -0.6709  0.3465
 3127ntf    sn219894   2.475   1.455   0.735  0.0933  0.1390  0.0830
 3127ntf    cn119895   2.541   1.287   0.758  0.2985  0.2049 -0.0235
 3127ntf    fn419896   2.175   1.352   0.913 -1.3139 -0.1209 -0.0422
 3127ntf    fn419897   1.992   1.455   0.871 -0.1764 -0.1342 -0.4852
 3127ntf    fn419898   2.060   1.294   0.749 -0.2365  0.1006 -0.5927
 3127ntf    on519899   2.109   1.541   0.611 -0.1187  0.4456  0.2682
 3127ntf    on519900   2.217   1.632   0.805  0.4487 -0.3053  0.0965
 3127ntf    on519901   2.488   1.515   0.865 -0.4862 -0.6578  0.5228
 3127ntf    on519902   2.546   1.515   0.624 -0.0661  0.0770 -0.0531
 3127ntf    fn419903   2.515   1.208   0.655 -0.0268  0.2824 -0.0003
 3127ntf    fn419904   2.666   1.279   0.801 -0.0727 -0.2565  1.0052
 3127ntf    fn419905   2.476   1.229   0.858 -0.0476  0.3786 -0.1470
 3128ntf    cn119906   5.444   0.261   0.562 -0.0453  0.1808  0.1163
 3128ntf    sn219907   5.484   0.386   0.436 -0.1598  0.0210 -0.0793
 3128ntf    nn319908   5.387   0.503   0.477 -0.1872  0.0287 -0.1650
 3128ntf    sn219909   5.392   0.659   0.460 -0.4729  0.1073  0.4208
 3128ntf    cn119910   5.227   0.718   0.412 -0.4374 -0.2007 -0.0851
 3128ntf    fn419911   5.527   0.158   0.564 -0.5671 -0.2498 -0.0635
 3128ntf    fn419912   5.452   0.311   0.684  0.0118  0.0037  0.1849
 3128ntf    fn419913   5.319   0.224   0.540  0.2315 -0.3244 -0.6771
 3128ntf    on519914   5.625   0.400   0.463 -0.2505 -0.0004  0.4159
 3128ntf    on519915   5.450   0.316   0.314  0.1623 -0.3133  0.0229
 3128ntf    on519916   5.476   0.696   0.348 -0.2114 -0.6993  0.3393
 3128ntf    on519917   5.417   0.730   0.583  0.4019  0.0105  0.3052
 3128ntf    fn419918   5.135   0.691   0.503 -0.3214 -0.2709  0.0121
 3128ntf    fn419919   5.227   0.849   0.396 -0.0847 -0.1350  0.4317
 3128ntf    fn419920   5.186   0.657   0.302 -0.1355  0.2418 -0.4468
 3129ntf    cn119921   4.413   6.561   3.372  0.5715  0.2397 -0.3129
 3129ntf    sn219922   4.260   6.534   3.465  0.8039  0.2298  0.0698
 3129ntf    nn319923   4.157   6.562   3.350  0.5493 -0.3850  0.1428
 3129ntf    sn219924   4.069   6.464   3.264  0.3447 -0.0444 -0.0344
 3129ntf    cn119925   4.044   6.561   3.112 -0.0731 -0.0281  0.0422
 3129ntf    fn419926   4.518   6.552   3.452  0.1565  0.0938  0.2224
 3129ntf    fn419927   4.429   6.467   3.281  0.1679 -0.3131  0.1838
 3129ntf    fn419928   4.411   6.676   3.306 -0.7399  0.3823 -0.0513
 3129ntf    on519929   4.266   6.398   3.513 -0.2187  0.4113  0.7494
 3129ntf    on519930   4.258   6.641   3.562  0.2385 -0.0507  0.3778
 3129ntf    on519931   3.939   6.444   3.324  0.3739  0.2562  0.1366
 3129ntf    on519932   4.141   6.349   3.216  0.5978 -0.0624  0.3851
 3129ntf    fn419933   4.159   6.606   3.064 -0.4907  0.4084 -0.5664
 3129ntf    fn419934   4.000   6.494   3.007  0.5419 -0.4768  0.0650
 3129ntf    fn419935   3.971   6.668   3.134 -0.0347  0.0481 -0.1936
 3130ntf    cn119936   0.376   2.909   7.059  0.1498 -0.0341  0.1076
 3130ntf    sn219937   0.357   2.970   6.889  0.4283 -0.2812 -0.0125
 3130ntf    nn319938   0.286   2.847   6.823  0.0828 -0.1668  0.1461
 3130ntf    sn219939   0.352   2.714   6.772  0.0295 -0.1119 -0.0684
 3130ntf    cn119940   0.269   2.589   6.874 -0.2999 -0.0974 -0.3180
 3130ntf    fn419941   0.447   2.992   7.133  0.3316  0.0724 -0.1865
 3130ntf    fn419942   0.260   2.893   7.120 -0.0230  0.2984 -0.1305
 3130ntf    fn419943   0.435   2.790   7.064 -0.1892 -0.1812  0.6783
 3130ntf    on519944   0.267   3.082   6.893 -0.0479 -0.6777  0.4005
 3130ntf    on519945   0.496   2.997   6.859  0.2980  0.5542  0.1132
 3130ntf    on519946   0.487   2.689   6.817 -0.0467  0.0772  0.2669
 3130ntf    on519947   0.301   2.672   6.644 -0.1668  0.0290 -0.0368
 3130ntf    fn419948   0.291   2.463   6.841 -0.5230 -0.3280  0.3924
 3130ntf    fn419949   0.301   2.598   7.002 -0.1760  0.0852 -0.3617
 3130ntf    fn419950   0.137   2.600   6.870 -0.2769  0.3599  0.0479
 3131ntf    cn119951   0.930   4.556   6.520 -0.1654 -0.1601  0.2282
 3131ntf    sn219952   0.999   4.716   6.469 -0.0445 -0.2234  0.1922
 3131ntf    nn319953   0.976   4.788   6.607 -0.1246  0.1650 -0.0238
 3131ntf    sn219954   1.082   4.840   6.710  0.0270  0.3268 -0.2600
 3131ntf    cn119955   1.033   5.016   6.710  0.2624  0.3919 -0.2109
 3131ntf    fn419956   0.943   4.558   6.651  0.8831  0.5333  0.1260
 3131ntf    fn419957   0.798   4.545   6.513 -0.1723  0.0301  0.0270
 3131ntf    fn419958   0.990   4.449   6.469 -0.4071  0.1403 -0.7084
 3131ntf    on519959   1.132   4.675   6.430  0.0693  0.1084  0.2234
 3131ntf    on519960   0.905   4.757   6.368  0.2127  0.7302  0.3230
 3131ntf    on519961   1.222   4.845   6.676  0.1854 -1.0671  0.1266
 3131ntf    on519962   1.049   4.806   6.846  0.0080  0.0958 -0.3222
 3131ntf    fn419963   1.002   5.061   6.590 -0.1129 -0.1048 -0.3022
 3131ntf    fn419964   0.931   5.038   6.790  0.1179 -0.6418 -0.0958
 3131ntf    fn419965   1.129   5.088   6.766  0.4972  0.0532 -0.1651
 3132ntf    cn119966   4.027   2.792   2.823  0.6278  0.2022  0.0895
 3132ntf    sn219967   3.851   2.745   2.824  0.5542  0.4831  0.2283
 3132ntf    nn319968   3.869   2.609   2.747 -0.2607  0.4445  0.0950
 3132ntf    sn219969   3.796   2.546   2.624  0.1765 -0.3126  0.2149
 3132ntf    cn119970   3.861   2.377   2.629  0.5280 -0.1954 -0.2679
 3132ntf    fn419971   4.072   2.792   2.698  0.4056  0.5365  0.0082
 3132ntf    fn419972   4.039   2.910   2.881 -0.1130 -0.1570  0.9906
 3132ntf    fn419973   4.097   2.713   2.903  0.0173  0.0021  0.4309
 3132ntf    on519974   3.813   2.723   2.961  0.0443 -0.2887 -0.0352
 3132ntf    on519975   3.780   2.847   2.750 -0.0509  0.2791  0.5232
 3132ntf    on519976   3.851   2.602   2.503  0.0734 -0.4795  0.0912
 3132ntf    on519977   3.658   2.515   2.653  0.1151  0.0020  0.2641
 3132ntf    fn419978   3.817   2.317   2.739  0.0752  0.3577 -0.1437
 3132ntf    fn419979   3.828   2.313   2.518  0.0779 -0.0894 -0.1980
 3132ntf    fn419980   3.993   2.377   2.625  0.5171 -0.2658 -0.5899
 3133ntf    cn119981   4.348   1.265   6.759 -0.1834  0.5223 -0.1328
 3133ntf    sn219982   4.283   1.303   6.594 -0.3618  0.1646 -0.1465
 3133ntf    nn319983   4.256   1.457   6.598 -0.3250  0.1846 -0.6151
 3133ntf    sn219984   4.129   1.523   6.662 -0.1526 -0.0073 -0.0730
 3133ntf    cn119985   4.136   1.688   6.586  0.2399 -0.2111 -0.4808
 3133ntf    fn419986   4.448   1.345   6.791  0.3126 -0.4976  0.9363
 3133ntf    fn419987   4.261   1.277   6.858 -0.4763  0.5192 -0.3875
 3133ntf    fn419988   4.391   1.140   6.770  0.6296  0.8279  0.2347
 3133ntf    on519989   4.397   1.278   6.509 -0.4955  0.5075 -0.4275
 3133ntf    on519990   4.171   1.214   6.577  0.1911 -0.5303 -0.2162
 3133ntf    on519991   4.141   1.537   6.805  0.1543  0.6544 -0.1623
 3133ntf    on519992   4.007   1.461   6.617 -0.2530  0.2416 -0.1446
 3133ntf    fn419993   4.100   1.687   6.458 -0.6792 -0.4468 -0.2287
 3133ntf    fn419994   4.061   1.782   6.640  0.0694 -0.4167 -0.3567
 3133ntf    fn419995   4.258   1.740   6.594  0.0760  0.1027  0.0021
 3134ntf    cn119996   5.785   1.794   5.592 -0.0726 -0.1863  0.0855
 3134ntf    sn219997   5.730   1.765   5.421  0.1053  0.0029 -0.0050
 3134ntf    nn319998   5.814   1.871   5.343 -0.6093  0.4613 -0.1656
 3134ntf    sn219999   5.965   1.858   5.299 -0.5299  0.0673  0.2202
 3134ntf    cn120000   6.029   2.027   5.310 -0.2091 -0.0240 -0.2071
 3134ntf    fn420001   5.769   1.682   5.660  0.2848 -0.3775 -0.1407
 3134ntf    fn420002   5.912   1.831   5.597  0.0246 -0.4035 -0.6062
 3134ntf    fn420003   5.712   1.894   5.639 -0.2601 -0.0803 -0.4209
 3134ntf    on520004   5.773   1.630   5.392  0.1670  0.0443 -0.1045
 3134ntf    on520005   5.589   1.794   5.436  0.1277  0.1638 -0.1051
 3134ntf    on520006   5.988   1.823   5.161  0.4389  0.8167  0.1847
 3134ntf    on520007   6.039   1.790   5.402 -0.1518 -0.4005 -0.3544
 3134ntf    fn420008   5.973   2.110   5.224 -0.2634 -0.2658 -0.4028
 3134ntf    fn420009   6.014   2.079   5.431 -0.4384  0.4531 -0.4386
 3134ntf    fn420010   6.157   2.033   5.277 -0.1957  0.1932 -0.1181
 3135ntf    cn120011   3.071   3.697   2.708  0.0633 -0.5842 -0.0164
 3135ntf    sn220012   3.058   3.535   2.790 -0.0152 -0.4425  0.2532
 3135ntf    nn320013   3.047   3.431   2.673 -0.3218  0.1424 -0.2493
 3135ntf    sn220014   2.926   3.337   2.640 -0.0515 -0.3787  0.2144
 3135ntf    cn120015   2.927   3.348   2.459  0.5392  0.0547  0.2413
 3135ntf    fn420016   3.116   3.793   2.788  0.0109 -0.4958 -0.0920
 3135ntf    fn420017   3.158   3.706   2.608  0.0753 -0.1415  0.0302
 3135ntf    fn420018   2.950   3.733   2.670  0.4511  0.9691  0.1492
 3135ntf    on520019   3.182   3.536   2.864  0.0179 -0.5154  0.1978
 3135ntf    on520020   2.936   3.563   2.860 -0.2534  0.1095 -0.3642
 3135ntf    on520021   2.796   3.387   2.677  0.0044 -0.1843  0.1490
 3135ntf    on520022   2.951   3.197   2.666  0.6261 -0.2103  0.4852
 3135ntf    fn420023   2.931   3.477   2.426 -0.3204 -0.0764 -0.4051
 3135ntf    fn420024   3.031   3.295   2.397  0.4603 -0.1587  0.2925
 3135ntf    fn420025   2.814   3.305   2.404  0.2848  0.1281  0.7012
 3136ntf    cn120026   1.171   5.236   0.042 -0.1699  0.1870 -0.0208
 3136ntf    sn220027   1.275   5.122   0.138 -0.2931  0.0960  0.0035
 3136ntf    nn320028   1.302   5.209   0.266  0.2502  0.1277 -0.1309
 3136ntf    sn220029   1.215   5.232   0.395  0.3780 -0.0810 -0.0057
 3136ntf    cn120030   1.281   5.088   0.484  0.1360 -0.2566 -0.1090
 3136ntf    fn420031   1.051   5.253   0.094 -0.1866  0.5992 -0.1847
 3136ntf    fn420032   1.222   5.358   0.029  0.0088  0.0936 -0.2098
 3136ntf    fn420033   1.136   5.194  -0.079 -0.2094 -0.0826  0.0865
 3136ntf    on520034   1.194   5.005   0.158 -0.0932 -0.0722 -0.1684
 3136ntf    on520035   1.398   5.109   0.065 -0.4857 -0.6360 -0.1992
 3136ntf    on520036   1.075   5.199   0.396  0.2208  0.5476 -0.4633
 3136ntf    on520037   1.248   5.345   0.478  0.3285  0.4013 -0.6394
 3136ntf    fn420038   1.204   5.066   0.589 -0.1789 -0.5131 -0.3899
 3136ntf    fn420039   1.288   4.975   0.415  0.4589 -0.6899  0.6169
 3136ntf    fn420040   1.398   5.117   0.539 -0.0504 -0.0450  0.1751
 3137ntf    cn120041   0.004   3.301   6.086  0.2131  0.0567 -0.1796
 3137ntf    sn220042  -0.098   3.376   6.217  0.0628 -0.5441  0.0566
 3137ntf    nn320043  -0.066   3.530   6.210 -0.0555 -0.4990  0.5330
 3137ntf    sn220044  -0.098   3.648   6.309 -0.0758 -0.1489  0.1130
 3137ntf    cn120045   0.067   3.692   6.371 -0.3673  0.6268  0.3440
 3137ntf    fn420046   0.129   3.339   6.109  0.0476  0.4856  0.0055
 3137ntf    fn420047  -0.006   3.169   6.089  0.1465  0.0588 -0.3421
 3137ntf    fn420048  -0.039   3.344   5.969  0.2552 -0.2564 -0.3127
 3137ntf    on520049  -0.228   3.340   6.168 -0.1831  0.4076 -0.0167
 3137ntf    on520050  -0.048   3.314   6.336 -0.1762 -0.5424  0.1576
 3137ntf    on520051  -0.177   3.628   6.428 -0.4263 -0.3847 -0.1573
 3137ntf    on520052  -0.133   3.765   6.234 -0.9971 -0.4442  0.0765
 3137ntf    fn420053   0.137   3.586   6.406 -0.1083  0.6370 -0.1298
 3137ntf    fn420054   0.146   3.751   6.282 -0.8721 -0.0947 -0.5940
 3137ntf    fn420055   0.050   3.774   6.474 -0.1460 -0.2986  1.1256
 3138ntf    cn120056   4.495   2.161   1.667 -0.1263 -0.2293  0.1463
 3138ntf    sn220057   4.323   2.213   1.637 -0.1007 -0.4864 -0.4683
 3138ntf    nn320058   4.286   2.264   1.781 -0.2304 -0.4133 -0.5268
 3138ntf    sn220059   4.139   2.301   1.821 -0.0379 -0.3655  0.1609
 3138ntf    cn120060   4.083   2.141   1.885 -0.3293 -0.1738  0.3895
 3138ntf    fn420061   4.571   2.262   1.707 -0.0090 -0.1173 -0.3437
 3138ntf    fn420062   4.513   2.066   1.757  0.1070 -0.6938 -0.3846
 3138ntf    fn420063   4.544   2.112   1.554  0.0306  0.1339  0.0565
 3138ntf    on520064   4.345   2.323   1.548 -0.0593 -0.3965 -0.3465
 3138ntf    on520065   4.265   2.089   1.590  0.0351 -0.7602  0.0679
 3138ntf    on520066   4.051   2.318   1.708  0.0427 -0.1938  0.1225
 3138ntf    on520067   4.116   2.395   1.928 -0.0757 -0.4441  0.2217
 3138ntf    fn420068   4.093   2.040   1.800  0.3546  0.2408 -0.0308
 3138ntf    fn420069   4.165   2.108   1.984  0.4045 -0.2525 -0.2359
 3138ntf    fn420070   3.960   2.135   1.932 -0.5052 -0.7363 -0.1277
 3139ntf    cn120071   2.077   7.095   1.889 -0.4797 -0.1140  0.0933
 3139ntf    sn220072   2.242   7.071   1.816 -0.3978 -0.3266  0.3466
 3139ntf    nn320073   2.312   7.192   1.887 -0.0645  0.0345 -0.5847
 3139ntf    sn220074   2.387   7.314   1.822  0.3908  0.0600 -0.0195
 3139ntf    cn120075   2.264   7.446   1.841  0.2291 -0.1479  0.4019
 3139ntf    fn420076   2.044   7.224   1.890 -0.1349 -0.0256  0.1450
 3139ntf    fn420077   1.972   7.038   1.833 -0.6719  0.2935  0.0314
 3139ntf    fn420078   2.075   7.066   2.018 -0.3348  0.3728  0.2094
 3139ntf    on520079   2.278   6.946   1.878  0.4149 -0.2048  0.1330
 3139ntf    on520080   2.217   7.073   1.674 -0.3126 -0.0908  0.3348
 3139ntf    on520081   2.415   7.311   1.680 -0.1693  0.2113 -0.1337
 3139ntf    on520082   2.496   7.357   1.906  0.4486 -0.0879 -0.0179
 3139ntf    fn420083   2.254   7.490   1.965 -0.0756 -0.0765  0.3519
 3139ntf    fn420084   2.284   7.551   1.762 -0.2773 -0.1438  0.2791
 3139ntf    fn420085   2.143   7.407   1.808  0.0794  0.3464  0.3489
 3140ntf    cn120086   5.512   6.772   5.204  0.0508  0.4150 -0.2367
 3140ntf    sn220087   5.472   6.609   5.273 -0.1749  0.6195  0.1182
 3140ntf    nn320088   5.324   6.638   5.316 -0.2671  0.3384 -0.0047
 3140ntf    sn220089   5.261   6.616   5.458 -0.1227  0.1284  0.0274
 3140ntf    cn120090   5.187   6.450   5.449  0.2398 -0.0302 -0.0485
 3140ntf    fn420091   5.474   6.871   5.283 -0.4708  0.2823 -0.3214
 3140ntf    fn420092   5.643   6.781   5.183  0.1878  0.6647  0.6627
 3140ntf    fn420093   5.444   6.791   5.092 -0.7965 -0.3784  0.1344
 3140ntf    on520094   5.469   6.520   5.159  0.2638  0.3250  0.3344
 3140ntf    on520095   5.575   6.591   5.372 -0.1625  0.2467  0.0393
 3140ntf    on520096   5.152   6.709   5.474 -0.2885 -0.0421 -0.1061
 3140ntf    on520097   5.351   6.607   5.571  0.1569 -0.4851 -0.2379
 3140ntf    fn420098   5.270   6.362   5.396  0.2996 -0.0508  0.0769
 3140ntf    fn420099   5.153   6.397   5.566  0.3594  0.2031  0.0929
 3140ntf    fn420100   5.075   6.455   5.380 -0.2318  0.2112  0.7181
 3141ntf    cn120101   6.133   0.333   2.090 -0.1423 -0.0504 -0.9376
 3141ntf    sn220102   5.961   0.372   2.045 -0.4272 -0.2567 -0.0452
 3141ntf    nn320103   5.893   0.236   2.085 -0.3896 -0.0509  0.7498
 3141ntf    sn220104   5.767   0.174   2.015  0.0186 -0.2400  0.1785
 3141ntf    cn120105   5.644   0.280   2.095  0.0660  0.1279 -0.2311
 3141ntf    fn420106   6.212   0.427   2.040 -0.0009  0.3426 -0.0027
 3141ntf    fn420107   6.164   0.326   2.219 -0.2824  0.6231 -0.8627
 3141ntf    fn420108   6.168   0.211   2.052  0.0053 -0.3515  0.1133
 3141ntf    on520109   5.919   0.481   2.129 -0.5820  0.3028 -0.8443
 3141ntf    on520110   5.970   0.408   1.906 -0.4408 -0.3394 -0.0676
 3141ntf    on520111   5.724   0.045   2.064 -0.6280 -0.2999 -0.5256
 3141ntf    on520112   5.742   0.189   1.873 -0.8292 -0.4549  0.3009
 3141ntf    fn420113   5.520   0.246   2.062 -0.0877  0.1511  0.3086
 3141ntf    fn420114   5.662   0.299   2.225  0.0408  0.3526 -0.2605
 3141ntf    fn420115   5.656   0.405   2.053  0.2135  0.2356  0.1261
 3142ntf    cn120116   6.717   4.654   6.756  0.0098 -0.2484  0.0106
 3142ntf    sn220117   6.778   4.763   6.888  0.3351 -0.3517 -0.0544
 3142ntf    nn320118   6.638   4.802   6.947  0.3872 -0.1379 -0.0728
 3142ntf    sn220119   6.541   4.915   6.900  0.1676 -0.3303 -0.0830
 3142ntf    cn120120   6.398   4.804   6.914  0.2123 -0.4007 -0.1828
 3142ntf    fn420121   6.631   4.561   6.792  0.4967 -0.7102 -0.0176
 3142ntf    fn420122   6.660   4.712   6.651 -0.1586  0.0393  0.2597
 3142ntf    fn420123   6.818   4.590   6.700  0.1928  0.0928 -0.0557
 3142ntf    on520124   6.851   4.675   6.977 -0.0250 -0.4125  0.1855
 3142ntf    on520125   6.852   4.872   6.831  0.1280 -0.0929  0.1743
 3142ntf    on520126   6.542   4.941   6.758 -0.6862  0.8658  0.1117
 3142ntf    on520127   6.518   5.032   6.981 -0.5911 -0.0680 -0.6621
 3142ntf    fn420128   6.413   4.701   6.833  0.3824 -0.4502 -0.0898
 3142ntf    fn420129   6.383   4.747   7.033 -0.5392  0.3151  0.0717
 3142ntf    fn420130   6.280   4.861   6.900  0.1551 -0.5020 -0.1150
 3143ntf    cn120131   4.622   2.101   5.761 -0.2033  0.2794  0.0155
 3143ntf    sn220132   4.613   1.971   5.888 -0.1239  0.2595  0.0010
 3143ntf    nn320133   4.727   1.868   5.856 -0.0857  0.0853  0.6833
 3143ntf    sn220134   4.882   1.884   5.872 -0.0052  0.2262 -0.1715
 3143ntf    cn120135   4.916   1.781   6.018  0.2872 -0.4859 -0.7347
 3143ntf    fn420136   4.726   2.181   5.775  0.0238  0.0444 -0.3430
 3143ntf    fn420137   4.628   2.054   5.638 -0.5448 -0.4359  0.2692
 3143ntf    fn420138   4.516   2.181   5.761 -0.2243  0.2625  0.7581
 3143ntf    on520139   4.633   2.027   6.019 -0.0087 -0.0665  0.1231
 3143ntf    on520140   4.484   1.908   5.871  0.1396 -0.3131  0.1060
 3143ntf    on520141   4.930   2.014   5.912  0.2371 -0.0628  0.5067
 3143ntf    on520142   4.955   1.820   5.766 -0.0525  0.1258 -0.1434
 3143ntf    fn420143   4.847   1.806   6.128 -0.0901  0.3099 -1.1484
 3143ntf    fn420144   4.894   1.651   6.004 -0.5359 -0.4279 -0.0888
 3143ntf    fn420145   5.040   1.787   6.065  0.2366 -0.4840 -0.6013
 3144ntf    cn120146   5.050   1.237   1.359  0.2702 -0.0078 -0.0990
 3144ntf    sn220147   5.025   1.378   1.247 -0.0374 -0.0290 -0.0579
 3144ntf    nn320148   4.872   1.403   1.271 -0.0876  0.7747 -1.1136
 3144ntf    sn220149   4.817   1.495   1.386  0.1328 -0.0956 -0.2953
 3144ntf    cn120150   4.664   1.405   1.420 -0.0195  0.2255 -0.1259
 3144ntf    fn420151   5.108   1.268   1.473  0.1280  0.2576 -0.0986
 3144ntf    fn420152   4.934   1.180   1.388  0.3530 -0.1366 -0.0195
 3144ntf    fn420153   5.125   1.146   1.299  0.0553 -0.0658 -0.2836
 3144ntf    on520154   5.120   1.479   1.285  0.0066 -0.0281 -0.1680
 3144ntf    on520155   5.047   1.328   1.113  0.0946  0.1646 -0.1097
 3144ntf    on520156   4.765   1.616   1.328  0.9154  0.2346 -0.3190
 3144ntf    on520157   4.887   1.507   1.511 -0.2508  0.0740 -0.0996
 3144ntf    fn420158   4.589   1.462   1.513  0.0311  0.2109 -0.0761
 3144ntf    fn420159   4.577   1.401   1.320 -0.0490 -0.3378 -0.0841
 3144ntf    fn420160   4.678   1.280   1.461 -0.1242  0.1540 -0.3045
 3145ntf    cn120161   1.073   5.739   4.818  0.0792  0.0836  0.1056
 3145ntf    sn220162   1.090   5.913   4.769  0.3026  0.0648  0.1188
 3145ntf    nn320163   1.087   5.988   4.907  0.2409  0.1340  0.0793
 3145ntf    sn220164   1.182   6.100   4.961  0.4307 -0.0157  0.0556
 3145ntf    cn120165   1.313   5.992   5.027  0.2877 -0.0293  0.3186
 3145ntf    fn420166   1.173   5.692   4.892 -0.1241 -0.0714  0.2832
 3145ntf    fn420167   0.960   5.718   4.884  0.1783 -0.3255  0.1464
 3145ntf    fn420168   1.063   5.664   4.710 -0.6964  1.2613 -0.6638
 3145ntf    on520169   1.223   5.911   4.712  0.1194 -0.4996 -0.2928
 3145ntf    on520170   0.981   5.955   4.685 -0.1031 -0.5094  0.3544
 3145ntf    on520171   1.127   6.160   5.080  0.0659 -0.4386  0.1047
 3145ntf    on520172   1.245   6.188   4.865  0.3153 -0.0700 -0.0706
 3145ntf    fn420173   1.414   6.067   5.068  0.0879  0.0984  0.5808
 3145ntf    fn420174   1.271   5.908   5.120  0.2811  0.0670  0.4037
 3145ntf    fn420175   1.359   5.912   4.932 -0.2559 -0.2501  0.2396
 3146ntf    cn120176   1.403   0.809   6.823  0.1593 -0.5846 -0.5013
 3146ntf    sn220177   1.308   0.866   6.679  0.1122  0.4685 -0.0632
 3146ntf    nn320178   1.163   0.826   6.724  0.0550  0.2599 -0.4323
 3146ntf    sn220179   1.027   0.836   6.645 -0.2506 -0.1692  0.0319
 3146ntf    cn120180   0.941   0.951   6.757 -0.1479  0.0228 -0.0844
 3146ntf    fn420181   1.532   0.836   6.809 -0.0348  0.2259 -0.7592
 3146ntf    fn420182   1.366   0.860   6.940  1.0101  0.5091 -0.6983
 3146ntf    fn420183   1.406   0.678   6.841 -0.0641 -0.5157  0.0540
 3146ntf    on520184   1.338   1.006   6.686  0.5224  0.3520  0.6496
 3146ntf    on520185   1.353   0.791   6.564  0.1695  0.0421  0.2317
 3146ntf    on520186   0.947   0.717   6.660 -0.2570 -0.1387  0.2400
 3146ntf    on520187   1.023   0.905   6.518 -0.9234 -0.1602  0.0533
 3146ntf    fn420188   0.837   0.895   6.816 -0.1437  0.0073 -0.0913
 3146ntf    fn420189   1.022   0.982   6.857 -0.3047 -0.5162  0.2148
 3146ntf    fn420190   0.889   1.062   6.710  0.4565  0.3554  0.0133
 3147ntf    cn120191   2.564   3.298   1.837  0.1228  0.2852  0.1184
 3147ntf    sn220192   2.455   3.394   1.947 -0.0744 -0.4404  0.5629
 3147ntf    nn320193   2.531   3.531   1.933 -0.2880 -0.4471 -0.8035
 3147ntf    sn220194   2.481   3.671   1.983  0.4509 -0.5737  0.3205
 3147ntf    cn120195   2.417   3.721   1.821  0.1954 -0.0704  0.5737
 3147ntf    fn420196   2.684   3.273   1.885  0.0528 -0.5290 -0.1111
 3147ntf    fn420197   2.518   3.178   1.806  0.3167  0.2285  0.0530
 3147ntf    fn420198   2.576   3.355   1.718 -0.0334 -0.3367 -0.2023
 3147ntf    on520199   2.335   3.378   1.869  0.3813 -0.5318 -0.1299
 3147ntf    on520200   2.465   3.317   2.069 -0.7010 -0.4741  0.5967
 3147ntf    on520201   2.585   3.767   2.010 -0.0289  0.1382 -0.3285
 3147ntf    on520202   2.361   3.658   2.062 -0.1197  0.2405 -0.3991
 3147ntf    fn420203   2.319   3.652   1.766  0.2984  0.4665 -0.3273
 3147ntf    fn420204   2.372   3.846   1.827 -0.0234 -0.1052 -0.1544
 3147ntf    fn420205   2.504   3.711   1.722 -0.1015  0.3921  0.2608
 3148ntf    cn120206   3.807   1.964   5.199 -0.0488  0.9021 -0.2900
 3148ntf    sn220207   3.897   1.928   5.353 -0.0560  0.3700 -0.4083
 3148ntf    nn320208   4.041   1.939   5.290  0.3355 -0.3711  0.3394
 3148ntf    sn220209   4.152   1.836   5.249  0.3421 -0.1298 -0.2536
 3148ntf    cn120210   4.154   1.855   5.068  0.2346  0.6600 -0.1758
 3148ntf    fn420211   3.837   1.870   5.110  0.3807  0.2146  0.5660
 3148ntf    fn420212   3.675   1.960   5.208 -0.0128  0.4407  0.0602
 3148ntf    fn420213   3.848   2.081   5.153  0.0709  0.8255 -0.3794
 3148ntf    on520214   3.860   2.041   5.434  0.4970  0.1913  0.1037
 3148ntf    on520215   3.853   1.795   5.389  0.1425  0.1949 -0.8041
 3148ntf    on520216   4.123   1.697   5.274  0.3201 -0.1065 -0.1482
 3148ntf    on520217   4.282   1.888   5.283 -0.2091  0.7502  0.5692
 3148ntf    fn420218   4.123   1.977   5.027  0.4517  0.7865  0.0323
 3148ntf    fn420219   4.279   1.837   5.029  0.0334 -0.0536 -0.4956
 3148ntf    fn420220   4.079   1.768   5.003  0.5629 -0.0446  0.3809
 3149ntf    cn120221   3.216   1.015   1.498  0.4220  0.4099 -0.1015
 3149ntf    sn220222   3.308   0.920   1.623 -0.0757 -0.2495 -0.2325
 3149ntf    nn320223   3.456   0.915   1.572  0.0753 -0.5759  0.2255
 3149ntf    sn220224   3.509   0.804   1.474  0.2249 -0.0610 -0.2821
 3149ntf    cn120225   3.668   0.879   1.426  0.2969  0.2618  0.4558
 3149ntf    fn420226   3.221   0.953   1.381 -0.4994  0.3761 -0.1312
 3149ntf    fn420227   3.090   1.015   1.539  0.4213 -0.5308 -0.0657
 3149ntf    fn420228   3.246   1.141   1.473 -0.3845  0.6060 -0.0975
 3149ntf    on520229   3.307   1.002   1.741 -0.4647  0.0603 -0.4481
 3149ntf    on520230   3.242   0.792   1.631 -0.1161 -0.1964  0.3000
 3149ntf    on520231   3.439   0.804   1.347 -0.0697 -0.3007 -0.1203
 3149ntf    on520232   3.541   0.684   1.547 -0.3205 -0.0214  0.0234
 3149ntf    fn420233   3.763   0.787   1.424 -0.5321 -0.5994 -0.3311
 3149ntf    fn420234   3.672   0.925   1.302 -0.0251  0.2214  0.4292
 3149ntf    fn420235   3.724   0.970   1.505  0.6284  0.4612 -0.0086
 3150ntf    cn120236   1.543   5.851   1.090  0.2846  0.1320  0.2254
 3150ntf    sn220237   1.552   5.677   1.141  0.0024  0.0032 -0.1624
 3150ntf    nn320238   1.407   5.623   1.113 -0.0044 -0.0194 -0.0814
 3150ntf    sn220239   1.352   5.525   1.004  0.0630 -0.1821  0.0315
 3150ntf    cn120240   1.394   5.368   1.086  0.0806 -0.0959  0.1883
 3150ntf    fn420241   1.494   5.865   0.968 -0.1478  0.0793  0.3913
 3150ntf    fn420242   1.468   5.926   1.169 -0.2030  0.1077 -0.2069
 3150ntf    fn420243   1.663   5.905   1.075  0.1056  0.2291 -0.9338
 3150ntf    on520244   1.651   5.625   1.049  0.0379 -0.0928 -0.0696
 3150ntf    on520245   1.592   5.682   1.279 -0.9074 -0.1708  0.1172
 3150ntf    on520246   1.424   5.527   0.879 -0.3519  0.3587 -0.2043
 3150ntf    on520247   1.208   5.518   1.000  0.0952 -0.8774 -0.1100
 3150ntf    fn420248   1.523   5.372   1.118  0.2064 -0.7554 -0.2149
 3150ntf    fn420249   1.324   5.354   1.197  0.2646  0.2649  0.3514
 3150ntf    fn420250   1.376   5.268   1.001  0.0366 -0.1806  0.2970
 3151ntf    cn120251   5.442   3.418   3.386 -0.1942 -0.3138  0.2538
 3151ntf    sn220252   5.596   3.476   3.309 -0.4222  0.3510  0.2908
 3151ntf    nn320253   5.648   3.337   3.257 -1.0643  0.0870  0.3459
 3151ntf    sn220254   5.728   3.223   3.330  0.0780  0.5149 -0.2165
 3151ntf    cn120255   5.892   3.242   3.255  0.1910 -0.0279 -0.1072
 3151ntf    fn420256   5.355   3.518   3.387  0.5482  0.3514 -0.2266
 3151ntf    fn420257   5.376   3.325   3.319 -0.4563  0.1591 -0.1501
 3151ntf    fn420258   5.460   3.371   3.508  0.2364  0.0288  0.3216
 3151ntf    on520259   5.553   3.555   3.196 -0.3901  0.3834  0.3014
 3151ntf    on520260   5.668   3.546   3.412 -0.1366 -0.0984  0.3966
 3151ntf    on520261   5.688   3.090   3.291 -0.1264  0.2359  0.9110
 3151ntf    on520262   5.755   3.241   3.470 -0.0978  0.0116 -0.1149
 3151ntf    fn420263   5.964   3.351   3.274 -0.0864  0.1351  0.0043
 3151ntf    fn420264   5.965   3.145   3.308 -0.4270 -0.3166  0.2285
 3151ntf    fn420265   5.892   3.216   3.125 -0.2471  0.4416 -0.2022
 3152ntf    cn120266   5.773   4.697   2.821 -0.2219 -0.4211  0.1427
 3152ntf    sn220267   5.879   4.696   2.968 -0.1814 -0.5056  0.1130
 3152ntf    nn320268   6.021   4.681   2.903 -0.2339 -0.1270 -0.0940
 3152ntf    sn220269   6.135   4.588   2.958 -0.0146  0.2847  0.1510
 3152ntf    cn120270   6.280   4.652   2.869  0.0010 -0.0755 -0.0883
 3152ntf    fn420271   5.773   4.807   2.747 -0.4222 -0.1573  0.5312
 3152ntf    fn420272   5.802   4.597   2.739  0.1838 -0.0627 -0.1546
 3152ntf    fn420273   5.646   4.688   2.858  0.0589 -0.2901  1.1553
 3152ntf    on520274   5.859   4.828   3.022  0.3444 -0.4152  0.0961
 3152ntf    on520275   5.824   4.582   3.037 -0.5548 -0.4234 -0.0504
 3152ntf    on520276   6.113   4.454   2.910 -0.0230  0.2805  0.1659
 3152ntf    on520277   6.174   4.601   3.096  0.3874  0.2651  0.0412
 3152ntf    fn420278   6.331   4.763   2.921 -0.3997  0.1823 -0.2415
 3152ntf    fn420279   6.381   4.566   2.863  0.1774  0.1407 -0.2611
 3152ntf    fn420280   6.245   4.678   2.745 -0.2971  0.4191  0.0957
 3153ntf    cn120281   3.723   2.886   5.129  0.0594  0.0925  0.0047
 3153ntf    sn220282   3.719   3.030   5.018  0.0790 -0.1496 -0.3133
 3153ntf    nn320283   3.847   2.992   4.935  0.0473 -0.0844 -0.3925
 3153ntf    sn220284   3.983   3.069   4.925  0.1455 -0.2290 -0.1782
 3153ntf    cn120285   3.952   3.230   4.848 -0.0542 -0.1779  0.0076
 3153ntf    fn420286   3.845   2.876   5.180 -0.0525 -0.5035  0.1636
 3153ntf    fn420287   3.641   2.895   5.232  0.1980 -0.0769  0.1312
 3153ntf    fn420288   3.693   2.771   5.071 -0.2282  0.1686  0.0012
 3153ntf    on520289   3.593   3.030   4.947 -0.4257  0.0171  0.5676
 3153ntf    on520290   3.735   3.137   5.114 -0.3485 -0.1199 -0.2732
 3153ntf    on520291   4.055   3.003   4.818  0.4719 -0.3144  0.0909
 3153ntf    on520292   4.057   3.104   5.044  0.0100 -0.1233 -0.1253
 3153ntf    fn420293   3.900   3.321   4.929  0.0953  0.1884 -0.3023
 3153ntf    fn420294   4.069   3.267   4.797 -0.2015 -0.6062 -0.6620
 3153ntf    fn420295   3.873   3.231   4.742  0.0186  0.1648 -0.0468
 3154ntf    cn120296   3.108   7.004   3.187  0.0083  0.2955 -0.2293
 3154ntf    sn220297   3.242   6.963   3.072  0.2662  0.2091  0.1012
 3154ntf    nn320298   3.371   6.979   3.160 -0.3084  0.2092  0.9543
 3154ntf    sn220299   3.437   7.120   3.182  0.1226  0.1593  0.0248
 3154ntf    cn120300   3.587   7.108   3.079 -0.0777 -0.1638 -0.2297
 3154ntf    fn420301   3.130   7.119   3.248 -0.0454  0.2539 -0.1309
 3154ntf    fn420302   2.990   7.031   3.132 -0.2726  0.2310  0.3332
 3154ntf    fn420303   3.094   6.915   3.284  0.7833  0.1027 -0.2907
 3154ntf    on520304   3.210   6.823   3.055 -0.4899  0.4065 -0.1250
 3154ntf    on520305   3.223   7.047   2.956 -0.3574 -0.0968 -0.0279
 3154ntf    on520306   3.480   7.136   3.319  0.8573  0.9685 -0.2923
 3154ntf    on520307   3.362   7.226   3.119  0.5896  0.5855  0.1805
 3154ntf    fn420308   3.640   7.227   3.060 -0.3202  0.0675  0.5309
 3154ntf    fn420309   3.674   7.026   3.135 -0.0234 -0.2084 -0.3787
 3154ntf    fn420310   3.568   7.060   2.957 -0.5740  0.1549 -0.2787
 3155ntf    cn120311   3.887   1.151   6.043  0.2606 -0.2845 -0.1543
 3155ntf    sn220312   3.841   1.322   6.006  0.0357 -0.3148 -0.0155
 3155ntf    nn320313   3.959   1.405   6.068  0.0916 -0.2739 -0.1761
 3155ntf    sn220314   3.966   1.497   6.194 -0.2247  0.1113 -0.4396
 3155ntf    cn120315   4.142   1.461   6.224 -0.2868  0.0189 -0.1800
 3155ntf    fn420316   3.805   1.067   5.982  0.7719 -0.4297 -0.6487
 3155ntf    fn420317   4.009   1.134   5.994  0.1811 -0.2195 -0.3773
 3155ntf    fn420318   3.894   1.111   6.169 -0.3464 -0.0571 -0.0423
 3155ntf    on520319   3.841   1.317   5.862 -0.1718 -0.3644 -0.0141
 3155ntf    on520320   3.706   1.335   6.056 -0.0509 -0.1405 -0.2878
 3155ntf    on520321   3.897   1.452   6.312 -0.3650  0.2110 -0.4829
 3155ntf    on520322   3.957   1.639   6.170 -0.6174  0.0731 -0.5311
 3155ntf    fn420323   4.195   1.370   6.145  0.1513  0.3554 -0.2750
 3155ntf    fn420324   4.210   1.574   6.215  0.5165 -0.3522  1.1283
 3155ntf    fn420325   4.168   1.411   6.343  0.9926 -0.2226 -0.5514
 3156ntf    cn120326   0.874   5.297   5.872  0.0381 -0.2762 -0.6489
 3156ntf    sn220327   0.835   5.366   6.036 -0.0728 -0.3019 -0.6642
 3156ntf    nn320328   0.689   5.411   5.998 -0.2649  0.1616  0.5933
 3156ntf    sn220329   0.550   5.361   6.051 -0.3941 -0.3167 -0.1868
 3156ntf    cn120330   0.509   5.494   6.167  0.3425  0.1169 -0.4186
 3156ntf    fn420331   0.791   5.196   5.849  0.2011 -0.4641 -0.4126
 3156ntf    fn420332   0.854   5.386   5.776  0.3351  0.2659 -0.2165
 3156ntf    fn420333   0.998   5.253   5.863  0.2256  0.0714  0.1935
 3156ntf    on520334   0.841   5.251   6.122 -0.0462  0.5552  0.4971
 3156ntf    on520335   0.929   5.471   6.064 -0.0543 -0.5476  0.2050
 3156ntf    on520336   0.541   5.231   6.114  0.4482 -0.3064 -0.0295
 3156ntf    on520337   0.451   5.380   5.948  0.4930  0.3342 -0.9387
 3156ntf    fn420338   0.462   5.602   6.105 -0.4957  0.4154  0.6910
 3156ntf    fn420339   0.413   5.469   6.255  1.1566  0.1408  0.4942
 3156ntf    fn420340   0.611   5.538   6.239 -0.1664 -0.4223  0.6643
 3157ntf    cn120341   0.221   3.819   2.684  0.1535 -0.2396  0.3570
 3157ntf    sn220342   0.351   3.717   2.609 -0.0680 -0.0699 -0.2672
 3157ntf    nn320343   0.312   3.572   2.653  0.0809 -0.0397 -0.0291
 3157ntf    sn220344   0.206   3.479   2.583  0.0643 -0.1628  0.1587
 3157ntf    cn120345   0.175   3.364   2.721  0.4616 -0.1355  0.2727
 3157ntf    fn420346   0.108   3.823   2.615  0.3775 -0.1145 -0.0037
 3157ntf    fn420347   0.190   3.775   2.805  0.6946 -0.1130  0.5426
 3157ntf    fn420348   0.252   3.946   2.703 -0.1307 -0.1905  0.4998
 3157ntf    on520349   0.344   3.734   2.466  0.0343 -0.2600 -0.2951
 3157ntf    on520350   0.474   3.760   2.671 -0.3382 -0.0166  0.2391
 3157ntf    on520351   0.260   3.405   2.472 -0.3466 -0.1262 -0.0671
 3157ntf    on520352   0.075   3.536   2.564 -0.0518 -0.4333  0.1463
 3157ntf    fn420353   0.166   3.427   2.836  0.2238 -0.6032  0.5118
 3157ntf    fn420354   0.061   3.300   2.703  0.1113  0.4083  0.5188
 3157ntf    fn420355   0.270   3.273   2.734  0.1896 -0.4670 -0.0249
 3158ntf    cn120356   3.239   2.690   5.739  0.0133 -0.1234 -0.2945
 3158ntf    sn220357   3.231   2.508   5.732  0.2129 -0.1462  0.0422
 3158ntf    nn320358   3.318   2.477   5.605  0.0397  0.2702 -0.1809
 3158ntf    sn220359   3.430   2.370   5.581 -0.1882  0.0069 -0.0649
 3158ntf    cn120360   3.584   2.451   5.633 -0.2069  0.0167 -0.0245
 3158ntf    fn420361   3.362   2.735   5.757 -0.0806 -0.1551  0.4739
 3158ntf    fn420362   3.189   2.740   5.627  0.0744  0.5476 -0.0246
 3158ntf    fn420363   3.164   2.730   5.840 -0.5201  0.2652 -0.8378
 3158ntf    on520364   3.284   2.472   5.861 -0.5182  0.2945  0.4729
 3158ntf    on520365   3.091   2.490   5.704  0.3416 -0.4809 -0.3955
 3158ntf    on520366   3.451   2.340   5.441 -0.6653  0.1689 -0.1739
 3158ntf    on520367   3.433   2.257   5.670  0.5340  0.1743  0.1291
 3158ntf    fn420368   3.642   2.393   5.737 -0.0042  0.1325 -0.0724
 3158ntf    fn420369   3.678   2.461   5.540 -0.1487  0.7050  0.1003
 3158ntf    fn420370   3.568   2.579   5.664 -0.1731  0.0380 -0.0956
 3159ntf    cn120371   1.691   6.176   3.322 -0.3236  0.0962 -0.1794
 3159ntf    sn220372   1.781   6.305   3.231 -0.1543  0.1201  0.0190
 3159ntf    nn320373   1.657   6.374   3.163 -0.3360 -0.5394 -0.3330
 3159ntf    sn220374   1.577   6.496   3.223  0.1890 -0.2321 -0.2514
 3159ntf    cn120375   1.436   6.490   3.109 -0.4022 -0.2868  0.4715
 3159ntf    fn420376   1.646   6.221   3.438  0.0496 -0.3312  0.1345
 3159ntf    fn420377   1.588   6.127   3.257  0.0595 -0.2943 -0.4967
 3159ntf    fn420378   1.766   6.069   3.344 -0.2999  0.1692  0.1034
 3159ntf    on520379   1.845   6.377   3.338 -0.2091  0.4089 -0.1403
 3159ntf    on520380   1.868   6.235   3.140 -0.2807 -0.3038  0.2212
 3159ntf    on520381   1.641   6.625   3.212  0.2459 -0.2868 -0.5485
 3159ntf    on520382   1.517   6.472   3.352 -0.2915  0.2514 -0.3851
 3159ntf    fn420383   1.351   6.590   3.117  0.1383  0.2122  0.0962
 3159ntf    fn420384   1.478   6.501   2.984 -0.1615  0.1940  0.5912
 3159ntf    fn420385   1.361   6.382   3.120 -0.5729 -0.2399 -0.1785
 3160ntf    cn120386   3.839   3.470   2.279 -0.6377  0.2163 -0.1093
 3160ntf    sn220387   3.772   3.616   2.364 -0.0389  0.3276  0.1769
 3160ntf    nn320388   3.678   3.666   2.248 -0.0413 -0.0224  0.0252
 3160ntf    sn220389   3.716   3.745   2.118  0.0733 -0.0071  0.0675
 3160ntf    cn120390   3.653   3.914   2.144  0.4494  0.2338 -0.5461
 3160ntf    fn420391   3.888   3.494   2.158 -0.6964 -0.7928 -0.3401
 3160ntf    fn420392   3.942   3.421   2.344 -0.1196  0.5299 -0.6805
 3160ntf    fn420393   3.755   3.370   2.256 -0.7545  0.3908 -0.4536
 3160ntf    on520394   3.700   3.567   2.479  0.1778  0.2081  0.2620
 3160ntf    on520395   3.886   3.696   2.401  0.6837 -0.4841 -0.2599
 3160ntf    on520396   3.643   3.701   2.002 -0.4002 -0.0943  0.3977
 3160ntf    on520397   3.854   3.778   2.092 -0.2224  0.4499 -0.9949
 3160ntf    fn420398   3.657   3.986   2.034  0.1152 -0.0274 -0.7333
 3160ntf    fn420399   3.524   3.920   2.174  0.5560 -0.0727  0.0071
 3160ntf    fn420400   3.719   3.970   2.244 -0.4953  0.2956  0.0651
 3161ntf    cn120401   6.163   6.309   1.663  0.0501 -0.4989  0.3714
 3161ntf    sn220402   6.245   6.238   1.809  0.2143 -0.1779  0.4368
 3161ntf    nn320403   6.343   6.133   1.745 -0.2913 -0.2282 -0.2614
 3161ntf    sn220404   6.491   6.160   1.701 -0.1099 -0.6157  0.1021
 3161ntf    cn120405   6.500   6.063   1.547  0.1658 -0.0663 -0.2312
 3161ntf    fn420406   6.233   6.381   1.576  0.3499 -0.8826  0.2856
 3161ntf    fn420407   6.119   6.204   1.596 -0.2372 -0.5003  0.5637
 3161ntf    fn420408   6.058   6.381   1.697  0.2593  0.1192 -0.2645
 3161ntf    on520409   6.318   6.336   1.885 -0.1652  0.5643 -0.1493
 3161ntf    on520410   6.140   6.175   1.885  0.0411 -0.0728  0.2860
 3161ntf    on520411   6.583   6.087   1.785 -0.1698 -0.2812  0.4583
 3161ntf    on520412   6.526   6.289   1.648 -0.2010 -0.6130  0.0479
 3161ntf    fn420413   6.625   6.029   1.518  0.1290  0.0453 -0.5253
 3161ntf    fn420414   6.428   5.952   1.551 -0.0217  0.0311 -0.7931
 3161ntf    fn420415   6.460   6.137   1.445 -0.1412  0.5072  0.3025
 3162ntf    cn120416   6.993   6.158   0.287 -0.0050  0.1723  0.3898
 3162ntf    sn220417   6.849   6.237   0.366 -0.1598  0.2543  0.0274
 3162ntf    nn320418   6.808   6.338   0.253 -0.8007  0.1727  0.1839
 3162ntf    sn220419   6.730   6.334   0.117 -0.2941 -0.3516 -0.0965
 3162ntf    cn120420   6.563   6.363   0.183 -0.0673 -0.4862  0.5480
 3162ntf    fn420421   6.951   6.095   0.179  0.0284  0.6170  0.1128
 3162ntf    fn420422   7.087   6.244   0.249 -0.0546 -0.0755 -0.3046
 3162ntf    fn420423   7.043   6.066   0.368 -0.0282 -0.8584 -0.7485
 3162ntf    on520424   6.753   6.138   0.407  0.1893 -0.3012 -0.4668
 3162ntf    on520425   6.892   6.310   0.483 -0.0861  0.6523 -0.2446
 3162ntf    on520426   6.723   6.210   0.043  0.1054 -0.2521 -0.3007
 3162ntf    on520427   6.763   6.451   0.040 -0.0011 -0.7450 -0.5789
 3162ntf    fn420428   6.513   6.261   0.251 -0.3841 -0.6315  0.1085
 3162ntf    fn420429   6.549   6.477   0.248  0.7622 -0.1202  0.0982
 3162ntf    fn420430   6.490   6.377   0.073 -0.0042 -0.2843  0.5310
 3163ntf    cn120431   3.456   3.164   3.433 -0.3590 -0.0708  0.1731
 3163ntf    sn220432   3.484   3.266   3.580 -0.1296  0.0314  0.0590
 3163ntf    nn320433   3.624   3.216   3.628 -0.2412 -0.2542  0.0856
 3163ntf    sn220434   3.767   3.244   3.569 -0.2957 -0.0439  0.0532
 3163ntf    cn120435   3.806   3.079   3.503 -0.1515 -0.0765  0.2199
 3163ntf    fn420436   3.325   3.168   3.410 -0.2885  0.5750 -0.1301
 3163ntf    fn420437   3.524   3.207   3.328 -0.4848 -0.2218  0.0292
 3163ntf    fn420438   3.487   3.037   3.453  0.7505  0.0053 -0.9635
 3163ntf    on520439   3.473   3.405   3.543 -0.5974 -0.0056  0.0428
 3163ntf    on520440   3.380   3.222   3.671  0.4705 -0.5514  0.4662
 3163ntf    on520441   3.868   3.266   3.670  0.3246 -0.5342 -0.4516
 3163ntf    on520442   3.772   3.325   3.450  0.2510 -0.6660 -0.3512
 3163ntf    fn420443   3.715   3.038   3.417  0.1379 -0.0712 -0.0883
 3163ntf    fn420444   3.923   3.075   3.442 -0.3084 -0.0798 -0.0792
 3163ntf    fn420445   3.817   2.989   3.600  0.0796 -0.3157 -0.0280
 3164ntf    cn120446   2.475   5.829   1.245 -0.0268  0.1844  0.0613
 3164ntf    sn220447   2.325   5.906   1.178 -0.2781 -0.1645  0.2194
 3164ntf    nn320448   2.276   5.795   1.078 -0.5615 -0.1898  0.3873
 3164ntf    sn220449   2.199   5.816   0.942  0.3490  0.0158 -0.1005
 3164ntf    cn120450   2.028   5.778   0.988  0.4398 -0.1007  0.1426
 3164ntf    fn420451   2.572   5.813   1.156 -0.2441  0.2134 -0.1838
 3164ntf    fn420452   2.540   5.889   1.344 -0.3593  0.1504  0.2993
 3164ntf    fn420453   2.451   5.708   1.294  0.1786  0.0402 -0.1860
 3164ntf    on520454   2.232   5.915   1.287 -0.0342  0.0570  0.4095
 3164ntf    on520455   2.374   6.033   1.132  0.2396 -0.4770 -0.1012
 3164ntf    on520456   2.235   5.710   0.852  0.1058 -0.4665  0.3663
 3164ntf    on520457   2.196   5.948   0.884 -0.6338 -0.0395 -0.1840
 3164ntf    fn420458   2.022   5.683   1.080  0.7968 -0.4469 -0.1863
 3164ntf    fn420459   1.961   5.879   1.042  0.6072  0.1003 -0.0318
 3164ntf    fn420460   1.955   5.733   0.887 -0.3844  0.6652  0.3769
 3165ntf    cn120461   4.012   0.987   0.630  0.2807 -0.3100 -0.6641
 3165ntf    sn220462   3.914   0.908   0.499 -0.5612 -0.1722 -0.1223
 3165ntf    nn320463   4.017   0.894   0.381 -0.3100 -0.0250  0.0785
 3165ntf    sn220464   3.993   0.921   0.228 -0.1069 -0.0578  0.0414
 3165ntf    cn120465   3.922   0.758   0.193  0.0496 -0.1582  0.1876
 3165ntf    fn420466   4.045   1.109   0.593 -1.1069  0.0621 -0.7328
 3165ntf    fn420467   3.957   0.994   0.750 -0.0131 -0.9717 -0.7533
 3165ntf    fn420468   4.125   0.922   0.651  0.1078 -0.2960  0.3495
 3165ntf    on520469   3.891   0.779   0.561 -0.0998 -0.3228 -0.2647
 3165ntf    on520470   3.801   0.996   0.490 -0.3869  0.0853  0.2102
 3165ntf    on520471   4.113   0.928   0.149 -0.3023  0.4316 -0.2184
 3165ntf    on520472   3.885   1.012   0.199  0.0570  0.0200 -0.3318
 3165ntf    fn420473   3.828   0.735   0.283 -0.0531  0.4666  0.2400
 3165ntf    fn420474   3.875   0.751   0.069 -0.4223 -0.8017  0.3986
 3165ntf    fn420475   4.013   0.662   0.201  0.1205 -0.1207 -0.1399
 3166ntf    cn120476   5.835   1.406   2.348 -0.2473  0.3158 -0.4409
 3166ntf    sn220477   5.813   1.325   2.187 -0.2540 -0.0512 -0.2556
 3166ntf    nn320478   5.954   1.257   2.181  0.1378  0.6764  0.4866
 3166ntf    sn220479   6.087   1.301   2.109  0.1289  0.0064  0.0511
 3166ntf    cn120480   6.201   1.284   2.250 -0.3915  0.0291  0.4770
 3166ntf    fn420481   5.725   1.433   2.418  0.2627 -0.4004  0.6626
 3166ntf    fn420482   5.917   1.342   2.429 -0.4096  0.3798 -0.2224
 3166ntf    fn420483   5.886   1.527   2.326  0.4884  0.1340  0.2194
 3166ntf    on520484   5.715   1.221   2.202 -0.3577 -0.0031 -0.5981
 3166ntf    on520485   5.783   1.433   2.096 -0.4274 -0.0375 -0.1836
 3166ntf    on520486   6.101   1.438   2.069 -0.0605 -0.0696 -0.2779
 3166ntf    on520487   6.135   1.201   2.016  0.9757  0.4088  0.0522
 3166ntf    fn420488   6.328   1.312   2.231 -0.5537  0.0726 -0.6001
 3166ntf    fn420489   6.181   1.376   2.343  0.1865 -0.0779  0.7061
 3166ntf    fn420490   6.196   1.164   2.305  0.0271 -0.0604  0.3238
 3167ntf    cn120491   2.426   6.085   6.432 -0.0176 -0.2737  0.3887
 3167ntf    sn220492   2.460   6.011   6.270  0.2087  0.2066  0.2150
 3167ntf    nn320493   2.337   5.914   6.257  0.5943 -0.2490 -0.0892
 3167ntf    sn220494   2.316   5.766   6.305 -0.1248 -0.0201  0.3261
 3167ntf    cn120495   2.306   5.685   6.142  0.0380  0.0079  0.3014
 3167ntf    fn420496   2.300   6.126   6.436  0.1633  0.3633 -0.2945
 3167ntf    fn420497   2.436   5.999   6.532  0.5413 -0.4841  0.1557
 3167ntf    fn420498   2.493   6.196   6.458  0.0693 -0.0516 -0.7238
 3167ntf    on520499   2.434   6.121   6.180 -0.4893  0.0725  0.2439
 3167ntf    on520500   2.596   5.963   6.274  0.1540  0.0052 -0.2515
 3167ntf    on520501   2.187   5.752   6.366 -0.1860  0.1227  0.2303
 3167ntf    on520502   2.432   5.699   6.358  0.0242 -0.2744 -0.3008
 3167ntf    fn420503   2.184   5.702   6.093  0.1147  0.0755  0.1369
 3167ntf    fn420504   2.398   5.726   6.057  0.0162 -0.3294  0.1123
 3167ntf    fn420505   2.308   5.554   6.159 -0.1664 -0.1232 -0.6274
 3168ntf    cn120506   6.265   5.169   5.732  0.0009 -0.2556 -0.0668
 3168ntf    sn220507   6.237   5.181   5.553 -0.0570  0.0103 -0.0397
 3168ntf    nn320508   6.231   5.336   5.528  0.0561 -0.0142 -0.2208
 3168ntf    sn220509   6.156   5.419   5.417  0.2079 -0.0065 -0.3191
 3168ntf    cn120510   6.045   5.525   5.515  0.0093 -0.5121  0.0128
 3168ntf    fn420511   6.256   5.042   5.767  0.7908 -0.1276  0.6205
 3168ntf    fn420512   6.383   5.218   5.765  0.0329 -0.1545 -0.3287
 3168ntf    fn420513   6.175   5.235   5.802  0.4246  0.0495  0.1980
 3168ntf    on520514   6.352   5.122   5.489  0.0742 -0.3565  0.5286
 3168ntf    on520515   6.112   5.109   5.544  0.2889 -0.6262  0.2201
 3168ntf    on520516   6.073   5.338   5.332 -0.1925  0.2354 -0.1622
 3168ntf    on520517   6.242   5.516   5.355 -0.4504  0.8480  0.0752
 3168ntf    fn420518   5.972   5.453   5.598  0.3929 -0.6550  0.2292
 3168ntf    fn420519   6.123   5.599   5.592 -0.2965 -0.4237  0.2373
 3168ntf    fn420520   5.963   5.602   5.445 -0.0800 -0.6363 -0.0188
 3169ntf    cn120521   3.662   7.084   5.616  0.3394  0.3045  0.0107
 3169ntf    sn220522   3.527   7.204   5.599  0.0270  0.0397  0.5723
 3169ntf    nn320523   3.577   7.297   5.483 -0.1792 -0.1963  0.2913
 3169ntf    sn220524   3.712   7.377   5.478 -0.0500 -0.4246  0.1042
 3169ntf    cn120525   3.660   7.512   5.369  0.3485 -0.2502  0.1290
 3169ntf    fn420526   3.724   7.041   5.508 -0.0019  0.0810 -0.0977
 3169ntf    fn420527   3.761   7.142   5.682 -0.1705  0.3770  0.7319
 3169ntf    fn420528   3.630   6.975   5.684  0.6704  0.0463 -0.2476
 3169ntf    on520529   3.425   7.118   5.543 -0.0753  0.6260 -0.1572
 3169ntf    on520530   3.508   7.271   5.725 -0.0321 -0.5322  0.8705
 3169ntf    on520531   3.809   7.301   5.403  0.1859 -0.2052  0.1848
 3169ntf    on520532   3.749   7.435   5.605 -0.2862 -0.5688  0.2406
 3169ntf    fn420533   3.585   7.601   5.432  0.3938 -0.1989  0.1110
 3169ntf    fn420534   3.770   7.576   5.332  0.1926  0.0810  0.2262
 3169ntf    fn420535   3.594   7.470   5.263 -0.1603  0.1366  0.2864
 3170ntf    cn120536   3.605   6.513   5.132 -0.3572  0.2718 -0.3616
 3170ntf    sn220537   3.472   6.426   5.043 -0.2869 -0.2110  0.0022
 3170ntf    nn320538   3.340   6.475   5.113 -0.3151 -0.3882  0.0739
 3170ntf    sn220539   3.256   6.434   5.239 -0.1070 -0.2681  0.2520
 3170ntf    cn120540   3.136   6.330   5.151 -0.3092 -0.1257  0.3582
 3170ntf    fn420541   3.582   6.644   5.132 -0.0559  0.3317  0.5994
 3170ntf    fn420542   3.621   6.473   5.257 -0.0457  0.5661 -0.3059
 3170ntf    fn420543   3.718   6.502   5.065  0.0532  0.0029  0.3700
 3170ntf    on520544   3.476   6.469   4.906  0.1404 -0.3304 -0.0234
 3170ntf    on520545   3.491   6.285   5.064  1.1889  0.0628  0.6197
 3170ntf    on520546   3.179   6.545   5.289 -0.0583 -0.0864 -0.0762
 3170ntf    on520547   3.317   6.346   5.336 -0.0571 -0.8364 -0.2868
 3170ntf    fn420548   3.053   6.259   5.226 -0.3185 -0.6257 -0.1195
 3170ntf    fn420549   3.069   6.395   5.058  0.3644  0.1799  0.0789
 3170ntf    fn420550   3.198   6.227   5.095  0.2372  0.2873  0.1957
 3171ntf    cn120551   4.566   3.414   2.953  0.3493  0.2506 -0.1665
 3171ntf    sn220552   4.408   3.427   3.040  0.3067  0.2196 -0.2391
 3171ntf    nn320553   4.346   3.301   2.971 -0.2713  0.3356  0.0560
 3171ntf    sn220554   4.271   3.294   2.834 -0.2211  0.0207  0.0421
 3171ntf    cn120555   4.331   3.134   2.774 -0.0856  0.0065  0.2174
 3171ntf    fn420556   4.599   3.286   2.946 -0.2606  0.0545  0.5283
 3171ntf    fn420557   4.576   3.471   2.833  0.2236  0.0522 -0.2706
 3171ntf    fn420558   4.658   3.486   3.016  0.1729  0.2929  0.0425
 3171ntf    on520559   4.438   3.421   3.181  0.4275  0.5832 -0.2466
 3171ntf    on520560   4.350   3.547   2.984 -0.5977 -0.0779  0.0359
 3171ntf    on520561   4.326   3.386   2.736 -0.2461 -0.3283 -0.3031
 3171ntf    on520562   4.127   3.281   2.837 -0.2501  0.2145 -0.3277
 3171ntf    fn420563   4.437   3.084   2.835 -0.0800 -0.1013  0.1197
 3171ntf    fn420564   4.236   3.045   2.799  0.4582 -0.5049  0.4843
 3171ntf    fn420565   4.344   3.130   2.642  0.6802  0.2933  0.2751
 3172ntf    cn120566   1.747   1.534   6.154  0.0323 -0.2079  0.3708
 3172ntf    sn220567   1.736   1.354   6.173 -0.0040 -0.2056  0.3700
 3172ntf    nn320568   1.838   1.310   6.062 -0.3541 -0.3004  0.0831
 3172ntf    sn220569   1.845   1.177   5.979  0.0362 -0.0298 -0.3217
 3172ntf    cn120570   1.681   1.177   5.902 -0.2707  0.0473  0.3292
 3172ntf    fn420571   1.649   1.590   6.222 -0.0200  0.1120  0.0331
 3172ntf    fn420572   1.864   1.582   6.192  0.2146 -0.1799 -0.2123
 3172ntf    fn420573   1.734   1.587   6.033 -0.3570 -0.4666  0.2985
 3172ntf    on520574   1.777   1.316   6.306  0.1488  0.1697  0.4314
 3172ntf    on520575   1.597   1.328   6.144 -0.0851  0.5496  0.0842
 3172ntf    on520576   1.852   1.055   6.055  0.5074 -0.2927 -0.7771
 3172ntf    on520577   1.936   1.191   5.868  0.0917  0.3400 -0.2320
 3172ntf    fn420578   1.678   1.099   5.796  0.2621  0.2112  0.1909
 3172ntf    fn420579   1.587   1.118   5.974 -0.4524  0.1982  0.2180
 3172ntf    fn420580   1.631   1.294   5.865 -0.2236 -0.0407 -0.0084
 3173ntf    cn120581   4.705   5.751   5.623  0.3280  0.0711  0.0483
 3173ntf    sn220582   4.850   5.783   5.518  0.1671  0.2771 -0.1101
 3173ntf    nn320583   4.928   5.884   5.609 -0.1559 -0.1466  0.6439
 3173ntf    sn220584   4.929   6.041   5.625  0.2003 -0.0633 -0.1820
 3173ntf    cn120585   5.094   6.075   5.693  0.1600 -0.1314 -0.0497
 3173ntf    fn420586   4.650   5.864   5.663 -0.4972  0.1136 -1.1476
 3173ntf    fn420587   4.602   5.690   5.567 -0.0276 -0.1838  0.9573
 3173ntf    fn420588   4.740   5.674   5.725  0.0037 -0.3668 -0.1682
 3173ntf    on520589   4.913   5.654   5.515  0.4287  0.3981  0.1196
 3173ntf    on520590   4.800   5.840   5.395 -0.5493 -0.0520  0.0249
 3173ntf    on520591   4.836   6.101   5.716 -0.3960 -0.3703 -0.5824
 3173ntf    on520592   4.928   6.100   5.493 -0.0233  0.2637 -0.0346
 3173ntf    fn420593   5.097   6.202   5.733 -0.0833 -0.0755 -0.2065
 3173ntf    fn420594   5.135   6.002   5.795  0.2471 -0.0861 -0.0525
 3173ntf    fn420595   5.198   6.075   5.611 -0.3836 -0.7047 -0.7493
 3174ntf    cn120596   5.877   3.849   2.377  0.3087  0.0601 -0.2032
 3174ntf    sn220597   5.981   3.700   2.387  0.1326 -0.0438  0.0795
 3174ntf    nn320598   6.045   3.728   2.528 -0.5341 -0.8776  0.5582
 3174ntf    sn220599   6.188   3.687   2.579 -0.0229  0.1180 -0.0538
 3174ntf    cn120600   6.148   3.611   2.738  0.0417  0.1929 -0.0013
 3174ntf    fn420601   5.805   3.870   2.268 -0.2334  0.3173  0.1989
 3174ntf    fn420602   5.795   3.867   2.479  0.2930  0.4932 -0.2899
 3174ntf    fn420603   5.969   3.945   2.379  0.4196 -0.0439 -0.2712
 3174ntf    on520604   5.888   3.591   2.375  0.3196 -0.2601  0.5427
 3174ntf    on520605   6.063   3.721   2.270  0.4422  1.3629  0.5207
 3174ntf    on520606   6.271   3.797   2.623 -0.3605  0.2710  0.2003
 3174ntf    on520607   6.252   3.577   2.512 -0.4157 -0.0270 -0.1927
 3174ntf    fn420608   6.079   3.498   2.727 -0.0801  0.2866 -0.2159
 3174ntf    fn420609   6.261   3.582   2.800  0.0530 -0.1772 -0.1930
 3174ntf    fn420610   6.082   3.694   2.817  0.4444  0.1319  0.4023
 3175ntf    cn120611   0.925   4.595   0.934 -0.3458 -0.1869 -0.0191
 3175ntf    sn220612   1.098   4.539   0.939 -0.3687 -0.2915 -0.3726
 3175ntf    nn320613   1.096   4.382   0.940 -0.7556 -0.2833  0.1355
 3175ntf    sn220614   1.090   4.282   0.819 -0.2191 -0.1710  0.0123
 3175ntf    cn120615   0.957   4.166   0.864 -0.1262 -0.3419 -0.1535
 3175ntf    fn420616   0.916   4.719   0.978  0.3956 -0.0217 -0.3096
 3175ntf    fn420617   0.876   4.592   0.811 -0.2498 -0.0140 -0.0613
 3175ntf    fn420618   0.844   4.521   1.008 -0.1125 -0.3419  0.0836
 3175ntf    on520619   1.163   4.590   0.820 -0.0229  0.2438  0.0422
 3175ntf    on520620   1.141   4.602   1.061 -0.2348 -0.4162 -0.3545
 3175ntf    on520621   1.202   4.191   0.816 -0.4581 -0.4845  0.3849
 3175ntf    on520622   1.041   4.333   0.694 -0.1610  0.1816  0.1322
 3175ntf    fn420623   0.982   4.091   0.970  0.1147  0.5081  0.3951
 3175ntf    fn420624   0.839   4.222   0.888 -0.0898 -0.3862  0.1334
 3175ntf    fn420625   0.937   4.085   0.760 -0.1509  0.1342 -0.5219
 3176ntf    cn120626   1.833   3.307   2.508  0.3431 -0.3395  0.0502
 3176ntf    sn220627   1.790   3.279   2.682  0.0869 -0.1240  0.0215
 3176ntf    nn320628   1.906   3.367   2.740  0.1457 -0.0222 -0.2505
 3176ntf    sn220629   1.904   3.484   2.844 -0.0611 -0.2835  0.0401
 3176ntf    cn120630   1.910   3.640   2.752 -0.0117 -0.0446  0.4424
 3176ntf    fn420631   1.942   3.237   2.480  0.7806  0.2608  0.2274
 3176ntf    fn420632   1.740   3.257   2.428  0.1918 -0.3199  0.2133
 3176ntf    fn420633   1.849   3.431   2.464 -0.3696 -0.2250  0.1086
 3176ntf    on520634   1.654   3.328   2.686  0.2329  0.2452  0.4279
 3176ntf    on520635   1.816   3.141   2.713 -0.0002 -0.2089 -0.2762
 3176ntf    on520636   2.037   3.492   2.900 -0.2100  0.5726  0.2871
 3176ntf    on520637   1.795   3.492   2.938 -0.0373  0.3354  0.0230
 3176ntf    fn420638   2.014   3.639   2.670 -0.2790  0.3708  0.0929
 3176ntf    fn420639   1.801   3.668   2.682  0.3167 -0.1023 -0.0992
 3176ntf    fn420640   1.928   3.746   2.829 -0.3265  0.2886  0.0682
 3177ntf    cn120641   4.652   5.118   2.616 -0.3112  0.1103  0.1674
 3177ntf    sn220642   4.814   5.144   2.693 -0.3068 -0.2338  0.2760
 3177ntf    nn320643   4.850   4.999   2.744 -0.7085 -0.3904  0.1161
 3177ntf    sn220644   4.965   4.950   2.838 -0.0763  0.1778 -0.3499
 3177ntf    cn120645   4.875   4.912   2.991 -0.3353  0.0846 -0.5227
 3177ntf    fn420646   4.604   5.226   2.556 -0.0597  0.1034 -0.0512
 3177ntf    fn420647   4.646   5.019   2.528 -0.2781 -0.1614  0.4716
 3177ntf    fn420648   4.570   5.082   2.713 -0.1102 -0.0552  0.2760
 3177ntf    on520649   4.898   5.185   2.583 -0.1112 -0.1104  0.4729
 3177ntf    on520650   4.812   5.237   2.802  0.0826  0.5920 -0.4102
 3177ntf    on520651   5.058   5.047   2.889  0.3146  0.0381 -0.7873
 3177ntf    on520652   5.024   4.823   2.803 -0.2015 -0.1215  0.5058
 3177ntf    fn420653   4.769   4.835   2.972 -0.5260  0.1765  0.1447
 3177ntf    fn420654   4.956   4.854   3.079 -0.6569  0.2460 -0.1159
 3177ntf    fn420655   4.829   5.024   3.045 -0.4372  0.0533 -0.5452
 3178ntf    cn120656   0.426   4.132   1.682  0.1880  0.2560 -0.4103
 3178ntf    sn220657   0.540   4.168   1.818  0.0793 -0.2677 -0.1775
 3178ntf    nn320658   0.568   4.318   1.781 -0.1763 -0.1697  0.0278
 3178ntf    sn220659   0.687   4.380   1.699 -0.0876 -0.0442  0.2517
 3178ntf    cn120660   0.696   4.544   1.778 -0.1502  0.0600  0.0440
 3178ntf    fn420661   0.370   4.014   1.702  0.1675  0.3042 -0.1851
 3178ntf    fn420662   0.326   4.219   1.689 -0.0556 -0.0280 -0.3076
 3178ntf    fn420663   0.473   4.135   1.558  0.2767  0.6543 -0.3679
 3178ntf    on520664   0.461   4.159   1.938  0.7064 -0.1782  0.2472
 3178ntf    on520665   0.646   4.074   1.793  0.2742 -0.2442  0.5246
 3178ntf    on520666   0.652   4.401   1.561 -0.5126  0.1336  0.3837
 3178ntf    on520667   0.809   4.318   1.743 -0.3061 -0.5240  0.1783
 3178ntf    fn420668   0.614   4.623   1.710 -0.3159 -0.2240 -0.0866
 3178ntf    fn420669   0.666   4.554   1.906 -0.3981 -0.4049  0.0220
 3178ntf    fn420670   0.820   4.588   1.763 -0.6043  1.4226  0.1330
 3179ntf    cn120671   5.090   5.004   5.524  0.2126  0.5895  0.2234
 3179ntf    sn220672   5.138   4.978   5.697 -0.0919  0.0392  0.2297
 3179ntf    nn320673   5.154   4.822   5.700 -0.5771 -0.0088  0.4463
 3179ntf    sn220674   5.235   4.729   5.797  0.1335 -0.1123 -0.2383
 3179ntf    cn120675   5.124   4.728   5.941  0.2026 -0.0634 -0.1839
 3179ntf    fn420676   5.189   4.956   5.450  0.2110 -0.1776  0.7041
 3179ntf    fn420677   4.976   4.944   5.495  0.3357  0.6120 -0.3291
 3179ntf    fn420678   5.073   5.132   5.494  0.5140  0.4375 -0.6254
 3179ntf    on520679   5.259   5.055   5.716  0.2308 -0.3147 -0.3701
 3179ntf    on520680   5.016   5.008   5.768 -0.0117 -0.3526  0.5345
 3179ntf    on520681   5.355   4.777   5.860  0.0803  0.4662 -0.5687
 3179ntf    on520682   5.229   4.596   5.743  0.8062 -0.3687  0.3087
 3179ntf    fn420683   4.999   4.705   5.905  0.0400  0.3511  0.1068
 3179ntf    fn420684   5.146   4.628   6.025 -0.3378 -0.3011 -0.3267
 3179ntf    fn420685   5.122   4.836   6.016  0.1717 -0.1605 -0.0454
 3180ntf    cn120686   6.660   2.317   7.054  0.3783  0.3303  0.3883
 3180ntf    sn220687   6.526   2.273   6.939  0.5166  0.0832  0.3204
 3180ntf    nn320688   6.582   2.346   6.811  0.2452  0.1714  0.2524
 3180ntf    sn220689   6.671   2.293   6.693  0.0863 -0.0279  0.2210
 3180ntf    cn120690   6.556   2.185   6.604 -0.0863  0.1626  0.2127
 3180ntf    fn420691   6.638   2.284   7.180 -0.5077 -0.3230  0.0701
 3180ntf    fn420692   6.774   2.253   7.031  0.2402  0.1542  0.1877
 3180ntf    fn420693   6.694   2.444   7.045  0.4874  0.3210  0.6594
 3180ntf    on520694   6.534   2.130   6.945 -0.0395  0.0658  0.6021
 3180ntf    on520695   6.409   2.334   6.997  0.2088  0.0953 -0.3018
 3180ntf    on520696   6.790   2.220   6.730 -0.3470 -0.9234 -0.1297
 3180ntf    on520697   6.705   2.401   6.603  0.6949  0.3386  0.8679
 3180ntf    fn420698   6.438   2.237   6.573  0.0746  0.3313 -0.1128
 3180ntf    fn420699   6.607   2.149   6.488 -0.0316  0.0871  0.2595
 3180ntf    fn420700   6.536   2.075   6.675 -0.4643 -0.1117 -0.3185
 3181ntf    cn120701   5.409   3.534   4.645 -0.0072 -0.1588  0.3619
 3181ntf    sn220702   5.279   3.642   4.713  0.0528  0.1445 -0.0025
 3181ntf    nn320703   5.144   3.569   4.678 -0.1582  0.4912  0.0877
 3181ntf    sn220704   5.029   3.624   4.588 -0.2568 -0.2210 -0.2279
 3181ntf    cn120705   5.095   3.567   4.429 -0.1430  0.2234 -0.3433
 3181ntf    fn420706   5.396   3.510   4.516  0.3802 -0.4736  0.3777
 3181ntf    fn420707   5.526   3.596   4.640 -0.0827 -0.0053  0.5021
 3181ntf    fn420708   5.429   3.413   4.695 -0.5562 -0.2969  0.2455
 3181ntf    on520709   5.311   3.644   4.853  0.3523  0.2087 -0.0712
 3181ntf    on520710   5.295   3.768   4.645  0.2274  0.2321  0.1988
 3181ntf    on520711   5.016   3.767   4.575 -0.2112 -0.2175 -0.2363
 3181ntf    on520712   4.905   3.556   4.615 -0.0660 -0.3635  0.2963
 3181ntf    fn420713   5.005   3.563   4.332 -0.3016 -0.1669 -0.1829
 3181ntf    fn420714   5.206   3.626   4.389 -0.1017  0.4827  0.1577
 3181ntf    fn420715   5.138   3.442   4.438  0.0014  0.2642 -0.4570
 3182ntf    cn120716   1.169   1.909   2.234 -0.1635 -0.3486 -0.2102
 3182ntf    sn220717   1.281   1.927   2.376 -0.0426 -0.1273 -0.3336
 3182ntf    nn320718   1.372   1.799   2.365 -0.4455 -0.3921 -0.6163
 3182ntf    sn220719   1.411   1.698   2.479 -0.2778  0.3774  0.0188
 3182ntf    cn120720   1.587   1.736   2.499 -0.1073 -0.1375 -0.4716
 3182ntf    fn420721   1.112   2.026   2.209  0.0928 -0.0470  0.5850
 3182ntf    fn420722   1.243   1.873   2.130 -0.1796  0.5336 -0.5392
 3182ntf    fn420723   1.067   1.827   2.253 -0.2798 -0.0936  0.2804
 3182ntf    on520724   1.343   2.052   2.339  0.1882 -0.3210 -0.6111
 3182ntf    on520725   1.200   1.929   2.495  0.4109  0.0037 -0.0237
 3182ntf    on520726   1.416   1.563   2.427 -0.1503  0.7034 -0.8404
 3182ntf    on520727   1.353   1.711   2.610 -0.0403  0.3682  0.1252
 3182ntf    fn420728   1.626   1.862   2.482 -0.4202  0.0014 -0.1688
 3182ntf    fn420729   1.641   1.705   2.616 -0.7569 -0.2761 -0.2067
 3182ntf    fn420730   1.662   1.671   2.411 -0.3039  0.5650 -1.1747
 3183ntf    cn120731   6.563   1.179   0.020 -0.0041 -0.0124 -0.5548
 3183ntf    sn220732   6.668   1.039   0.070 -0.2804  0.0750  0.2827
 3183ntf    nn320733   6.609   1.025   0.215  0.0554  0.7713  0.4886
 3183ntf    sn220734   6.467   0.970   0.253  0.1593  0.1786  0.0327
 3183ntf    cn120735   6.501   0.794   0.281 -0.1168  0.1955  0.4703
 3183ntf    fn420736   6.565   1.263   0.121  0.2396 -0.0391 -0.5365
 3183ntf    fn420737   6.595   1.257  -0.083 -0.0179  0.5349 -0.1481
 3183ntf    fn420738   6.436   1.144   0.007 -0.0759  0.0964 -0.1382
 3183ntf    on520739   6.638   0.928  -0.018 -0.0985  0.1021  0.1865
 3183ntf    on520740   6.803   1.089   0.058 -0.2208 -0.0553  0.4192
 3183ntf    on520741   6.369   0.963   0.148  0.2378  0.2343 -0.0453
 3183ntf    on520742   6.422   1.014   0.382  0.4445 -0.1507  0.2454
 3183ntf    fn420743   6.394   0.731   0.328 -0.4992  0.3050 -0.2428
 3183ntf    fn420744   6.533   0.746   0.162 -0.7719 -0.0805  0.3986
 3183ntf    fn420745   6.596   0.754   0.364 -0.1005 -0.4619  0.1417
 3184ntf    cn120746   0.860   5.939   3.001  0.0791 -0.2188 -0.0400
 3184ntf    sn220747   0.718   5.861   3.086 -0.1671  0.0130 -0.2374
 3184ntf    nn320748   0.801   5.774   3.186  0.0673  0.5621  0.0518
 3184ntf    sn220749   0.866   5.831   3.318  0.2540  0.2056  0.1170
 3184ntf    cn120750   0.754   5.763   3.444  0.0428 -0.2656 -0.3173
 3184ntf    fn420751   0.952   5.852   2.962  0.3704  0.0855 -0.0325
 3184ntf    fn420752   0.820   6.006   2.894 -0.2011 -0.7763 -0.2896
 3184ntf    fn420753   0.926   6.024   3.078  0.5338 -0.5661 -0.0432
 3184ntf    on520754   0.639   5.961   3.153  0.4794  0.2071  0.2486
 3184ntf    on520755   0.653   5.787   2.981 -0.0795  0.0220 -0.2980
 3184ntf    on520756   0.861   5.974   3.337 -0.7680  0.2094 -0.0915
 3184ntf    on520757   0.990   5.767   3.351  0.1842 -0.0624 -0.1319
 3184ntf    fn420758   0.642   5.833   3.457  0.2864  0.1409 -0.3621
 3184ntf    fn420759   0.720   5.637   3.424 -0.2838 -0.3006  0.4204
 3184ntf    fn420760   0.813   5.768   3.563  0.0168 -0.0079 -0.3137
 3185ntf    cn120761   0.592   4.044   0.060  0.5773  0.3197 -0.0901
 3185ntf    sn220762   0.707   3.908   0.024  0.2789  0.1587 -0.4364
 3185ntf    nn320763   0.745   3.918  -0.128  0.3798 -0.2417 -0.4396
 3185ntf    sn220764   0.882   3.940  -0.202  0.6110 -0.3467 -0.0444
 3185ntf    cn120765   0.844   4.084  -0.306 -0.1092 -0.3821  0.1624
 3185ntf    fn420766   0.567   4.055   0.189 -0.4760  0.0254 -0.2650
 3185ntf    fn420767   0.624   4.161   0.006  0.1727  0.3263 -0.3152
 3185ntf    fn420768   0.474   4.017   0.006  0.5144 -0.0841  0.2454
 3185ntf    on520769   0.819   3.922   0.113  0.0705 -0.0140 -0.1445
 3185ntf    on520770   0.627   3.789   0.043  0.0488  0.3769 -0.0389
 3185ntf    on520771   0.903   3.840  -0.303  0.4640 -0.6673  0.2403
 3185ntf    on520772   0.999   3.984  -0.129  0.3681  0.6529 -0.2472
 3185ntf    fn420773   0.949   4.152  -0.350 -0.5939  0.1050 -0.2531
 3185ntf    fn420774   0.790   4.037  -0.417 -0.1724 -0.1037  0.0745
 3185ntf    fn420775   0.764   4.170  -0.247 -0.1085 -0.0242 -0.3558
 3186ntf    cn120776   5.226   4.045   2.417 -0.2393 -0.1097  0.2483
 3186ntf    sn220777   5.397   4.050   2.478 -0.1869 -0.3660  0.1249
 3186ntf    nn320778   5.411   4.199   2.527 -0.7649 -0.0944 -0.5184
 3186ntf    sn220779   5.481   4.320   2.455  0.0310 -0.1895  0.0784
 3186ntf    cn120780   5.336   4.371   2.357  0.0249 -0.2510  0.0555
 3186ntf    fn420781   5.141   4.073   2.515  0.2687  0.7512  0.4513
 3186ntf    fn420782   5.217   4.136   2.321 -0.0580 -0.5049 -0.1447
 3186ntf    fn420783   5.193   3.929   2.362 -0.4253  0.1068 -0.0977
 3186ntf    on520784   5.400   3.961   2.591 -0.4057  0.0861  0.4930
 3186ntf    on520785   5.480   4.019   2.365 -0.2639 -0.1987  0.0217
 3186ntf    on520786   5.578   4.286   2.355  0.2774 -0.3672  0.3756
 3186ntf    on520787   5.505   4.439   2.534  0.2799 -0.0656 -0.1840
 3186ntf    fn420788   5.321   4.294   2.250 -0.5814  0.0485 -0.0786
 3186ntf    fn420789   5.229   4.359   2.433  0.1245 -0.6934  0.1319
 3186ntf    fn420790   5.341   4.489   2.299 -0.1524 -0.2396  0.0621
 3187ntf    cn120791   6.476   2.395   6.242  0.1719  0.1334 -0.1764
 3187ntf    sn220792   6.375   2.490   6.126 -0.3373 -0.1878  0.0003
 3187ntf    nn320793   6.442   2.459   5.988 -0.1094  0.4233 -0.0305
 3187ntf    sn220794   6.378   2.383   5.866 -0.0552 -0.0188  0.2158
 3187ntf    cn120795   6.280   2.515   5.789 -0.0268 -0.3088 -0.3211
 3187ntf    fn420796   6.604   2.401   6.209  0.1256 -0.2483 -0.4292
 3187ntf    fn420797   6.464   2.443   6.365 -0.7500  0.6537 -0.4624
 3187ntf    fn420798   6.446   2.266   6.251  0.5161  0.0234 -0.6143
 3187ntf    on520799   6.236   2.452   6.139 -0.3403 -0.1350  0.1242
 3187ntf    on520800   6.408   2.624   6.168  0.2499 -0.4466  0.3633
 3187ntf    on520801   6.288   2.272   5.886 -0.2226  0.0663 -0.0598
 3187ntf    on520802   6.476   2.372   5.762 -0.0977 -0.8677  0.2582
 3187ntf    fn420803   6.205   2.575   5.881  0.2549  0.0004 -0.2923
 3187ntf    fn420804   6.360   2.607   5.739  0.2240 -0.2321  0.2191
 3187ntf    fn420805   6.205   2.464   5.693  0.0925 -0.7232 -0.1947
 3188ntf    cn120806   0.624   5.866   6.490 -0.0542 -0.0238 -0.0107
 3188ntf    sn220807   0.508   5.987   6.421 -0.2936 -0.2257  0.0360
 3188ntf    nn320808   0.400   5.983   6.535 -0.2742  0.0718  0.0667
 3188ntf    sn220809   0.271   6.073   6.532 -0.1699  0.2145 -0.1880
 3188ntf    cn120810   0.319   6.217   6.632  0.2672 -0.1910  0.1971
 3188ntf    fn420811   0.744   5.884   6.436 -0.0309 -0.2699 -0.0413
 3188ntf    fn420812   0.653   5.887   6.617 -0.5760 -0.2748  0.1538
 3188ntf    fn420813   0.582   5.742   6.473  0.0994 -0.0392 -0.2802
 3188ntf    on520814   0.585   6.109   6.421  0.1158 -0.4849  0.0748
 3188ntf    on520815   0.468   5.933   6.293 -0.4278 -0.3089  0.1124
 3188ntf    on520816   0.169   6.011   6.613 -0.1473  0.2110 -0.1620
 3188ntf    on520817   0.234   6.116   6.400 -0.0439  0.3228 -0.1877
 3188ntf    fn420818   0.410   6.182   6.721  0.1377  0.3163  0.5307
 3188ntf    fn420819   0.381   6.308   6.559 -0.1117 -0.2712 -0.2277
 3188ntf    fn420820   0.213   6.270   6.690 -0.0706 -0.1906 -0.4039
 3189ntf    cn120821   5.614   3.062   5.593 -0.0952 -0.1612  0.0962
 3189ntf    sn220822   5.470   2.975   5.661 -0.0935 -0.2247  0.0192
 3189ntf    nn320823   5.543   2.934   5.794  0.2456 -0.2382 -0.1690
 3189ntf    sn220824   5.580   2.792   5.851  0.3608 -0.2317 -0.2291
 3189ntf    cn120825   5.443   2.773   5.970  0.1534  0.1514 -0.4043
 3189ntf    fn420826   5.721   2.984   5.588 -0.0095 -0.0426  0.0526
 3189ntf    fn420827   5.601   3.103   5.468 -0.4101 -0.1564  0.1296
 3189ntf    fn420828   5.652   3.165   5.668  0.0755  0.1426 -0.4007
 3189ntf    on520829   5.381   3.087   5.681 -0.3383 -0.4473  0.1881
 3189ntf    on520830   5.447   2.882   5.554  0.6218 -0.0039 -0.3297
 3189ntf    on520831   5.696   2.796   5.936  0.3795  0.6388 -0.2837
 3189ntf    on520832   5.556   2.674   5.772  0.0411 -0.3648  0.0656
 3189ntf    fn420833   5.327   2.762   5.908  0.0710 -0.9807 -0.0768
 3189ntf    fn420834   5.454   2.665   6.045 -0.9439  0.2704 -0.0661
 3189ntf    fn420835   5.436   2.872   6.057  0.5861 -0.6845  0.6061
 3190ntf    cn120836   4.974   4.198   6.506  0.5197  0.1628  0.0725
 3190ntf    sn220837   4.962   4.335   6.626 -0.1159  0.1215  0.0589
 3190ntf    nn320838   5.024   4.452   6.541  0.0701 -0.0246 -0.0074
 3190ntf    sn220839   5.176   4.493   6.538 -0.0347  0.3515 -0.0842
 3190ntf    cn120840   5.221   4.430   6.374 -0.2476  0.3568 -0.1456
 3190ntf    fn420841   4.919   4.239   6.393 -0.1979 -0.0253  0.3455
 3190ntf    fn420842   5.095   4.164   6.465  0.3634 -0.2806 -0.0299
 3190ntf    fn420843   4.909   4.088   6.541  0.3552  0.2193 -0.0541
 3190ntf    on520844   4.821   4.354   6.648 -0.1182 -0.2500  0.3798
 3190ntf    on520845   5.043   4.291   6.736 -0.1062  0.8314  0.3372
 3190ntf    on520846   5.266   4.436   6.635  0.1575  0.1160 -0.4052
 3190ntf    on520847   5.193   4.636   6.543  0.2851  0.3208 -0.3390
 3190ntf    fn420848   5.139   4.487   6.287 -0.1833 -0.0645 -0.4852
 3190ntf    fn420849   5.341   4.463   6.330  0.2376 -0.9742  0.1349
 3190ntf    fn420850   5.220   4.298   6.379  0.3780  0.3559  0.0346
 3191ntf    cn120851   5.695   4.400   4.362  0.2349 -0.0662 -0.0828
 3191ntf    sn220852   5.686   4.334   4.193 -0.2911 -0.3033  0.0365
 3191ntf    nn320853   5.786   4.212   4.192  0.2056  0.0984 -0.5554
 3191ntf    sn220854   5.933   4.209   4.139  0.4672  0.0291  0.1561
 3191ntf    cn120855   5.921   4.167   3.962  0.0345  0.2684  0.1286
 3191ntf    fn420856   5.614   4.504   4.371 -0.0443 -0.2224 -0.7336
 3191ntf    fn420857   5.658   4.320   4.461  0.1022  0.0302 -0.0540
 3191ntf    fn420858   5.814   4.452   4.390  0.1259  0.1270  0.0211
 3191ntf    on520859   5.548   4.297   4.178 -0.4454  0.1588  0.3084
 3191ntf    on520860   5.729   4.440   4.105 -0.0820 -0.2360  0.2192
 3191ntf    on520861   6.011   4.100   4.192 -0.0279 -0.3755  0.0613
 3191ntf    on520862   6.001   4.337   4.131 -0.3263  0.4163 -0.6262
 3191ntf    fn420863   6.040   4.152   3.907 -0.0599  0.3556 -0.1039
 3191ntf    fn420864   5.847   4.061   3.937  0.2234  0.0435  0.5237
 3191ntf    fn420865   5.866   4.251   3.875  0.0823 -0.0107 -0.1732
 3192ntf    cn120866   3.408   5.101   1.217  0.1087 -0.2599  0.3714
 3192ntf    sn220867   3.262   5.181   1.289  0.0132  0.0414 -0.1443
 3192ntf    nn320868   3.274   5.145   1.442 -0.3665  0.2153 -0.0717
 3192ntf    sn220869   3.195   5.038   1.524  0.3018 -0.0064  0.2903
 3192ntf    cn120870   3.305   5.011   1.667  0.3853 -0.1942  0.1910
 3192ntf    fn420871   3.404   4.972   1.245 -0.0179 -0.4103 -0.3193
 3192ntf    fn420872   3.414   5.107   1.084  0.8299  0.7399  0.4327
 3192ntf    fn420873   3.514   5.155   1.275  0.1329  0.4685 -0.3246
 3192ntf    on520874   3.271   5.323   1.270 -0.1663  0.1828  0.7736
 3192ntf    on520875   3.157   5.117   1.214 -0.1088 -0.1109  0.1538
 3192ntf    on520876   3.186   4.911   1.457  0.0676  0.1695 -0.0109
 3192ntf    on520877   3.070   5.091   1.573  0.0884  0.2028 -0.4638
 3192ntf    fn420878   3.309   5.116   1.747 -0.4313  0.1307 -0.1804
 3192ntf    fn420879   3.264   4.914   1.746 -0.1921 -0.2046 -0.1161
 3192ntf    fn420880   3.426   4.975   1.629  0.5096  0.2356  0.1709
 3193ntf    cn120881   3.427   0.902   4.286  0.1173  0.0847 -0.8785
 3193ntf    sn220882   3.532   0.818   4.408 -0.4148 -0.0022 -0.4799
 3193ntf    nn320883   3.556   0.672   4.355  0.2387 -0.0756  0.0076
 3193ntf    sn220884   3.694   0.609   4.315  0.2115 -0.2157  0.1321
 3193ntf    cn120885   3.662   0.574   4.140  0.2380  0.2689  0.0291
 3193ntf    fn420886   3.395   1.026   4.321  0.5654  0.0448 -0.3214
 3193ntf    fn420887   3.476   0.911   4.163  0.0422  0.8991 -0.8570
 3193ntf    fn420888   3.312   0.843   4.261 -0.1273  0.1390  0.0653
 3193ntf    on520889   3.647   0.904   4.416 -0.5094  0.0156  1.0046
 3193ntf    on520890   3.445   0.813   4.523 -0.0663  0.4796 -0.1940
 3193ntf    on520891   3.710   0.478   4.373  0.3578 -0.4677 -0.4758
 3193ntf    on520892   3.811   0.694   4.311 -0.1725  0.2922 -0.3851
 3193ntf    fn420893   3.536   0.544   4.114  0.2990 -0.4069  0.4880
 3193ntf    fn420894   3.703   0.675   4.064  0.2397 -0.1578 -0.5434
 3193ntf    fn420895   3.739   0.475   4.098  0.0275  0.0063  0.2600
 3194ntf    cn120896   5.202   5.267   4.689  0.1785  0.1662  0.4299
 3194ntf    sn220897   5.190   5.088   4.717 -0.0521  0.1218  0.0545
 3194ntf    nn320898   5.117   5.094   4.857  0.6768  0.2696  0.4322
 3194ntf    sn220899   5.109   4.983   4.968 -0.4994 -0.1779 -0.0898
 3194ntf    cn120900   5.060   5.094   5.103 -0.3137 -0.2064  0.0016
 3194ntf    fn420901   5.117   5.336   4.765 -0.3971 -0.0226 -0.0369
 3194ntf    fn420902   5.321   5.320   4.712  0.0632  0.4532  0.3717
 3194ntf    fn420903   5.168   5.291   4.564 -0.2992  0.3151  0.5866
 3194ntf    on520904   5.105   5.042   4.610 -0.0475  0.0567  0.0786
 3194ntf    on520905   5.326   5.040   4.713  0.1382  0.6564  0.0695
 3194ntf    on520906   5.233   4.931   5.017 -0.1824  0.4422 -0.2226
 3194ntf    on520907   5.000   4.891   4.949 -0.0778 -0.6139 -0.4099
 3194ntf    fn420908   5.027   5.025   5.211 -0.0548  0.2334  0.3662
 3194ntf    fn420909   5.162   5.173   5.133 -0.2423 -0.1821 -0.3084
 3194ntf    fn420910   4.960   5.174   5.069  0.5692  0.9088 -0.0258
 3195ntf    cn120911   2.692   4.698   4.406  0.3340  0.1510 -0.1791
 3195ntf    sn220912   2.644   4.813   4.539 -0.6146  0.2313 -0.5815
 3195ntf    nn320913   2.763   4.804   4.642 -0.7018 -0.1923 -0.5161
 3195ntf    sn220914   2.781   4.690   4.748 -0.1155  0.2141 -0.1789
 3195ntf    cn120915   2.961   4.666   4.736 -0.1272 -0.0025  0.0628
 3195ntf    fn420916   2.771   4.601   4.449 -0.1993 -0.0344  0.4064
 3195ntf    fn420917   2.584   4.642   4.353  0.4550 -0.0946 -0.1690
 3195ntf    fn420918   2.755   4.754   4.305  0.7385  0.3899  0.1990
 3195ntf    on520919   2.631   4.942   4.476 -0.0388  0.3322 -0.5022
 3195ntf    on520920   2.517   4.779   4.596 -0.2877 -0.8293 -0.4541
 3195ntf    on520921   2.725   4.566   4.702  0.1405  0.0244  0.0152
 3195ntf    on520922   2.758   4.741   4.881  0.1343 -0.9300  0.3109
 3195ntf    fn420923   3.002   4.628   4.616 -0.0565 -0.7128  0.3107
 3195ntf    fn420924   3.037   4.770   4.766  0.1740 -0.0473 -0.5321
 3195ntf    fn420925   3.001   4.581   4.828  0.1337  0.0910  0.0346
 3196ntf    cn120926   1.143   4.720   2.470  0.0814 -0.1760  0.2146
 3196ntf    sn220927   1.158   4.896   2.426 -0.0190 -0.3265 -0.4391
 3196ntf    nn320928   1.300   4.893   2.359 -0.0007 -0.0111 -0.4138
 3196ntf    sn220929   1.442   4.916   2.422 -0.2091  0.0965  0.0217
 3196ntf    cn120930   1.478   5.086   2.370 -0.0032 -0.1198 -0.5469
 3196ntf    fn420931   1.141   4.639   2.365  0.4178  0.0758  0.0112
 3196ntf    fn420932   1.252   4.687   2.537  0.2452 -0.1127 -0.0200
 3196ntf    fn420933   1.043   4.701   2.554 -0.1152  0.4527  0.1261
 3196ntf    on520934   1.052   4.907   2.329 -0.2464 -0.7407 -0.2391
 3196ntf    on520935   1.147   4.970   2.550  0.2430 -0.4087 -0.3652
 3196ntf    on520936   1.552   4.838   2.371 -0.4373 -0.1567 -0.0870
 3196ntf    on520937   1.443   4.913   2.566  0.0981  0.9745  0.0471
 3196ntf    fn420938   1.575   5.144   2.438 -0.7001  0.8724 -0.3665
 3196ntf    fn420939   1.506   5.103   2.241 -0.2273 -0.2082 -0.6075
 3196ntf    fn420940   1.371   5.159   2.399  0.0672  0.1397 -0.9314
 3197ntf    cn120941   6.168   1.443   3.820 -0.2336 -0.3606  0.2955
 3197ntf    sn220942   6.295   1.408   3.946  0.2466 -0.0025 -0.0843
 3197ntf    nn320943   6.420   1.488   3.897 -0.1404  0.9312  0.4203
 3197ntf    sn220944   6.568   1.461   3.943 -0.1725 -0.3818 -0.1879
 3197ntf    cn120945   6.630   1.630   3.967 -0.5613 -0.2826  0.1298
 3197ntf    fn420946   6.156   1.574   3.807  0.1927 -0.4023 -0.5510
 3197ntf    fn420947   6.214   1.411   3.701 -0.6677  0.8450 -0.2049
 3197ntf    fn420948   6.055   1.378   3.841 -0.4637  0.0689  0.3798
 3197ntf    on520949   6.242   1.462   4.069  0.0781 -0.1003 -0.1127
 3197ntf    on520950   6.300   1.266   3.920 -0.2095 -0.0187 -0.1005
 3197ntf    on520951   6.658   1.419   3.838 -0.3101 -0.0076 -0.4614
 3197ntf    on520952   6.581   1.398   4.071  0.1121 -0.2313 -0.1409
 3197ntf    fn420953   6.530   1.706   4.008 -0.1516  0.3292  0.0120
 3197ntf    fn420954   6.731   1.646   4.052  0.0563 -0.5899 -0.5395
 3197ntf    fn420955   6.663   1.693   3.855 -0.3135 -0.1609  0.2698
 3198ntf    cn120956   6.825   4.437   1.289  0.2490 -0.0098  0.3661
 3198ntf    sn220957   6.916   4.281   1.273  0.0272 -0.1271  0.2702
 3198ntf    nn320958   6.916   4.265   1.116  0.1381  0.4110  0.2147
 3198ntf    sn220959   7.028   4.305   1.015 -0.2483  0.0423 -0.3648
 3198ntf    cn120960   6.928   4.322   0.864  0.0969 -0.2863 -0.6330
 3198ntf    fn420961   6.889   4.542   1.238  0.2951 -0.1949  0.0467
 3198ntf    fn420962   6.699   4.443   1.250  0.3616  0.5191  0.0702
 3198ntf    fn420963   6.828   4.467   1.418  0.6370 -0.7424  0.5320
 3198ntf    on520964   7.046   4.297   1.332  0.0492  0.5502  0.0459
 3198ntf    on520965   6.829   4.183   1.334  0.4560 -0.3213  0.5802
 3198ntf    on520966   7.120   4.196   0.990 -0.2000 -0.0234  0.0995
 3198ntf    on520967   7.078   4.440   1.027 -0.4052  0.0983 -0.3397
 3198ntf    fn420968   6.829   4.409   0.876  0.1589 -0.3347  0.3211
 3198ntf    fn420969   7.004   4.369   0.766  0.1356  0.1090 -0.4150
 3198ntf    fn420970   6.881   4.210   0.813 -0.0944 -0.5124  0.0423
 3199ntf    cn120971   1.985   0.013   2.313 -0.1178  0.4202  0.2430
 3199ntf    sn220972   1.916  -0.155   2.311  0.0867  0.3338  0.4637
 3199ntf    nn320973   1.975  -0.209   2.446 -0.1068  0.0590  0.4400
 3199ntf    sn220974   1.896  -0.244   2.577 -0.2486  0.0954  0.3639
 3199ntf    cn120975   1.887  -0.424   2.555 -0.3949  0.1775 -0.2559
 3199ntf    fn420976   1.996   0.070   2.194 -0.2694  0.3399  0.1898
 3199ntf    fn420977   1.916   0.091   2.395 -0.3383  0.7771 -0.2747
 3199ntf    fn420978   2.104   0.022   2.370 -0.1907  0.1111  0.4476
 3199ntf    on520979   1.773  -0.136   2.312  0.0241 -0.1097 -0.0133
 3199ntf    on520980   1.974  -0.215   2.194  0.4462  0.8027  0.3992
 3199ntf    on520981   1.757  -0.205   2.579 -0.1725  0.4064 -0.1868
 3199ntf    on520982   1.961  -0.244   2.706  0.0036 -0.2435  0.2359
 3199ntf    fn420983   1.796  -0.482   2.631 -0.0006  0.1506  0.1977
 3199ntf    fn420984   1.850  -0.464   2.434 -0.1505  0.1228 -0.3126
 3199ntf    fn420985   1.999  -0.489   2.580 -0.4225  0.2150 -0.0335
 3200ntf    cn120986   6.156   6.028   4.465  0.5284  0.0496  0.1898
 3200ntf    sn220987   5.978   6.061   4.444  0.5038 -0.1359  0.1044
 3200ntf    nn320988   5.978   6.205   4.505  0.7000  0.0370 -0.2959
 3200ntf    sn220989   5.919   6.251   4.644  0.4700  0.0988 -0.4137
 3200ntf    cn120990   5.746   6.278   4.594  0.3266 -0.3352 -0.1616
 3200ntf    fn420991   6.238   6.125   4.429  0.0758  0.3678 -0.0004
 3200ntf    fn420992   6.177   6.011   4.594 -0.4114 -0.1914  0.3190
 3200ntf    fn420993   6.199   5.924   4.395 -0.8881  0.0173 -0.6912
 3200ntf    on520994   5.960   6.061   4.301  0.7425 -0.4573  0.0709
 3200ntf    on520995   5.906   5.959   4.517  0.3629 -0.4874 -0.5180
 3200ntf    on520996   5.967   6.374   4.701  0.3884  0.0774 -0.2995
 3200ntf    on520997   5.904   6.141   4.736 -0.2550  0.2605 -0.3343
 3200ntf    fn420998   5.700   6.173   4.528  0.6384 -0.4609 -0.1828
 3200ntf    fn420999   5.677   6.314   4.700  1.0123 -0.0341  0.1877
 3200ntf    fn421000   5.744   6.381   4.511 -0.2845  0.1679  0.4755
 3201ntf    cn121001   3.430   4.018   2.767 -0.1491 -0.1309 -0.1850
 3201ntf    sn221002   3.564   4.072   2.877 -0.2868 -0.0109 -0.0739
 3201ntf    nn321003   3.506   4.036   3.018 -0.3434 -0.1840 -0.1410
 3201ntf    sn221004   3.429   4.114   3.131 -0.0115 -0.1191  0.0412
 3201ntf    cn121005   3.262   4.043   3.120 -0.0226 -0.2121  0.7930
 3201ntf    fn421006   3.313   4.044   2.824  0.0327 -0.0082  0.1311
 3201ntf    fn421007   3.426   4.074   2.647  0.2434  0.2614 -0.0165
 3201ntf    fn421008   3.430   3.887   2.748  0.0277 -0.0518 -0.7232
 3201ntf    on521009   3.673   3.986   2.838 -0.0616  0.3153 -0.1740
 3201ntf    on521010   3.575   4.214   2.851 -0.0264  0.0336  0.2691
 3201ntf    on521011   3.405   4.255   3.112 -0.5302 -0.3056 -0.7185
 3201ntf    on521012   3.461   4.084   3.268 -0.1962  0.0696  0.1261
 3201ntf    fn421013   3.259   3.914   3.151 -0.3938 -0.3771  0.0843
 3201ntf    fn421014   3.185   4.098   3.212  0.1967  0.3222  0.6616
 3201ntf    fn421015   3.195   4.066   3.009  0.9316  0.8310  0.4179
 3202ntf    cn121016   6.121   1.023   1.077  0.5614  0.1659  0.5320
 3202ntf    sn221017   6.215   1.001   0.923  0.2296  0.3810  0.2961
 3202ntf    nn321018   6.324   0.900   0.974 -0.0148 -0.0296  0.0061
 3202ntf    sn221019   6.303   0.747   1.005 -0.1718 -0.0124 -0.0133
 3202ntf    cn121020   6.341   0.680   0.840  0.1003 -0.3630  0.1931
 3202ntf    fn421021   6.042   0.923   1.113  0.2570 -0.0125 -0.5730
 3202ntf    fn421022   6.188   1.065   1.183  0.8838  0.3429  0.2592
 3202ntf    fn421023   6.037   1.125   1.070  0.3385 -0.0451  0.0615
 3202ntf    on521024   6.112   0.950   0.836  0.1241  0.1451  0.5601
 3202ntf    on521025   6.265   1.133   0.893  0.0498  0.4142  0.1466
 3202ntf    on521026   6.167   0.708   1.033 -0.0870  0.1979  0.7085
 3202ntf    on521027   6.413   0.701   1.086  0.2323  0.7438 -0.1139
 3202ntf    fn421028   6.265   0.739   0.750  0.0362 -0.2629  0.3135
 3202ntf    fn421029   6.464   0.710   0.800  0.2420 -0.8720  0.2355
 3202ntf    fn421030   6.336   0.547   0.841  0.2711 -0.3710  0.0114
 3203ntf    cn121031   6.740   0.786   6.261  0.3972 -0.0960  0.3358
 3203ntf    sn221032   6.631   0.745   6.401  0.4163  0.1477  0.4213
 3203ntf    nn321033   6.511   0.841   6.369 -0.0036 -0.5285 -0.0685
 3203ntf    sn221034   6.372   0.807   6.305 -0.1332  0.1945 -0.1808
 3203ntf    cn121035   6.361   0.943   6.184  0.0912  0.1749 -0.2234
 3203ntf    fn421036   6.675   0.770   6.147  0.2983  0.0326  0.3733
 3203ntf    fn421037   6.776   0.913   6.253 -0.2351  0.1109  0.7043
 3203ntf    fn421038   6.853   0.718   6.257 -0.1231 -0.9496 -0.2154
 3203ntf    on521039   6.598   0.607   6.379  0.3643  0.1051  0.7653
 3203ntf    on521040   6.710   0.787   6.514 -0.4052  0.0224  1.0439
 3203ntf    on521041   6.266   0.841   6.396 -0.4115  0.0958 -0.4683
 3203ntf    on521042   6.368   0.689   6.223  0.0276 -0.6598  1.0230
 3203ntf    fn421043   6.391   1.061   6.236 -0.2447  0.0670  0.2124
 3203ntf    fn421044   6.444   0.906   6.088  0.9270  0.3352  0.4226
 3203ntf    fn421045   6.239   0.944   6.133  0.0234 -0.5116 -0.0877
 3204ntf    cn121046   2.721   7.143   1.006  0.0833 -0.3647  0.1068
 3204ntf    sn221047   2.792   7.311   1.007 -0.0869 -0.2909  0.5616
 3204ntf    nn321048   2.681   7.390   1.083 -0.3891 -0.0040 -0.1656
 3204ntf    sn221049   2.563   7.480   1.032 -0.1681  0.3837 -0.0051
 3204ntf    cn121050   2.662   7.631   1.012 -0.0565  0.3600  0.3494
 3204ntf    fn421051   2.787   7.054   0.934  0.0062 -0.1578 -0.2203
 3204ntf    fn421052   2.720   7.092   1.128  0.4784  0.6732  0.5626
 3204ntf    fn421053   2.596   7.145   0.964  0.1508  0.2040 -0.0829
 3204ntf    on521054   2.909   7.307   1.091  0.1639 -0.2992  0.2170
 3204ntf    on521055   2.819   7.344   0.869 -0.0566 -0.1524  0.6004
 3204ntf    on521056   2.462   7.515   1.129 -0.1899 -0.5889  0.3412
 3204ntf    on521057   2.519   7.443   0.900  0.4127 -0.7820  0.1132
 3204ntf    fn421058   2.588   7.740   0.998  0.0116  0.3770  0.1064
 3204ntf    fn421059   2.735   7.644   1.121  0.9133  0.0752 -0.2526
 3204ntf    fn421060   2.742   7.617   0.907 -0.5809  0.3032 -0.0518
 3205ntf    cn121061   2.125   1.669   3.753  0.2744  0.0461 -0.6811
 3205ntf    sn221062   2.081   1.583   3.599 -0.2223  0.3092 -0.6910
 3205ntf    nn321063   1.928   1.556   3.622 -0.0564 -0.1220 -0.0519
 3205ntf    sn221064   1.816   1.663   3.598  0.3013  0.2134 -0.2599
 3205ntf    cn121065   1.783   1.644   3.420 -0.1115  0.5323 -0.2183
 3205ntf    fn421066   2.250   1.711   3.745  0.1301  0.4936 -0.5972
 3205ntf    fn421067   2.050   1.774   3.782  0.5182 -0.0153  0.2052
 3205ntf    fn421068   2.120   1.585   3.856 -0.1573  0.6536 -0.1962
 3205ntf    on521069   2.117   1.667   3.488  0.0169  0.9492 -0.1373
 3205ntf    on521070   2.155   1.459   3.610 -0.5326  0.1471 -0.4166
 3205ntf    on521071   1.842   1.803   3.616 -0.2613  0.1731  0.9896
 3205ntf    on521072   1.691   1.624   3.660  0.2484 -0.5165 -0.8144
 3205ntf    fn421073   1.781   1.523   3.367 -0.4034  0.6284 -0.4336
 3205ntf    fn421074   1.661   1.693   3.400 -0.0941  0.3245 -0.8480
 3205ntf    fn421075   1.867   1.721   3.354  0.1639 -0.0031 -0.4940
 3206ntf    cn121076   0.977   1.612   3.068  0.2011 -0.3176  0.1785
 3206ntf    sn221077   1.071   1.573   3.219  0.2835 -0.0921  0.1864
 3206ntf    nn321078   1.069   1.416   3.208  0.1764 -0.1252  0.6890
 3206ntf    sn221079   1.175   1.326   3.136 -0.2011 -0.2734  0.3136
 3206ntf    cn121080   1.057   1.242   3.027  0.2161 -0.3844 -0.0541
 3206ntf    fn421081   0.864   1.545   3.051 -0.2775  0.5575 -0.1655
 3206ntf    fn421082   0.946   1.740   3.054  0.6657 -0.2386 -0.1463
 3206ntf    fn421083   1.054   1.588   2.964 -0.7480  0.0671 -0.6366
 3206ntf    on521084   1.195   1.647   3.220 -0.2317  0.7812 -0.1348
 3206ntf    on521085   0.976   1.600   3.323  0.1508 -0.6922  0.2243
 3206ntf    on521086   1.234   1.222   3.217 -0.1788 -0.8393 -0.4194
 3206ntf    on521087   1.257   1.405   3.047 -0.7164  0.0838  0.1517
 3206ntf    fn421088   1.013   1.332   2.941  0.6240  0.2434  0.3895
 3206ntf    fn421089   1.112   1.142   2.959  0.2807 -0.2008 -0.2719
 3206ntf    fn421090   0.951   1.192   3.087 -0.0127 -0.1800 -0.2877
 3207ntf    cn121091   2.263   2.777   0.368  0.1707  0.0562 -0.1749
 3207ntf    sn221092   2.130   2.711   0.473  0.2961 -0.3614 -0.2754
 3207ntf    nn321093   2.103   2.834   0.566  1.1290 -0.4461  0.0885
 3207ntf    sn221094   2.060   2.835   0.718  0.2678 -0.0350 -0.1495
 3207ntf    cn121095   2.223   2.864   0.795  0.3252 -0.2492 -0.1892
 3207ntf    fn421096   2.217   2.854   0.271 -0.4111  0.0481  0.0925
 3207ntf    fn421097   2.355   2.841   0.438 -0.0750 -0.5207  0.6828
 3207ntf    fn421098   2.338   2.681   0.316  0.3237 -0.1700  0.4573
 3207ntf    on521099   2.023   2.682   0.381  0.2444  0.2987 -0.4273
 3207ntf    on521100   2.190   2.598   0.539 -0.0815 -0.5232 -0.2089
 3207ntf    on521101   2.031   2.708   0.779  0.1882 -0.0016 -0.1179
 3207ntf    on521102   1.986   2.950   0.764 -0.1549 -0.6556  0.7458
 3207ntf    fn421103   2.212   2.918   0.915 -0.3236 -0.0662 -0.3228
 3207ntf    fn421104   2.286   2.748   0.804  0.0203 -0.4516 -0.6248
 3207ntf    fn421105   2.295   2.949   0.723 -0.3169  0.7095  0.2695
 3208ntf    cn121106   6.316   6.443   4.596 -0.2290 -0.0824  0.1935
 3208ntf    sn221107   6.482   6.500   4.646 -0.0077 -0.4752 -0.0868
 3208ntf    nn321108   6.575   6.392   4.579  0.3838 -0.0437 -0.2399
 3208ntf    sn221109   6.620   6.262   4.654 -0.1312 -0.1059 -0.0307
 3208ntf    cn121110   6.763   6.329   4.744 -0.0154  0.3073 -0.5161
 3208ntf    fn421111   6.231   6.541   4.621 -0.2438  0.0034 -0.1872
 3208ntf    fn421112   6.316   6.424   4.465 -0.4622  0.1873  0.1559
 3208ntf    fn421113   6.283   6.327   4.650  0.2136 -0.2846  0.0384
 3208ntf    on521114   6.500   6.622   4.572 -0.6129 -0.2939  0.0601
 3208ntf    on521115   6.488   6.511   4.790  0.1401  0.6517 -0.1727
 3208ntf    on521116   6.681   6.171   4.561  0.2074 -0.0832  0.1654
 3208ntf    on521117   6.531   6.209   4.754  0.1818 -0.1705  0.2161
 3208ntf    fn421118   6.724   6.398   4.850  0.1350 -0.1389 -0.1649
 3208ntf    fn421119   6.850   6.238   4.784 -0.1649  0.3778 -0.0224
 3208ntf    fn421120   6.823   6.423   4.674 -0.0210  0.1134 -0.7812
 3209ntf    cn121121   4.221   4.927   3.117  0.0742 -0.0537 -0.1154
 3209ntf    sn221122   4.247   4.762   3.187 -0.0481 -0.0287 -0.0124
 3209ntf    nn321123   4.109   4.698   3.148 -0.2951  0.3626  0.2173
 3209ntf    sn221124   3.972   4.699   3.226 -0.2308  0.2441  0.3326
 3209ntf    cn121125   3.984   4.573   3.356  0.0095 -0.2516 -0.1611
 3209ntf    fn421126   4.239   4.921   2.986  0.2254 -0.4310 -0.0797
 3209ntf    fn421127   4.097   4.973   3.127 -0.1101 -0.5671 -0.0346
 3209ntf    fn421128   4.299   5.022   3.166 -0.2065  0.2969 -0.3413
 3209ntf    on521129   4.344   4.704   3.097  0.0059 -0.3367  0.2420
 3209ntf    on521130   4.281   4.769   3.327  0.1380 -0.0457 -0.0569
 3209ntf    on521131   3.861   4.661   3.142 -0.0799 -0.0690  0.2717
 3209ntf    on521132   3.953   4.811   3.313 -0.4060  0.2484  0.2885
 3209ntf    fn421133   3.991   4.454   3.298  0.4826 -0.1789 -0.2561
 3209ntf    fn421134   4.091   4.588   3.433 -0.2806 -0.3095  0.2604
 3209ntf    fn421135   3.876   4.575   3.433  0.5441 -0.2448  0.6053
 3210ntf    cn121136   2.841   2.970   7.106 -0.2411 -0.1838 -0.0661
 3210ntf    sn221137   2.892   3.083   6.974  0.3987 -0.1273  0.2269
 3210ntf    nn321138   3.016   3.005   6.920  0.3352 -0.0302 -0.0602
 3210ntf    sn221139   3.164   3.025   6.968  0.2986 -0.2220  0.1320
 3210ntf    cn121140   3.278   2.947   6.850  0.2509  0.5595 -0.4381
 3210ntf    fn421141   2.713   2.979   7.141 -0.2411 -0.0336 -0.1084
 3210ntf    fn421142   2.854   2.848   7.056 -0.2647 -0.1779 -0.0864
 3210ntf    fn421143   2.910   2.978   7.219 -0.4050 -0.0006  0.0222
 3210ntf    on521144   2.793   3.088   6.870  0.0140 -0.2043  0.5846
 3210ntf    on521145   2.919   3.210   7.037 -0.3873  0.1891 -0.0621
 3210ntf    on521146   3.180   2.952   7.091  0.3520 -0.1230  0.1847
 3210ntf    on521147   3.209   3.162   6.968 -0.1509 -0.0727 -0.0095
 3210ntf    fn421148   3.405   2.978   6.867  0.3965 -0.4252  0.3569
 3210ntf    fn421149   3.270   2.815   6.844  0.3655  0.5321  0.0015
 3210ntf    fn421150   3.257   3.000   6.731  0.1591  0.3121 -0.5329
 3211ntf    cn121151   2.893   5.950   1.276  0.0047  0.2059 -0.4051
 3211ntf    sn221152   2.889   5.951   1.095 -0.3825  0.0001 -0.3975
 3211ntf    nn321153   3.031   6.015   1.079 -0.1866 -0.2374  0.3665
 3211ntf    sn221154   3.164   5.932   1.067 -0.2664 -0.3128 -0.0171
 3211ntf    cn121155   3.178   5.905   0.888 -0.0124  0.1845 -0.0736
 3211ntf    fn421156   2.941   6.065   1.321  0.0295  0.1614 -0.3180
 3211ntf    fn421157   2.774   5.933   1.331  0.5494 -0.9899  0.4526
 3211ntf    fn421158   2.972   5.861   1.335  0.0767  0.6698  0.2165
 3211ntf    on521159   2.881   5.810   1.064  0.3242 -0.0822 -0.2003
 3211ntf    on521160   2.776   6.025   1.044 -0.2533  0.4338 -0.0597
 3211ntf    on521161   3.175   5.804   1.132  0.3235 -0.4585 -0.4072
 3211ntf    on521162   3.273   6.021   1.096 -0.2221 -0.4278  0.1759
 3211ntf    fn421163   3.125   6.006   0.821  0.0890 -0.1546 -0.6706
 3211ntf    fn421164   3.304   5.887   0.852 -0.2059 -0.7850 -0.2865
 3211ntf    fn421165   3.112   5.798   0.847 -0.6755  0.5698 -0.0355
 3212ntf    cn121166   2.768   2.456   3.396 -0.4674  0.3541 -0.4249
 3212ntf    sn221167   2.810   2.571   3.530 -0.1864 -0.3385  0.0876
 3212ntf    nn321168   2.928   2.490   3.594 -0.0417 -0.1488  0.0632
 3212ntf    sn221169   2.920   2.421   3.735 -0.0257 -0.3276 -0.0242
 3212ntf    cn121170   3.063   2.309   3.724  0.0784 -0.1779 -0.1873
 3212ntf    fn421171   2.673   2.504   3.317 -0.0866  0.6149 -0.7291
 3212ntf    fn421172   2.875   2.435   3.322 -0.1771 -0.0460  0.1048
 3212ntf    fn421173   2.725   2.341   3.445  0.1958  0.4329  0.3647
 3212ntf    on521174   2.864   2.687   3.463 -0.3366 -0.3687 -0.0872
 3212ntf    on521175   2.687   2.578   3.604 -0.2887 -0.0747 -0.1047
 3212ntf    on521176   2.813   2.326   3.756 -0.3991  0.2163  0.5565
 3212ntf    on521177   2.957   2.508   3.843  0.0606 -0.0324 -0.2910
 3212ntf    fn421178   3.080   2.227   3.826 -0.2721  0.3754  0.3220
 3212ntf    fn421179   3.051   2.221   3.625 -0.0663 -0.1485 -0.1959
 3212ntf    fn421180   3.174   2.377   3.698  0.1908 -0.3746 -0.2206
 3213ntf    cn121181   6.287   5.027   1.285  0.3545 -0.0303 -0.0226
 3213ntf    sn221182   6.365   5.043   1.448 -0.0510 -0.0374  0.1733
 3213ntf    nn321183   6.247   5.094   1.538 -0.0455 -0.1458  0.2423
 3213ntf    sn221184   6.209   5.241   1.576 -0.4060 -0.1036 -0.2759
 3213ntf    cn121185   6.321   5.283   1.713 -0.4769 -0.0625 -0.2298
 3213ntf    fn421186   6.235   5.140   1.240  0.0164 -0.3799 -0.5156
 3213ntf    fn421187   6.366   4.993   1.185 -0.2162 -0.5946 -0.2816
 3213ntf    fn421188   6.189   4.939   1.278 -0.1638  0.4706  0.7217
 3213ntf    on521189   6.401   4.905   1.473 -0.7765 -0.2693 -0.0513
 3213ntf    on521190   6.473   5.138   1.433 -0.0604 -0.1214 -0.4329
 3213ntf    on521191   6.078   5.242   1.636 -0.3006  0.1582 -0.0488
 3213ntf    on521192   6.234   5.335   1.470 -0.5470  0.9897  0.6344
 3213ntf    fn421193   6.436   5.320   1.658 -0.3324 -0.1889 -0.0115
 3213ntf    fn421194   6.287   5.392   1.779 -0.4819 -0.5773  0.6270
 3213ntf    fn421195   6.347   5.178   1.789 -0.1423  0.1720 -0.0171
 3214ntf    cn121196   4.354   0.939   5.536  0.2956 -0.4392  0.0048
 3214ntf    sn221197   4.207   1.000   5.625  0.3870 -0.0693 -0.0980
 3214ntf    nn321198   4.108   0.884   5.588 -0.4572  0.4009  0.6419
 3214ntf    sn221199   4.085   0.747   5.660 -0.0089  0.0802  0.1862
 3214ntf    cn121200   3.936   0.796   5.751 -0.2904  0.2624 -0.3659
 3214ntf    fn421201   4.336   0.905   5.410 -0.2338 -0.4217  0.0710
 3214ntf    fn421202   4.449   1.030   5.524  0.1210 -0.1204  0.9517
 3214ntf    fn421203   4.411   0.835   5.595  0.9938 -0.3517 -0.5077
 3214ntf    on521204   4.247   1.010   5.763 -0.1760  0.2560  0.0402
 3214ntf    on521205   4.183   1.126   5.560 -0.2254 -0.1401 -0.0072
 3214ntf    on521206   4.183   0.700   5.755  0.0444 -0.2329 -0.0213
 3214ntf    on521207   4.039   0.646   5.567  0.4281  0.2401 -0.2061
 3214ntf    fn421208   3.826   0.808   5.678 -0.6423  0.3251  0.1671
 3214ntf    fn421209   3.916   0.714   5.853 -0.0244 -0.2174 -0.6980
 3214ntf    fn421210   3.958   0.910   5.814  1.2085 -0.5692  0.6797
 3215ntf    cn121211   4.419   2.984   2.120  0.3564  0.1601  0.1455
 3215ntf    sn221212   4.528   2.940   2.258  0.3162  0.0874  0.1541
 3215ntf    nn321213   4.646   2.864   2.189 -0.1974 -0.5957  0.0174
 3215ntf    sn221214   4.676   2.710   2.197  0.1391 -0.5299  0.0359
 3215ntf    cn121215   4.809   2.697   2.073 -0.0029 -0.2835 -0.1420
 3215ntf    fn421216   4.366   2.884   2.051  0.8326  0.2870 -0.4072
 3215ntf    fn421217   4.313   3.051   2.162  0.0270 -0.0436 -0.3430
 3215ntf    fn421218   4.484   3.062   2.035  0.1139  0.1358 -0.0638
 3215ntf    on521219   4.568   3.068   2.311  0.4854  0.0852  0.0302
 3215ntf    on521220   4.450   2.855   2.345  0.1571 -0.0094 -0.0812
 3215ntf    on521221   4.572   2.625   2.144 -0.3615  0.2981 -0.3199
 3215ntf    on521222   4.755   2.676   2.313  0.3963 -0.1132 -0.0126
 3215ntf    fn421223   4.772   2.752   1.958 -0.3335  0.1674  0.1773
 3215ntf    fn421224   4.924   2.758   2.096  0.0450 -0.6799  0.7258
 3215ntf    fn421225   4.845   2.572   2.048  0.6428 -0.1852  0.2789
 3216ntf    cn121226   4.859   0.698   4.385 -0.0027 -0.3452 -0.1220
 3216ntf    sn221227   4.969   0.579   4.468  0.3048 -0.1448 -0.2383
 3216ntf    nn321228   4.960   0.447   4.384  0.4734 -0.4108  0.1576
 3216ntf    sn221229   5.038   0.415   4.251  0.0116 -0.0586 -0.2023
 3216ntf    cn121230   5.066   0.241   4.296 -0.1218  0.0107  0.1558
 3216ntf    fn421231   4.895   0.717   4.260  0.1762  0.0132 -0.0174
 3216ntf    fn421232   4.732   0.664   4.381 -0.1260  0.1459 -0.5366
 3216ntf    fn421233   4.858   0.817   4.444  0.1289 -0.3035 -0.2027
 3216ntf    on521234   5.099   0.640   4.478  0.0378  0.4318 -0.1844
 3216ntf    on521235   4.910   0.558   4.598  0.5191  0.1626 -0.0900
 3216ntf    on521236   5.170   0.472   4.240 -0.0552  0.3014  0.7393
 3216ntf    on521237   4.965   0.398   4.128 -0.4837  0.3941  0.0258
 3216ntf    fn421238   5.145   0.240   4.402  0.0586  0.3403  0.0263
 3216ntf    fn421239   4.957   0.173   4.327 -0.1387 -0.3837 -0.7302
 3216ntf    fn421240   5.132   0.170   4.206 -0.6894  0.2096 -0.4305
 3217ntf    cn121241   3.395   0.931   6.899  0.4141  0.2401  0.0082
 3217ntf    sn221242   3.353   0.828   6.755  0.2152  0.3822 -0.0359
 3217ntf    nn321243   3.456   0.713   6.784 -0.0440  0.1831  0.1010
 3217ntf    sn221244   3.413   0.564   6.808  0.2348  0.1037  0.1119
 3217ntf    cn121245   3.566   0.474   6.767  0.1866  0.0318  0.0888
 3217ntf    fn421246   3.526   0.948   6.909  0.5070 -0.3923 -0.0654
 3217ntf    fn421247   3.338   1.049   6.879 -0.1645 -0.0388 -0.0200
 3217ntf    fn421248   3.355   0.889   7.018  0.6567 -0.0699 -0.0186
 3217ntf    on521249   3.215   0.792   6.771  0.3572 -0.2517 -0.2140
 3217ntf    on521250   3.403   0.907   6.645  0.1613  0.0143 -0.3268
 3217ntf    on521251   3.319   0.512   6.711  0.3176 -0.0236  0.0992
 3217ntf    on521252   3.392   0.540   6.948  0.4379  0.2875  0.1759
 3217ntf    fn421253   3.591   0.476   6.637  0.1805 -0.3887  0.0799
 3217ntf    fn421254   3.670   0.525   6.832  0.1431 -0.1862  0.3333
 3217ntf    fn421255   3.564   0.352   6.817 -0.1751  0.2201  0.5530
 3218ntf    cn121256   6.912   5.579   4.787 -0.2273  0.1505 -0.1231
 3218ntf    sn221257   7.011   5.505   4.920 -0.0998 -0.0803 -0.3462
 3218ntf    nn321258   7.157   5.532   4.870  0.2440 -0.3842  0.4822
 3218ntf    sn221259   7.225   5.434   4.767 -0.2554  0.2461 -0.4575
 3218ntf    cn121260   7.327   5.343   4.887 -0.2100  0.0395 -0.6519
 3218ntf    fn421261   6.786   5.539   4.792 -0.2963  0.4322  0.4508
 3218ntf    fn421262   6.907   5.710   4.806 -0.2364  0.0942  0.2648
 3218ntf    fn421263   6.947   5.565   4.660 -0.1318  0.0474 -0.0849
 3218ntf    on521264   6.975   5.579   5.038  0.1139 -0.0615 -0.2932
 3218ntf    on521265   6.967   5.368   4.933 -0.3919  0.0174 -0.2972
 3218ntf    on521266   7.320   5.516   4.697  0.8789  0.0509  0.8113
 3218ntf    on521267   7.154   5.332   4.693 -0.3622  0.2614 -0.3771
 3218ntf    fn421268   7.266   5.315   5.002  0.4190 -0.6016 -0.4696
 3218ntf    fn421269   7.376   5.228   4.847 -0.1100  0.0373 -0.5226
 3218ntf    fn421270   7.425   5.425   4.921 -0.0153 -0.4100 -0.1174
 3219ntf    cn121271   1.027   5.114   4.274  0.2538 -0.4640  0.0863
 3219ntf    sn221272   1.057   5.293   4.281  0.1473 -0.4513  0.2107
 3219ntf    nn321273   0.910   5.344   4.300  0.3718  0.1301  0.4165
 3219ntf    sn221274   0.873   5.478   4.373 -0.1581  0.0885  0.2294
 3219ntf    cn121275   0.732   5.533   4.272 -0.0911 -0.3521 -0.1055
 3219ntf    fn421276   0.976   5.060   4.383 -0.2330  0.0860  0.1335
 3219ntf    fn421277   0.949   5.088   4.171 -0.0718  0.0642  0.1935
 3219ntf    fn421278   1.139   5.047   4.252  0.2982 -0.4137  0.1558
 3219ntf    on521279   1.148   5.304   4.393  0.1287  0.6703  0.1308
 3219ntf    on521280   1.108   5.324   4.150 -0.1015 -0.4169  0.1210
 3219ntf    on521281   0.975   5.581   4.369 -0.0041 -0.0778 -0.2311
 3219ntf    on521282   0.805   5.462   4.499 -0.5343 -0.3585 -0.0252
 3219ntf    fn421283   0.672   5.643   4.314  0.1182 -0.3277  0.1298
 3219ntf    fn421284   0.776   5.562   4.151 -0.0112 -0.1028 -0.0170
 3219ntf    fn421285   0.639   5.439   4.267 -0.8455  0.3729 -0.0021
 3220ntf    cn121286   0.725   0.129   2.094 -0.1655  0.3619  0.1812
 3220ntf    sn221287   0.864   0.166   1.982  0.0918 -0.2053  0.3125
 3220ntf    nn321288   0.892   0.311   2.035  0.2885 -0.1087 -0.0502
 3220ntf    sn221289   1.028   0.389   2.028  0.1545  0.1468  0.1616
 3220ntf    cn121290   0.999   0.497   2.171  0.1033  0.3627 -0.0115
 3220ntf    fn421291   0.650   0.029   2.052  0.1733  0.4290 -0.6081
 3220ntf    fn421292   0.763   0.091   2.215 -0.0438  0.2380  0.1048
 3220ntf    fn421293   0.640   0.228   2.118 -0.1847  0.2471  0.5846
 3220ntf    on521294   0.949   0.054   2.014 -0.4014 -0.4599  0.7489
 3220ntf    on521295   0.797   0.171   1.854  0.1161  0.3655  0.3226
 3220ntf    on521296   1.034   0.481   1.917  0.6822 -0.5657 -0.4152
 3220ntf    on521297   1.148   0.318   2.064 -0.1455 -0.5391 -0.1688
 3220ntf    fn421298   1.104   0.573   2.197  0.2610  0.0288  0.3360
 3220ntf    fn421299   0.907   0.587   2.139 -0.5595 -0.2383  0.1812
 3220ntf    fn421300   0.958   0.427   2.276  0.1287  0.5898  0.1500
 3221ntf    cn121301   1.237   2.245   4.010 -0.4077  0.2996 -0.1641
 3221ntf    sn221302   1.279   2.201   4.181 -0.1107  0.0254 -0.3070
 3221ntf    nn321303   1.353   2.331   4.229 -0.4385  0.2756 -0.4781
 3221ntf    sn221304   1.300   2.455   4.310 -0.1211  0.0501  0.0822
 3221ntf    cn121305   1.348   2.410   4.480 -0.1699 -0.1905  0.0333
 3221ntf    fn421306   1.345   2.261   3.936 -0.0739 -0.1010  0.2313
 3221ntf    fn421307   1.178   2.140   3.956  0.3173 -0.1882 -0.0193
 3221ntf    fn421308   1.161   2.353   4.002 -0.0497  0.5378 -0.4100
 3221ntf    on521309   1.151   2.175   4.241  0.1638 -0.6519 -0.0120
 3221ntf    on521310   1.371   2.091   4.164 -0.3649 -0.2776  0.2691
 3221ntf    on521311   1.158   2.473   4.330 -0.1716 -0.1103 -0.1261
 3221ntf    on521312   1.385   2.568   4.284 -0.4204  0.4014  0.6081
 3221ntf    fn421313   1.344   2.513   4.563  0.6288 -0.0254 -0.1318
 3221ntf    fn421314   1.264   2.320   4.528  0.2700 -0.3433  0.5155
 3221ntf    fn421315   1.464   2.350   4.497 -0.3491 -0.4751  0.2626
 3222ntf    cn121316   4.154   6.867   2.264  0.1519  0.1291 -0.0528
 3222ntf    sn221317   4.018   6.893   2.383 -0.3216 -0.2283 -0.5106
 3222ntf    nn321318   3.980   6.743   2.412  0.6313 -0.4334 -0.2714
 3222ntf    sn221319   4.044   6.646   2.517  0.3431 -0.0843  0.2305
 3222ntf    cn121320   3.930   6.684   2.654  0.0896  0.0672 -0.0206
 3222ntf    fn421321   4.203   6.976   2.209  0.0501 -0.0603 -0.5279
 3222ntf    fn421322   4.246   6.794   2.326  0.4694 -0.0041 -0.6761
 3222ntf    fn421323   4.107   6.786   2.171 -0.0317  0.4773 -0.2638
 3222ntf    on521324   4.055   6.973   2.497 -0.6519 -0.1213 -0.4791
 3222ntf    on521325   3.919   6.948   2.294 -0.2416  0.2811 -0.2876
 3222ntf    on521326   4.178   6.671   2.564  0.3171  0.0012  0.2595
 3222ntf    on521327   4.013   6.507   2.496 -0.2743 -0.0182  0.6754
 3222ntf    fn421328   3.960   6.608   2.758 -0.0213  0.0714  0.0133
 3222ntf    fn421329   3.940   6.807   2.701 -0.1809  0.2790 -0.5160
 3222ntf    fn421330   3.804   6.662   2.622 -0.0268  0.2497  0.3090
 3223ntf    cn121331   0.438   5.642   3.655  0.3090 -0.3692 -0.2082
 3223ntf    sn221332   0.336   5.774   3.584  0.5308 -0.3825 -0.5504
 3223ntf    nn321333   0.197   5.746   3.652  0.2871  0.7945 -0.5369
 3223ntf    sn221334   0.104   5.839   3.737 -0.0618  0.0531 -0.1037
 3223ntf    cn121335  -0.047   5.737   3.729 -0.0485  0.0047  0.2459
 3223ntf    fn421336   0.553   5.634   3.591  0.2191  0.5105 -0.4933
 3223ntf    fn421337   0.462   5.663   3.784  0.1284 -0.2591 -0.1919
 3223ntf    fn421338   0.376   5.526   3.641  0.1576 -0.2386 -0.6182
 3223ntf    on521339   0.397   5.898   3.626  0.2817 -0.3279 -0.3486
 3223ntf    on521340   0.336   5.741   3.443  0.0246 -1.0987 -0.3874
 3223ntf    on521341   0.058   5.959   3.672 -0.2958  0.1465  0.2308
 3223ntf    on521342   0.137   5.849   3.877 -0.2595 -0.0275 -0.0499
 3223ntf    fn421343  -0.154   5.796   3.782 -0.3848  0.1467 -0.5722
 3223ntf    fn421344  -0.070   5.717   3.601  0.1108  0.6044  0.1187
 3223ntf    fn421345  -0.038   5.616   3.782 -0.2940  0.1956  0.7308
 3224ntf    cn121346   1.455   2.973   0.135 -0.4622  0.2075 -0.1190
 3224ntf    sn221347   1.479   2.816   0.045 -0.3604 -0.0016  0.2708
 3224ntf    nn321348   1.381   2.724   0.126 -0.2267 -0.0534  0.3730
 3224ntf    sn221349   1.258   2.641   0.075 -0.1915  0.3013 -0.2961
 3224ntf    cn121350   1.340   2.484   0.033 -0.1542  0.1714  0.2529
 3224ntf    fn421351   1.334   3.025   0.125 -0.4184  0.2579 -0.3951
 3224ntf    fn421352   1.473   2.948   0.264  0.0539  0.2158 -0.1854
 3224ntf    fn421353   1.537   3.068   0.094 -0.5268  0.3259  0.0270
 3224ntf    on521354   1.451   2.846  -0.093 -0.4553 -0.0318  0.2830
 3224ntf    on521355   1.619   2.805   0.078 -0.2848 -0.4481 -0.2013
 3224ntf    on521356   1.195   2.675  -0.050  0.2672  0.2956 -0.5297
 3224ntf    on521357   1.175   2.613   0.190 -0.1772 -0.4395 -0.4621
 3224ntf    fn421358   1.430   2.479  -0.063 -0.2312 -0.6084  0.2162
 3224ntf    fn421359   1.388   2.420   0.138 -0.1254  0.0416  0.1602
 3224ntf    fn421360   1.241   2.408  -0.011  0.0288 -0.3932  0.8025
 3225ntf    cn121361   3.762   2.186   4.581 -0.3947 -0.0164  0.0083
 3225ntf    sn221362   3.908   2.183   4.472 -0.0841  0.2121  0.4132
 3225ntf    nn321363   4.012   2.115   4.566 -0.1381  0.0501  0.3561
 3225ntf    sn221364   4.064   1.967   4.562  0.1259  0.1511 -0.0174
 3225ntf    cn121365   3.982   1.919   4.718  0.0643  0.6175  0.0935
 3225ntf    fn421366   3.711   2.064   4.572  0.5984 -0.4468  0.0145
 3225ntf    fn421367   3.795   2.224   4.703  0.1389 -0.6059  0.0563
 3225ntf    fn421368   3.678   2.278   4.539  0.3488  0.4855 -0.4067
 3225ntf    on521369   3.859   2.119   4.352  0.6075 -0.8601  0.6925
 3225ntf    on521370   3.944   2.322   4.461  0.3650  0.0651  0.0211
 3225ntf    on521371   4.205   1.955   4.591  0.1869  0.2920 -0.2618
 3225ntf    on521372   4.020   1.870   4.465  0.1225  0.1022  0.0331
 3225ntf    fn421373   3.864   1.978   4.728 -0.0885  0.2942  0.1785
 3225ntf    fn421374   3.967   1.788   4.730 -0.4722  0.6361 -0.3493
 3225ntf    fn421375   4.054   1.956   4.822 -0.5068  0.1968  0.6417
 3226ntf    cn121376   0.316   4.417   6.185 -0.3163 -0.6705  0.5332
 3226ntf    sn221377   0.396   4.578   6.213 -0.4735 -0.5192  0.1352
 3226ntf    nn321378   0.348   4.666   6.093  0.0743  0.0180  0.3073
 3226ntf    sn221379   0.419   4.793   6.035 -0.1668 -0.1096 -0.2743
 3226ntf    cn121380   0.497   4.711   5.893  0.1068  0.3669 -0.4039
 3226ntf    fn421381   0.374   4.369   6.076 -0.1931 -0.0160  0.3033
 3226ntf    fn421382   0.353   4.334   6.281  0.0366 -0.3960  0.6348
 3226ntf    fn421383   0.185   4.418   6.166 -0.2666  1.2188  0.0587
 3226ntf    on521384   0.351   4.626   6.342 -0.1370 -0.3659  0.1956
 3226ntf    on521385   0.536   4.542   6.214 -0.4342 -0.3630  0.2030
 3226ntf    on521386   0.515   4.859   6.121 -0.4038  0.4986 -0.4691
 3226ntf    on521387   0.334   4.891   5.973  0.4502  0.0652 -0.8579
 3226ntf    fn421388   0.609   4.771   5.855  0.2031  0.6238  0.2822
 3226ntf    fn421389   0.525   4.585   5.923 -0.8601  0.1340 -0.4454
 3226ntf    fn421390   0.410   4.706   5.793  0.2023 -0.1909 -0.4631
 3227ntf    cn121391   0.483   5.271   0.861 -0.2949 -0.1533 -0.1247
 3227ntf    sn221392   0.584   5.129   0.914 -0.1818  0.0238  0.1365
 3227ntf    nn321393   0.656   5.107   0.776 -0.4161  0.0689  0.0051
 3227ntf    sn221394   0.603   5.005   0.670 -0.1248  0.1243 -0.1956
 3227ntf    cn121395   0.683   4.850   0.720  0.2371  0.3143 -0.1845
 3227ntf    fn421396   0.438   5.261   0.737  0.6181  0.4269 -0.5171
 3227ntf    fn421397   0.379   5.289   0.939 -0.2565 -0.3420 -0.0280
 3227ntf    fn421398   0.546   5.387   0.866 -0.0691 -0.2811  0.0473
 3227ntf    on521399   0.679   5.184   1.007  0.1255 -0.0868 -0.1089
 3227ntf    on521400   0.497   5.026   0.966  0.4504 -0.3667  0.4368
 3227ntf    on521401   0.672   5.023   0.545 -0.1846 -0.2488 -0.2843
 3227ntf    on521402   0.461   4.978   0.667 -0.1033  0.0350 -0.5331
 3227ntf    fn421403   0.814   4.865   0.723  0.1607  1.1720 -0.7525
 3227ntf    fn421404   0.643   4.807   0.838 -0.0199  0.0095 -0.3775
 3227ntf    fn421405   0.655   4.755   0.631 -0.5259  0.2983  0.0624
 3228ntf    cn121406   1.116   0.805   3.067 -0.2938  0.4048  0.2736
 3228ntf    sn221407   1.176   0.774   2.898 -0.0666 -0.1002  0.4468
 3228ntf    nn321408   1.048   0.700   2.845 -0.1362  0.1529  0.2627
 3228ntf    sn221409   1.047   0.546   2.814 -0.1745  0.2409 -0.1832
 3228ntf    cn121410   0.883   0.542   2.736 -0.2717 -0.1138  0.0383
 3228ntf    fn421411   1.200   0.867   3.148  0.2002  0.0049  0.0704
 3228ntf    fn421412   1.009   0.882   3.057 -0.3570  0.2528 -0.2786
 3228ntf    fn421413   1.074   0.698   3.132 -0.1171  0.3756  0.3407
 3228ntf    on521414   1.194   0.907   2.847  0.5293 -0.1464  0.5265
 3228ntf    on521415   1.293   0.691   2.917 -0.0210  0.0024  0.6148
 3228ntf    on521416   1.050   0.466   2.934  0.0417  0.1820 -0.2261
 3228ntf    on521417   1.138   0.502   2.711 -0.0966  0.1158 -0.0623
 3228ntf    fn421418   0.786   0.594   2.810  0.5519  0.6454  0.6085
 3228ntf    fn421419   0.881   0.611   2.623 -0.2035  0.1475  0.1962
 3228ntf    fn421420   0.852   0.416   2.712 -0.0752 -0.2320  0.3896
 3229ntf    cn121421   2.573   1.601   3.121  0.0323  0.1414  0.1927
 3229ntf    sn221422   2.740   1.572   3.056 -0.1004  0.4547 -0.3026
 3229ntf    nn321423   2.750   1.416   3.072  0.7557  0.5519  0.1763
 3229ntf    sn221424   2.852   1.307   3.022  0.1686  0.1456 -0.1498
 3229ntf    cn121425   2.939   1.292   3.182 -0.3606  0.2486  0.1493
 3229ntf    fn421426   2.487   1.530   3.050  0.0203  0.4430 -0.0978
 3229ntf    fn421427   2.557   1.563   3.246  0.0879  0.0011  0.1575
 3229ntf    fn421428   2.539   1.729   3.108  0.4157  0.2490  0.2402
 3229ntf    on521429   2.731   1.613   2.918 -0.4594  0.5139 -0.2615
 3229ntf    on521430   2.825   1.648   3.144 -0.4871 -0.4155  0.8491
 3229ntf    on521431   2.959   1.346   2.933  0.0959  0.1284 -0.2447
 3229ntf    on521432   2.789   1.179   3.001  0.2489  0.0702  0.0643
 3229ntf    fn421433   2.867   1.236   3.278  0.2881 -0.6435  0.1291
 3229ntf    fn421434   3.048   1.219   3.176 -0.3505  0.2766 -0.0404
 3229ntf    fn421435   2.968   1.414   3.223  0.0916  0.3512 -0.4559
 3230ntf    cn121436   2.638   6.628   3.158  0.3060  0.4856  0.2826
 3230ntf    sn221437   2.482   6.702   3.217 -0.1522  0.0054 -0.3176
 3230ntf    nn321438   2.414   6.576   3.280  0.3318 -0.3581 -0.5119
 3230ntf    sn221439   2.402   6.534   3.431  0.1863  0.4131 -0.3039
 3230ntf    cn121440   2.518   6.395   3.446 -0.3819 -0.0522 -0.1399
 3230ntf    fn421441   2.619   6.545   3.058  0.3102  0.7573  0.0544
 3230ntf    fn421442   2.727   6.718   3.118 -0.2116  0.7461 -0.3042
 3230ntf    fn421443   2.708   6.562   3.249 -0.1104 -0.3533  0.0052
 3230ntf    on521444   2.537   6.804   3.304 -0.1234 -0.1949 -0.1016
 3230ntf    on521445   2.418   6.759   3.100  0.4283  0.2393 -0.5273
 3230ntf    on521446   2.274   6.474   3.462  0.3284 -0.0674 -0.6393
 3230ntf    on521447   2.453   6.625   3.530  0.6788 -0.1522 -0.0318
 3230ntf    fn421448   2.639   6.437   3.411 -0.1922 -0.2734  0.2430
 3230ntf    fn421449   2.531   6.347   3.568  0.4068 -0.4215 -0.3648
 3230ntf    fn421450   2.488   6.294   3.366  0.0274 -0.2137 -0.0899
 3231ntf    cn121451   2.701   5.523   2.608  0.3041 -0.4318 -0.2846
 3231ntf    sn221452   2.719   5.343   2.619  0.0606 -0.4134  0.4972
 3231ntf    nn321453   2.630   5.317   2.745 -0.0548 -0.0337  0.4928
 3231ntf    sn221454   2.670   5.278   2.892 -0.2550 -0.1709  0.5111
 3231ntf    cn121455   2.688   5.101   2.857 -0.4273 -0.0308 -0.3270
 3231ntf    fn421456   2.580   5.566   2.574  0.2453 -0.0628  0.3783
 3231ntf    fn421457   2.726   5.583   2.723  0.0424 -0.2535 -0.3191
 3231ntf    fn421458   2.785   5.571   2.517  0.2784 -0.1487 -0.1614
 3231ntf    on521459   2.647   5.301   2.501  0.1771 -0.5273  0.4666
 3231ntf    on521460   2.862   5.327   2.630  0.1556 -0.1240 -0.2273
 3231ntf    on521461   2.555   5.277   2.979 -0.4678  0.0219  0.2333
 3231ntf    on521462   2.799   5.316   2.942 -0.2636  0.0804  0.3428
 3231ntf    fn421463   2.772   5.063   2.762 -0.0288  0.2491 -0.0910
 3231ntf    fn421464   2.741   5.038   2.962 -0.3723 -0.1470 -0.4243
 3231ntf    fn421465   2.579   5.032   2.830 -0.5535 -0.1512  0.4471
 3232ntf    cn121466   5.083   6.791   6.786 -0.5754  0.2068 -0.2859
 3232ntf    sn221467   4.961   6.926   6.794 -0.2817  0.4485  0.1014
 3232ntf    nn321468   4.994   7.007   6.664 -0.4007 -0.0888 -0.2643
 3232ntf    sn221469   5.042   7.154   6.639  0.0214 -0.2153 -0.2123
 3232ntf    cn121470   4.972   7.192   6.475 -0.3099  0.1070  0.0025
 3232ntf    fn421471   5.091   6.721   6.897 -0.0524  0.0141 -0.4453
 3232ntf    fn421472   5.050   6.716   6.682 -0.3817  0.0736 -0.2510
 3232ntf    fn421473   5.199   6.847   6.757 -0.2536 -0.3530 -0.0789
 3232ntf    on521474   4.833   6.859   6.800  0.0859 -0.2439  0.3136
 3232ntf    on521475   4.992   6.988   6.921  0.5933 -0.1471  0.1867
 3232ntf    on521476   5.184   7.163   6.612 -0.1470  0.3248 -0.9695
 3232ntf    on521477   4.989   7.261   6.721 -0.2752 -0.8579  0.4431
 3232ntf    fn421478   4.997   7.101   6.383 -0.3106  0.1714 -0.0604
 3232ntf    fn421479   4.842   7.211   6.487 -0.3357 -0.0786  0.0102
 3232ntf    fn421480   5.018   7.304   6.421 -0.0812  0.1319  0.2459
 3233ntf    cn121481   3.050   1.309   0.715 -0.1819 -0.0127  0.3824
 3233ntf    sn221482   3.131   1.420   0.834 -0.0200  0.1656  0.1072
 3233ntf    nn321483   3.182   1.526   0.729 -0.2285 -0.0031 -0.1668
 3233ntf    sn221484   3.148   1.678   0.713  0.2470  0.1397  0.1745
 3233ntf    cn121485   2.993   1.674   0.617  0.2656  0.3006  0.1380
 3233ntf    fn421486   2.954   1.366   0.644 -0.0746 -0.1031  0.1640
 3233ntf    fn421487   3.140   1.267   0.628  0.1042  0.1506  0.6002
 3233ntf    fn421488   2.992   1.208   0.778 -1.4014  0.5545  0.2045
 3233ntf    on521489   3.022   1.462   0.919 -0.1953 -0.2958  0.1133
 3233ntf    on521490   3.241   1.340   0.881 -0.1498  0.1551  0.3957
 3233ntf    on521491   3.243   1.744   0.627  0.4034 -0.2035  0.0846
 3233ntf    on521492   3.115   1.747   0.836 -0.2220 -0.2771  0.2848
 3233ntf    fn421493   2.891   1.610   0.671  0.2041  0.1963 -0.1024
 3233ntf    fn421494   2.952   1.798   0.597 -0.0437  0.0588 -0.7471
 3233ntf    fn421495   3.007   1.618   0.499  0.8956  0.6026  0.0622
 3234ntf    cn121496   0.515   2.229   6.535  0.2027  0.2254 -0.0169
 3234ntf    sn221497   0.531   2.311   6.374 -0.0796  0.0590 -0.1317
 3234ntf    nn321498   0.414   2.257   6.285 -0.3389  0.3982  0.0011
 3234ntf    sn221499   0.276   2.316   6.238 -0.2717  0.2044 -0.4462
 3234ntf    cn121500   0.292   2.280   6.060  0.2345 -0.3046 -0.2987
 3234ntf    fn421501   0.397   2.254   6.589  0.1068 -0.6013  0.1737
 3234ntf    fn421502   0.523   2.097   6.526 -0.4817  0.1432  0.4649
 3234ntf    fn421503   0.607   2.268   6.622  0.5096  0.8705 -0.6213
 3234ntf    on521504   0.509   2.451   6.399  0.3975  0.0837  0.1701
 3234ntf    on521505   0.660   2.276   6.320  0.0767  0.0210  0.2661
 3234ntf    on521506   0.270   2.460   6.244 -0.0399  0.1964  0.0616
 3234ntf    on521507   0.157   2.246   6.279  0.0310 -0.1187 -0.1133
 3234ntf    fn421508   0.389   2.355   6.010  0.5048 -0.0946  0.5181
 3234ntf    fn421509   0.324   2.154   6.034  0.7477 -0.2976  0.2682
 3234ntf    fn421510   0.178   2.313   6.003  0.2690 -0.5628 -0.5195
 3235ntf    cn121511   0.449   1.320   6.372  0.0456  0.2134  0.2103
 3235ntf    sn221512   0.271   1.323   6.409  0.0665  0.0775  0.3247
 3235ntf    nn321513   0.234   1.475   6.396  0.4076  0.1215 -0.1572
 3235ntf    sn221514   0.108   1.548   6.453  0.3946 -0.1311  0.1413
 3235ntf    cn121515   0.201   1.659   6.562  0.0309  0.0344  0.2858
 3235ntf    fn421516   0.532   1.366   6.465  0.1687 -0.3290  0.3769
 3235ntf    fn421517   0.490   1.195   6.357 -0.1688  0.1382  0.2509
 3235ntf    fn421518   0.479   1.387   6.262 -0.0458 -0.0424  0.0282
 3235ntf    on521519   0.216   1.234   6.309  0.0352  0.8413 -0.3453
 3235ntf    on521520   0.273   1.279   6.546  0.0829 -0.7457  0.0709
 3235ntf    on521521   0.020   1.468   6.534  0.0506  0.1056  0.0034
 3235ntf    on521522   0.045   1.639   6.361  0.4059 -0.1462  0.1181
 3235ntf    fn421523   0.284   1.602   6.648 -0.2981 -0.4602  0.2799
 3235ntf    fn421524   0.281   1.743   6.499  0.5446 -0.4850  0.2412
 3235ntf    fn421525   0.128   1.737   6.640 -0.2121  0.2961 -0.2027
 3236ntf    cn121526   6.708   3.201   3.986 -0.3564  0.0992 -0.2449
 3236ntf    sn221527   6.648   3.329   3.872  0.0953  0.3358 -0.2206
 3236ntf    nn321528   6.535   3.248   3.799  0.2281 -0.2900  0.2531
 3236ntf    sn221529   6.380   3.253   3.819  0.1725 -0.1892 -0.1807
 3236ntf    cn121530   6.350   3.075   3.838 -0.1309 -0.1569 -0.3481
 3236ntf    fn421531   6.711   3.080   3.932 -0.2850 -0.3778  0.7983
 3236ntf    fn421532   6.828   3.217   4.041 -0.4428  0.4886 -0.1690
 3236ntf    fn421533   6.628   3.182   4.090  0.1788 -0.0321  0.1540
 3236ntf    on521534   6.602   3.434   3.960  0.2527  0.1391  0.1015
 3236ntf    on521535   6.765   3.360   3.795  0.4731 -0.3696  0.0596
 3236ntf    on521536   6.301   3.281   3.702 -0.3006  0.6340  0.3249
 3236ntf    on521537   6.341   3.316   3.943  0.1873  0.2065 -0.3751
 3236ntf    fn421538   6.396   3.010   3.732 -0.1776  0.1174 -0.5388
 3236ntf    fn421539   6.410   3.017   3.941  0.0430 -0.3017 -0.5281
 3236ntf    fn421540   6.222   3.045   3.848 -0.2756  0.4432 -0.3531
 3237ntf    cn121541   2.129   0.409   7.102 -0.4035  0.2386 -0.0601
 3237ntf    sn221542   2.261   0.456   6.986 -0.2028  0.2634  0.1778
 3237ntf    nn321543   2.194   0.579   6.917  0.3825  0.2917 -0.3523
 3237ntf    sn221544   2.094   0.571   6.796 -0.0580 -0.2229  0.0398
 3237ntf    cn121545   2.217   0.601   6.666  0.3006 -0.2911  0.3636
 3237ntf    fn421546   2.028   0.360   7.033 -0.3753 -0.3751  0.3302
 3237ntf    fn421547   2.160   0.318   7.193 -0.1331  0.1561 -0.2350
 3237ntf    fn421548   2.085   0.513   7.172 -0.0269  0.5779 -0.3199
 3237ntf    on521549   2.370   0.493   7.073  0.1776  0.3404 -0.3286
 3237ntf    on521550   2.281   0.342   6.899 -0.1903  0.3442  0.0750
 3237ntf    on521551   2.017   0.693   6.792 -0.0007 -0.1964 -0.2757
 3237ntf    on521552   2.029   0.447   6.762  0.1990 -0.4322  0.3026
 3237ntf    fn421553   2.284   0.710   6.701  0.0320 -0.1729  0.5104
 3237ntf    fn421554   2.304   0.502   6.661  0.7512  0.1085  0.1975
 3237ntf    fn421555   2.163   0.625   6.548  0.5915 -0.3180  0.2232
 3238ntf    cn121556   2.295   2.151   2.303 -0.1800  0.2981  0.0349
 3238ntf    sn221557   2.324   2.069   2.463 -0.3346  0.0812 -0.0473
 3238ntf    nn321558   2.474   2.023   2.460 -0.1551  0.6586  0.0084
 3238ntf    sn221559   2.585   2.023   2.570  0.2374 -0.1407 -0.3763
 3238ntf    cn121560   2.672   2.178   2.529  0.1759  0.0523  0.2000
 3238ntf    fn421561   2.377   2.249   2.269  0.1281 -0.0809 -0.3241
 3238ntf    fn421562   2.303   2.062   2.206  0.2947  0.4715 -0.0869
 3238ntf    fn421563   2.175   2.206   2.298 -0.4253 -0.2189  0.1789
 3238ntf    on521564   2.307   2.181   2.552 -0.6843 -0.4157  0.5209
 3238ntf    on521565   2.229   1.960   2.465 -0.5441  0.2601 -0.2679
 3238ntf    on521566   2.670   1.909   2.551 -0.0951 -0.5571  0.5562
 3238ntf    on521567   2.529   2.043   2.702  0.1746  0.5089 -0.4962
 3238ntf    fn421568   2.719   2.172   2.405  0.0642  0.1181  0.1551
 3238ntf    fn421569   2.595   2.285   2.537 -0.2454 -0.2402  0.1081
 3238ntf    fn421570   2.775   2.206   2.607  0.1352 -0.1004  0.3092
 3239ntf    cn121571   1.903   0.107   5.920 -0.0290  0.0842 -0.0418
 3239ntf    sn221572   1.743   0.095   6.006  0.0568  0.2620  0.1415
 3239ntf    nn321573   1.698  -0.042   5.944  0.6629  0.0425  0.1736
 3239ntf    sn221574   1.691  -0.174   6.027  0.1452 -0.1072 -0.1041
 3239ntf    cn121575   1.752  -0.302   5.913  0.1483 -0.3406  0.1574
 3239ntf    fn421576   1.895   0.105   5.788  0.1513 -0.2309 -0.0482
 3239ntf    fn421577   1.968   0.215   5.959 -0.1734  0.2664 -0.2989
 3239ntf    fn421578   1.974   0.003   5.959  0.9564  0.6096 -0.4187
 3239ntf    on521579   1.789   0.111   6.142  0.1452 -0.4125  0.1942
 3239ntf    on521580   1.661   0.203   5.959 -0.4716 -0.3866 -0.4367
 3239ntf    on521581   1.552  -0.210   6.048 -0.1199  0.8760 -0.1285
 3239ntf    on521582   1.777  -0.193   6.141 -0.4580 -0.1250  0.3593
 3239ntf    fn421583   1.671  -0.304   5.809  0.0055 -0.6269  0.2718
 3239ntf    fn421584   1.870  -0.275   5.859  0.1174  0.1808  0.3458
 3239ntf    fn421585   1.758  -0.421   5.971 -1.1186 -0.2892  0.4154
 3240ntf    cn121586   1.255   6.190   1.830 -0.0767 -0.0976  0.2528
 3240ntf    sn221587   1.266   6.242   1.656  0.0891  0.4097  0.4112
 3240ntf    nn321588   1.416   6.220   1.616 -0.2091  0.5181 -0.8161
 3240ntf    sn221589   1.512   6.327   1.555  0.6709  0.1966 -0.0189
 3240ntf    cn121590   1.599   6.241   1.421  0.1007 -0.3344 -0.0499
 3240ntf    fn421591   1.359   6.235   1.899  0.4247 -0.1216 -0.4774
 3240ntf    fn421592   1.142   6.224   1.890 -0.1473 -0.4423  0.3168
 3240ntf    fn421593   1.251   6.058   1.834 -0.0368 -0.0969  0.3294
 3240ntf    on521594   1.185   6.143   1.589  0.8000 -0.1019  0.2986
 3240ntf    on521595   1.214   6.376   1.664 -1.0032  0.0012  0.3228
 3240ntf    on521596   1.619   6.376   1.640  0.6925 -0.0752  0.1114
 3240ntf    on521597   1.446   6.428   1.476 -0.3628 -0.6428 -0.2320
 3240ntf    fn421598   1.509   6.207   1.330  0.3806 -0.4331 -0.2914
 3240ntf    fn421599   1.694   6.314   1.365 -0.0481  0.0455  0.1889
 3240ntf    fn421600   1.666   6.140   1.476  0.2390 -0.3898 -0.3165
   7.14769   7.14769   7.14769
