Converted from moscito
 3240
    1SOL     ow    1   1.909   2.109   3.165 -0.0380  0.9301  0.6603
    1SOL     hw    2   1.852   2.088   3.238 -1.5010  1.8734 -0.1708
    1SOL     hw    3   1.964   2.181   3.197  0.2070  0.4937  1.2326
    1SOL     vw    4   1.909   2.116   3.179 -0.0322  0.0095 -0.0381
    2SOL     ow    5   0.289   0.505   1.085 -0.0151  0.0476 -0.4993
    2SOL     hw    6   0.260   0.515   1.176 -0.4989  0.0597 -0.6533
    2SOL     hw    7   0.313   0.594   1.058 -0.0486  0.0741 -0.4428
    2SOL     vw    8   0.288   0.518   1.093  0.0489  0.0089  0.0233
    3SOL     ow    9   0.954   0.137   1.600 -0.4643 -0.0521 -0.7204
    3SOL     hw   10   0.989   0.051   1.574  1.3204 -0.1324  1.5834
    3SOL     hw   11   0.862   0.120   1.619 -0.2298 -1.4058 -0.6384
    3SOL     vw   12   0.946   0.123   1.599  0.0038 -0.0374 -0.0482
    4SOL     ow   13   0.173   0.843   1.534  0.1825 -0.6871  0.5964
    4SOL     hw   14   0.123   0.847   1.453  1.5806  1.2097 -0.2616
    4SOL     hw   15   0.263   0.826   1.506  0.4265 -1.6303  1.8865
    4SOL     vw   16   0.178   0.842   1.520  0.0106 -0.0547  0.0092
    5SOL     ow   17   0.685   1.160   6.470  0.3767  0.0722  0.5857
    5SOL     hw   18   0.616   1.183   6.408  0.6389 -1.2747 -0.2423
    5SOL     hw   19   0.762   1.209   6.439  0.4431 -0.4082 -0.0232
    5SOL     vw   20   0.686   1.170   6.458 -0.0156 -0.0095 -0.0706
    6SOL     ow   21   2.381   1.009   5.113 -0.1421 -0.3414 -0.5651
    6SOL     hw   22   2.326   0.960   5.052  1.8475 -5.2455  1.0491
    6SOL     hw   23   2.448   1.049   5.058 -0.1988 -1.9634 -1.8893
    6SOL     vw   24   2.383   1.008   5.098  0.0036 -0.0177  0.0761
    7SOL     ow   25   0.707   1.015   3.744 -0.6849 -0.2713  0.0341
    7SOL     hw   26   0.763   1.092   3.742 -0.3598 -0.4759  0.8355
    7SOL     hw   27   0.620   1.048   3.724 -0.0225 -0.2603 -3.6196
    7SOL     vw   28   0.703   1.029   3.741  0.0096 -0.0337  0.0080
    8SOL     ow   29   0.597   0.318   4.896 -0.6407 -0.2863  0.1806
    8SOL     hw   30   0.673   0.259   4.899  0.8094  1.4644  2.6465
    8SOL     hw   31   0.602   0.359   4.810  1.4749  0.0354  0.3973
    8SOL     vw   32   0.608   0.315   4.885  0.0359  0.0212  0.0496
    9SOL     ow   33   1.899   1.276   6.335  0.2644 -0.0897  0.7816
    9SOL     hw   34   1.968   1.319   6.283 -0.1572  0.8999  1.0124
    9SOL     hw   35   1.883   1.193   6.291 -0.3023  0.8547 -0.8734
    9SOL     vw   36   1.906   1.271   6.323  0.0018 -0.0199  0.0165
   10SOL     ow   37   0.412   1.173   0.447 -0.3204 -0.5446  0.4419
   10SOL     hw   38   0.374   1.259   0.467 -0.9434 -0.7443  0.1323
   10SOL     hw   39   0.444   1.181   0.357 -0.2611 -0.5936  0.4589
   10SOL     vw   40   0.411   1.186   0.438  0.0670 -0.0011  0.0544
   11SOL     ow   41   0.576   0.306   2.929 -0.0571  0.4973  0.2108
   11SOL     hw   42   0.633   0.375   2.962 -2.0870  2.0952  0.5092
   11SOL     hw   43   0.492   0.348   2.915 -1.2498 -1.8196 -0.0613
   11SOL     vw   44   0.573   0.320   2.932  0.0054 -0.0509  0.0054
   12SOL     ow   45   1.783   0.905   0.888 -0.1878 -0.0483 -0.1154
   12SOL     hw   46   1.708   0.888   0.832 -0.8393 -2.2353  1.2952
   12SOL     hw   47   1.815   0.818   0.913  2.2828  0.8243  0.0350
   12SOL     vw   48   1.778   0.891   0.884  0.0018  0.0010  0.0198
   13SOL     ow   49   0.944   2.371   4.916  0.0713  0.0089 -0.2708
   13SOL     hw   50   0.928   2.305   4.849 -0.3138  0.8666 -1.0424
   13SOL     hw   51   0.880   2.353   4.984 -0.1267 -0.3209 -0.5461
   13SOL     vw   52   0.934   2.360   4.916 -0.0524  0.0474 -0.0818
   14SOL     ow   53   1.804   1.062   6.173 -0.5289  0.0630 -0.4501
   14SOL     hw   54   1.759   0.994   6.123 -0.3657  0.3294 -0.9568
   14SOL     hw   55   1.814   1.135   6.112 -0.0928  0.2905 -0.1129
   14SOL     vw   56   1.800   1.063   6.159  0.0725 -0.0007 -0.0067
   15SOL     ow   57   1.316   1.288   2.466 -0.7260  0.9187  0.5092
   15SOL     hw   58   1.289   1.197   2.449 -1.2218  1.1608 -0.0275
   15SOL     hw   59   1.394   1.279   2.520  0.7898  0.0903 -1.6871
   15SOL     vw   60   1.323   1.275   2.471 -0.0674  0.0170  0.0311
   16SOL     ow   61   1.504   0.113   5.154 -0.2608 -0.0117  0.2355
   16SOL     hw   62   1.599   0.102   5.154 -0.2080  0.1510  2.0772
   16SOL     hw   63   1.470   0.033   5.114  0.6239 -0.4095  0.2665
   16SOL     vw   64   1.512   0.101   5.149 -0.0768  0.0550 -0.0086
   17SOL     ow   65   0.453   0.870   0.453  0.5455 -0.1244  0.4125
   17SOL     hw   66   0.362   0.866   0.424  0.6639  0.1329 -0.0113
   17SOL     hw   67   0.501   0.818   0.389  0.6481 -0.5493  0.8365
   17SOL     vw   68   0.447   0.863   0.440  0.0554 -0.0280 -0.0043
   18SOL     ow   69   0.589   2.315   0.486  0.0709  0.1303  0.4154
   18SOL     hw   70   0.575   2.402   0.524 -0.6510 -0.0356  0.5414
   18SOL     hw   71   0.685   2.305   0.485  0.1238  0.2933  1.8454
   18SOL     vw   72   0.600   2.325   0.491 -0.0192  0.0007 -0.0836
   19SOL     ow   73   0.580   1.722   3.165 -0.3166  0.2796  0.4016
   19SOL     hw   74   0.584   1.803   3.114 -0.2318  0.0318  0.0117
   19SOL     hw   75   0.486   1.709   3.180 -0.2708  1.1143  1.5490
   19SOL     vw   76   0.568   1.731   3.160  0.0661  0.0029 -0.0138
   20SOL     ow   77   0.687   1.487   5.778 -0.4958  1.1372  0.4908
   20SOL     hw   78   0.685   1.392   5.794  4.4180  0.7782  0.4589
   20SOL     hw   79   0.730   1.524   5.854 -0.5434  3.1171 -0.3831
   20SOL     vw   80   0.692   1.479   5.790 -0.0244  0.0694  0.0167
   21SOL     ow   81   0.506   1.925   5.351  0.1979 -0.1488  0.6952
   21SOL     hw   82   0.572   1.957   5.289 -0.1170 -1.3152 -0.2516
   21SOL     hw   83   0.476   2.005   5.396  2.1346  0.4342  1.0620
   21SOL     vw   84   0.511   1.940   5.349  0.0597 -0.0203  0.0432
   22SOL     ow   85   0.610   2.476   4.736 -0.4595 -0.5305  0.7364
   22SOL     hw   86   0.622   2.530   4.658 -2.3402 -2.6861 -1.1932
   22SOL     hw   87   0.536   2.516   4.782 -0.5661 -0.3322  0.3940
   22SOL     vw   88   0.602   2.488   4.732 -0.0768  0.0181  0.0265
   23SOL     ow   89   0.947   0.104   0.527  0.0310 -0.0571 -0.1133
   23SOL     hw   90   0.984   0.029   0.573 -0.3990 -0.3916 -0.2946
   23SOL     hw   91   0.946   0.077   0.435 -0.6323 -0.0480 -0.1143
   23SOL     vw   92   0.951   0.091   0.521  0.0431 -0.0818 -0.0663
   24SOL     ow   93   0.699   1.227   5.835  0.2633  0.2070 -0.4176
   24SOL     hw   94   0.794   1.241   5.843  0.1541  0.1508  1.3344
   24SOL     hw   95   0.687   1.133   5.846 -0.1544  0.4616  1.6295
   24SOL     vw   96   0.710   1.217   5.838 -0.0250  0.0141 -0.0978
   25SOL     ow   97   0.813   1.387   4.523 -0.2765  0.3671  0.5959
   25SOL     hw   98   0.818   1.303   4.567 -0.8003  0.5770  1.0672
   25SOL     hw   99   0.754   1.372   4.449  0.5870  0.0200 -0.0397
   25SOL     vw  100   0.806   1.374   4.519  0.0789 -0.0545  0.0114
   26SOL     ow  101   1.398   2.263   6.282 -0.3760  0.4189  0.2187
   26SOL     hw  102   1.450   2.221   6.213  0.3061 -0.8288  1.4233
   26SOL     hw  103   1.424   2.355   6.279  1.5680 -0.0740  0.4375
   26SOL     vw  104   1.409   2.269   6.273 -0.0227  0.0416  0.0255
   27SOL     ow  105   0.204   0.996   5.568 -0.0057 -0.0901 -0.4405
   27SOL     hw  106   0.277   1.056   5.585  0.7638 -0.7196 -1.3954
   27SOL     hw  107   0.236   0.910   5.596 -1.6336  0.0836  2.3280
   27SOL     vw  108   0.218   0.993   5.574  0.0275 -0.0059 -0.1576
   28SOL     ow  109   0.637   2.236   4.666 -0.4271  0.2881 -0.4266
   28SOL     hw  110   0.560   2.217   4.613  0.7042  0.9683 -2.3999
   28SOL     hw  111   0.620   2.321   4.705 -1.2668 -0.2185  0.3623
   28SOL     vw  112   0.624   2.244   4.665  0.0698 -0.0330 -0.0572
   29SOL     ow  113   2.156   0.270   0.245 -0.0892 -0.7244 -0.5879
   29SOL     hw  114   2.093   0.326   0.199  0.9803  0.9245 -0.1466
   29SOL     hw  115   2.176   0.200   0.182  0.9720  1.1888 -2.5370
   29SOL     vw  116   2.151   0.268   0.230 -0.0516  0.0003  0.0178
   30SOL     ow  117   2.060   0.237   2.195  0.4324 -0.1334 -0.0609
   30SOL     hw  118   2.122   0.292   2.244 -0.2682 -1.1969  2.1475
   30SOL     hw  119   2.046   0.161   2.251 -0.4496 -1.4361 -1.9659
   30SOL     vw  120   2.066   0.234   2.209  0.0688 -0.0375 -0.0645
   31SOL     ow  121   0.844   2.369   0.127 -0.5840 -0.1907  0.0618
   31SOL     hw  122   0.782   2.430   0.087  1.1601  0.9750 -0.9997
   31SOL     hw  123   0.909   2.425   0.169 -0.5842 -1.3915  1.7590
   31SOL     vw  124   0.844   2.384   0.127 -0.0198  0.0135 -0.0241
   32SOL     ow  125   1.605   1.247   1.018  0.0460 -0.2546 -0.2277
   32SOL     hw  126   1.646   1.314   0.963 -0.7284 -0.2984 -0.8796
   32SOL     hw  127   1.540   1.206   0.961 -0.7650 -0.3164  0.7234
   32SOL     vw  128   1.602   1.251   1.003  0.0418  0.0048 -0.1346
   33SOL     ow  129   1.020   1.206   6.779 -0.3864  0.0304 -0.4601
   33SOL     hw  130   0.957   1.276   6.797 -1.2723 -0.0038 -2.9744
   33SOL     hw  131   1.057   1.184   6.864 -1.2253  2.4690  0.6174
   33SOL     vw  132   1.017   1.212   6.792  0.0053  0.0552  0.0095
   34SOL     ow  133   1.791   1.672   1.577  0.2148 -0.5520 -0.5316
   34SOL     hw  134   1.748   1.757   1.580  0.3689 -0.4991  0.6933
   34SOL     hw  135   1.722   1.611   1.549  0.5196  0.1797 -3.1488
   34SOL     vw  136   1.776   1.675   1.573 -0.0197 -0.0123  0.0961
   35SOL     ow  137   1.263   0.139   3.227  0.3704 -0.0124  0.0795
   35SOL     hw  138   1.179   0.112   3.262 -0.7821  3.5613  0.4445
   35SOL     hw  139   1.316   0.161   3.304  0.0093  1.9523 -0.1844
   35SOL     vw  140   1.259   0.138   3.242 -0.0603 -0.0116 -0.0472
   36SOL     ow  141   0.776   1.546   6.032  0.3798  0.0479  0.1219
   36SOL     hw  142   0.863   1.527   5.997 -0.4128 -0.8212 -1.5396
   36SOL     hw  143   0.779   1.638   6.056  1.8643 -0.0669  0.4687
   36SOL     vw  144   0.788   1.556   6.030  0.0475  0.0333  0.0014
   37SOL     ow  145   1.034   1.849   6.952 -0.3759 -0.2131  0.2603
   37SOL     hw  146   1.076   1.861   6.866  1.6880 -2.3419  0.8600
   37SOL     hw  147   0.970   1.778   6.938  0.9222 -1.5245  0.6911
   37SOL     vw  148   1.031   1.841   6.939  0.0305  0.0311  0.0584
   38SOL     ow  149   1.239   0.497   0.632  0.1864  0.7440  0.4165
   38SOL     hw  150   1.332   0.494   0.657  0.4576 -0.7514 -0.6284
   38SOL     hw  151   1.198   0.428   0.683  0.0154  0.2002 -0.4389
   38SOL     vw  152   1.246   0.487   0.642  0.0021  0.0034  0.0065
   39SOL     ow  153   1.377   0.161   4.592 -0.0206  0.1792 -0.3966
   39SOL     hw  154   1.380   0.253   4.565 -0.7479  0.8320  1.6065
   39SOL     hw  155   1.355   0.114   4.512  0.7793  1.6845 -1.5608
   39SOL     vw  156   1.374   0.167   4.578  0.0362  0.0188  0.0119
   40SOL     ow  157   1.160   0.026   4.900 -0.2349 -0.2462  0.1126
   40SOL     hw  158   1.222  -0.009   4.963 -1.7135  0.5134  2.1154
   40SOL     hw  159   1.083  -0.030   4.909 -0.9488  0.6846  0.0103
   40SOL     vw  160   1.158   0.014   4.910 -0.0386  0.0286 -0.0050
   41SOL     ow  161   0.297   1.162   5.342 -0.0615  0.6947 -0.2346
   41SOL     hw  162   0.342   1.174   5.259 -1.2692  2.1810 -0.7138
   41SOL     hw  163   0.366   1.165   5.408  0.9223 -0.5764 -1.1556
   41SOL     vw  164   0.312   1.164   5.340 -0.0010  0.0235  0.0372
   42SOL     ow  165   1.041   2.134   6.390  0.1716  0.2079  0.3964
   42SOL     hw  166   1.073   2.044   6.393  1.1549  0.5040 -0.4581
   42SOL     hw  167   0.960   2.133   6.440  0.0105 -1.2203  0.1414
   42SOL     vw  168   1.034   2.122   6.397  0.0113 -0.0218  0.0026
   43SOL     ow  169   1.188   1.938   6.711 -0.1924 -0.1617  0.4347
   43SOL     hw  170   1.270   1.894   6.731  0.5820  0.8854 -0.3537
   43SOL     hw  171   1.210   2.031   6.706 -1.3086  0.0843 -0.3134
   43SOL     vw  172   1.201   1.944   6.713 -0.0399 -0.0162  0.0365
   44SOL     ow  173   2.074   1.435   6.223  0.1874  0.5388  0.1530
   44SOL     hw  174   2.138   1.447   6.152  1.0369 -0.9608  0.6234
   44SOL     hw  175   2.112   1.483   6.296 -0.5368  1.8244 -0.2782
   44SOL     vw  176   2.088   1.443   6.223  0.0294 -0.0132 -0.0029
   45SOL     ow  177   1.756   0.269   1.739  0.5962  0.7567  0.4601
   45SOL     hw  178   1.747   0.180   1.772  0.9346 -0.2352 -1.8842
   45SOL     hw  179   1.668   0.292   1.708  0.7031  0.8715  0.2382
   45SOL     vw  180   1.743   0.260   1.739 -0.0573 -0.0679 -0.1020
   46SOL     ow  181   2.270   1.757   1.474 -0.6968 -0.7051 -0.2041
   46SOL     hw  182   2.184   1.799   1.474  0.3828  1.7102  0.9653
   46SOL     hw  183   2.311   1.786   1.393 -0.4963 -0.7401 -0.1161
   46SOL     vw  184   2.264   1.766   1.464 -0.0356 -0.1312 -0.0303
   47SOL     ow  185   2.258   1.049   4.283  0.4949  0.0961  0.1776
   47SOL     hw  186   2.199   1.106   4.234 -0.1317 -1.6934 -1.2621
   47SOL     hw  187   2.200   1.005   4.346  0.6327 -0.2482  0.0666
   47SOL     vw  188   2.242   1.051   4.285  0.0204  0.0018  0.0229
   48SOL     ow  189   1.734   0.749   2.812 -0.0884 -0.3252 -0.3674
   48SOL     hw  190   1.708   0.837   2.785  1.2032 -0.3396 -1.8383
   48SOL     hw  191   1.828   0.758   2.832  0.7163 -1.8099 -2.9973
   48SOL     vw  192   1.743   0.762   2.811 -0.0054  0.0028 -0.0492
   49SOL     ow  193   0.919   2.411   6.406  0.4382 -0.1585 -0.6434
   49SOL     hw  194   0.848   2.347   6.402  2.8243 -2.9889 -1.3327
   49SOL     hw  195   0.961   2.406   6.320  1.5537  1.3353 -0.2371
   49SOL     vw  196   0.915   2.402   6.394 -0.0065  0.0027 -0.0422
   50SOL     ow  197   2.158   1.269   5.455  0.0527 -0.3847  0.1683
   50SOL     hw  198   2.244   1.267   5.498 -0.3044 -0.7236  0.8816
   50SOL     hw  199   2.119   1.351   5.486 -1.1268 -1.6833  2.3770
   50SOL     vw  200   2.164   1.280   5.465 -0.0112  0.0077  0.0458
   51SOL     ow  201   1.586   0.525   3.677  0.5258 -1.0897 -0.3250
   51SOL     hw  202   1.564   0.576   3.599 -1.1436 -1.6101 -0.2232
   51SOL     hw  203   1.509   0.532   3.733  1.1065 -1.9753  0.6250
   51SOL     vw  204   1.573   0.533   3.674 -0.0079 -0.0193  0.0255
   52SOL     ow  205   1.292   1.037   4.727  0.4082  0.6654 -0.7817
   52SOL     hw  206   1.300   1.024   4.633  0.3981  1.4541 -0.8998
   52SOL     hw  207   1.198   1.032   4.744  0.3815  0.8604 -0.8688
   52SOL     vw  208   1.281   1.035   4.717 -0.0236  0.0192  0.1800
   53SOL     ow  209   1.211   1.573   4.194 -0.5392 -0.1744  0.4055
   53SOL     hw  210   1.275   1.628   4.239 -0.6145  2.3653 -2.2663
   53SOL     hw  211   1.264   1.521   4.133 -0.8393  0.5342 -0.4724
   53SOL     vw  212   1.226   1.573   4.192 -0.0885 -0.0188 -0.0494
   54SOL     ow  213   1.442   2.144   0.125 -0.3461  0.1351 -0.0744
   54SOL     hw  214   1.469   2.137   0.034 -1.0152  2.5194 -0.5150
   54SOL     hw  215   1.520   2.118   0.175  0.6578  0.6058 -1.3370
   54SOL     vw  216   1.456   2.140   0.120  0.0198 -0.0143  0.0058
   55SOL     ow  217   0.497   1.226   6.281  0.0963  0.2430 -0.1656
   55SOL     hw  218   0.532   1.280   6.211 -3.5549  1.1686 -1.5317
   55SOL     hw  219   0.435   1.283   6.327 -1.2849 -1.7468  0.5907
   55SOL     vw  220   0.493   1.241   6.278 -0.0291 -0.0783  0.0491
   56SOL     ow  221   0.849   0.900   0.329  0.4736 -0.1089 -0.3103
   56SOL     hw  222   0.766   0.853   0.331  0.2991 -0.2843 -4.0715
   56SOL     hw  223   0.831   0.984   0.369 -2.0810  0.4620 -2.3874
   56SOL     vw  224   0.836   0.905   0.334  0.0553 -0.0774 -0.0050
   57SOL     ow  225   0.305   2.374   5.265  0.1581  0.0545  0.4188
   57SOL     hw  226   0.256   2.322   5.201  1.1086 -2.3943  1.5477
   57SOL     hw  227   0.249   2.375   5.343  0.6307 -0.2486  0.7650
   57SOL     vw  228   0.291   2.367   5.267  0.0280 -0.0566  0.0370
   58SOL     ow  229   1.680   2.111   6.574  0.1906 -0.6915  0.2990
   58SOL     hw  230   1.742   2.144   6.509 -0.1606 -1.5980 -0.5201
   58SOL     hw  231   1.734   2.079   6.645  0.5494  1.9718  1.3386
   58SOL     vw  232   1.695   2.111   6.575 -0.0395  0.0662 -0.0298
   59SOL     ow  233   0.935   2.096   1.575  0.4441 -0.3575 -0.1293
   59SOL     hw  234   0.840   2.102   1.578  0.4462 -0.0051 -0.6383
   59SOL     hw  235   0.964   2.141   1.654  0.1943 -0.2617 -0.0903
   59SOL     vw  236   0.926   2.103   1.586  0.0686  0.0360 -0.0620
   60SOL     ow  237   1.088   2.338   6.915  0.0880  0.0771  0.1178
   60SOL     hw  238   1.000   2.343   6.952  0.7091  0.5241  1.6018
   60SOL     hw  239   1.143   2.312   6.988  0.6769 -4.5439 -1.6384
   60SOL     vw  240   1.084   2.335   6.930 -0.0139  0.0331  0.0041
   61SOL     ow  241   2.401   0.536   0.717  0.2055 -0.4898 -0.9598
   61SOL     hw  242   2.337   0.524   0.647 -1.3311 -1.1491  0.4733
   61SOL     hw  243   2.445   0.451   0.724 -0.5507 -0.8426 -0.3080
   61SOL     vw  244   2.398   0.523   0.709  0.0187  0.0001 -0.0719
   62SOL     ow  245   1.947   0.699   3.171  0.3940 -0.2131 -0.0689
   62SOL     hw  246   1.951   0.645   3.092 -0.7085  0.2354 -0.4478
   62SOL     hw  247   1.940   0.789   3.139 -0.5103 -0.0561  0.5203
   62SOL     vw  248   1.947   0.704   3.156 -0.0110 -0.0407 -0.0191
   63SOL     ow  249   2.122   0.245   5.457 -0.6020 -0.1824 -0.0366
   63SOL     hw  250   2.144   0.207   5.542  0.6474 -0.5810 -0.5135
   63SOL     hw  251   2.121   0.339   5.473 -2.4596 -0.3306  0.8690
   63SOL     vw  252   2.125   0.253   5.470  0.0194  0.0055 -0.0308
   64SOL     ow  253   0.679   2.053   4.900 -0.5689 -0.3766 -0.8823
   64SOL     hw  254   0.686   2.147   4.885 -2.8157  0.3293  1.6886
   64SOL     hw  255   0.592   2.029   4.867 -2.6290 -0.1542  3.6969
   64SOL     vw  256   0.669   2.062   4.894  0.0658 -0.0441  0.0730
   65SOL     ow  257   1.486   0.239   6.565 -0.3405 -0.1597 -0.2648
   65SOL     hw  258   1.527   0.318   6.602 -3.3310  1.4006  0.0315
   65SOL     hw  259   1.478   0.179   6.639  2.2316 -1.0024 -0.5513
   65SOL     vw  260   1.491   0.242   6.580  0.0441 -0.0272 -0.0131
   66SOL     ow  261   1.833   1.924   2.925 -0.0201  0.7093  0.1964
   66SOL     hw  262   1.894   1.852   2.937 -0.6152  0.0274 -0.7043
   66SOL     hw  263   1.795   1.909   2.838 -1.5222  1.0526  0.7544
   66SOL     vw  264   1.836   1.912   2.915  0.0640  0.0793 -0.0143
   67SOL     ow  265   1.943   1.526   3.635  0.4965 -0.3017  0.3289
   67SOL     hw  266   2.023   1.473   3.637  0.4320 -0.4994 -1.2308
   67SOL     hw  267   1.903   1.506   3.551  1.1994  3.2413 -1.0368
   67SOL     vw  268   1.948   1.517   3.624 -0.0122  0.0207  0.0129
   68SOL     ow  269   2.193   1.195   5.170  0.3019  0.1514  0.4010
   68SOL     hw  270   2.254   1.267   5.186 -0.1257  0.7962 -0.8086
   68SOL     hw  271   2.249   1.119   5.154  0.7791  0.6457 -0.2906
   68SOL     vw  272   2.208   1.194   5.170  0.0105  0.0539 -0.0699
   69SOL     ow  273   1.695   2.452   0.984 -0.1128  0.6163 -0.1249
   69SOL     hw  274   1.772   2.509   0.978  0.7106 -0.5298 -1.0362
   69SOL     hw  275   1.641   2.477   0.909  0.7218 -0.4313 -1.1045
   69SOL     vw  276   1.698   2.463   0.973 -0.0337  0.0815  0.0129
   70SOL     ow  277   2.136   0.982   5.394 -0.2753 -0.1465  0.1502
   70SOL     hw  278   2.126   0.887   5.397  0.8544 -0.3450 -1.1396
   70SOL     hw  279   2.170   1.006   5.480 -0.9028 -0.8493  0.6029
   70SOL     vw  280   2.139   0.973   5.405 -0.0432  0.0577 -0.0141
   71SOL     ow  281   0.711   2.345   5.091 -0.0737 -0.3730  0.0699
   71SOL     hw  282   0.629   2.387   5.119 -0.2839 -0.8720  0.2044
   71SOL     hw  283   0.710   2.259   5.132 -0.2932 -1.0533 -1.2938
   71SOL     vw  284   0.700   2.339   5.100  0.0482  0.0291  0.0076
   72SOL     ow  285   1.668   0.437   5.352 -0.2171  0.3067  0.2833
   72SOL     hw  286   1.727   0.367   5.381 -0.6359 -0.0765  0.2168
   72SOL     hw  287   1.722   0.516   5.357  0.2116  0.0092  0.5218
   72SOL     vw  288   1.683   0.438   5.356  0.0318  0.0106  0.0341
   73SOL     ow  289   0.916   1.119   4.140  0.2829 -0.3043 -0.1490
   73SOL     hw  290   0.906   1.056   4.211  1.5237  0.6383  0.9116
   73SOL     hw  291   1.001   1.097   4.102  0.6515  0.6101  0.1272
   73SOL     vw  292   0.926   1.108   4.144  0.0275  0.0298 -0.0901
   74SOL     ow  293   1.928   1.191   0.785 -0.7810 -0.0400 -0.3789
   74SOL     hw  294   1.909   1.258   0.850 -0.5604  1.0569 -1.3938
   74SOL     hw  295   1.874   1.215   0.709  0.7567  0.1842 -1.4677
   74SOL     vw  296   1.918   1.203   0.783 -0.0044 -0.0468  0.0328
   75SOL     ow  297   0.713   2.035   5.190 -0.1552 -0.5654  0.0188
   75SOL     hw  298   0.681   2.022   5.101  2.5813  1.0506 -1.3295
   75SOL     hw  299   0.761   1.954   5.209 -0.7894 -0.9372  0.0970
   75SOL     vw  300   0.715   2.022   5.181  0.0735  0.0262  0.0074
   76SOL     ow  301   0.659   1.318   4.326 -0.3252  0.7228  0.1465
   76SOL     hw  302   0.564   1.313   4.329 -0.3429  0.9576 -0.0004
   76SOL     hw  303   0.683   1.282   4.241 -0.3177  1.1668 -0.0380
   76SOL     vw  304   0.650   1.313   4.315 -0.0316 -0.0193 -0.0422
   77SOL     ow  305   0.940   2.386   5.536 -0.1030  0.0079  0.2454
   77SOL     hw  306   0.930   2.370   5.629  1.0782 -0.6809  0.2797
   77SOL     hw  307   0.942   2.298   5.496  2.7845  0.0612  0.0053
   77SOL     vw  308   0.939   2.372   5.543  0.0051  0.0126 -0.0703
   78SOL     ow  309   1.124   0.098   6.499 -0.2152 -0.6653 -0.1438
   78SOL     hw  310   1.175   0.018   6.514  0.3650 -0.5999 -1.5668
   78SOL     hw  311   1.185   0.158   6.456 -0.9607  0.1344 -0.1148
   78SOL     vw  312   1.139   0.095   6.495  0.0103  0.0231  0.0119
   79SOL     ow  313   2.290   2.288   0.936 -0.0605  0.4851 -0.6570
   79SOL     hw  314   2.371   2.287   0.886  0.2087  0.6381 -0.2266
   79SOL     hw  315   2.312   2.247   1.019 -0.5336  0.1291 -0.7005
   79SOL     vw  316   2.303   2.283   0.940 -0.0496  0.0288  0.0833
   80SOL     ow  317   0.943   0.958   0.076  0.0405  0.1477 -0.3029
   80SOL     hw  318   0.921   0.932   0.166 -1.6396 -0.0902 -0.7354
   80SOL     hw  319   0.979   1.047   0.085 -0.4288  0.2652  0.5861
   80SOL     vw  320   0.945   0.967   0.089 -0.0542 -0.0098 -0.0214
   81SOL     ow  321   1.256   0.247   2.028  0.2998 -0.4210  0.0845
   81SOL     hw  322   1.257   0.339   2.053 -0.1821 -0.8389  1.7757
   81SOL     hw  323   1.337   0.212   2.065  0.6920 -0.6135 -0.9154
   81SOL     vw  324   1.267   0.254   2.036  0.0110  0.0024 -0.0842
   82SOL     ow  325   1.282   2.191   1.019 -0.4909 -0.4087 -0.3041
   82SOL     hw  326   1.293   2.122   0.954  1.3129  0.7594 -1.3428
   82SOL     hw  327   1.365   2.240   1.016 -1.5797  1.6217  0.5817
   82SOL     vw  328   1.295   2.188   1.010  0.0393 -0.0199  0.1460
   83SOL     ow  329   0.348   1.007   4.631  0.7535 -0.2249 -0.1736
   83SOL     hw  330   0.420   1.070   4.636  1.3134 -0.7380 -1.3766
   83SOL     hw  331   0.333   0.995   4.537 -0.7288 -0.3356  0.0612
   83SOL     vw  332   0.356   1.014   4.619 -0.0404  0.0497 -0.0229
   84SOL     ow  333   1.575   2.373   1.638 -0.3317 -0.1692  0.6660
   84SOL     hw  334   1.550   2.426   1.562 -0.8967 -0.8316  0.3837
   84SOL     hw  335   1.611   2.292   1.601  0.1522 -0.1586  1.1004
   84SOL     vw  336   1.576   2.370   1.623  0.0504  0.0064  0.0007
   85SOL     ow  337   1.891   1.224   5.325 -0.4212  0.0680 -0.2556
   85SOL     hw  338   1.867   1.239   5.417 -2.4410  0.3876 -0.7909
   85SOL     hw  339   1.885   1.310   5.284 -0.9921 -0.3147 -0.9958
   85SOL     vw  340   1.887   1.237   5.332  0.0300 -0.0474  0.0091
   86SOL     ow  341   0.905   1.701   2.675 -0.5779 -0.0850  0.2406
   86SOL     hw  342   0.853   1.780   2.686  0.3010  0.6704 -0.8916
   86SOL     hw  343   0.990   1.721   2.715  0.1668  0.1221 -1.3456
   86SOL     vw  344   0.910   1.714   2.682 -0.0005 -0.0388 -0.0081
   87SOL     ow  345   2.408   0.814   4.547 -0.0764 -0.4960 -0.4535
   87SOL     hw  346   2.477   0.768   4.594 -1.4440 -0.2451  1.9816
   87SOL     hw  347   2.387   0.756   4.474  1.2801 -1.5602 -0.0482
   87SOL     vw  348   2.414   0.800   4.543 -0.1276  0.0429 -0.0193
   88SOL     ow  349   2.009   0.386   3.799 -0.0132 -0.2174  0.3429
   88SOL     hw  350   1.993   0.335   3.878 -0.3361  0.4776  0.7302
   88SOL     hw  351   1.931   0.371   3.745  0.9907 -2.1595 -0.6653
   88SOL     vw  352   1.996   0.377   3.802  0.0519  0.0637 -0.0545
   89SOL     ow  353   0.459   0.761   1.480  0.0078  0.3445 -0.0928
   89SOL     hw  354   0.500   0.790   1.399 -3.8729 -1.8310 -3.1857
   89SOL     hw  355   0.433   0.671   1.463 -2.6576  0.3769  2.8941
   89SOL     vw  356   0.461   0.753   1.467 -0.0951 -0.0390  0.0933
   90SOL     ow  357   0.842   2.199   0.465 -0.4634  0.1739 -0.5234
   90SOL     hw  358   0.920   2.249   0.488  0.5212 -1.3341 -0.3996
   90SOL     hw  359   0.812   2.162   0.548 -1.1542  0.5054 -0.6177
   90SOL     vw  360   0.849   2.201   0.479  0.0516 -0.0191  0.0047
   91SOL     ow  361   2.271   1.111   0.811 -0.3797  0.4067  0.3622
   91SOL     hw  362   2.236   1.168   0.742  0.4650  0.7557  0.2077
   91SOL     hw  363   2.366   1.117   0.801 -0.2679 -0.6311  0.6749
   91SOL     vw  364   2.279   1.119   0.800  0.0074 -0.0412  0.0085
   92SOL     ow  365   0.493   1.386   5.634 -0.1063  0.0856 -0.4311
   92SOL     hw  366   0.417   1.440   5.615 -0.6024 -0.8382 -1.1126
   92SOL     hw  367   0.553   1.445   5.681 -1.1878  0.8410  0.0359
   92SOL     vw  368   0.491   1.401   5.638 -0.0311  0.0107 -0.0622
   93SOL     ow  369   0.953   0.129   5.393 -0.2513  0.4566  0.1743
   93SOL     hw  370   0.919   0.068   5.458  0.1423 -0.4343 -0.4384
   93SOL     hw  371   0.880   0.144   5.333 -0.3806  0.6692  0.3865
   93SOL     vw  372   0.939   0.123   5.393  0.0204 -0.0345 -0.0236
   94SOL     ow  373   0.130   2.334   5.466  0.4752  0.2001 -0.0187
   94SOL     hw  374   0.084   2.415   5.488 -0.7865 -0.5137  0.1352
   94SOL     hw  375   0.136   2.287   5.550  1.4739  0.2626 -0.0486
   94SOL     vw  376   0.125   2.338   5.480 -0.0864 -0.0417 -0.0806
   95SOL     ow  377   1.113   1.296   4.327  0.0525 -0.1469  0.3212
   95SOL     hw  378   1.040   1.235   4.333 -1.2158  1.3593  0.9357
   95SOL     hw  379   1.184   1.254   4.375 -0.3274 -1.7003 -0.4098
   95SOL     vw  380   1.113   1.282   4.334  0.0179  0.0118  0.0200
   96SOL     ow  381   1.798   0.330   3.637 -0.2531 -0.2136  0.2623
   96SOL     hw  382   1.778   0.268   3.707  0.0499  0.8935  1.3632
   96SOL     hw  383   1.730   0.397   3.645 -0.1908 -0.0520 -0.4966
   96SOL     vw  384   1.786   0.331   3.648 -0.0563  0.0001 -0.0230
   97SOL     ow  385   1.372   0.627   5.001 -0.1446 -0.2504  0.0604
   97SOL     hw  386   1.398   0.684   4.930  2.0696 -1.4865 -0.2144
   97SOL     hw  387   1.278   0.615   4.990 -0.1929  1.2186 -1.3973
   97SOL     vw  388   1.363   0.633   4.990  0.0206 -0.0512 -0.0074
   98SOL     ow  389   0.085   1.583   4.683 -0.5274  0.0239  0.0450
   98SOL     hw  390   0.045   1.515   4.737  2.5338 -1.2682  0.8795
   98SOL     hw  391   0.100   1.656   4.744  0.0292 -0.2026  0.1826
   98SOL     vw  392   0.081   1.584   4.698  0.0152 -0.0065 -0.0377
   99SOL     ow  393   1.403   1.788   6.751  0.4220 -0.1451  0.2966
   99SOL     hw  394   1.396   1.719   6.816  1.0164  0.5821  1.1512
   99SOL     hw  395   1.447   1.860   6.796 -0.3525  0.8716 -0.5132
   99SOL     vw  396   1.408   1.788   6.765  0.0034  0.0067  0.0324
  100SOL     ow  397   1.334   2.393   5.048  0.0143 -0.3442  0.0019
  100SOL     hw  398   1.354   2.335   5.122  0.1704 -1.4611 -0.8847
  100SOL     hw  399   1.379   2.353   4.974  0.3753  1.1025 -0.5873
  100SOL     vw  400   1.342   2.380   5.048 -0.0195 -0.0591 -0.0219
  101SOL     ow  401   0.941   1.391   2.697  0.4030  0.4949 -0.1245
  101SOL     hw  402   0.913   1.316   2.749 -1.5776  1.8177  0.8642
  101SOL     hw  403   1.030   1.409   2.727  0.5330 -0.8368  0.3461
  101SOL     vw  404   0.949   1.383   2.708 -0.0423  0.0532  0.0609
  102SOL     ow  405   1.271   2.395   4.694  0.8820  0.3492  0.1651
  102SOL     hw  406   1.343   2.456   4.678 -0.0194  1.6869  1.0831
  102SOL     hw  407   1.224   2.432   4.768  0.6745 -1.8083  1.1836
  102SOL     vw  408   1.274   2.408   4.701 -0.0185  0.0166 -0.0672
  103SOL     ow  409   1.689   1.852   2.143  0.8997 -0.2362 -0.5617
  103SOL     hw  410   1.684   1.832   2.237  2.7169 -0.0446 -0.3866
  103SOL     hw  411   1.773   1.898   2.133  1.0497 -0.8324 -2.3784
  103SOL     vw  412   1.700   1.855   2.154 -0.0250  0.0286 -0.0010
  104SOL     ow  413   0.854   0.700   5.915 -0.1988 -0.1534 -0.2953
  104SOL     hw  414   0.930   0.743   5.876  1.2422 -1.9061  0.4724
  104SOL     hw  415   0.813   0.654   5.843  0.1217 -0.1233 -0.4990
  104SOL     vw  416   0.859   0.700   5.900  0.0040  0.0164 -0.0160
  105SOL     ow  417   0.371   0.059   2.437 -0.3263  0.9494 -0.1397
  105SOL     hw  418   0.321  -0.022   2.425  0.2501  0.6150 -0.3468
  105SOL     hw  419   0.463   0.031   2.431  0.0179  1.0692  3.0196
  105SOL     vw  420   0.377   0.045   2.434 -0.0218  0.0042 -0.0094
  106SOL     ow  421   0.943   0.177   1.893 -0.5606 -0.2415 -0.2397
  106SOL     hw  422   0.858   0.216   1.913 -0.2693  0.4377 -0.2749
  106SOL     hw  423   0.979   0.150   1.977 -0.4487  0.2626 -0.1171
  106SOL     vw  424   0.937   0.179   1.907  0.0009  0.0233 -0.0247
  107SOL     ow  425   0.355   1.726   5.528 -0.2115 -0.2144 -0.2159
  107SOL     hw  426   0.359   1.768   5.614  0.0569  0.4082 -0.5269
  107SOL     hw  427   0.310   1.643   5.544  1.1605 -0.7919  0.7930
  107SOL     vw  428   0.349   1.721   5.542 -0.0760  0.0452 -0.0291
  108SOL     ow  429   0.884   1.676   5.107 -0.5256 -0.1865  0.4209
  108SOL     hw  430   0.897   1.735   5.032 -0.5926 -0.9597 -0.2165
  108SOL     hw  431   0.794   1.645   5.097 -1.4287  1.6423  2.2569
  108SOL     vw  432   0.874   1.680   5.096  0.0255 -0.0330 -0.0319
  109SOL     ow  433   1.326   1.912   0.112 -0.5053 -0.3139 -0.0635
  109SOL     hw  434   1.397   1.849   0.129 -1.0811 -1.1046 -0.5297
  109SOL     hw  435   1.364   1.997   0.134  0.1232 -0.8722  1.1001
  109SOL     vw  436   1.341   1.915   0.117 -0.0193 -0.0168 -0.1024
  110SOL     ow  437   0.361   0.560   4.988 -0.4478  0.1694  0.3382
  110SOL     hw  438   0.297   0.499   4.951 -0.1040 -1.2695  1.9945
  110SOL     hw  439   0.446   0.521   4.966 -0.1730  0.9951 -0.0909
  110SOL     vw  440   0.364   0.546   4.980  0.0083  0.0156  0.0100
  111SOL     ow  441   2.376   1.260   5.719 -0.1711 -0.1989 -0.2203
  111SOL     hw  442   2.346   1.349   5.737  1.1138  0.8586 -2.7345
  111SOL     hw  443   2.471   1.263   5.733 -0.0870 -1.1264 -0.5125
  111SOL     vw  444   2.385   1.272   5.723 -0.0696 -0.0278 -0.0503
  112SOL     ow  445   1.867   1.287   6.018 -0.0072  0.4511 -0.2264
  112SOL     hw  446   1.815   1.344   6.076  1.0424  2.0832 -0.8135
  112SOL     hw  447   1.946   1.338   5.999  1.5112 -1.6595  0.0640
  112SOL     vw  448   1.871   1.302   6.023 -0.0725  0.0362 -0.0374
  113SOL     ow  449   2.468   0.233   0.327 -0.2741 -0.5394  0.3940
  113SOL     hw  450   2.525   0.243   0.251 -2.9811 -2.9468 -2.1926
  113SOL     hw  451   2.501   0.154   0.371 -0.1379 -0.4971  0.3689
  113SOL     vw  452   2.480   0.224   0.323 -0.0780  0.0495  0.0230
  114SOL     ow  453   1.639   1.417   2.524  0.1820 -0.0730 -0.4343
  114SOL     hw  454   1.592   1.385   2.601 -1.8495  1.1022 -1.0793
  114SOL     hw  455   1.625   1.512   2.526  0.4468  0.0283 -2.0087
  114SOL     vw  456   1.631   1.426   2.535 -0.0030  0.0164 -0.0191
  115SOL     ow  457   2.414   0.079   5.049 -0.3045  0.4118  0.5332
  115SOL     hw  458   2.473   0.040   4.985 -1.6559  1.1124 -1.2230
  115SOL     hw  459   2.419   0.174   5.032 -2.6064  0.4471 -0.3790
  115SOL     vw  460   2.422   0.087   5.038 -0.0263  0.0318  0.0198
  116SOL     ow  461   2.035   2.050   3.488 -0.5178 -0.4526  0.0645
  116SOL     hw  462   2.020   2.049   3.583  0.3666 -1.6082  0.2160
  116SOL     hw  463   2.109   2.111   3.477  2.0105 -3.1926  0.6247
  116SOL     vw  464   2.043   2.058   3.499 -0.0014 -0.0284 -0.0263
  117SOL     ow  465   1.944   0.481   3.402 -0.2712  0.4951 -0.1193
  117SOL     hw  466   2.032   0.444   3.398  0.1366  1.3297  0.7039
  117SOL     hw  467   1.892   0.416   3.449  0.3137  0.7076  0.8512
  117SOL     vw  468   1.949   0.468   3.408 -0.0228  0.0420 -0.0080
  118SOL     ow  469   1.185   1.485   2.827  0.6909 -0.0777  0.0873
  118SOL     hw  470   1.280   1.477   2.837  0.9594 -0.9233 -2.4413
  118SOL     hw  471   1.173   1.571   2.786  0.4988 -0.4763 -0.7112
  118SOL     vw  472   1.196   1.495   2.823 -0.0011 -0.0120  0.0366
  119SOL     ow  473   0.871   1.720   4.690  0.0436 -0.5238  0.6811
  119SOL     hw  474   0.791   1.668   4.682 -0.0059 -0.3544  0.0803
  119SOL     hw  475   0.870   1.778   4.614  0.8209 -0.6350  0.5840
  119SOL     vw  476   0.860   1.721   4.679  0.0099 -0.0425 -0.0372
  120SOL     ow  477   0.793   1.482   3.044 -0.4704  0.1343 -0.5544
  120SOL     hw  478   0.781   1.483   2.949  0.6915  0.5132 -0.7234
  120SOL     hw  479   0.872   1.429   3.057 -0.7254 -0.0636  0.2099
  120SOL     vw  480   0.802   1.475   3.033 -0.0097 -0.0072  0.0255
  121SOL     ow  481   1.858   2.474   2.198  0.0699  0.3299  0.3533
  121SOL     hw  482   1.840   2.523   2.279 -1.7202 -1.1786  0.9441
  121SOL     hw  483   1.860   2.383   2.226 -3.3892 -0.5151 -1.6267
  121SOL     vw  484   1.856   2.469   2.212 -0.0824 -0.0203 -0.0317
  122SOL     ow  485   0.237   0.988   4.878 -0.0711 -0.1688  0.2831
  122SOL     hw  486   0.242   0.988   4.783  0.9643 -1.4258  0.3133
  122SOL     hw  487   0.195   0.904   4.899 -3.3764  1.4638  0.8576
  122SOL     vw  488   0.232   0.977   4.868  0.0388  0.0008 -0.0179
  123SOL     ow  489   0.474   2.209   5.435  0.1763  0.2431  0.4748
  123SOL     hw  490   0.449   2.249   5.518  1.2709 -0.2506  1.0604
  123SOL     hw  491   0.407   2.239   5.373  1.2325  3.4645  0.7306
  123SOL     vw  492   0.462   2.218   5.438  0.0741  0.0459 -0.0567
  124SOL     ow  493   2.485   1.109   4.443 -0.6026  0.1790  0.5393
  124SOL     hw  494   2.416   1.083   4.383  0.4565  1.4878 -1.3424
  124SOL     hw  495   2.566   1.076   4.404 -0.0375 -0.4922  2.1952
  124SOL     vw  496   2.487   1.101   4.430  0.0139 -0.0101 -0.0048
  125SOL     ow  497   0.991   1.488   2.219 -0.1039 -0.2053 -0.0793
  125SOL     hw  498   0.988   1.565   2.162 -0.0225 -0.5896 -0.6115
  125SOL     hw  499   1.056   1.431   2.178  0.0052 -0.4577  0.4401
  125SOL     vw  500   0.999   1.490   2.206  0.0435 -0.0027  0.0474
  126SOL     ow  501   0.584   0.926   2.619 -0.0433 -0.1626 -0.0889
  126SOL     hw  502   0.678   0.912   2.632  0.0561  0.4790 -0.0651
  126SOL     hw  503   0.577   0.963   2.531 -0.5622 -2.9881 -1.3500
  126SOL     vw  504   0.595   0.929   2.609  0.0313  0.0183  0.0803
  127SOL     ow  505   1.319   2.444   2.453 -0.1593 -0.2901  0.0633
  127SOL     hw  506   1.298   2.527   2.409  0.4502 -0.4531 -0.5571
  127SOL     hw  507   1.331   2.468   2.545  1.4973  0.6033 -0.3353
  127SOL     vw  508   1.318   2.458   2.459  0.0456  0.0342  0.0303
  128SOL     ow  509   1.357   0.358   5.175  0.1624 -0.0036  0.1046
  128SOL     hw  510   1.404   0.275   5.168  0.0510 -0.0862  0.3241
  128SOL     hw  511   1.353   0.375   5.269 -1.2219 -0.5532  0.1593
  128SOL     vw  512   1.363   0.349   5.187  0.0644  0.0363 -0.0145
  129SOL     ow  513   0.322   0.763   5.574  0.2762 -0.4996  0.7120
  129SOL     hw  514   0.385   0.736   5.641  0.8201 -2.7949 -0.6000
  129SOL     hw  515   0.302   0.682   5.527 -1.6806  0.6600 -0.5710
  129SOL     vw  516   0.328   0.749   5.577 -0.0164 -0.0176  0.0479
  130SOL     ow  517   1.855   0.786   3.446  0.2559  0.1973 -0.0181
  130SOL     hw  518   1.812   0.807   3.529 -0.6949 -0.7161 -0.2622
  130SOL     hw  519   1.871   0.871   3.405  1.4769  0.7032  1.4462
  130SOL     vw  520   1.851   0.800   3.451  0.0467  0.0217  0.0757
  131SOL     ow  521   1.218   2.319   6.487 -0.4556  0.3264 -0.0807
  131SOL     hw  522   1.146   2.257   6.478  0.2210 -0.2833 -1.4762
  131SOL     hw  523   1.286   2.286   6.430  0.6301  1.3602  0.5683
  131SOL     vw  524   1.217   2.306   6.479  0.0198  0.0601 -0.0231
  132SOL     ow  525   2.232   0.467   3.579  0.0667 -0.5949 -0.0476
  132SOL     hw  526   2.265   0.417   3.504 -1.8403 -0.4071 -1.0988
  132SOL     hw  527   2.255   0.557   3.559 -0.6354 -0.5159 -0.5722
  132SOL     vw  528   2.239   0.472   3.566 -0.0880 -0.0163 -0.0248
  133SOL     ow  529   1.063   2.073   4.906  0.6660 -0.1131  0.5627
  133SOL     hw  530   0.997   2.003   4.912 -0.0919  0.6229  1.0432
  133SOL     hw  531   1.024   2.138   4.848  0.9564  0.3455  0.8737
  133SOL     vw  532   1.049   2.072   4.899  0.0921 -0.1053 -0.0496
  134SOL     ow  533   0.624   0.888   1.663 -0.1537  0.3728 -0.1551
  134SOL     hw  534   0.554   0.830   1.631 -0.4392  0.3940  0.4199
  134SOL     hw  535   0.622   0.878   1.758  1.1565 -0.2342 -0.1697
  134SOL     vw  536   0.615   0.879   1.671  0.0036  0.0004 -0.0637
  135SOL     ow  537   0.852   1.042   6.629  0.0118  0.1486  0.0644
  135SOL     hw  538   0.782   1.061   6.567 -0.6486 -0.9982  0.4386
  135SOL     hw  539   0.808   1.003   6.704  0.8988  0.7217  0.9126
  135SOL     vw  540   0.837   1.039   6.631  0.0033 -0.0232  0.0126
  136SOL     ow  541   2.041   1.786   3.522 -0.1437  0.0302  0.5916
  136SOL     hw  542   2.056   1.732   3.444 -1.2047 -1.8937  1.6304
  136SOL     hw  543   2.047   1.876   3.490  1.3958 -0.6656 -1.3074
  136SOL     vw  544   2.044   1.790   3.507  0.0062 -0.0296  0.0579
  137SOL     ow  545   2.493   1.145   5.359  0.5994 -0.2197  0.1579
  137SOL     hw  546   2.441   1.118   5.282  0.0855 -1.2261  0.8289
  137SOL     hw  547   2.484   1.240   5.361 -1.1876 -0.3430  0.1976
  137SOL     vw  548   2.485   1.154   5.349 -0.1197  0.0915 -0.0505
  138SOL     ow  549   2.323   0.820   1.861  0.6507  0.6030  0.6496
  138SOL     hw  550   2.350   0.846   1.949 -1.3320  2.4559  0.8128
  138SOL     hw  551   2.229   0.807   1.868  0.4769  0.6195 -1.1593
  138SOL     vw  552   2.314   0.822   1.873 -0.0441  0.1088 -0.0041
  139SOL     ow  553   0.249   1.484   5.557  0.8407 -0.1012  0.5540
  139SOL     hw  554   0.236   1.453   5.467  0.5941  2.1528 -0.2663
  139SOL     hw  555   0.226   1.410   5.612 -2.2576 -0.5719 -1.1779
  139SOL     vw  556   0.245   1.470   5.552 -0.0294  0.0441  0.0489
  140SOL     ow  557   1.762   0.013   1.787  0.7772 -0.1249 -0.1092
  140SOL     hw  558   1.817  -0.052   1.831  1.0407 -0.8482 -1.4341
  140SOL     hw  559   1.697  -0.039   1.741 -0.0424  0.6560  0.1518
  140SOL     vw  560   1.761  -0.003   1.787 -0.0107 -0.0309 -0.0500
  141SOL     ow  561   2.332   0.849   4.882 -0.4993  0.2509  0.0700
  141SOL     hw  562   2.418   0.811   4.898  0.4061  1.7939 -0.9009
  141SOL     hw  563   2.348   0.919   4.818 -2.6428 -0.1607 -0.9959
  141SOL     vw  564   2.345   0.853   4.876 -0.0558 -0.0016 -0.0665
  142SOL     ow  565   1.047   2.476   4.244  0.6559 -0.0313  0.3672
  142SOL     hw  566   0.979   2.408   4.246  0.5484 -0.0043  3.7787
  142SOL     hw  567   1.012   2.543   4.186 -0.2853 -1.8120 -1.2697
  142SOL     vw  568   1.034   2.476   4.237 -0.0305  0.0653  0.0052
  143SOL     ow  569   0.623   0.405   5.211 -0.1438 -0.2553  0.0776
  143SOL     hw  570   0.648   0.456   5.133  1.4588 -1.2907 -0.1404
  143SOL     hw  571   0.661   0.319   5.196 -1.7751 -1.1707  0.9978
  143SOL     vw  572   0.632   0.401   5.199 -0.0086 -0.0298  0.0207
  144SOL     ow  573   1.441   2.170   4.896 -0.4178 -0.2298 -0.2326
  144SOL     hw  574   1.536   2.162   4.884 -0.3105  0.2240  0.2890
  144SOL     hw  575   1.408   2.193   4.809 -0.0961 -0.7455 -0.4993
  144SOL     vw  576   1.449   2.172   4.883  0.0038  0.0564  0.0076
  145SOL     ow  577   1.008   0.129   2.154 -0.1486 -0.6159 -0.3550
  145SOL     hw  578   0.934   0.186   2.173 -1.3340 -0.8791 -3.4936
  145SOL     hw  579   1.084   0.187   2.157 -0.6390  0.0023  1.3330
  145SOL     vw  580   1.009   0.144   2.157  0.0176 -0.0119 -0.0153
  146SOL     ow  581   0.666   2.376   5.383 -0.4407 -0.0260  0.4203
  146SOL     hw  582   0.732   2.366   5.451  2.0761  1.8174 -1.5709
  146SOL     hw  583   0.602   2.306   5.401  0.6658 -0.3226  3.9142
  146SOL     vw  584   0.666   2.365   5.394  0.0133  0.0783  0.0226
  147SOL     ow  585   0.453   1.193   1.082  0.0097  0.1960 -0.5332
  147SOL     hw  586   0.376   1.148   1.048 -0.2397  1.2987 -1.4694
  147SOL     hw  587   0.419   1.269   1.129  0.4691 -0.1127  0.3433
  147SOL     vw  588   0.439   1.197   1.084  0.0246 -0.0238 -0.0274
  148SOL     ow  589   1.475   2.371   3.139  0.3538 -0.1845  0.5059
  148SOL     hw  590   1.476   2.275   3.138  0.3563 -0.2220  1.8844
  148SOL     hw  591   1.567   2.396   3.146  0.2781 -0.1468  1.6431
  148SOL     vw  592   1.487   2.362   3.140  0.0123  0.0250  0.0741
  149SOL     ow  593   2.483   0.052   3.943 -0.1387 -0.1186  0.4382
  149SOL     hw  594   2.469   0.007   4.026 -2.1845  1.3335  0.9624
  149SOL     hw  595   2.446  -0.007   3.877 -1.1189 -0.0393  0.9038
  149SOL     vw  596   2.477   0.038   3.945  0.0149  0.0126 -0.0412
  150SOL     ow  597   1.289   2.300   5.675  0.2154  0.3831 -0.4342
  150SOL     hw  598   1.250   2.290   5.588  0.5208  0.4686 -0.5825
  150SOL     hw  599   1.320   2.213   5.697 -2.2097 -0.2821  0.7425
  150SOL     vw  600   1.288   2.288   5.666 -0.0148  0.0149  0.0129
  151SOL     ow  601   1.455   1.750   6.492 -0.1664  0.4785  0.9495
  151SOL     hw  602   1.448   1.746   6.588  0.1923 -0.9887  0.9349
  151SOL     hw  603   1.533   1.698   6.471 -1.2375 -0.7355 -0.2404
  151SOL     vw  604   1.465   1.743   6.502 -0.0702 -0.0393 -0.0322
  152SOL     ow  605   1.029   1.512   5.903  0.2304  0.2131  0.1036
  152SOL     hw  606   1.014   1.421   5.878  3.0049 -0.5164  0.7581
  152SOL     hw  607   1.021   1.562   5.822 -1.9582 -0.4493 -0.1582
  152SOL     vw  608   1.026   1.507   5.889  0.0369  0.0172  0.0515
  153SOL     ow  609   1.219   0.172   1.769  0.2169 -0.0153  0.0807
  153SOL     hw  610   1.235   0.184   1.862 -2.1065  1.3320  0.3827
  153SOL     hw  611   1.291   0.218   1.726  0.2277  1.0965  1.2378
  153SOL     vw  612   1.231   0.179   1.775  0.1028 -0.0258  0.0086
  154SOL     ow  613   1.835   1.458   2.282  0.8941 -0.8726  0.1082
  154SOL     hw  614   1.924   1.492   2.287  0.4761  0.4878 -0.9344
  154SOL     hw  615   1.799   1.497   2.202 -0.9721 -0.5318  1.0560
  154SOL     vw  616   1.842   1.468   2.272  0.0448  0.0234  0.0533
  155SOL     ow  617   1.743   2.474   3.193 -0.9265  0.2347  0.2474
  155SOL     hw  618   1.835   2.465   3.216 -0.4721  1.0131 -1.1356
  155SOL     hw  619   1.720   2.564   3.218 -0.8905  0.5221 -0.6936
  155SOL     vw  620   1.752   2.485   3.199 -0.0643 -0.0110 -0.0153
  156SOL     ow  621   1.054   2.316   0.894 -0.5621  0.1297  0.1991
  156SOL     hw  622   1.139   2.307   0.938  0.5491  2.1585 -1.3509
  156SOL     hw  623   1.005   2.238   0.920  0.2818  0.7389  4.3304
  156SOL     vw  624   1.059   2.305   0.904  0.0030 -0.0027 -0.0295
  157SOL     ow  625   0.152   0.346   0.153  0.0840  0.1445  0.3284
  157SOL     hw  626   0.156   0.418   0.216  1.4969 -0.5217  1.0415
  157SOL     hw  627   0.236   0.301   0.162 -0.7122 -1.5349 -0.1816
  157SOL     vw  628   0.163   0.349   0.163  0.0333  0.0541 -0.1030
  158SOL     ow  629   0.607   1.180   1.810 -0.1804  0.7939 -0.0372
  158SOL     hw  630   0.615   1.273   1.785 -0.7554  1.1186  0.9532
  158SOL     hw  631   0.670   1.169   1.881  1.5242 -0.1569 -1.5918
  158SOL     vw  632   0.616   1.191   1.816 -0.0127 -0.0485 -0.0068
  159SOL     ow  633   0.552   0.800   1.232 -0.0416  0.5580 -0.8517
  159SOL     hw  634   0.633   0.787   1.183  1.0129  0.4241  0.8535
  159SOL     hw  635   0.540   0.895   1.235  0.4239  0.6068 -0.5313
  159SOL     vw  636   0.561   0.811   1.226  0.0951  0.0022  0.0369
  160SOL     ow  637   0.495   0.351   1.908  0.2015  0.3899  0.2784
  160SOL     hw  638   0.584   0.381   1.926  0.0943 -0.5932  2.8705
  160SOL     hw  639   0.506   0.265   1.867  0.4205  1.4571 -2.0375
  160SOL     vw  640   0.509   0.343   1.905  0.0207  0.0127 -0.0014
  161SOL     ow  641   0.636   1.223   0.848  0.0132 -0.2751 -0.2141
  161SOL     hw  642   0.654   1.314   0.869 -1.0292  0.5881 -2.7258
  161SOL     hw  643   0.585   1.191   0.923  0.8213  1.0194  0.9349
  161SOL     vw  644   0.631   1.231   0.861 -0.0129  0.0306 -0.0500
  162SOL     ow  645   0.447   1.204   5.132 -0.5041 -0.0867  0.1187
  162SOL     hw  646   0.424   1.265   5.062  2.3267  0.3897 -0.5197
  162SOL     hw  647   0.460   1.120   5.088 -0.3443 -0.1790  0.3358
  162SOL     vw  648   0.446   1.201   5.117  0.0423 -0.0305 -0.0503
  163SOL     ow  649   1.671   1.583   6.415  0.7797 -0.9311  0.3475
  163SOL     hw  650   1.742   1.528   6.449  1.2698 -0.2625  0.4122
  163SOL     hw  651   1.715   1.659   6.377  0.2164 -1.3554 -1.2468
  163SOL     vw  652   1.686   1.585   6.415 -0.0140 -0.0066  0.0026
  164SOL     ow  653   0.327   0.327   2.394 -0.3996  0.4229 -0.6943
  164SOL     hw  654   0.302   0.384   2.466  3.1472  0.9736  0.3027
  164SOL     hw  655   0.333   0.240   2.433 -0.2065  0.3949 -0.7848
  164SOL     vw  656   0.325   0.323   2.408  0.0334 -0.0392 -0.0682
  165SOL     ow  657   1.916   0.623   2.406  0.8026 -0.1461 -0.3252
  165SOL     hw  658   1.966   0.688   2.455  0.1476 -0.5400  0.9317
  165SOL     hw  659   1.897   0.665   2.322  0.2583  1.3504  0.5121
  165SOL     vw  660   1.920   0.637   2.401  0.0715  0.1037 -0.0243
  166SOL     ow  661   1.894   1.461   6.522  0.0324 -0.2620  0.3330
  166SOL     hw  662   1.898   1.396   6.452 -0.8608  0.5089 -0.4747
  166SOL     hw  663   1.944   1.535   6.489 -1.6800  0.7126 -0.1978
  166SOL     vw  664   1.901   1.462   6.508 -0.0021 -0.0266  0.0226
  167SOL     ow  665   0.448   0.282   1.115  0.9395  0.0919 -0.6669
  167SOL     hw  666   0.365   0.235   1.123  1.2281 -0.1227  1.6217
  167SOL     hw  667   0.423   0.374   1.112  0.6117  0.1343  1.5453
  167SOL     vw  668   0.434   0.288   1.115  0.0348 -0.0523 -0.0238
  168SOL     ow  669   0.257   0.219   4.006 -0.2182 -0.4651 -0.7967
  168SOL     hw  670   0.316   0.202   4.079  0.9549 -0.5788 -1.7421
  168SOL     hw  671   0.251   0.314   4.002  0.3185 -0.4361 -1.0093
  168SOL     vw  672   0.264   0.229   4.015 -0.0547 -0.0117  0.0436
  169SOL     ow  673   2.402   1.516   4.447 -0.3335 -0.0802  0.4396
  169SOL     hw  674   2.451   1.556   4.518 -0.8458 -1.6143  1.7266
  169SOL     hw  675   2.404   1.580   4.376  0.0290  1.5822  1.9039
  169SOL     vw  676   2.409   1.529   4.447  0.0122  0.0166 -0.0045
  170SOL     ow  677   1.266   0.543   6.375 -0.1534  0.3261  0.3605
  170SOL     hw  678   1.250   0.450   6.363 -1.3894  0.6915 -1.2132
  170SOL     hw  679   1.225   0.584   6.299  0.3924  2.1558  1.0029
  170SOL     vw  680   1.259   0.536   6.364  0.0430  0.0573  0.0434
  171SOL     ow  681   1.095   0.675   6.630 -0.1843  0.2076 -0.0775
  171SOL     hw  682   1.000   0.679   6.614 -0.1151  0.3124 -0.4766
  171SOL     hw  683   1.106   0.714   6.717 -0.6559 -1.1102  0.6012
  171SOL     vw  684   1.084   0.681   6.639  0.0420 -0.0596  0.0012
  172SOL     ow  685   1.330   1.035   1.137  0.3687 -0.6189 -0.3592
  172SOL     hw  686   1.352   0.943   1.145 -0.2164 -1.0235 -2.7531
  172SOL     hw  687   1.367   1.062   1.053  0.1365  1.2247  0.0743
  172SOL     vw  688   1.338   1.027   1.127 -0.0161  0.0193 -0.0497
  173SOL     ow  689   0.843   1.827   5.321  0.8152 -0.1089  0.4304
  173SOL     hw  690   0.870   1.755   5.264 -1.2448 -1.7207  1.3404
  173SOL     hw  691   0.870   1.801   5.409  0.0318  0.1946  0.7763
  173SOL     vw  692   0.850   1.814   5.325  0.0313  0.0638 -0.0386
  174SOL     ow  693   1.153   0.708   6.191 -0.1675 -0.3020  0.3309
  174SOL     hw  694   1.086   0.752   6.138 -0.7230 -0.7340  0.6650
  174SOL     hw  695   1.230   0.764   6.183  0.2225 -1.1040 -2.1010
  174SOL     vw  696   1.154   0.722   6.183 -0.0110 -0.0430 -0.0050
  175SOL     ow  697   0.769   0.206   4.120 -0.1309  0.1395 -0.6769
  175SOL     hw  698   0.700   0.190   4.183 -0.4595  0.5431 -0.9280
  175SOL     hw  699   0.724   0.209   4.035  0.2040  0.3074 -0.8529
  175SOL     vw  700   0.754   0.204   4.117  0.0312 -0.0444 -0.0010
  176SOL     ow  701   1.050   2.049   0.228 -0.0652  0.2387  0.0262
  176SOL     hw  702   0.958   2.063   0.205  0.0862  1.0116 -0.1225
  176SOL     hw  703   1.087   2.137   0.236  0.8276 -0.0671 -0.5801
  176SOL     vw  704   1.043   2.063   0.226  0.0517 -0.0163  0.0104
  177SOL     ow  705   0.656   1.529   2.009  0.3860  0.0658 -0.0351
  177SOL     hw  706   0.688   1.614   2.039 -1.2206  0.1446  1.6263
  177SOL     hw  707   0.700   1.515   1.925 -0.5660  3.3189 -1.2227
  177SOL     vw  708   0.666   1.539   2.002 -0.0429  0.0239 -0.0030
  178SOL     ow  709   1.844   2.066   6.771 -0.2136 -0.3019 -0.2233
  178SOL     hw  710   1.850   1.980   6.812  0.6156 -0.1663 -0.0401
  178SOL     hw  711   1.933   2.102   6.777 -0.1768 -0.0735 -1.6995
  178SOL     vw  712   1.856   2.060   6.777  0.0046 -0.0173  0.0548
  179SOL     ow  713   1.262   2.214   6.735 -0.1069  0.4639  0.0184
  179SOL     hw  714   1.243   2.260   6.653  0.3411  0.2112 -0.2292
  179SOL     hw  715   1.201   2.253   6.799 -0.9316  0.1891 -0.5867
  179SOL     vw  716   1.252   2.225   6.733  0.0500  0.0116 -0.0222
  180SOL     ow  717   1.603   0.648   6.184  0.5433  0.2376  0.2165
  180SOL     hw  718   1.632   0.564   6.148  0.4442 -0.1805  1.0857
  180SOL     hw  719   1.634   0.647   6.275  1.2279  1.4804  0.0190
  180SOL     vw  720   1.611   0.637   6.192 -0.0929 -0.0334  0.0052
  181SOL     ow  721   0.843   1.123   6.126  0.0697  0.5780 -0.0040
  181SOL     hw  722   0.766   1.177   6.143 -0.5518  0.2038 -1.4575
  181SOL     hw  723   0.807   1.035   6.110  0.4930  0.8669 -3.0996
  181SOL     vw  724   0.828   1.118   6.126  0.0403  0.0917 -0.1588
  182SOL     ow  725   0.029   0.025   6.219  0.1260 -0.7204  0.0951
  182SOL     hw  726  -0.059  -0.014   6.210 -0.0983  0.0770 -1.4415
  182SOL     hw  727   0.062   0.029   6.129  0.8137  1.0794  0.3921
  182SOL     vw  728   0.021   0.020   6.206 -0.0335  0.0802 -0.1073
  183SOL     ow  729   0.871   0.924   1.857 -0.8920 -0.0459  0.6250
  183SOL     hw  730   0.907   0.992   1.800  0.8282 -2.3805 -1.2575
  183SOL     hw  731   0.948   0.876   1.888 -2.0280 -0.8892  2.2612
  183SOL     vw  732   0.886   0.927   1.854  0.0149 -0.0918  0.0273
  184SOL     ow  733   0.183   0.417   1.863  0.3224  0.7564 -0.1406
  184SOL     hw  734   0.113   0.480   1.882 -0.9379 -0.4155 -0.7785
  184SOL     hw  735   0.193   0.419   1.768  0.6973  0.4138 -0.1139
  184SOL     vw  736   0.175   0.426   1.853 -0.0186  0.0265  0.0319
  185SOL     ow  737   0.633   0.023   3.000 -0.2612 -0.2563  0.2001
  185SOL     hw  738   0.550   0.036   3.045  0.4875  0.2427  1.4837
  185SOL     hw  739   0.671  -0.055   3.039  0.3125  0.0749  0.3221
  185SOL     vw  740   0.627   0.015   3.011  0.0128  0.0617  0.0219
  186SOL     ow  741   0.252   0.194   2.033 -0.5151  0.2434  0.2618
  186SOL     hw  742   0.245   0.127   1.965 -2.6879  1.1514 -0.5121
  186SOL     hw  743   0.176   0.179   2.090 -0.3769  1.3235  0.7565
  186SOL     vw  744   0.241   0.183   2.032 -0.0249 -0.0288 -0.0139
  187SOL     ow  745   0.230   1.769   2.891 -0.2584 -0.1943 -0.0867
  187SOL     hw  746   0.230   1.832   2.819  1.2005 -0.7334 -0.6025
  187SOL     hw  747   0.245   1.684   2.850  0.6453 -0.5117  0.8352
  187SOL     vw  748   0.232   1.766   2.876 -0.0274 -0.0266 -0.0246
  188SOL     ow  749   1.458   2.298   5.911  0.5010  0.0827  0.3128
  188SOL     hw  750   1.553   2.291   5.924  0.7042 -1.9092 -1.6821
  188SOL     hw  751   1.427   2.207   5.912 -0.9911  0.5052 -1.4960
  188SOL     vw  752   1.467   2.285   5.913  0.0108  0.0641 -0.1264
  189SOL     ow  753   1.108   1.176   6.035  0.2251  0.0472  0.0975
  189SOL     hw  754   1.027   1.140   6.073 -0.3433  1.4621  0.2914
  189SOL     hw  755   1.155   1.099   6.003  0.4471 -1.2101  3.0882
  189SOL     vw  756   1.104   1.161   6.036 -0.0553  0.0095  0.0491
  190SOL     ow  757   2.114   1.298   6.677  0.4651 -0.5217  0.7371
  190SOL     hw  758   2.044   1.361   6.661  0.7251  0.5670  3.4056
  190SOL     hw  759   2.160   1.292   6.593  0.0815  2.4468  0.2138
  190SOL     vw  760   2.111   1.305   6.664 -0.0707 -0.1337  0.0675
  191SOL     ow  761   1.284   0.275   6.388 -0.0289 -0.1002 -0.4143
  191SOL     hw  762   1.311   0.211   6.323  4.1676  2.8592 -1.9846
  191SOL     hw  763   1.354   0.275   6.453 -1.1087  1.2614  0.8287
  191SOL     vw  764   1.297   0.267   6.388  0.0321  0.0471  0.0081
  192SOL     ow  765   0.482   0.969   4.963 -0.2517  0.2083 -0.9321
  192SOL     hw  766   0.543   0.935   4.898 -0.0160  1.9909 -1.6846
  192SOL     hw  767   0.400   0.980   4.917 -0.0391  1.6448 -1.0175
  192SOL     vw  768   0.480   0.966   4.949  0.0021  0.0315  0.0529
  193SOL     ow  769   2.037   2.175   5.050  0.7577  0.2734 -0.4086
  193SOL     hw  770   1.983   2.241   5.094 -0.7664 -1.2566  0.1190
  193SOL     hw  771   2.061   2.114   5.120 -2.9193 -3.0207 -1.6768
  193SOL     vw  772   2.033   2.176   5.065 -0.0631  0.0311 -0.0813
  194SOL     ow  773   0.756   1.096   2.013  0.0605  0.3979  0.2176
  194SOL     hw  774   0.821   1.054   1.958 -1.2466 -0.8024 -0.4750
  194SOL     hw  775   0.718   1.025   2.064 -1.6392  0.8421 -0.3767
  194SOL     vw  776   0.759   1.081   2.013 -0.0991  0.0371  0.0376
  195SOL     ow  777   1.202   0.428   0.311  0.6687  0.0539 -0.1126
  195SOL     hw  778   1.290   0.397   0.293  0.6369  0.9895 -2.2346
  195SOL     hw  779   1.180   0.482   0.235 -1.5567  0.2160  0.5740
  195SOL     vw  780   1.210   0.431   0.299 -0.0388  0.0031  0.0295
  196SOL     ow  781   0.879   1.744   5.574 -0.3773  0.3434  0.1872
  196SOL     hw  782   0.875   1.649   5.577 -2.6195  0.4134  1.2945
  196SOL     hw  783   0.906   1.770   5.662  0.2411  0.7485 -0.1126
  196SOL     vw  784   0.882   1.735   5.586  0.0774  0.0583  0.0238
  197SOL     ow  785   2.437   1.912   1.635 -0.3194  0.3587  0.0602
  197SOL     hw  786   2.476   1.824   1.641  1.2528  1.0497  0.5942
  197SOL     hw  787   2.358   1.899   1.583  0.8986 -1.0595 -1.5823
  197SOL     vw  788   2.432   1.898   1.629  0.0528  0.0411  0.0451
  198SOL     ow  789   0.111   1.183   2.729 -0.7988  0.6039 -0.5473
  198SOL     hw  790   0.118   1.269   2.686 -0.1795  1.0501  0.4305
  198SOL     hw  791   0.073   1.202   2.815  1.5510  0.2393  0.6444
  198SOL     vw  792   0.107   1.197   2.734 -0.0337  0.0844  0.0339
  199SOL     ow  793   0.394   1.065   1.586  0.1300  0.4220 -0.2700
  199SOL     hw  794   0.371   1.123   1.513  0.2002  0.2920 -0.3959
  199SOL     hw  795   0.316   1.010   1.599  0.1335  0.4158 -0.2755
  199SOL     vw  796   0.380   1.065   1.578 -0.0544  0.0126 -0.0161
  200SOL     ow  797   1.196   0.930   5.499 -0.1459  0.1554  0.0932
  200SOL     hw  798   1.187   0.842   5.463 -1.3974  0.7295 -1.0816
  200SOL     hw  799   1.290   0.948   5.495  0.1732 -1.2703  0.7369
  200SOL     vw  800   1.207   0.921   5.494  0.0633  0.0547  0.0458
  201SOL     ow  801   1.861   2.349   5.210  0.4298  0.2632  0.4422
  201SOL     hw  802   1.796   2.278   5.211  1.5481 -0.8748 -1.5908
  201SOL     hw  803   1.900   2.347   5.297  1.0259 -2.2375  0.1931
  201SOL     vw  804   1.857   2.340   5.222  0.0528 -0.0111 -0.0525
  202SOL     ow  805   2.052   1.760   4.992  0.7825  0.6854 -0.3977
  202SOL     hw  806   2.096   1.675   4.998  1.0367  0.8966  0.8313
  202SOL     hw  807   2.118   1.824   5.020 -0.4492  0.9593  2.1148
  202SOL     vw  808   2.066   1.758   4.996 -0.0468 -0.0311 -0.0467
  203SOL     ow  809   0.761   1.205   2.507  0.1469  0.0450 -0.1022
  203SOL     hw  810   0.694   1.165   2.452  0.6065  1.4759 -1.7772
  203SOL     hw  811   0.843   1.187   2.461  0.8740 -0.9668  1.4868
  203SOL     vw  812   0.763   1.197   2.494  0.0334 -0.0445 -0.0006
  204SOL     ow  813   0.633   0.978   5.768 -0.0461 -0.6135  0.1576
  204SOL     hw  814   0.660   0.933   5.687 -3.2025 -2.9945  0.2498
  204SOL     hw  815   0.679   0.930   5.838 -0.2768 -1.1049 -0.0198
  204SOL     vw  816   0.643   0.965   5.767  0.0125  0.0615  0.0737
  205SOL     ow  817   2.390   1.738   4.269 -0.1572  0.0370  0.0939
  205SOL     hw  818   2.428   1.782   4.193  0.8573 -0.3025  0.3837
  205SOL     hw  819   2.299   1.766   4.270  0.2347  1.3957 -0.2569
  205SOL     vw  820   2.383   1.747   4.259 -0.0199 -0.1270 -0.0422
  206SOL     ow  821   0.999   2.051   4.246  0.4230  0.3470 -0.2047
  206SOL     hw  822   1.087   2.021   4.221  0.5316  0.6936 -0.2411
  206SOL     hw  823   0.973   2.111   4.176 -0.7241 -1.3789 -1.3217
  206SOL     vw  824   1.007   2.055   4.233  0.0468  0.0228 -0.0010
  207SOL     ow  825   1.211   2.160   2.398  0.6629 -0.4334  0.3258
  207SOL     hw  826   1.227   2.125   2.310 -1.6402  1.3764 -0.9318
  207SOL     hw  827   1.204   2.082   2.454 -0.5219 -1.8321 -1.6295
  207SOL     vw  828   1.212   2.145   2.394  0.0144  0.0703 -0.0367
  208SOL     ow  829   0.836   0.221   6.378  0.7909 -0.5383 -0.3819
  208SOL     hw  830   0.817   0.227   6.285  0.8795 -0.1012 -0.3767
  208SOL     hw  831   0.822   0.310   6.411 -2.6848 -1.3423  0.7226
  208SOL     vw  832   0.832   0.234   6.370  0.0153 -0.0283  0.0484
  209SOL     ow  833   2.075   0.949   4.767 -0.3816 -0.1824  0.0571
  209SOL     hw  834   2.115   0.872   4.808 -0.4710 -0.6333 -0.6855
  209SOL     hw  835   2.013   0.913   4.704 -0.4451  0.5017 -0.2774
  209SOL     vw  836   2.072   0.934   4.764  0.0306  0.0197 -0.0057
  210SOL     ow  837   0.162   0.109   6.500 -0.1668  0.4502 -0.1164
  210SOL     hw  838   0.252   0.123   6.471  0.1155 -0.8390  0.0638
  210SOL     hw  839   0.162   0.138   6.591  0.2028 -0.0182  0.0360
  210SOL     vw  840   0.174   0.115   6.508 -0.0001 -0.0497 -0.0341
  211SOL     ow  841   2.351   0.836   2.136 -0.4315  0.6079  0.0900
  211SOL     hw  842   2.399   0.889   2.199 -0.0074 -1.4574  1.6240
  211SOL     hw  843   2.279   0.798   2.187 -0.8142 -0.1414 -0.9864
  211SOL     vw  844   2.348   0.838   2.151  0.0196  0.0103 -0.0349
  212SOL     ow  845   1.614   0.148   4.732 -0.3978  0.2607  0.2702
  212SOL     hw  846   1.678   0.206   4.692  0.9318 -1.1929  0.1824
  212SOL     hw  847   1.533   0.166   4.685 -0.0380  2.0246  0.2644
  212SOL     vw  848   1.612   0.158   4.720 -0.0156 -0.0486 -0.0281
  213SOL     ow  849   0.656   1.045   0.621  0.2115 -0.6670 -0.9786
  213SOL     hw  850   0.710   0.972   0.649  0.6050 -0.9877 -2.4959
  213SOL     hw  851   0.678   1.116   0.681  3.2108 -0.4248 -2.1901
  213SOL     vw  852   0.666   1.045   0.632 -0.0727 -0.0445  0.0204
  214SOL     ow  853   0.488   0.441   0.325 -0.1503  0.0783 -0.3590
  214SOL     hw  854   0.472   0.404   0.237  2.1201  0.9638 -1.2256
  214SOL     hw  855   0.411   0.493   0.343 -1.3346 -1.3067 -1.1632
  214SOL     vw  856   0.476   0.443   0.316 -0.0098 -0.0343  0.0233
  215SOL     ow  857   1.858   0.239   5.417 -0.0970  0.3336  0.1991
  215SOL     hw  858   1.953   0.247   5.417 -0.1444  1.0112 -0.4465
  215SOL     hw  859   1.841   0.152   5.452  0.7271  0.5758  1.2337
  215SOL     vw  860   1.868   0.229   5.421 -0.0213  0.0664  0.0608
  216SOL     ow  861   0.095   0.989   5.798 -0.2793  0.1446 -0.5104
  216SOL     hw  862   0.133   0.994   5.710 -2.2606 -1.7399 -1.5765
  216SOL     hw  863   0.007   0.953   5.784 -1.3567  1.4726  2.0999
  216SOL     vw  864   0.088   0.985   5.785 -0.0203 -0.0561  0.1125
  217SOL     ow  865   0.503   1.528   2.297  0.1903  0.2360  0.1012
  217SOL     hw  866   0.428   1.515   2.355  0.4832  0.8199  0.6292
  217SOL     hw  867   0.518   1.623   2.298 -1.1404  0.5739 -2.6466
  217SOL     vw  868   0.495   1.539   2.305 -0.0282  0.0141 -0.0979
  218SOL     ow  869   1.161   0.264   4.256 -0.6421 -0.1217 -0.4217
  218SOL     hw  870   1.199   0.288   4.171  1.1373  0.2146  0.4336
  218SOL     hw  871   1.073   0.302   4.254 -0.3982  0.4335 -1.8639
  218SOL     vw  872   1.154   0.272   4.244  0.0570  0.0769  0.0343
  219SOL     ow  873   0.921   1.484   5.648 -0.1464 -0.0281 -0.5320
  219SOL     hw  874   0.831   1.472   5.677 -0.0516  0.5593  0.0464
  219SOL     hw  875   0.961   1.398   5.658 -0.9252 -0.5754 -1.8792
  219SOL     vw  876   0.915   1.471   5.653 -0.0108  0.0724  0.0067
  220SOL     ow  877   0.621   1.795   5.616 -0.3285  0.1516  0.0422
  220SOL     hw  878   0.715   1.796   5.598 -0.1637  2.8409  0.5884
  220SOL     hw  879   0.614   1.807   5.710 -1.2122  0.5100 -0.0618
  220SOL     vw  880   0.633   1.797   5.626  0.0093 -0.0116  0.0215
  221SOL     ow  881   1.851   1.935   5.141  0.4185  0.2080 -0.7408
  221SOL     hw  882   1.921   1.953   5.204 -0.3988  0.5258  0.1007
  221SOL     hw  883   1.792   2.010   5.149 -2.0901 -1.8177  1.4875
  221SOL     vw  884   1.852   1.947   5.150 -0.0151 -0.1093  0.0079
  222SOL     ow  885   0.022   1.164   4.939  0.0165 -0.8316 -0.1787
  222SOL     hw  886   0.073   1.231   4.985  0.5701  0.0075 -1.9366
  222SOL     hw  887   0.084   1.092   4.925 -0.5946 -1.7960  1.7636
  222SOL     vw  888   0.037   1.164   4.943  0.0740  0.0070  0.0117
  223SOL     ow  889   2.355   2.094   1.207  0.3536 -0.3764  0.0046
  223SOL     hw  890   2.332   2.002   1.208  0.8559 -0.5422  2.7501
  223SOL     hw  891   2.450   2.095   1.207  0.3533  0.1226  0.5732
  223SOL     vw  892   2.364   2.082   1.207  0.0299  0.0621  0.0502
  224SOL     ow  893   0.973   1.117   1.724 -0.4692  0.1219 -0.1929
  224SOL     hw  894   0.950   1.117   1.631 -1.9292  1.4189  0.1065
  224SOL     hw  895   1.068   1.115   1.726 -0.3158  2.1867 -1.8031
  224SOL     vw  896   0.982   1.117   1.712  0.0226  0.0070 -0.0176
  225SOL     ow  897   0.998   1.385   1.425 -0.2644  0.0576  0.1925
  225SOL     hw  898   1.049   1.413   1.501 -0.0999 -1.9902  0.9215
  225SOL     hw  899   0.911   1.420   1.440  0.0456  0.6134  0.7562
  225SOL     vw  900   0.993   1.393   1.437  0.0152  0.0012 -0.0154
  226SOL     ow  901   0.028   0.517   1.027 -0.1082  0.0403  0.4131
  226SOL     hw  902  -0.005   0.491   1.114  0.4479  0.4552  0.7530
  226SOL     hw  903   0.122   0.501   1.031  0.1015  1.1806  0.3047
  226SOL     vw  904   0.036   0.512   1.039 -0.0715  0.0643 -0.0189
  227SOL     ow  905   0.571   0.341   5.505  1.0455 -0.2184 -0.9158
  227SOL     hw  906   0.497   0.381   5.552  1.5764  0.0521 -0.2903
  227SOL     hw  907   0.557   0.364   5.413 -0.2380 -1.1079 -0.9702
  227SOL     vw  908   0.559   0.349   5.499 -0.0067 -0.0455 -0.0541
  228SOL     ow  909   1.158   0.741   6.884  0.6842  0.2865  0.6073
  228SOL     hw  910   1.122   0.824   6.916  0.8320  0.7794 -0.4639
  228SOL     hw  911   1.253   0.751   6.891  0.7012  0.1819  0.5263
  228SOL     vw  912   1.166   0.753   6.889  0.0175  0.0271  0.0131
  229SOL     ow  913   2.226   0.189   0.514 -0.2980 -0.2987 -0.6626
  229SOL     hw  914   2.257   0.170   0.603 -0.1249 -0.9032 -0.8412
  229SOL     hw  915   2.137   0.155   0.512  0.0777 -1.3116 -1.0417
  229SOL     vw  916   2.218   0.182   0.525  0.0283 -0.0169 -0.0380
  230SOL     ow  917   0.592   1.603   5.382 -0.6925  0.3079 -0.2461
  230SOL     hw  918   0.575   1.509   5.387  0.8000 -0.0194 -0.6904
  230SOL     hw  919   0.684   1.609   5.354  0.1813  1.8671  2.5558
  230SOL     vw  920   0.602   1.591   5.379  0.0342 -0.1120 -0.1109
  231SOL     ow  921   0.231   0.890   6.025 -0.2972  0.0483 -0.9381
  231SOL     hw  922   0.181   0.919   5.949  0.3404 -1.4443 -1.9857
  231SOL     hw  923   0.311   0.853   5.988 -0.9396 -2.7784  0.2557
  231SOL     vw  924   0.235   0.889   6.010 -0.0493  0.0039  0.0048
  232SOL     ow  925   0.044   1.280   4.695 -0.2215 -0.7147 -0.7219
  232SOL     hw  926   0.131   1.303   4.664 -0.2054 -2.8060 -2.4115
  232SOL     hw  927   0.058   1.245   4.783  0.6220 -0.9470 -0.9432
  232SOL     vw  928   0.057   1.279   4.703 -0.0142 -0.0088  0.0372
  233SOL     ow  929   0.993   2.403   5.198 -0.2326  0.4382  0.4294
  233SOL     hw  930   0.904   2.367   5.196 -0.0155 -0.0960 -1.2057
  233SOL     hw  931   1.050   2.327   5.205  0.1429  0.6164 -0.4803
  233SOL     vw  932   0.988   2.388   5.199 -0.0651  0.0092 -0.0470
  234SOL     ow  933   0.020   0.902   2.761  0.4586  0.0391 -0.6772
  234SOL     hw  934  -0.046   0.858   2.709  0.1670 -0.3073 -0.0320
  234SOL     hw  935  -0.026   0.928   2.841  1.1575 -0.4667 -0.0929
  234SOL     vw  936   0.005   0.900   2.765  0.0648  0.0045  0.0244
  235SOL     ow  937   1.273   2.278   4.175 -0.1242  0.0664  0.4144
  235SOL     hw  938   1.261   2.256   4.083  0.2817  1.3988  0.0190
  235SOL     hw  939   1.349   2.226   4.202  1.2390  1.3943 -0.6733
  235SOL     vw  940   1.281   2.268   4.166 -0.0103 -0.0116 -0.0224
  236SOL     ow  941   0.608   1.332   5.298 -0.1130  0.0968  0.1365
  236SOL     hw  942   0.544   1.285   5.244 -0.9057  1.1405  0.1445
  236SOL     hw  943   0.692   1.311   5.258 -0.6963  1.0252 -1.6930
  236SOL     vw  944   0.611   1.323   5.285  0.0067  0.0302  0.0165
  237SOL     ow  945   0.085   0.743   4.889 -0.4766  0.2235  0.2125
  237SOL     hw  946   0.108   0.721   4.799  1.6325  1.6470  0.3318
  237SOL     hw  947   0.071   0.658   4.932 -2.8568 -0.4448 -1.7160
  237SOL     vw  948   0.086   0.729   4.883 -0.0395  0.0139  0.0076
  238SOL     ow  949   2.236   1.427   1.472 -0.0861 -0.6251  0.0361
  238SOL     hw  950   2.248   1.359   1.407  0.6791 -0.4694  0.0003
  238SOL     hw  951   2.220   1.380   1.554 -4.3845 -0.8804 -0.7059
  238SOL     vw  952   2.236   1.412   1.474  0.0637  0.0306 -0.0330
  239SOL     ow  953   0.319   0.459   2.146 -0.3158 -0.4266  0.2202
  239SOL     hw  954   0.336   0.549   2.173 -1.9791 -0.4406  1.4636
  239SOL     hw  955   0.337   0.407   2.223  1.0378 -1.2529 -0.6111
  239SOL     vw  956   0.323   0.464   2.159 -0.0374  0.0040 -0.0255
  240SOL     ow  957   1.377   0.845   6.192 -0.4988 -0.2411 -0.1591
  240SOL     hw  958   1.438   0.772   6.183 -0.1014  0.1404 -0.5827
  240SOL     hw  959   1.433   0.921   6.207 -0.8512  0.1663 -0.8608
  240SOL     vw  960   1.393   0.846   6.193  0.0525 -0.0053  0.0405
  241SOL     ow  961   1.174   1.869   6.449 -0.1509 -0.3276 -0.0821
  241SOL     hw  962   1.155   1.885   6.541 -0.5456 -1.7791  0.1254
  241SOL     hw  963   1.106   1.806   6.422 -0.9780  1.1976 -1.7723
  241SOL     vw  964   1.162   1.862   6.457  0.0420  0.0631  0.0045
  242SOL     ow  965   1.231   1.977   4.698  0.4658 -0.1064 -0.4138
  242SOL     hw  966   1.193   2.021   4.775 -0.4201  0.5351 -1.1960
  242SOL     hw  967   1.310   2.027   4.679  0.7966 -0.3910  0.2000
  242SOL     vw  968   1.236   1.990   4.706 -0.0129 -0.0076  0.0074
  243SOL     ow  969   1.509   1.433   4.861  0.6157  0.0013 -0.1435
  243SOL     hw  970   1.534   1.479   4.941  0.3926 -0.9752  0.5106
  243SOL     hw  971   1.559   1.351   4.865 -0.0346 -0.4246 -0.5754
  243SOL     vw  972   1.519   1.428   4.872 -0.0061 -0.0210 -0.0072
  244SOL     ow  973   1.631   0.489   5.103 -0.1965 -0.3931 -0.1435
  244SOL     hw  974   1.712   0.530   5.071  1.5334 -4.0735 -0.9636
  244SOL     hw  975   1.646   0.479   5.197 -1.9238  3.2191  0.7059
  244SOL     vw  976   1.644   0.493   5.111  0.0238 -0.0361 -0.0412
  245SOL     ow  977   2.443   2.381   6.470  0.1919 -0.5033 -0.3500
  245SOL     hw  978   2.366   2.435   6.490 -0.1845 -0.7113 -1.2237
  245SOL     hw  979   2.422   2.296   6.508  1.1107  0.1207  1.7212
  245SOL     vw  980   2.430   2.377   6.478 -0.0583  0.0588  0.1216
  246SOL     ow  981   1.120   0.802   5.705 -0.0122  0.7158  0.4144
  246SOL     hw  982   1.148   0.859   5.633  0.9474 -0.2282  0.0087
  246SOL     hw  983   1.068   0.733   5.662 -1.2555  1.3056  0.9111
  246SOL     vw  984   1.117   0.800   5.689  0.0992 -0.0732  0.0863
  247SOL     ow  985   1.169   1.759   2.750  0.2322  0.1079 -0.0393
  247SOL     hw  986   1.244   1.773   2.807 -0.0545  1.2697  0.0698
  247SOL     hw  987   1.190   1.808   2.671 -0.3124  0.2370 -0.1036
  247SOL     vw  988   1.182   1.767   2.747 -0.0416  0.0511  0.0145
  248SOL     ow  989   0.092   1.100   6.201 -0.2873 -0.2700 -0.1249
  248SOL     hw  990   0.161   1.097   6.268 -1.2471  0.4295  0.9302
  248SOL     hw  991   0.106   1.185   6.158 -1.5511  0.7327  1.3191
  248SOL     vw  992   0.103   1.111   6.204 -0.0617 -0.0077  0.0167
  249SOL     ow  993   1.189   0.605   1.848  0.1548 -0.1473  0.6034
  249SOL     hw  994   1.279   0.634   1.860  0.8339 -2.5231  2.1649
  249SOL     hw  995   1.139   0.652   1.915  0.9303 -1.2378  2.0267
  249SOL     vw  996   1.194   0.615   1.859  0.0022 -0.0375  0.0347
  250SOL     ow  997   2.303   0.082   5.306  0.1013  0.6002 -0.1075
  250SOL     hw  998   2.216   0.111   5.333 -0.3333 -0.2828 -0.4915
  250SOL     hw  999   2.351   0.070   5.388 -0.1051  1.1846  0.1025
  250SOL     vw 1000   2.298   0.084   5.321  0.0291  0.0667 -0.0131
  251SOL     ow 1001   0.410   1.057   3.009 -0.2444 -0.2194 -0.5921
  251SOL     hw 1002   0.465   0.980   3.020  0.3357  0.3119  0.3327
  251SOL     hw 1003   0.350   1.055   3.083  0.0423  0.4245 -0.3292
  251SOL     vw 1004   0.409   1.047   3.020 -0.0409  0.0909 -0.0058
  252SOL     ow 1005   1.186   1.293   2.182 -0.6282 -0.0036  0.4689
  252SOL     hw 1006   1.150   1.205   2.171 -1.5382  0.5091 -0.9991
  252SOL     hw 1007   1.260   1.281   2.241 -2.5128 -1.2797  2.7435
  252SOL     vw 1008   1.191   1.280   2.188 -0.0192  0.0253 -0.0097
  253SOL     ow 1009   1.555   0.102   4.271 -0.0672  0.4072  0.1413
  253SOL     hw 1010   1.519   0.111   4.183 -0.4274  0.7580  0.3242
  253SOL     hw 1011   1.627   0.165   4.273 -0.2475  0.6117  0.1965
  253SOL     vw 1012   1.560   0.111   4.259  0.0220 -0.0214  0.0179
  254SOL     ow 1013   1.074   2.340   0.572 -0.2720  0.1736 -0.4466
  254SOL     hw 1014   1.167   2.323   0.556  0.9409  4.6273  0.5197
  254SOL     hw 1015   1.060   2.311   0.662  0.8567  1.3344  0.1451
  254SOL     vw 1016   1.084   2.334   0.582 -0.0383  0.0868  0.0279
  255SOL     ow 1017   1.710   2.194   2.881 -0.0421  0.2345 -0.3291
  255SOL     hw 1018   1.719   2.204   2.787 -1.2792  2.8045 -0.2431
  255SOL     hw 1019   1.636   2.135   2.892  2.4371 -3.2856 -0.8633
  255SOL     vw 1020   1.702   2.187   2.870  0.0464 -0.0567  0.0161
  256SOL     ow 1021   0.691   1.558   4.097  0.4314  0.3180 -0.2270
  256SOL     hw 1022   0.724   1.561   4.007 -0.0931 -0.0486 -0.4391
  256SOL     hw 1023   0.627   1.486   4.097 -0.9827  1.5191 -0.0604
  256SOL     vw 1024   0.687   1.549   4.085  0.0288  0.0067 -0.0365
  257SOL     ow 1025   1.069   1.802   1.583  0.2581  0.0149  0.2072
  257SOL     hw 1026   1.123   1.773   1.657  0.0085 -1.9829 -0.3462
  257SOL     hw 1027   1.061   1.725   1.527 -2.7010  0.3797 -0.0182
  257SOL     vw 1028   1.075   1.788   1.586  0.0290  0.0129  0.0467
  258SOL     ow 1029   1.179   1.272   1.233 -0.5095  0.3129 -0.4166
  258SOL     hw 1030   1.118   1.223   1.178 -1.9060 -0.6868  1.8919
  258SOL     hw 1031   1.126   1.342   1.272  0.3877  0.8777 -0.1839
  258SOL     vw 1032   1.164   1.275   1.231 -0.0238  0.0254  0.0880
  259SOL     ow 1033   1.008   0.074   0.247 -0.1986 -0.3994  0.0151
  259SOL     hw 1034   1.005   0.169   0.234 -0.6489 -0.6471 -2.1413
  259SOL     hw 1035   1.095   0.058   0.285  0.4959  0.7568 -0.9915
  259SOL     vw 1036   1.019   0.085   0.250  0.0169 -0.0272 -0.0212
  260SOL     ow 1037   0.204   0.052   3.725 -0.1470 -0.0600  0.4083
  260SOL     hw 1038   0.177   0.057   3.633 -2.0260 -1.5191  0.8135
  260SOL     hw 1039   0.300   0.053   3.722 -0.1391  2.2265 -1.3664
  260SOL     vw 1040   0.213   0.052   3.712 -0.0238  0.0586  0.0284
  261SOL     ow 1041   0.458   1.678   0.246 -0.0222  0.2110  0.7468
  261SOL     hw 1042   0.468   1.584   0.265 -4.3185 -0.9033 -1.1813
  261SOL     hw 1043   0.407   1.680   0.165  2.3597  4.3849 -0.9486
  261SOL     vw 1044   0.452   1.666   0.238  0.0060 -0.0710  0.0983
  262SOL     ow 1045   2.300   0.696   4.338  0.4700 -0.2990 -0.0082
  262SOL     hw 1046   2.329   0.745   4.261 -3.7383  0.9314 -1.1110
  262SOL     hw 1047   2.303   0.604   4.311  2.1358 -0.1510 -0.3877
  262SOL     vw 1048   2.304   0.690   4.324 -0.0660 -0.0239 -0.0527
  263SOL     ow 1049   1.532   2.270   1.136 -0.3314 -0.8398 -0.0796
  263SOL     hw 1050   1.541   2.365   1.141 -0.7919 -0.8471  0.9998
  263SOL     hw 1051   1.588   2.236   1.206 -0.2422 -1.3667 -0.3941
  263SOL     vw 1052   1.541   2.278   1.146  0.0060 -0.0386  0.0114
  264SOL     ow 1053   1.030   0.418   1.728 -0.3945  0.3030 -0.1906
  264SOL     hw 1054   0.949   0.444   1.684  0.0040  1.0262 -0.5127
  264SOL     hw 1055   1.078   0.499   1.740  0.2121 -0.0990  0.1512
  264SOL     vw 1056   1.025   0.432   1.723  0.0185  0.0083  0.0902
  265SOL     ow 1057   0.130   1.319   5.782  0.0291 -0.0919  0.5737
  265SOL     hw 1058   0.093   1.387   5.839 -0.7198 -0.8804  1.0364
  265SOL     hw 1059   0.176   1.260   5.841 -0.0934 -0.4913  0.2693
  265SOL     vw 1060   0.131   1.320   5.797  0.0500  0.0227 -0.0255
  266SOL     ow 1061   2.064   2.215   0.790 -0.4596  0.2159 -0.3723
  266SOL     hw 1062   2.147   2.252   0.818  0.2672  0.3902 -2.6415
  266SOL     hw 1063   2.036   2.269   0.717 -2.3693 -0.1233  0.0567
  266SOL     vw 1064   2.071   2.227   0.784 -0.0421 -0.0123  0.0754
  267SOL     ow 1065   1.513   0.990   5.874  0.5600  0.1466  0.5014
  267SOL     hw 1066   1.516   0.916   5.813 -1.7859 -0.6492  1.2433
  267SOL     hw 1067   1.513   1.068   5.818 -0.5906 -0.5390 -0.4920
  267SOL     vw 1068   1.513   0.991   5.859 -0.0137 -0.0414 -0.0365
  268SOL     ow 1069   0.139   0.800   6.289 -0.5577 -0.3898 -0.1787
  268SOL     hw 1070   0.165   0.710   6.269  1.4497 -0.3541  1.9576
  268SOL     hw 1071   0.208   0.834   6.346 -0.9812  2.7098 -1.2955
  268SOL     vw 1072   0.151   0.793   6.294 -0.0467  0.0219  0.0260
  269SOL     ow 1073   0.160   0.397   4.925 -1.0317 -0.6397  0.5191
  269SOL     hw 1074   0.074   0.418   4.888 -1.2407 -3.8874 -1.1893
  269SOL     hw 1075   0.150   0.409   5.019 -2.6708  1.1077  0.1720
  269SOL     vw 1076   0.148   0.401   4.932 -0.0578 -0.0492 -0.0012
  270SOL     ow 1077   0.992   1.973   0.918 -0.5085 -0.1966  0.0511
  270SOL     hw 1078   0.955   1.887   0.898 -1.3503 -0.2886  1.8246
  270SOL     hw 1079   1.073   1.977   0.867  0.7438 -2.9813  1.6187
  270SOL     vw 1080   0.998   1.963   0.909  0.0038 -0.0352  0.0447
  271SOL     ow 1081   0.760   1.867   4.165  0.3345  0.2900 -0.4276
  271SOL     hw 1082   0.832   1.912   4.122  1.7518 -0.7086  0.8076
  271SOL     hw 1083   0.763   1.896   4.256 -0.5369 -0.1057 -0.2574
  271SOL     vw 1084   0.770   1.877   4.171  0.0705 -0.1138 -0.0021
  272SOL     ow 1085   1.780   2.204   0.994 -0.1089 -0.3076  0.5034
  272SOL     hw 1086   1.765   2.297   0.984  0.2195  0.2479  3.8497
  272SOL     hw 1087   1.696   2.169   1.026 -0.2420 -1.1940 -0.7463
  272SOL     vw 1088   1.767   2.211   0.997 -0.0008 -0.0467  0.0420
  273SOL     ow 1089   1.252   1.302   4.825  0.0591 -0.0995  0.1277
  273SOL     hw 1090   1.177   1.286   4.883 -1.4528 -1.3775 -2.0497
  273SOL     hw 1091   1.284   1.215   4.803 -0.7921  0.1935 -2.5927
  273SOL     vw 1092   1.246   1.289   4.830 -0.0687 -0.0052 -0.0653
  274SOL     ow 1093   0.760   0.142   5.195 -0.4052 -0.0018 -0.1797
  274SOL     hw 1094   0.779   0.093   5.115 -1.0633  0.5055 -0.6557
  274SOL     hw 1095   0.693   0.090   5.239  2.4267 -2.2298  1.9074
  274SOL     vw 1096   0.754   0.129   5.190 -0.0371  0.0888 -0.0601
  275SOL     ow 1097   1.260   2.235   5.409 -0.0523 -0.0792  0.4735
  275SOL     hw 1098   1.279   2.154   5.457  1.8832  0.4848  0.7015
  275SOL     hw 1099   1.217   2.204   5.329  2.2086 -1.5335 -0.2833
  275SOL     vw 1100   1.257   2.220   5.405  0.0236 -0.0280  0.0138
  276SOL     ow 1101   0.623   0.692   0.315  0.1343  0.2473  0.6095
  276SOL     hw 1102   0.560   0.698   0.244  0.3621  0.2915  0.4109
  276SOL     hw 1103   0.634   0.598   0.330  1.0317  0.1983 -0.2603
  276SOL     vw 1104   0.617   0.680   0.308 -0.0325  0.0488 -0.0096
  277SOL     ow 1105   0.695   1.164   1.530  0.1542 -0.2713  0.4369
  277SOL     hw 1106   0.759   1.122   1.473 -1.3137 -2.0952  0.0277
  277SOL     hw 1107   0.744   1.232   1.576  1.7238  0.3110 -1.9041
  277SOL     vw 1108   0.710   1.168   1.529 -0.0285 -0.0162  0.0621
  278SOL     ow 1109   1.589   1.029   6.324  0.0046 -0.1435 -0.1753
  278SOL     hw 1110   1.676   1.046   6.288  0.5593  0.4480  1.3564
  278SOL     hw 1111   1.599   1.044   6.418 -2.0240  1.0729 -0.0956
  278SOL     vw 1112   1.602   1.033   6.331  0.0017 -0.0853 -0.0269
  279SOL     ow 1113   0.731   0.921   6.840 -0.0857 -0.4484 -0.1251
  279SOL     hw 1114   0.715   0.827   6.836 -1.9190 -0.2269  0.8070
  279SOL     hw 1115   0.805   0.930   6.900  0.2596 -1.2814 -0.4024
  279SOL     vw 1116   0.739   0.910   6.847  0.0142  0.0190  0.0193
  280SOL     ow 1117   2.207   2.367   5.055 -0.1570 -0.1580 -0.3811
  280SOL     hw 1118   2.186   2.421   4.979 -1.3327  0.1459  0.1306
  280SOL     hw 1119   2.159   2.285   5.039  1.7952 -1.2103 -1.2693
  280SOL     vw 1120   2.198   2.363   5.043 -0.0070 -0.0069  0.0215
  281SOL     ow 1121   2.393   0.848   6.101 -0.0195 -0.0892 -0.2606
  281SOL     hw 1122   2.383   0.753   6.094 -1.4087 -0.1759  1.9329
  281SOL     hw 1123   2.322   0.884   6.047 -4.3356 -0.5538  4.4046
  281SOL     vw 1124   2.383   0.840   6.093 -0.0176  0.0040  0.1571
  282SOL     ow 1125   0.381   0.759   1.033 -0.0149 -0.3993 -0.3162
  282SOL     hw 1126   0.445   0.763   1.104  0.5218  3.1166 -0.8491
  282SOL     hw 1127   0.433   0.769   0.953 -0.9384 -0.8440 -0.9883
  282SOL     vw 1128   0.396   0.760   1.032 -0.0299  0.0205 -0.0154
  283SOL     ow 1129   0.643   1.327   6.095 -0.2940  0.1599  0.3899
  283SOL     hw 1130   0.698   1.404   6.082 -0.0475 -0.2126 -0.9295
  283SOL     hw 1131   0.620   1.299   6.007 -2.7375  0.3660  0.8809
  283SOL     vw 1132   0.647   1.334   6.082  0.0302 -0.0181  0.0012
  284SOL     ow 1133   1.006   1.253   6.437 -0.2176 -0.0853  0.6327
  284SOL     hw 1134   0.980   1.344   6.455  1.8098  0.4134  1.2505
  284SOL     hw 1135   1.070   1.260   6.366 -1.2145 -1.2278 -0.4398
  284SOL     vw 1136   1.011   1.266   6.430 -0.0306 -0.0463  0.0072
  285SOL     ow 1137   0.207   1.476   2.906 -0.2834 -0.3860  0.0740
  285SOL     hw 1138   0.186   1.437   2.822 -2.4092 -0.4043  0.5507
  285SOL     hw 1139   0.258   1.410   2.952 -1.7027 -1.6385 -0.0820
  285SOL     vw 1140   0.211   1.462   2.901  0.0321  0.0806 -0.0328
  286SOL     ow 1141   0.303   1.012   0.953  0.0867 -0.7083  0.1091
  286SOL     hw 1142   0.212   1.031   0.929  0.1614  0.8708  0.9605
  286SOL     hw 1143   0.299   0.927   0.995 -1.0297 -0.5934  0.2827
  286SOL     vw 1144   0.290   1.004   0.955 -0.0016  0.0255  0.0047
  287SOL     ow 1145   1.246   1.172   6.308 -0.5874 -0.3261 -0.8356
  287SOL     hw 1146   1.328   1.219   6.323 -0.9360 -0.2455  1.1281
  287SOL     hw 1147   1.226   1.186   6.216  0.3119  1.7450 -0.7631
  287SOL     vw 1148   1.254   1.180   6.298 -0.0295 -0.0687 -0.0324
  288SOL     ow 1149   0.919   0.395   4.248  0.0264 -0.0792 -0.5666
  288SOL     hw 1150   0.872   0.349   4.178 -0.3023 -0.1775 -0.2803
  288SOL     hw 1151   0.871   0.373   4.328 -0.0516  0.6494 -0.4084
  288SOL     vw 1152   0.907   0.386   4.249  0.0038 -0.0223  0.0193
  289SOL     ow 1153   0.761   1.337   2.171 -0.0591 -0.1751 -0.1948
  289SOL     hw 1154   0.842   1.384   2.190 -0.1376 -0.7900  1.8084
  289SOL     hw 1155   0.787   1.269   2.109  0.4638  1.0881 -1.4209
  289SOL     vw 1156   0.775   1.334   2.165  0.0369 -0.0739  0.0708
  290SOL     ow 1157   0.061   0.314   3.766  0.1161 -0.1368 -0.2593
  290SOL     hw 1158   0.116   0.386   3.798 -0.0922 -0.2751  0.4424
  290SOL     hw 1159   0.062   0.323   3.671  0.1403  0.7599 -0.1871
  290SOL     vw 1160   0.069   0.325   3.758  0.0617 -0.0594 -0.0032
  291SOL     ow 1161   0.927   2.195   4.712  0.2598 -0.3224  0.2140
  291SOL     hw 1162   0.959   2.169   4.625  0.5588 -0.0507  0.2383
  291SOL     hw 1163   0.833   2.178   4.709  0.4155 -1.2205  0.1678
  291SOL     vw 1164   0.919   2.189   4.700 -0.0209  0.0427 -0.0510
  292SOL     ow 1165   0.031   1.586   1.421  0.3176  0.5829  0.3116
  292SOL     hw 1166   0.119   1.563   1.451  0.0634  0.7950  1.2666
  292SOL     hw 1167   0.020   1.537   1.340  1.0453 -0.0142  0.5590
  292SOL     vw 1168   0.041   1.577   1.414 -0.0305 -0.0026  0.0147
  293SOL     ow 1169   0.066   1.115   0.880 -0.4753  0.0970 -0.0431
  293SOL     hw 1170   0.074   1.192   0.824 -0.7399 -0.6755 -1.1767
  293SOL     hw 1171   0.023   1.147   0.959  0.7475  1.3875  0.1287
  293SOL     vw 1172   0.061   1.129   0.883  0.0804 -0.0613  0.0111
  294SOL     ow 1173   0.842   1.602   3.314  0.2755  0.3581  0.1708
  294SOL     hw 1174   0.935   1.586   3.299  0.2295 -0.2147  0.4658
  294SOL     hw 1175   0.836   1.619   3.408  0.2646  1.7432 -0.0693
  294SOL     vw 1176   0.853   1.602   3.324  0.0280 -0.0008  0.0669
  295SOL     ow 1177   0.890   1.867   4.903  0.1681 -0.5500 -0.5208
  295SOL     hw 1178   0.826   1.937   4.892  2.0814  1.3300 -0.2775
  295SOL     hw 1179   0.885   1.817   4.822 -2.2778 -1.1154 -0.1085
  295SOL     vw 1180   0.881   1.870   4.891 -0.0627 -0.0446  0.0532
  296SOL     ow 1181   1.203   1.082   6.567 -0.0791  0.3186 -0.5107
  296SOL     hw 1182   1.269   1.120   6.625  1.5614 -0.9545 -1.4213
  296SOL     hw 1183   1.223   1.118   6.480  1.1347 -1.9634 -1.2771
  296SOL     vw 1184   1.214   1.092   6.563 -0.0203 -0.1004 -0.0315
  297SOL     ow 1185   0.164   0.684   5.155 -0.8899  0.5801  0.4686
  297SOL     hw 1186   0.233   0.648   5.099 -1.7244 -0.5573  0.1479
  297SOL     hw 1187   0.138   0.611   5.211 -1.0784  1.3078  1.3606
  297SOL     vw 1188   0.170   0.670   5.155  0.0502 -0.0512 -0.0212
  298SOL     ow 1189   2.289   0.290   3.839 -0.0156 -0.3729 -0.0185
  298SOL     hw 1190   2.373   0.265   3.801  0.5609 -1.1964  1.6830
  298SOL     hw 1191   2.282   0.237   3.919 -2.7957 -1.3663 -0.8040
  298SOL     vw 1192   2.299   0.280   3.845  0.0025  0.1035  0.0412
  299SOL     ow 1193   0.144   0.140   4.908  0.0128 -0.2724 -0.4500
  299SOL     hw 1194   0.163   0.234   4.914 -1.1123 -0.0990  1.3152
  299SOL     hw 1195   0.120   0.126   4.817 -0.6902  1.3595 -0.5543
  299SOL     vw 1196   0.144   0.151   4.897 -0.1058 -0.0180 -0.0224
  300SOL     ow 1197   0.354   1.004   2.729  0.1472 -0.0435  0.8793
  300SOL     hw 1198   0.440   0.977   2.695  0.2304 -0.1914  1.2056
  300SOL     hw 1199   0.369   1.021   2.822  0.0362  0.8646  0.7400
  300SOL     vw 1200   0.368   1.002   2.737 -0.0189 -0.0188  0.0482
  301SOL     ow 1201   1.474   0.339   4.885 -0.8387 -0.1189 -0.1399
  301SOL     hw 1202   1.530   0.276   4.840 -1.1212 -1.6582  1.5119
  301SOL     hw 1203   1.392   0.338   4.835  0.0676  1.0832 -1.7393
  301SOL     vw 1204   1.470   0.330   4.873 -0.0093 -0.0646 -0.1068
  302SOL     ow 1205   1.137   1.709   0.242  0.9534  0.3435  0.0553
  302SOL     hw 1206   1.184   1.731   0.322 -1.0265  0.8197  1.1412
  302SOL     hw 1207   1.094   1.626   0.261  1.8314 -0.4411 -1.1691
  302SOL     vw 1208   1.138   1.701   0.255  0.0333  0.0305 -0.0323
  303SOL     ow 1209   1.643   0.543   2.383 -0.2391  0.4402  0.5889
  303SOL     hw 1210   1.554   0.529   2.417 -0.8769  1.5935 -0.5573
  303SOL     hw 1211   1.631   0.573   2.293  1.3716 -1.1493 -0.2424
  303SOL     vw 1212   1.630   0.545   2.376 -0.0094 -0.0037 -0.0486
  304SOL     ow 1213   1.675   0.869   6.058  0.0480 -0.3133 -0.3725
  304SOL     hw 1214   1.652   0.790   6.105  1.8707 -0.0804  1.0289
  304SOL     hw 1215   1.601   0.885   5.999 -1.0104 -2.2001  0.3727
  304SOL     vw 1216   1.663   0.861   6.056  0.0177  0.0268 -0.0410
  305SOL     ow 1217   0.921   2.103   2.523  0.0036  0.6023  0.2121
  305SOL     hw 1218   0.884   2.072   2.606 -0.5829 -1.4469 -0.7597
  305SOL     hw 1219   0.874   2.053   2.456  3.8838 -1.5665 -1.1631
  305SOL     vw 1220   0.910   2.092   2.525  0.0905  0.0122  0.0188
  306SOL     ow 1221   0.783   2.114   0.206 -0.2326 -0.2725 -0.2367
  306SOL     hw 1222   0.806   2.122   0.299  1.9318 -0.0409 -0.7218
  306SOL     hw 1223   0.785   2.204   0.173  0.0994 -0.4558 -0.7259
  306SOL     vw 1224   0.787   2.127   0.214  0.0423  0.0148 -0.0091
  307SOL     ow 1225   1.493   2.061   6.810 -0.2164 -0.4341  0.5738
  307SOL     hw 1226   1.545   2.051   6.730  0.6120  0.6639  0.9409
  307SOL     hw 1227   1.419   2.115   6.784  0.5165  0.6672  0.7156
  307SOL     vw 1228   1.490   2.067   6.796  0.0376  0.1104  0.0248
  308SOL     ow 1229   0.321   1.739   3.186  0.6609  0.3375  0.4879
  308SOL     hw 1230   0.343   1.825   3.220  0.6076  0.2185  0.8232
  308SOL     hw 1231   0.298   1.687   3.263  1.4025 -0.1861  0.3687
  308SOL     vw 1232   0.321   1.743   3.200  0.1601 -0.0461  0.1235
  309SOL     ow 1233   2.349   2.095   1.896 -0.2035  0.6896  0.2740
  309SOL     hw 1234   2.282   2.159   1.921  0.2626  2.0384 -1.6995
  309SOL     hw 1235   2.331   2.019   1.951 -1.9539  1.8308  1.3803
  309SOL     vw 1236   2.338   2.094   1.906  0.1107  0.0179 -0.0379
  310SOL     ow 1237   1.288   1.574   6.073 -0.0413  0.5778 -0.1364
  310SOL     hw 1238   1.350   1.504   6.052  0.8438  1.2110  0.3092
  310SOL     hw 1239   1.207   1.549   6.029  0.2469 -0.7535  0.0683
  310SOL     vw 1240   1.286   1.562   6.065 -0.0030 -0.0003 -0.0055
  311SOL     ow 1241   1.059   0.645   0.170 -0.6299 -0.3142 -0.0456
  311SOL     hw 1242   1.091   0.681   0.087 -0.4165  1.6750  0.8522
  311SOL     hw 1243   0.965   0.665   0.169 -0.5408  0.1362  0.3864
  311SOL     vw 1244   1.051   0.652   0.159  0.0243 -0.0376 -0.0146
  312SOL     ow 1245   1.703   1.418   6.216  0.9122 -0.2112 -0.5988
  312SOL     hw 1246   1.769   1.365   6.262  1.2360 -0.4937 -1.3654
  312SOL     hw 1247   1.686   1.491   6.274 -1.3057 -2.3053  1.6357
  312SOL     vw 1248   1.709   1.420   6.230  0.0125 -0.0500 -0.0401
  313SOL     ow 1249   0.584   0.761   5.185  0.3944 -0.1317 -0.2966
  313SOL     hw 1250   0.569   0.843   5.138 -2.0005  1.2034  2.4566
  313SOL     hw 1251   0.513   0.704   5.158  0.4860 -0.3015 -0.1810
  313SOL     vw 1252   0.573   0.765   5.175 -0.0270 -0.0240  0.0045
  314SOL     ow 1253   1.982   0.361   1.912  0.2148 -0.3838 -0.5813
  314SOL     hw 1254   1.897   0.385   1.950  0.3592 -0.8735  0.0720
  314SOL     hw 1255   2.021   0.303   1.977  0.2729 -1.6356 -1.7019
  314SOL     vw 1256   1.976   0.357   1.926  0.0023  0.0487 -0.0018
  315SOL     ow 1257   0.946   0.327   1.162 -0.5422  0.2081  0.0506
  315SOL     hw 1258   1.025   0.379   1.178 -0.7648  0.4601  0.3374
  315SOL     hw 1259   0.888   0.385   1.113 -0.8886  0.3238  0.5806
  315SOL     vw 1260   0.949   0.341   1.158  0.0415 -0.0108  0.0727
  316SOL     ow 1261   0.971   0.351   0.556  0.3932  0.0800  0.1692
  316SOL     hw 1262   0.886   0.396   0.553  0.6189  0.4750 -1.5130
  316SOL     hw 1263   0.951   0.260   0.538  0.4592  0.4905 -2.3759
  316SOL     vw 1264   0.957   0.345   0.553  0.1149  0.0862  0.0696
  317SOL     ow 1265   1.454   2.052   6.414  0.3220 -0.6132  0.2874
  317SOL     hw 1266   1.533   2.074   6.463 -0.4766  0.1316  1.2756
  317SOL     hw 1267   1.431   2.133   6.369  0.2968 -0.9226 -0.2628
  317SOL     vw 1268   1.462   2.065   6.414  0.0425 -0.0724  0.0501
  318SOL     ow 1269   0.407   2.259   0.276 -0.2893 -0.4033 -0.6478
  318SOL     hw 1270   0.326   2.224   0.313 -0.9677  0.0901 -1.6397
  318SOL     hw 1271   0.451   2.300   0.350 -1.1877 -0.2262 -0.2001
  318SOL     vw 1272   0.402   2.260   0.291  0.0358 -0.0204 -0.0011
  319SOL     ow 1273   0.213   2.335   6.380  0.1025 -0.0099  0.3265
  319SOL     hw 1274   0.210   2.253   6.330 -1.7488  1.2267 -1.7946
  319SOL     hw 1275   0.248   2.310   6.465  1.0251 -2.7184 -0.7413
  319SOL     vw 1276   0.217   2.321   6.384  0.0270  0.0647 -0.0310
  320SOL     ow 1277   0.794   1.833   4.430 -0.1914 -0.0440 -0.0087
  320SOL     hw 1278   0.862   1.899   4.446  0.6280 -0.9393  0.3172
  320SOL     hw 1279   0.721   1.859   4.486 -0.1419  0.9580 -0.3964
  320SOL     vw 1280   0.794   1.845   4.439 -0.0016  0.0147  0.0467
  321SOL     ow 1281   0.978   1.273   5.807 -0.2696  0.9327 -0.2439
  321SOL     hw 1282   1.005   1.232   5.725 -2.2781 -0.5424 -0.2364
  321SOL     hw 1283   1.038   1.237   5.873  1.2074  1.9572 -0.9612
  321SOL     vw 1284   0.990   1.263   5.805  0.0041 -0.0917  0.0601
  322SOL     ow 1285   0.595   1.072   1.281 -0.1186  0.2322  0.1428
  322SOL     hw 1286   0.542   1.110   1.211  1.4886  2.1444 -0.1149
  322SOL     hw 1287   0.606   1.143   1.344 -0.4949 -1.0872  1.7755
  322SOL     vw 1288   0.590   1.087   1.280  0.0079  0.0232 -0.0083
  323SOL     ow 1289   1.118   2.392   2.262  0.7751 -0.7544  0.0255
  323SOL     hw 1290   1.202   2.387   2.217  1.4997 -0.0647  1.2712
  323SOL     hw 1291   1.073   2.465   2.221  2.1780  1.0651  1.5777
  323SOL     vw 1292   1.123   2.401   2.251 -0.0356  0.0321 -0.0722
  324SOL     ow 1293   1.484   1.278   6.325 -0.7745 -0.2749  0.2157
  324SOL     hw 1294   1.532   1.352   6.287 -1.3317 -0.9908 -2.0318
  324SOL     hw 1295   1.545   1.205   6.320 -0.6508 -0.2562  1.3036
  324SOL     vw 1296   1.498   1.278   6.319 -0.0132 -0.0684 -0.0246
  325SOL     ow 1297   0.568   0.150   2.665  0.8719  0.1775  0.5941
  325SOL     hw 1298   0.614   0.228   2.635  1.3569 -0.0808  0.6623
  325SOL     hw 1299   0.484   0.153   2.618  0.7029  0.9636  0.9166
  325SOL     vw 1300   0.563   0.161   2.655  0.0005 -0.0633  0.0206
  326SOL     ow 1301   0.985   1.997   4.507 -0.1963 -0.3900 -0.0532
  326SOL     hw 1302   1.019   2.029   4.424 -0.2354 -0.4689 -0.0995
  326SOL     hw 1303   1.061   1.995   4.565 -0.3523  0.6220  0.2044
  326SOL     vw 1304   0.999   2.001   4.504  0.0110 -0.0062 -0.0024
  327SOL     ow 1305   0.029   0.623   1.965 -0.6253  0.3850 -0.2061
  327SOL     hw 1306   0.025   0.593   2.056  0.3959 -1.7452 -0.8114
  327SOL     hw 1307   0.067   0.711   1.971  1.4618 -0.5286  1.3176
  327SOL     vw 1308   0.033   0.631   1.978 -0.0071 -0.0293 -0.0222
  328SOL     ow 1309   1.758   0.100   5.169 -0.3477  0.7771 -0.5395
  328SOL     hw 1310   1.794   0.012   5.184  0.3283  1.2809  1.0741
  328SOL     hw 1311   1.806   0.156   5.231 -1.7394  2.0427 -0.5546
  328SOL     vw 1312   1.769   0.096   5.180  0.0393  0.0205  0.0494
  329SOL     ow 1313   2.376   2.385   3.751  0.0717  0.4570 -0.1319
  329SOL     hw 1314   2.331   2.371   3.668 -1.0553  0.9533  0.3750
  329SOL     hw 1315   2.310   2.365   3.818  0.8394  0.4376  0.6379
  329SOL     vw 1316   2.361   2.381   3.749 -0.0364 -0.0062  0.0112
  330SOL     ow 1317   1.513   0.717   3.493  0.2517 -0.1219 -0.4539
  330SOL     hw 1318   1.424   0.729   3.459  0.3094 -1.1773 -1.0291
  330SOL     hw 1319   1.540   0.804   3.522 -2.0714 -0.2300  2.5316
  330SOL     vw 1320   1.505   0.730   3.492  0.0054 -0.0506 -0.0864
  331SOL     ow 1321   0.843   0.058   6.646 -0.5323  0.3173 -0.1180
  331SOL     hw 1322   0.821  -0.015   6.703 -0.5433  0.9543  0.7277
  331SOL     hw 1323   0.847   0.134   6.706  1.3871  0.6678 -0.6270
  331SOL     vw 1324   0.841   0.059   6.662  0.0435  0.0374  0.0103
  332SOL     ow 1325   2.449   0.036   5.516 -0.1576 -0.2845 -0.4359
  332SOL     hw 1326   2.409   0.014   5.600  0.7520 -2.3008 -0.4751
  332SOL     hw 1327   2.507   0.109   5.535 -0.4020 -0.3408  0.5628
  332SOL     vw 1328   2.451   0.042   5.529 -0.0244  0.0126  0.0353
  333SOL     ow 1329   0.432   1.127   5.608  0.6681 -0.1241 -0.6165
  333SOL     hw 1330   0.488   1.068   5.659  2.0156 -0.2486 -2.1665
  333SOL     hw 1331   0.458   1.215   5.638  0.9082 -0.2192 -0.5429
  333SOL     vw 1332   0.443   1.131   5.619  0.0756  0.0429 -0.0973
  334SOL     ow 1333   1.379   1.195   6.726 -0.0240  0.1689  0.8677
  334SOL     hw 1334   1.392   1.199   6.820  0.6911  2.1195  0.7293
  334SOL     hw 1335   1.364   1.286   6.699  0.7643 -0.1966 -1.0163
  334SOL     vw 1336   1.378   1.208   6.735  0.0138  0.0156  0.0045
  335SOL     ow 1337   2.348   0.800   5.787  0.1852 -0.1466  0.5823
  335SOL     hw 1338   2.276   0.767   5.841 -0.9247  0.2734 -0.5927
  335SOL     hw 1339   2.330   0.767   5.699  1.1995  0.3287  0.1798
  335SOL     vw 1340   2.336   0.791   5.783  0.0093  0.0027  0.0284
  336SOL     ow 1341   1.380   2.065   5.795  0.0050  0.1598 -0.4301
  336SOL     hw 1342   1.316   2.000   5.824 -2.8503  1.4600 -3.1588
  336SOL     hw 1343   1.434   2.019   5.732  0.1333 -0.3413  0.0391
  336SOL     vw 1344   1.378   2.050   5.790  0.0020 -0.0097 -0.0160
  337SOL     ow 1345   1.360   1.834   6.201  0.3657  0.0785 -0.2116
  337SOL     hw 1346   1.333   1.746   6.172  2.5642 -0.8491  0.3867
  337SOL     hw 1347   1.341   1.890   6.126 -0.3266 -1.0337 -0.9138
  337SOL     vw 1348   1.354   1.830   6.187  0.0268 -0.0309  0.0150
  338SOL     ow 1349   0.433   0.104   4.897  0.2149  0.0939  0.2988
  338SOL     hw 1350   0.481   0.187   4.903 -1.2500  0.8840  1.7555
  338SOL     hw 1351   0.342   0.130   4.880 -0.1058 -1.2766 -0.2224
  338SOL     vw 1352   0.427   0.119   4.895 -0.0427 -0.0136  0.0579
  339SOL     ow 1353   1.297   0.844   6.459  0.3232 -0.3180  0.6840
  339SOL     hw 1354   1.263   0.919   6.508  4.2204  2.5524 -0.5262
  339SOL     hw 1355   1.299   0.873   6.368 -0.4644 -2.9969 -0.2926
  339SOL     vw 1356   1.293   0.858   6.454  0.0763 -0.0468 -0.0041
  340SOL     ow 1357   1.151   1.925   2.495 -0.6954 -0.9995 -0.7519
  340SOL     hw 1358   1.165   1.872   2.417 -1.2871  0.0300 -1.5843
  340SOL     hw 1359   1.067   1.969   2.481  0.3113  1.0910 -0.6887
  340SOL     vw 1360   1.142   1.924   2.483  0.0090  0.0173  0.0237
  341SOL     ow 1361   1.414   1.084   0.890 -0.6103  0.0107  0.3858
  341SOL     hw 1362   1.340   1.133   0.856  1.2668  0.6146 -3.3057
  341SOL     hw 1363   1.400   0.995   0.858  1.3365  0.6509 -2.5952
  341SOL     vw 1364   1.403   1.078   0.881  0.0491  0.0507  0.1208
  342SOL     ow 1365   1.699   2.148   5.161  0.7408 -0.2442 -0.2034
  342SOL     hw 1366   1.715   2.165   5.068  0.9657  1.3877  0.1118
  342SOL     hw 1367   1.611   2.183   5.177  0.5666 -0.8173  0.1485
  342SOL     vw 1368   1.689   2.155   5.151 -0.0910 -0.0089  0.0556
  343SOL     ow 1369   2.491   0.657   1.672 -0.0890  0.2385  0.4678
  343SOL     hw 1370   2.517   0.745   1.643 -1.2807  0.5826  0.3829
  343SOL     hw 1371   2.549   0.598   1.625 -2.0231  0.7379 -2.9080
  343SOL     vw 1372   2.502   0.661   1.662 -0.0366 -0.0329  0.0285
  344SOL     ow 1373   0.310   1.394   4.601  0.1336 -0.1639 -0.6129
  344SOL     hw 1374   0.285   1.486   4.604  2.2745  0.5496 -2.1132
  344SOL     hw 1375   0.279   1.364   4.516  1.2829 -0.1992 -1.0366
  344SOL     vw 1376   0.303   1.402   4.590 -0.0165 -0.0278 -0.0091
  345SOL     ow 1377   1.714   2.461   2.917 -0.2512  0.5487  0.3699
  345SOL     hw 1378   1.697   2.367   2.912 -0.7880  0.6994 -1.4352
  345SOL     hw 1379   1.735   2.477   3.009 -0.9732 -1.1889  0.8796
  345SOL     vw 1380   1.715   2.450   2.929  0.0089 -0.0002 -0.0179
  346SOL     ow 1381   1.167   2.403   5.946  0.7827  0.2823  0.1529
  346SOL     hw 1382   1.163   2.406   6.041 -0.3031 -0.3172  0.1464
  346SOL     hw 1383   1.086   2.358   5.920  1.4014 -0.2016 -1.0160
  346SOL     vw 1384   1.155   2.397   5.955 -0.0122 -0.0184 -0.0317
  347SOL     ow 1385   1.738   1.595   2.064 -0.1686  0.0485 -0.1684
  347SOL     hw 1386   1.724   1.681   2.103  1.1691 -0.2416  1.0202
  347SOL     hw 1387   1.665   1.584   2.003 -2.4614  0.4604  2.3365
  347SOL     vw 1388   1.727   1.604   2.061  0.0539  0.0341 -0.0603
  348SOL     ow 1389   1.282   1.771   5.887  0.4436 -0.8028 -0.3273
  348SOL     hw 1390   1.321   1.732   5.809  2.0185  0.3678 -0.1615
  348SOL     hw 1391   1.291   1.704   5.955 -1.2260 -1.9620 -1.1502
  348SOL     vw 1392   1.288   1.757   5.886  0.0262  0.0162 -0.0260
  349SOL     ow 1393   0.110   0.912   5.268 -0.5442  0.0590  0.4667
  349SOL     hw 1394   0.019   0.913   5.239 -0.4938  0.0981  0.3094
  349SOL     hw 1395   0.148   0.834   5.227  0.1289  1.3066 -1.4367
  349SOL     vw 1396   0.103   0.902   5.259  0.0048  0.0430 -0.0250
  350SOL     ow 1397   0.765   1.488   2.459 -0.6204  0.1626  0.3162
  350SOL     hw 1398   0.674   1.515   2.443 -0.5121  1.1528  1.2422
  350SOL     hw 1399   0.765   1.394   2.446 -2.0171  0.0039  1.2849
  350SOL     vw 1400   0.753   1.479   2.456  0.0242  0.0021  0.0733
  351SOL     ow 1401   0.458   1.293   2.133 -0.2815  0.2429  0.3528
  351SOL     hw 1402   0.475   1.203   2.105  0.5515  0.5175 -0.0501
  351SOL     hw 1403   0.369   1.291   2.168 -0.3510 -0.6882  0.1398
  351SOL     vw 1404   0.448   1.281   2.134 -0.0371 -0.0064 -0.0571
  352SOL     ow 1405   0.961   0.082   1.026 -0.0827  0.0409 -0.3622
  352SOL     hw 1406   0.936  -0.002   0.986 -1.7225 -1.3413  3.1383
  352SOL     hw 1407   1.049   0.067   1.059  0.1928  0.1982 -1.0319
  352SOL     vw 1408   0.969   0.069   1.025  0.1690 -0.1291 -0.1219
  353SOL     ow 1409   0.592   1.417   3.223  0.0561 -0.5911 -0.7006
  353SOL     hw 1410   0.660   1.349   3.223 -0.6188 -1.3711 -2.9501
  353SOL     hw 1411   0.550   1.408   3.137  0.3981  3.1712 -1.3967
  353SOL     vw 1412   0.595   1.407   3.211 -0.0655 -0.0008  0.0579
  354SOL     ow 1413   1.853   0.338   2.373 -0.8195 -0.5331 -0.0036
  354SOL     hw 1414   1.916   0.332   2.301 -0.8734  0.0416 -0.1029
  354SOL     hw 1415   1.830   0.247   2.393 -0.9052 -0.6951 -0.8016
  354SOL     vw 1416   1.858   0.325   2.366 -0.0141 -0.0574 -0.0222
  355SOL     ow 1417   0.656   0.018   6.900 -0.3408  0.3994 -0.2369
  355SOL     hw 1418   0.566   0.011   6.934 -0.1131 -0.1742  0.2757
  355SOL     hw 1419   0.655   0.097   6.846 -1.9985 -1.2410 -2.8682
  355SOL     vw 1420   0.644   0.028   6.898 -0.0115 -0.0393  0.0668
  356SOL     ow 1421   0.069   0.788   0.856 -0.0937 -0.9257 -0.3579
  356SOL     hw 1422   0.102   0.817   0.771 -0.6525  0.7196 -0.0650
  356SOL     hw 1423   0.023   0.865   0.891  2.9903 -0.2971  2.9322
  356SOL     vw 1424   0.067   0.802   0.850 -0.0133 -0.0842 -0.0117
  357SOL     ow 1425   0.508   0.016   5.152 -0.0996 -0.2392 -0.3055
  357SOL     hw 1426   0.469   0.052   5.072 -2.4893  0.1055  0.9131
  357SOL     hw 1427   0.439  -0.041   5.188  1.5291 -1.6784  0.6769
  357SOL     vw 1428   0.494   0.013   5.146 -0.0289  0.0384  0.0277
  358SOL     ow 1429   1.417   0.492   5.433  0.3262  0.4832 -0.6132
  358SOL     hw 1430   1.508   0.479   5.407  0.3499  1.1153 -0.8552
  358SOL     hw 1431   1.404   0.430   5.504  0.7884  0.0085 -0.9305
  358SOL     vw 1432   1.427   0.482   5.439 -0.0420 -0.0215 -0.0098
  359SOL     ow 1433   2.360   0.876   4.108 -0.6048  0.5571 -0.1386
  359SOL     hw 1434   2.451   0.897   4.085 -0.1157 -0.0276  1.1570
  359SOL     hw 1435   2.334   0.947   4.166 -1.4464  1.4205 -1.5144
  359SOL     vw 1436   2.369   0.888   4.113 -0.0199 -0.0304  0.0594
  360SOL     ow 1437   1.094   2.155   5.198 -0.7371 -0.2559 -0.5099
  360SOL     hw 1438   1.073   2.116   5.113 -0.3923 -2.6733  0.4253
  360SOL     hw 1439   1.021   2.129   5.255  0.4368 -1.1979  0.6177
  360SOL     vw 1440   1.081   2.147   5.194  0.0537 -0.0218  0.0200
  361SOL     ow 1441   0.612   0.741   3.597 -0.1254 -0.2785 -0.3044
  361SOL     hw 1442   0.662   0.660   3.585 -1.4837 -0.8497 -2.8822
  361SOL     hw 1443   0.534   0.729   3.542 -0.9304  2.3311  0.1480
  361SOL     vw 1444   0.608   0.729   3.588  0.0339  0.0272 -0.0505
  362SOL     ow 1445   1.844   1.130   1.071 -0.3779 -0.3972 -0.0871
  362SOL     hw 1446   1.850   1.159   1.162 -1.6728 -1.4836  0.3779
  362SOL     hw 1447   1.759   1.164   1.041 -0.7105 -1.4248 -0.3546
  362SOL     vw 1448   1.834   1.139   1.079 -0.0142 -0.0376  0.0082
  363SOL     ow 1449   1.976   1.757   1.408 -0.0814 -0.1297  0.0808
  363SOL     hw 1450   1.945   1.846   1.392  0.8973  0.3464  0.7499
  363SOL     hw 1451   1.914   1.721   1.471  0.3158  0.5739  0.8865
  363SOL     vw 1452   1.964   1.764   1.414  0.0580 -0.0309  0.0124
  364SOL     ow 1453   1.199   0.916   5.983  0.0731 -0.1024  0.0840
  364SOL     hw 1454   1.286   0.891   6.011  1.1376  0.3386 -2.5768
  364SOL     hw 1455   1.185   0.870   5.900 -1.7927  0.6403 -0.0792
  364SOL     vw 1456   1.208   0.907   5.976 -0.0063  0.0466 -0.0353
  365SOL     ow 1457   2.395   1.591   1.696  0.4342  0.4966 -0.0319
  365SOL     hw 1458   2.469   1.598   1.757  1.0165 -0.0407 -0.6534
  365SOL     hw 1459   2.333   1.533   1.740 -0.1823  1.8978  1.0175
  365SOL     vw 1460   2.397   1.584   1.710  0.0350  0.0402  0.1431
  366SOL     ow 1461   1.114   2.349   6.231 -0.0568  0.0752  0.0113
  366SOL     hw 1462   1.203   2.352   6.267 -1.2869  1.6774  3.2977
  366SOL     hw 1463   1.075   2.271   6.271 -0.6989  0.4262  0.0709
  366SOL     vw 1464   1.121   2.339   6.241 -0.0203  0.0235 -0.0665
  367SOL     ow 1465   2.254   0.490   1.822  1.2169  0.0140 -0.3209
  367SOL     hw 1466   2.165   0.463   1.845  1.0566  1.2016  0.5905
  367SOL     hw 1467   2.292   0.414   1.778  0.2050 -0.9927  0.4790
  367SOL     vw 1468   2.247   0.477   1.819  0.0031  0.0790  0.0792
  368SOL     ow 1469   2.104   1.679   3.823 -0.2978 -0.6952  0.4698
  368SOL     hw 1470   2.103   1.628   3.905  0.2010 -0.0977  0.8614
  368SOL     hw 1471   2.153   1.758   3.846 -0.2795 -0.4595 -0.3775
  368SOL     vw 1472   2.111   1.683   3.837 -0.0089  0.0166  0.0470
  369SOL     ow 1473   0.797   2.107   0.720 -0.0282 -0.4596  0.2279
  369SOL     hw 1474   0.872   2.059   0.754  0.0987  1.0297  2.1988
  369SOL     hw 1475   0.724   2.078   0.775 -0.5925 -0.6955 -0.6256
  369SOL     vw 1476   0.797   2.097   0.732  0.0416  0.0013 -0.0173
  370SOL     ow 1477   2.240   1.029   5.642  0.0660  0.2234  0.0130
  370SOL     hw 1478   2.270   1.112   5.679  1.8505 -0.2254 -0.3386
  370SOL     hw 1479   2.282   0.962   5.697  0.8186 -0.4319 -1.3264
  370SOL     vw 1480   2.249   1.031   5.654  0.0292 -0.0243 -0.0200
  371SOL     ow 1481   1.241   2.289   0.214  0.6722 -0.4004 -0.1133
  371SOL     hw 1482   1.277   2.359   0.268 -0.6144  1.7449 -1.8586
  371SOL     hw 1483   1.317   2.241   0.182  1.6603  0.9007  0.2236
  371SOL     vw 1484   1.256   2.292   0.217 -0.0644 -0.0041  0.0085
  372SOL     ow 1485   1.542   1.226   1.255  0.6621  0.1261 -0.4297
  372SOL     hw 1486   1.626   1.218   1.300  1.8087  3.4886 -1.6733
  372SOL     hw 1487   1.564   1.248   1.165 -1.5569  0.5348 -0.9505
  372SOL     vw 1488   1.556   1.227   1.249 -0.0782 -0.0541  0.0926
  373SOL     ow 1489   0.759   0.497   3.489  0.0876  0.5198  0.7796
  373SOL     hw 1490   0.781   0.407   3.513  1.9586  0.3722 -1.1733
  373SOL     hw 1491   0.835   0.528   3.440 -0.5538  3.1485  1.2556
  373SOL     vw 1492   0.772   0.489   3.486 -0.0519  0.0103 -0.0429
  374SOL     ow 1493   0.063   1.627   3.081 -0.1694  0.2666 -0.0573
  374SOL     hw 1494  -0.033   1.633   3.081 -0.4109 -2.3163  0.3669
  374SOL     hw 1495   0.083   1.561   3.016  1.2327 -0.1718  0.7772
  374SOL     vw 1496   0.053   1.619   3.073  0.0196  0.0109  0.0331
  375SOL     ow 1497   1.404   0.028   6.295  0.5581  0.2634 -0.5770
  375SOL     hw 1498   1.419   0.068   6.210  0.6453 -0.5627 -0.9613
  375SOL     hw 1499   1.478   0.055   6.349  1.6109 -0.8667 -1.3844
  375SOL     vw 1500   1.415   0.037   6.291  0.0212  0.0395 -0.0124
  376SOL     ow 1501   0.591   0.059   5.580 -0.3260 -0.6273  0.1958
  376SOL     hw 1502   0.599   0.034   5.488  3.1392 -1.0937  0.4833
  376SOL     hw 1503   0.578   0.153   5.579  1.8907 -0.2687 -0.8462
  376SOL     vw 1504   0.590   0.068   5.568  0.0707 -0.0383  0.0117
  377SOL     ow 1505   0.421   2.348   5.639 -0.2993 -0.4561 -0.5573
  377SOL     hw 1506   0.339   2.397   5.642 -0.1398 -0.1687 -0.8069
  377SOL     hw 1507   0.489   2.415   5.640 -0.0925 -0.6280 -1.8297
  377SOL     vw 1508   0.419   2.363   5.640 -0.0228  0.0304  0.0317
  378SOL     ow 1509   0.932   1.571   4.382  0.8371 -0.2609  0.0899
  378SOL     hw 1510   0.903   1.661   4.400  3.1670  0.8524 -1.4011
  378SOL     hw 1511   0.889   1.519   4.451 -0.8230  1.9036  0.8163
  378SOL     vw 1512   0.922   1.576   4.394  0.0040  0.0111 -0.0484
  379SOL     ow 1513   1.579   0.686   3.014 -0.0685  0.6463  0.0435
  379SOL     hw 1514   1.626   0.699   2.932 -0.2507 -2.2224 -0.6231
  379SOL     hw 1515   1.487   0.685   2.989 -0.2565  1.8865  0.6461
  379SOL     vw 1516   1.573   0.687   3.000  0.0286 -0.0055  0.0323
  380SOL     ow 1517   1.733   2.463   4.923  0.2189  0.0621  0.3833
  380SOL     hw 1518   1.676   2.521   4.872  0.6802  0.0967 -0.0918
  380SOL     hw 1519   1.752   2.513   5.003  1.7177  1.1662 -0.6062
  380SOL     vw 1520   1.728   2.477   4.927  0.0566  0.0652 -0.0920
  381SOL     ow 1521   0.538   2.015   0.186  0.7127  0.6175 -0.1108
  381SOL     hw 1522   0.627   2.049   0.187  0.2083  2.0236 -0.6772
  381SOL     hw 1523   0.483   2.089   0.212 -0.1771 -0.7257  2.0872
  381SOL     vw 1524   0.543   2.029   0.189  0.0085  0.0076 -0.0231
  382SOL     ow 1525   2.344   1.834   1.225 -0.2132  0.8125 -0.0042
  382SOL     hw 1526   2.420   1.841   1.168  0.0349 -1.1424  0.0425
  382SOL     hw 1527   2.272   1.809   1.168 -0.3830  0.6682  0.2696
  382SOL     vw 1528   2.345   1.832   1.210 -0.0111 -0.0775 -0.0264
  383SOL     ow 1529   0.711   0.226   1.025  0.1556 -0.1166 -0.6455
  383SOL     hw 1530   0.621   0.235   1.058  0.0445 -1.1108 -0.6415
  383SOL     hw 1531   0.701   0.185   0.940  0.4843  1.9420 -1.7329
  383SOL     vw 1532   0.698   0.222   1.018 -0.2121  0.0849 -0.1445
  384SOL     ow 1533   2.352   0.281   1.721  0.0510  0.0063  0.1040
  384SOL     hw 1534   2.372   0.251   1.632 -0.3653  0.9144 -0.3123
  384SOL     hw 1535   2.318   0.203   1.765  1.8263 -0.8733 -0.0087
  384SOL     vw 1536   2.350   0.266   1.715  0.0376 -0.0146 -0.0771
  385SOL     ow 1537   0.289   1.052   6.367 -0.0313  0.2660  0.1188
  385SOL     hw 1538   0.308   1.090   6.453 -0.7769 -0.2122  0.5054
  385SOL     hw 1539   0.363   1.078   6.312 -0.7875  2.8384  0.1800
  385SOL     vw 1540   0.302   1.061   6.371 -0.0233  0.0227  0.0432
  386SOL     ow 1541   1.301   0.034   2.942 -0.5066  0.1834 -0.4702
  386SOL     hw 1542   1.393   0.031   2.915 -0.7001  0.2451 -1.1719
  386SOL     hw 1543   1.275   0.124   2.927 -1.1123 -0.1943 -1.8175
  386SOL     vw 1544   1.310   0.045   2.936  0.0208 -0.0528  0.0187
  387SOL     ow 1545   1.862   1.955   0.846 -0.1263  0.1082  0.1821
  387SOL     hw 1546   1.894   1.931   0.759  1.0179  0.1143  0.5844
  387SOL     hw 1547   1.775   1.917   0.850 -0.4833  0.6899 -1.2186
  387SOL     vw 1548   1.855   1.947   0.835 -0.0120  0.0249 -0.0176
  388SOL     ow 1549   2.117   1.446   6.957 -0.7522 -0.0956 -0.3715
  388SOL     hw 1550   2.173   1.471   7.031  0.1052 -0.0613 -1.0133
  388SOL     hw 1551   2.035   1.418   6.997  0.3657 -2.0144  0.7336
  388SOL     vw 1552   2.113   1.446   6.972  0.0094  0.0695  0.0504
  389SOL     ow 1553   1.198   0.675   5.453 -1.1718 -0.5658 -0.3318
  389SOL     hw 1554   1.145   0.649   5.378 -0.2110 -0.4770 -1.0644
  389SOL     hw 1555   1.282   0.630   5.440 -0.1776  1.2185 -0.5604
  389SOL     vw 1556   1.202   0.666   5.441 -0.0222 -0.0773 -0.0315
  390SOL     ow 1557   1.398   0.785   4.773  0.5182 -0.0237 -0.3968
  390SOL     hw 1558   1.489   0.788   4.744  0.7644 -0.1291  0.3276
  390SOL     hw 1559   1.377   0.874   4.799  0.1072  0.1942 -1.4378
  390SOL     vw 1560   1.407   0.797   4.773 -0.0071  0.0101 -0.0737
  391SOL     ow 1561   1.408   0.547   6.634 -0.1030 -0.3309  0.0251
  391SOL     hw 1562   1.392   0.514   6.722  0.9841  0.0880  0.3922
  391SOL     hw 1563   1.501   0.569   6.632 -0.3078  0.5688 -0.9270
  391SOL     vw 1564   1.418   0.545   6.645 -0.0113 -0.0505 -0.0894
  392SOL     ow 1565   0.890   2.139   5.409  0.3191 -0.0270  0.0779
  392SOL     hw 1566   0.902   2.070   5.475  1.1924 -0.4519 -0.5074
  392SOL     hw 1567   0.815   2.110   5.357 -0.8548  0.6755  1.3151
  392SOL     vw 1568   0.882   2.126   5.411  0.0038  0.0147  0.0069
  393SOL     ow 1569   1.186   2.330   3.217 -0.2227 -0.0376  0.0296
  393SOL     hw 1570   1.169   2.331   3.311  1.5415  1.5473  0.3908
  393SOL     hw 1571   1.118   2.273   3.181 -2.2247  0.9265  2.0084
  393SOL     vw 1572   1.175   2.323   3.224 -0.0147  0.0987 -0.0534
  394SOL     ow 1573   1.713   2.198   4.907  0.1747  0.1916 -0.1102
  394SOL     hw 1574   1.749   2.285   4.890  0.1680  0.3633  0.7120
  394SOL     hw 1575   1.781   2.138   4.877  0.5383  0.4962  0.0987
  394SOL     vw 1576   1.727   2.202   4.901 -0.0314  0.0120 -0.0536
  395SOL     ow 1577   0.772   0.066   1.263  0.1327 -0.1179  0.7079
  395SOL     hw 1578   0.828  -0.009   1.279  1.6556  0.5126 -1.3355
  395SOL     hw 1579   0.684   0.036   1.287  0.6609 -2.6026 -0.2175
  395SOL     vw 1580   0.768   0.052   1.269 -0.0202  0.0070  0.0304
  396SOL     ow 1581   0.996   0.616   0.462 -0.5431 -0.3343 -0.9687
  396SOL     hw 1582   0.902   0.608   0.480 -0.4401  1.1183  0.4751
  396SOL     hw 1583   1.005   0.702   0.420  0.2465  0.1099  0.0567
  396SOL     vw 1584   0.984   0.627   0.459  0.1174 -0.0073 -0.0214
  397SOL     ow 1585   0.442   0.810   5.893 -0.4016  0.5836 -0.1104
  397SOL     hw 1586   0.509   0.747   5.920  0.1409  0.4052 -1.7644
  397SOL     hw 1587   0.492   0.884   5.858 -1.0633  1.1836  0.1868
  397SOL     vw 1588   0.457   0.811   5.892 -0.0035  0.0098  0.0441
  398SOL     ow 1589   1.086   1.508   2.473 -0.6672  1.2876 -0.4472
  398SOL     hw 1590   1.046   1.498   2.387 -0.8055 -0.6936 -0.1963
  398SOL     hw 1591   1.149   1.436   2.479  0.0693  1.9924  0.7221
  398SOL     vw 1592   1.089   1.497   2.463  0.1243  0.0158 -0.0664
  399SOL     ow 1593   2.053   2.032   1.056  0.7129 -0.2416 -0.6262
  399SOL     hw 1594   2.134   2.070   1.091  0.3867 -0.7257  0.7081
  399SOL     hw 1595   2.078   1.944   1.027  0.3166 -1.1284  1.5485
  399SOL     vw 1596   2.067   2.026   1.057 -0.0488 -0.0055  0.0477
  400SOL     ow 1597   1.951   0.201   4.563 -0.0070 -0.1558  0.4013
  400SOL     hw 1598   1.917   0.185   4.475  1.4800 -2.5357  0.1648
  400SOL     hw 1599   1.889   0.263   4.602 -0.6495  1.0561 -2.3241
  400SOL     vw 1600   1.938   0.207   4.556  0.0260  0.0532 -0.0198
  401SOL     ow 1601   0.697   2.303   3.158  0.2872  0.1809 -0.2891
  401SOL     hw 1602   0.745   2.224   3.133  1.1935  0.3638  0.7615
  401SOL     hw 1603   0.685   2.294   3.253  0.3023  1.2451 -0.1788
  401SOL     vw 1604   0.702   2.291   3.168  0.0122  0.0142 -0.0042
  402SOL     ow 1605   1.305   0.047   4.360 -0.4058  0.0911 -0.2606
  402SOL     hw 1606   1.387   0.063   4.314 -0.6999  0.3138 -0.7197
  402SOL     hw 1607   1.248   0.120   4.334 -0.8285 -0.1874 -0.1362
  402SOL     vw 1608   1.308   0.059   4.351  0.0262  0.0018  0.0265
  403SOL     ow 1609   1.311   1.079   1.414  0.3670 -0.0988  0.2814
  403SOL     hw 1610   1.257   1.000   1.404  0.1364  0.2253 -1.3676
  403SOL     hw 1611   1.309   1.098   1.507 -0.7216 -1.2449  0.5207
  403SOL     vw 1612   1.304   1.071   1.425  0.0008  0.0424  0.0222
  404SOL     ow 1613   0.946   1.107   1.455 -0.9859 -0.3288 -0.1349
  404SOL     hw 1614   0.976   1.190   1.418  0.1689 -0.1100  1.1856
  404SOL     hw 1615   0.969   1.041   1.389  2.7976 -0.2095  0.8384
  404SOL     vw 1616   0.953   1.109   1.442  0.0099  0.0197  0.0329
  405SOL     ow 1617   0.048   0.083   4.658 -0.4337 -0.1423 -0.0807
  405SOL     hw 1618   0.028  -0.009   4.639 -0.0253  0.1114 -1.8213
  405SOL     hw 1619   0.069   0.122   4.574 -0.9597  1.6665  0.5716
  405SOL     vw 1620   0.048   0.076   4.645 -0.0265  0.0133  0.0074
  406SOL     ow 1621   0.200   0.980   2.491  0.0301  0.0173 -0.0108
  406SOL     hw 1622   0.270   0.924   2.457  1.3876  1.2268  0.6812
  406SOL     hw 1623   0.149   1.005   2.414  1.9595  1.2322 -0.9703
  406SOL     vw 1624   0.202   0.976   2.477 -0.0072  0.0703  0.0046
  407SOL     ow 1625   0.394   0.227   0.115 -0.0223 -0.3747 -0.6787
  407SOL     hw 1626   0.402   0.134   0.099  3.1230 -0.3891  0.3804
  407SOL     hw 1627   0.462   0.268   0.062  1.5674  0.8044  2.0475
  407SOL     vw 1628   0.404   0.220   0.106 -0.0388  0.0310  0.0278
  408SOL     ow 1629   2.084   0.968   0.952 -0.4772  0.0951 -0.1269
  408SOL     hw 1630   2.130   0.947   1.033 -1.2551 -0.1293  0.2669
  408SOL     hw 1631   2.149   1.014   0.898  0.0638  0.1839  0.5926
  408SOL     vw 1632   2.099   0.972   0.955  0.0567 -0.0009  0.0069
  409SOL     ow 1633   1.746   0.543   2.649 -0.1938 -0.0613 -0.1638
  409SOL     hw 1634   1.656   0.511   2.656 -0.0142 -0.5373  0.0132
  409SOL     hw 1635   1.746   0.627   2.696 -0.4662 -0.2221  0.1214
  409SOL     vw 1636   1.734   0.550   2.656  0.0182 -0.0874  0.0380
  410SOL     ow 1637   0.521   1.229   4.615  0.3141  0.3254  0.0584
  410SOL     hw 1638   0.450   1.293   4.617  1.2790  1.4853 -0.8566
  410SOL     hw 1639   0.598   1.280   4.587  1.2602 -1.1084 -0.0518
  410SOL     vw 1640   0.522   1.244   4.611  0.0167 -0.0189  0.0210
  411SOL     ow 1641   1.676   0.625   3.269  0.0867 -0.5292 -0.1952
  411SOL     hw 1642   1.597   0.624   3.324 -0.2333  0.2742 -0.6239
  411SOL     hw 1643   1.647   0.662   3.186  1.0946  0.5443 -0.0906
  411SOL     vw 1644   1.662   0.629   3.265 -0.0014  0.0126 -0.0025
  412SOL     ow 1645   0.365   0.986   0.687  0.6259 -0.2944  0.1712
  412SOL     hw 1646   0.355   1.017   0.777  0.8307 -0.5091  0.2679
  412SOL     hw 1647   0.276   0.961   0.661  0.1630  1.7836 -0.4406
  412SOL     vw 1648   0.352   0.986   0.695  0.0015 -0.0667  0.0779
  413SOL     ow 1649   0.691   1.232   4.056 -0.0323  0.0734 -0.5029
  413SOL     hw 1650   0.662   1.189   3.976  2.3662  0.1567 -1.5015
  413SOL     hw 1651   0.780   1.198   4.071 -0.1176  0.6647  1.6865
  413SOL     vw 1652   0.699   1.222   4.047 -0.0262 -0.0162  0.0687
  414SOL     ow 1653   2.273   1.314   4.557 -0.3178  0.0721 -0.4692
  414SOL     hw 1654   2.308   1.375   4.493 -0.9949  2.0887  0.9845
  414SOL     hw 1655   2.184   1.296   4.528  0.1003 -0.8029 -1.2607
  414SOL     vw 1656   2.266   1.319   4.545 -0.0575  0.0820  0.0265
  415SOL     ow 1657   1.094   1.180   5.565 -0.2661 -0.5601 -0.3899
  415SOL     hw 1658   1.127   1.091   5.569  1.8867  0.2176  0.5590
  415SOL     hw 1659   1.140   1.220   5.491  0.4035  0.3381  0.4778
  415SOL     vw 1660   1.104   1.174   5.555 -0.0494  0.0575  0.0067
  416SOL     ow 1661   0.392   2.457   0.078 -0.1646  0.2389  1.1345
  416SOL     hw 1662   0.408   2.395   0.150 -1.1431 -0.3797  0.8358
  416SOL     hw 1663   0.304   2.437   0.048  0.8882 -0.8915 -1.5417
  416SOL     vw 1664   0.383   2.446   0.084  0.0015 -0.0063 -0.0653
  417SOL     ow 1665   1.435   2.203   5.207 -0.4696  0.1149  0.2325
  417SOL     hw 1666   1.400   2.196   5.296 -0.3193  1.1130  0.3838
  417SOL     hw 1667   1.416   2.118   5.167 -0.4692 -0.3790  1.2388
  417SOL     vw 1668   1.428   2.191   5.213 -0.0395  0.0445 -0.0100
  418SOL     ow 1669   1.019   2.349   2.560 -0.1624  0.0268 -0.3695
  418SOL     hw 1670   0.975   2.266   2.540 -0.0645 -0.0341 -0.3308
  418SOL     hw 1671   1.028   2.349   2.656 -1.2087  0.6058 -0.2528
  418SOL     vw 1672   1.014   2.338   2.570  0.0069 -0.0311  0.0044
  419SOL     ow 1673   2.462   2.303   5.215  0.0748 -0.2107 -0.4357
  419SOL     hw 1674   2.498   2.296   5.304 -0.0851 -1.4855 -0.4508
  419SOL     hw 1675   2.527   2.260   5.159  0.4617  1.1022 -1.0423
  419SOL     vw 1676   2.476   2.297   5.219 -0.0139  0.0360  0.0324
  420SOL     ow 1677   1.115   0.186   5.148 -0.4546 -0.0918  0.2136
  420SOL     hw 1678   1.126   0.165   5.055 -0.1551 -0.9769  0.4320
  420SOL     hw 1679   1.157   0.270   5.160  1.2797 -0.8809 -0.0727
  420SOL     vw 1680   1.122   0.194   5.137  0.0586 -0.0792 -0.0010
  421SOL     ow 1681   1.128   2.318   4.468  0.6257 -0.1877  0.0746
  421SOL     hw 1682   1.050   2.373   4.481  0.5193  0.1903 -1.8768
  421SOL     hw 1683   1.179   2.331   4.547 -1.1579 -0.2175  1.2896
  421SOL     vw 1684   1.124   2.327   4.480  0.0054  0.0162  0.0174
  422SOL     ow 1685   0.939   1.419   4.121 -0.5196  0.3127  0.1606
  422SOL     hw 1686   0.856   1.465   4.109 -0.7642 -0.4941 -1.5495
  422SOL     hw 1687   0.963   1.389   4.033  1.7173  0.7161  0.5576
  422SOL     vw 1688   0.931   1.421   4.107 -0.0272 -0.0016  0.0937
  423SOL     ow 1689   0.419   1.353   3.018 -0.1780 -0.0047  0.0724
  423SOL     hw 1690   0.477   1.372   2.945  0.9812  1.1216  1.2404
  423SOL     hw 1691   0.406   1.258   3.015  0.4015 -0.0621 -1.1615
  423SOL     vw 1692   0.425   1.343   3.008  0.0141  0.0083  0.0535
  424SOL     ow 1693   2.020   2.215   2.888 -0.3543 -0.0312  0.2149
  424SOL     hw 1694   2.102   2.166   2.881 -0.8731 -1.0354  1.0414
  424SOL     hw 1695   2.046   2.306   2.872  0.2610 -0.7153 -3.7017
  424SOL     vw 1696   2.034   2.221   2.885 -0.0166 -0.0337  0.0607
  425SOL     ow 1697   0.771   0.095   4.912  0.7774  0.3601  0.4287
  425SOL     hw 1698   0.723   0.053   4.840 -0.3954 -0.0430  1.4080
  425SOL     hw 1699   0.852   0.046   4.919  0.6981  0.1104 -0.3116
  425SOL     vw 1700   0.775   0.083   4.903 -0.0358 -0.0297  0.0353
  426SOL     ow 1701   2.316   1.043   4.672  0.0670  0.7589  0.0786
  426SOL     hw 1702   2.338   0.964   4.622  0.9027  0.7163  0.4848
  426SOL     hw 1703   2.224   1.033   4.693 -0.0402  0.2818 -0.5699
  426SOL     vw 1704   2.307   1.031   4.668  0.0513 -0.0545  0.0384
  427SOL     ow 1705   1.909   2.017   4.871 -0.2403  0.4163 -0.6711
  427SOL     hw 1706   1.953   2.084   4.923  0.6682  0.2615 -1.2144
  427SOL     hw 1707   1.954   2.020   4.786 -2.5365  1.5961 -1.9452
  427SOL     vw 1708   1.921   2.026   4.866  0.0485 -0.0584  0.0343
  428SOL     ow 1709   2.272   0.719   0.930 -0.2057  0.5139 -0.0320
  428SOL     hw 1710   2.259   0.747   1.021  0.8954 -0.4679  0.4528
  428SOL     hw 1711   2.194   0.669   0.908 -0.0140 -0.1492  0.7471
  428SOL     vw 1712   2.260   0.716   0.939  0.0756  0.0027  0.0391
  429SOL     ow 1713   2.305   0.491   0.446 -0.1012 -0.2203  0.3382
  429SOL     hw 1714   2.367   0.560   0.423 -0.5194 -0.0820 -0.4124
  429SOL     hw 1715   2.219   0.528   0.428 -0.4332 -0.3439  1.5518
  429SOL     vw 1716   2.302   0.505   0.441 -0.0151  0.0300  0.0441
  430SOL     ow 1717   1.270   0.004   5.336 -0.4403 -0.6370  0.3649
  430SOL     hw 1718   1.308  -0.074   5.377  1.1707 -0.1602 -0.1497
  430SOL     hw 1719   1.337   0.034   5.275 -1.3914  0.6621 -0.0821
  430SOL     vw 1720   1.284  -0.003   5.334 -0.0436  0.0269  0.0064
  431SOL     ow 1721   0.731   0.909   6.022  0.1878  0.3296  0.5085
  431SOL     hw 1722   0.689   0.883   6.104 -1.7766  0.6527 -0.3591
  431SOL     hw 1723   0.786   0.833   5.999 -0.4669 -0.4091  1.2985
  431SOL     vw 1724   0.733   0.895   6.030 -0.1470 -0.1230 -0.0749
  432SOL     ow 1725   2.089   1.745   1.116  0.5026  0.4838 -0.5072
  432SOL     hw 1726   2.133   1.660   1.107 -2.5283 -1.0612 -2.1258
  432SOL     hw 1727   2.064   1.749   1.208  0.0200 -0.7759 -0.5640
  432SOL     vw 1728   2.092   1.734   1.127 -0.1044 -0.0671 -0.0253
  433poe    c31 1729   2.297   2.245   1.530  0.2499  0.0951 -0.1850
  433poe     o2 1730   2.414   2.215   1.602  0.0659  0.3045  0.2079
  433poe    c23 1731   2.532   2.278   1.557  0.1458  0.0641  0.0750
  433poe    c23 1732   2.653   2.208   1.621 -0.0249 -0.2162  0.0911
  433poe     o2 1733   2.621   2.170   1.753  0.0570  0.0803  0.1953
  433poe    c23 1734   2.735   2.148   1.833  0.2933  0.1055 -0.1319
  433poe    c23 1735   2.786   2.003   1.826  0.0820  0.0086  0.3155
  433poe     o2 1736   2.699   1.898   1.862  0.0724 -0.0598  0.0879
  433poe    c23 1737   2.763   1.776   1.829 -0.7074 -0.3165 -0.5138
  433poe    c23 1738   2.723   1.647   1.902  0.0021 -0.3700 -0.2107
  433poe     o2 1739   2.611   1.581   1.847 -0.3979  0.0445  0.1060
  433poe    c31 1740   2.603   1.451   1.901 -0.1892  0.1311  0.3462
  434poe    c31 1741   2.340   0.723   6.605 -0.1656  0.3149  0.1001
  434poe     o2 1742   2.472   0.736   6.556 -0.2188  0.2891 -0.0503
  434poe    c23 1743   2.574   0.714   6.651 -0.2254 -0.3161 -0.1827
  434poe    c23 1744   2.722   0.723   6.610 -0.2473  0.4635 -0.1139
  434poe     o2 1745   2.777   0.852   6.594 -0.0867  0.4178  0.0599
  434poe    c23 1746   2.814   0.912   6.716  0.0303  0.2855  0.0901
  434poe    c23 1747   2.888   1.045   6.691 -0.0954  0.4916  0.7928
  434poe     o2 1748   2.808   1.151   6.642  0.2018 -0.2212 -1.3352
  434poe    c23 1749   2.875   1.274   6.644  0.1165 -0.1823  0.4519
  434poe    c23 1750   2.781   1.366   6.564 -0.1664 -0.5315  0.3828
  434poe     o2 1751   2.801   1.342   6.427 -0.2570 -0.1726  0.3069
  434poe    c31 1752   2.740   1.438   6.344 -0.5292 -0.4857  0.1444
  435poe    c31 1753   0.785   1.779   0.392 -0.4023 -0.5014 -0.1560
  435poe     o2 1754   0.656   1.834   0.380 -0.2070 -0.1019 -0.4522
  435poe    c23 1755   0.640   1.899   0.504 -0.3202 -0.2465 -0.3902
  435poe    c23 1756   0.505   1.973   0.513 -0.0352  0.1966  0.3121
  435poe     o2 1757   0.416   1.904   0.428 -0.3244  0.5220  0.3495
  435poe    c23 1758   0.289   1.964   0.443 -0.3544  0.4107  0.5408
  435poe    c23 1759   0.192   1.888   0.350  0.3797 -0.2414  0.3010
  435poe     o2 1760   0.262   1.902   0.229 -0.5077  0.5732 -0.1335
  435poe    c23 1761   0.198   1.867   0.108 -1.0384 -0.4461  0.4311
  435poe    c23 1762   0.170   1.717   0.084  0.5292 -0.6970  0.1110
  435poe     o2 1763   0.293   1.649   0.073  0.8538  0.0277 -0.8530
  435poe    c31 1764   0.260   1.516   0.041  0.0511 -0.0706  0.3178
  436poe    c31 1765   0.895   0.417   6.122  0.2906 -0.4272  0.0033
  436poe     o2 1766   0.806   0.307   6.115 -0.3374  0.0672  0.0677
  436poe    c23 1767   0.870   0.208   6.038 -0.3821  0.1299 -0.0509
  436poe    c23 1768   0.782   0.081   6.037 -0.1055 -0.0637 -0.0658
  436poe     o2 1769   0.776  -0.001   6.152  0.1489  0.5307  0.3821
  436poe    c23 1770   0.654  -0.071   6.153  0.1744  0.4870  0.4007
  436poe    c23 1771   0.658  -0.208   6.223 -0.2475  0.3312  0.1307
  436poe     o2 1772   0.685  -0.212   6.362  0.1174  0.4589  0.0657
  436poe    c23 1773   0.652  -0.340   6.412  0.3872  0.2796 -0.2133
  436poe    c23 1774   0.708  -0.367   6.553 -0.1526  0.2529 -0.0042
  436poe     o2 1775   0.848  -0.359   6.560 -0.1501  0.2311 -0.0297
  436poe    c31 1776   0.888  -0.359   6.696  0.0624 -0.0396 -0.0909
  437poe    c31 1777   2.150   2.219   2.124 -0.2349  0.4085  0.3555
  437poe     o2 1778   2.191   2.263   1.997  0.1344  0.5788  0.5313
  437poe    c23 1779   2.175   2.399   1.961 -0.1448  0.4784  0.2700
  437poe    c23 1780   2.252   2.437   1.834 -0.2415  0.1198  0.1048
  437poe     o2 1781   2.214   2.558   1.772 -0.1812 -0.0648 -0.3015
  437poe    c23 1782   2.093   2.553   1.701 -0.2594 -0.1186 -0.1661
  437poe    c23 1783   2.087   2.654   1.584  0.3026  0.4973  0.3292
  437poe     o2 1784   2.044   2.786   1.607 -0.0542  0.3580  0.4806
  437poe    c23 1785   2.024   2.859   1.488 -0.8895 -0.4846  0.0934
  437poe    c23 1786   2.017   3.005   1.536  0.2943 -0.5985  0.6412
  437poe     o2 1787   1.902   3.012   1.619 -0.4217  0.2302 -0.3902
  437poe    c31 1788   1.843   3.140   1.620 -0.8201  0.0499  0.7782
  438poe    c31 1789   1.634   0.078   2.428  0.1662 -0.0587  0.3035
  438poe     o2 1790   1.775   0.090   2.425  0.1794 -0.3279 -0.2736
  438poe    c23 1791   1.822   0.037   2.547  0.3111 -0.1964 -0.2677
  438poe    c23 1792   1.935   0.121   2.610  0.0754 -0.0069 -0.1003
  438poe     o2 1793   2.052   0.102   2.534 -0.1438  0.2555 -0.5065
  438poe    c23 1794   2.141   0.207   2.565  0.1328 -0.1628  0.1175
  438poe    c23 1795   2.275   0.156   2.507  0.2158  0.4719 -0.2574
  438poe     o2 1796   2.268   0.132   2.369  0.3050  0.1281 -0.2041
  438poe    c23 1797   2.387   0.068   2.327  0.0003 -0.3285 -0.3822
  438poe    c23 1798   2.417   0.064   2.176  0.6844 -0.3686 -0.2470
  438poe     o2 1799   2.493   0.164   2.112 -0.1469  0.0858 -0.5367
  438poe    c31 1800   2.426   0.288   2.106 -0.1337  0.1188 -0.0617
  439poe    c31 1801   2.093   0.784   0.511 -0.7572  0.0106  0.3170
  439poe     o2 1802   2.080   0.683   0.413 -0.3441  0.2357  0.0284
  439poe    c23 1803   2.043   0.751   0.295  0.1922  0.1157 -0.2114
  439poe    c23 1804   1.939   0.673   0.212 -0.0538 -0.0977  0.2929
  439poe     o2 1805   1.995   0.556   0.156  0.5657  0.1295  0.4347
  439poe    c23 1806   1.901   0.501   0.067  0.0339 -0.0311  1.0868
  439poe    c23 1807   1.949   0.375  -0.009 -0.4196  0.4398 -0.0021
  439poe     o2 1808   1.952   0.256   0.066  0.7378  0.6126  0.2424
  439poe    c23 1809   1.965   0.153  -0.030 -0.0933  0.5507  0.1849
  439poe    c23 1810   2.042   0.033   0.030  0.1973  0.3829 -0.5131
  439poe     o2 1811   2.172   0.075   0.065  0.0634  0.3166  0.0769
  439poe    c31 1812   2.235  -0.041   0.114 -0.2894  0.1156  0.0577
  440poe    c31 1813   1.146   1.644   3.230 -0.5747  0.6223 -0.3735
  440poe     o2 1814   1.081   1.534   3.291 -0.0276  0.6380  0.2417
  440poe    c23 1815   1.150   1.413   3.270 -0.3147  0.4022  0.6409
  440poe    c23 1816   1.134   1.349   3.130  0.2019  0.0242  0.7524
  440poe     o2 1817   1.009   1.298   3.092  0.3191  0.0237  0.3633
  440poe    c23 1818   1.027   1.205   2.988  0.4512  0.0518  0.3620
  440poe    c23 1819   0.893   1.145   2.943  0.5415 -0.0295  0.1979
  440poe     o2 1820   0.815   1.245   2.882 -0.0978 -0.3226  0.5248
  440poe    c23 1821   0.679   1.207   2.868 -0.1185 -0.0371 -0.0969
  440poe    c23 1822   0.610   1.309   2.776  0.1445 -0.0611 -0.3237
  440poe     o2 1823   0.583   1.427   2.849  0.3824 -0.2930  0.1417
  440poe    c31 1824   0.570   1.535   2.760 -0.1483  0.0004  0.5663
  441poe    c31 1825   1.548   0.289   3.129  0.2215  0.0911  0.4156
  441poe     o2 1826   1.587   0.193   3.224 -0.4185 -0.0863  0.5027
  441poe    c23 1827   1.578   0.253   3.351 -0.6642  0.0004  0.4456
  441poe    c23 1828   1.542   0.137   3.446 -0.3991 -0.3393  0.1327
  441poe     o2 1829   1.413   0.086   3.421 -0.2234 -0.3237 -0.8508
  441poe    c23 1830   1.399  -0.049   3.461 -0.1563 -0.0746  0.0420
  441poe    c23 1831   1.270  -0.089   3.534 -0.1353 -0.2553 -0.0182
  441poe     o2 1832   1.155  -0.087   3.452  0.1030 -0.0334 -0.3503
  441poe    c23 1833   1.058  -0.006   3.515  0.0913 -0.2845 -0.0427
  441poe    c23 1834   0.945   0.025   3.415  0.1108 -0.8056 -0.2312
  441poe     o2 1835   0.997   0.075   3.293 -0.1986 -0.3871 -0.1959
  441poe    c31 1836   0.895   0.129   3.212 -0.2832  0.0356  0.1889
  442poe    c31 1837   1.723   1.730   6.789 -0.7308  0.0925 -0.1412
  442poe     o2 1838   1.830   1.801   6.849 -0.1471 -0.5309 -0.4423
  442poe    c23 1839   1.939   1.721   6.890 -0.0253 -0.1654 -0.0503
  442poe    c23 1840   2.045   1.808   6.959  0.1389 -0.6526  0.3144
  442poe     o2 1841   2.008   1.895   7.063  0.4804 -0.2859  0.1330
  442poe    c23 1842   2.119   1.978   7.088 -0.0522  0.3704  0.3399
  442poe    c23 1843   2.170   1.973   7.233  0.3432  0.7068  0.2178
  442poe     o2 1844   2.068   1.993   7.328  0.1007 -0.3606  0.1956
  442poe    c23 1845   2.110   1.981   7.462 -0.3424  0.3324  0.4029
  442poe    c23 1846   2.056   1.853   7.530 -0.5337  0.0275 -0.3161
  442poe     o2 1847   1.920   1.860   7.568 -0.3583 -0.1340  0.3430
  442poe    c31 1848   1.823   1.811   7.478 -0.4451  0.2833  0.2078
  443poe    c31 1849   1.246   0.841   4.490  0.9736 -0.0073 -0.0949
  443poe     o2 1850   1.280   0.978   4.501 -0.0711  0.2658 -0.2181
  443poe    c23 1851   1.350   1.032   4.391 -0.3172  0.4736 -0.2720
  443poe    c23 1852   1.439   1.146   4.443 -0.0207 -0.1101  0.5011
  443poe     o2 1853   1.364   1.264   4.458 -0.0037  0.0397 -0.5210
  443poe    c23 1854   1.464   1.361   4.482  0.1840 -0.4023  0.5795
  443poe    c23 1855   1.407   1.502   4.507  0.2679 -0.3354  0.3974
  443poe     o2 1856   1.326   1.519   4.621 -0.3827 -1.0336  0.0509
  443poe    c23 1857   1.275   1.651   4.624  0.7379 -0.6005  0.4575
  443poe    c23 1858   1.196   1.664   4.756 -0.0716 -0.2675 -0.0495
  443poe     o2 1859   1.279   1.624   4.863 -0.1245 -0.2713 -0.0094
  443poe    c31 1860   1.226   1.685   4.978 -0.2579 -0.1243 -0.1495
  444poe    c31 1861   2.419   1.484   6.823 -0.0330 -0.4021  0.3897
  444poe     o2 1862   2.373   1.351   6.819 -0.5258 -0.2197 -0.2997
  444poe    c23 1863   2.461   1.251   6.864 -0.0425  0.1638 -0.3930
  444poe    c23 1864   2.405   1.110   6.837  0.0506  0.0211  0.1306
  444poe     o2 1865   2.281   1.108   6.905 -0.1053 -0.1561 -0.1551
  444poe    c23 1866   2.188   1.021   6.845 -0.1633 -0.0600 -0.2065
  444poe    c23 1867   2.063   1.040   6.932  0.4501  0.7494  0.5141
  444poe     o2 1868   2.010   1.169   6.917 -0.5434  0.2771 -0.1366
  444poe    c23 1869   1.873   1.165   6.949 -0.6060 -0.2234 -0.4579
  444poe    c23 1870   1.823   1.308   6.976 -0.0901 -0.1713  0.2434
  444poe     o2 1871   1.895   1.374   7.078  0.2803  0.2619 -0.2915
  444poe    c31 1872   1.830   1.348   7.200  0.7043 -1.1753 -0.3513
  445poe    c31 1873   1.898   1.106   1.406  0.0006 -0.2948 -0.5852
  445poe     o2 1874   1.811   1.202   1.350 -0.6524 -0.1832  0.5754
  445poe    c23 1875   1.863   1.327   1.390 -0.8089 -0.0791  0.4560
  445poe    c23 1876   1.799   1.438   1.305 -0.2562 -0.1832 -0.1029
  445poe     o2 1877   1.836   1.445   1.169 -0.0774 -0.0080 -0.0453
  445poe    c23 1878   1.754   1.542   1.107 -0.0140 -0.0879 -0.2566
  445poe    c23 1879   1.789   1.547   0.957 -0.0579  0.2678 -0.2557
  445poe     o2 1880   1.750   1.430   0.889  0.1347 -0.1630  0.3619
  445poe    c23 1881   1.736   1.447   0.750 -0.0990 -0.3196  0.3656
  445poe    c23 1882   1.639   1.357   0.671 -0.0286  0.3862 -0.5481
  445poe     o2 1883   1.685   1.224   0.666  0.0560  0.3803  0.1866
  445poe    c31 1884   1.597   1.153   0.582 -0.3641  0.6553  0.3925
  446poe    c31 1885   1.736   2.439   6.623 -0.3437 -0.3651  0.4142
  446poe     o2 1886   1.613   2.468   6.686 -0.3609 -0.2195  0.3150
  446poe    c23 1887   1.614   2.466   6.827  0.1262 -0.1577  0.3149
  446poe    c23 1888   1.472   2.491   6.882 -0.5772 -0.5818 -1.2467
  446poe     o2 1889   1.439   2.619   6.832  0.3669  0.1636 -0.0063
  446poe    c23 1890   1.322   2.670   6.891  0.1023 -0.4002 -0.0400
  446poe    c23 1891   1.278   2.806   6.833  0.3701 -0.2484  0.1156
  446poe     o2 1892   1.365   2.916   6.844  0.0583 -0.0031  0.1370
  446poe    c23 1893   1.380   2.976   6.971 -0.1185  0.0538  0.1309
  446poe    c23 1894   1.478   3.093   6.957 -0.2840  0.1959  0.1578
  446poe     o2 1895   1.432   3.210   6.892 -0.3478  0.1976  0.2061
  446poe    c31 1896   1.526   3.313   6.911  0.6186 -0.5754 -0.2696
  447poe    c31 1897   0.420   0.149   3.241 -0.2284 -0.0034  0.3607
  447poe     o2 1898   0.416   0.069   3.125  0.2040  0.0605  0.3013
  447poe    c23 1899   0.312  -0.023   3.147  0.0225  0.1976  0.0191
  447poe    c23 1900   0.262  -0.105   3.027  1.1439  0.1447 -0.4204
  447poe     o2 1901   0.184  -0.018   2.947  0.2830 -0.1458  0.0930
  447poe    c23 1902   0.210  -0.029   2.809 -0.7872  0.3257 -0.1544
  447poe    c23 1903   0.135  -0.141   2.735  0.0231 -0.1229 -0.3055
  447poe     o2 1904   0.217  -0.184   2.628  0.4047 -0.5953  0.1724
  447poe    c23 1905   0.166  -0.292   2.553  0.1045 -0.3194 -0.0209
  447poe    c23 1906   0.251  -0.311   2.426 -0.3923 -0.3036 -0.3623
  447poe     o2 1907   0.248  -0.207   2.331 -0.5219 -0.0625 -0.0975
  447poe    c31 1908   0.307  -0.237   2.206 -0.0690  0.5808 -0.0448
  448poe    c31 1909   1.684   0.014   5.582 -0.2150  0.5599 -0.5100
  448poe     o2 1910   1.815   0.024   5.531 -0.2600 -0.2557 -0.8139
  448poe    c23 1911   1.905  -0.041   5.618 -0.4328  0.3293 -0.1847
  448poe    c23 1912   2.030  -0.077   5.535 -0.5116  0.0808 -0.1948
  448poe     o2 1913   1.999  -0.162   5.427 -0.1552  0.0652 -0.2864
  448poe    c23 1914   2.046  -0.288   5.470  0.1659  0.2108 -0.2104
  448poe    c23 1915   2.011  -0.408   5.380  0.0256  0.2192 -0.1683
  448poe     o2 1916   2.092  -0.434   5.268  0.4185  0.2086  0.1160
  448poe    c23 1917   2.201  -0.515   5.310  0.2434  0.0858  0.3374
  448poe    c23 1918   2.294  -0.535   5.189  0.2056  0.6510  0.2119
  448poe     o2 1919   2.241  -0.577   5.066 -0.3660  0.5163  0.5050
  448poe    c31 1920   2.330  -0.543   4.963 -0.3603  0.0746  0.3585
  449poe    c31 1921   1.333   1.130   1.767 -0.3466  0.1896  0.0118
  449poe     o2 1922   1.233   1.059   1.698 -0.0618 -0.0242 -0.1866
  449poe    c23 1923   1.269   0.923   1.697 -0.1518 -0.0461 -0.3964
  449poe    c23 1924   1.164   0.838   1.623  0.5967 -0.9253 -0.4783
  449poe     o2 1925   1.182   0.863   1.485  0.0080  0.8924 -0.2546
  449poe    c23 1926   1.100   0.779   1.407 -0.1051  0.5815  0.1919
  449poe    c23 1927   1.064   0.825   1.264  0.2104  0.2919  0.0162
  449poe     o2 1928   0.970   0.931   1.261 -0.5226 -0.3305  0.4586
  449poe    c23 1929   0.959   0.977   1.128  0.3555  0.1710  0.5474
  449poe    c23 1930   0.871   1.103   1.111 -0.0138 -0.1963 -0.3066
  449poe     o2 1931   0.957   1.213   1.130  0.2012 -0.4745  0.3589
  449poe    c31 1932   0.880   1.330   1.110  0.1886 -0.5111  0.1950
  450poe    c31 1933   0.181   0.379   0.750  0.1081 -0.2974  0.0858
  450poe     o2 1934   0.048   0.332   0.742  0.1260 -0.3022 -0.1951
  450poe    c23 1935   0.046   0.191   0.754  0.1231 -0.2934 -0.0921
  450poe    c23 1936  -0.078   0.129   0.821  0.0105 -0.2204 -0.2301
  450poe     o2 1937  -0.199   0.135   0.750 -0.2010  0.7094  0.1966
  450poe    c23 1938  -0.290   0.086   0.845  0.0680 -0.2230 -0.0201
  450poe    c23 1939  -0.437   0.092   0.798 -0.1502 -0.0569  0.6695
  450poe     o2 1940  -0.473   0.013   0.686  0.0055  0.5886  0.1595
  450poe    c23 1941  -0.610   0.016   0.653 -0.0550  0.0367  0.3589
  450poe    c23 1942  -0.672  -0.103   0.577  0.1666  0.0454  0.1640
  450poe     o2 1943  -0.661  -0.223   0.651 -0.2277 -0.1331 -0.0668
  450poe    c31 1944  -0.772  -0.299   0.610 -0.4601 -0.0211  0.3562
  451poe    c31 1945   2.054   0.095   4.871  0.1805 -0.1909  0.0952
  451poe     o2 1946   2.140  -0.013   4.842  0.7776  0.3792 -0.2563
  451poe    c23 1947   2.167   0.012   4.706 -0.3733  0.3451 -0.4943
  451poe    c23 1948   2.210  -0.114   4.627 -0.1364  0.2129 -0.1556
  451poe     o2 1949   2.341  -0.157   4.658 -0.2891 -0.0620  0.1201
  451poe    c23 1950   2.345  -0.261   4.753 -0.7427 -0.3596 -0.1810
  451poe    c23 1951   2.493  -0.298   4.775 -0.7566  0.0653  0.6516
  451poe     o2 1952   2.546  -0.226   4.884 -0.2335  0.3676  0.1993
  451poe    c23 1953   2.683  -0.246   4.913 -0.4015 -0.6031  0.3495
  451poe    c23 1954   2.714  -0.354   5.018  0.2956 -0.1408  0.6259
  451poe     o2 1955   2.670  -0.327   5.149 -0.0708 -0.4800  0.5759
  451poe    c31 1956   2.672  -0.454   5.211  0.3624 -0.7816 -0.0347
  452poe    c31 1957   0.243   0.321   2.980  0.0110  0.6871  0.2771
  452poe     o2 1958   0.332   0.392   2.896 -0.1123 -0.6091 -0.9875
  452poe    c23 1959   0.263   0.498   2.835  0.0911 -0.0251 -0.2179
  452poe    c23 1960   0.359   0.582   2.750  0.2730  0.1710  0.1798
  452poe     o2 1961   0.425   0.508   2.650  0.2566  0.3203  0.0582
  452poe    c23 1962   0.551   0.564   2.620  0.5767 -0.1824  0.4608
  452poe    c23 1963   0.628   0.466   2.529 -0.3622 -0.3382 -0.1780
  452poe     o2 1964   0.691   0.355   2.590  0.3470 -0.0456 -0.3741
  452poe    c23 1965   0.805   0.394   2.663 -0.0310  0.1221  0.1242
  452poe    c23 1966   0.885   0.266   2.694 -0.2473 -0.1372 -0.3845
  452poe     o2 1967   0.830   0.166   2.776  0.3604 -0.3319 -0.2140
  452poe    c31 1968   0.928   0.065   2.794 -0.1980 -0.7224  0.7283
  453poe    c31 1969   2.376   0.372   2.865 -0.7747  0.9045 -0.1640
  453poe     o2 1970   2.342   0.489   2.936 -0.2083  0.9446  0.0526
  453poe    c23 1971   2.318   0.473   3.074  0.2330 -0.2137  0.0087
  453poe    c23 1972   2.356   0.602   3.149  0.1660 -0.4108  0.3804
  453poe     o2 1973   2.295   0.600   3.276 -0.5267 -0.3098  0.0498
  453poe    c23 1974   2.301   0.731   3.330 -0.3622 -0.0993 -0.4776
  453poe    c23 1975   2.213   0.766   3.451  0.4553 -0.0733  0.1195
  453poe     o2 1976   2.276   0.716   3.566  0.1268  0.1434  0.3967
  453poe    c23 1977   2.263   0.794   3.683  0.2089  0.3936  0.2391
  453poe    c23 1978   2.321   0.712   3.799 -0.4777  1.0145  1.0342
  453poe     o2 1979   2.237   0.601   3.825  0.2226  0.0989 -0.4435
  453poe    c31 1980   2.188   0.614   3.957  0.3234 -0.2908 -0.3687
  454poe    c31 1981   0.650   2.338   2.406 -1.0836 -0.2880 -0.0258
  454poe     o2 1982   0.611   2.470   2.375 -0.2530  0.0382  0.2842
  454poe    c23 1983   0.696   2.525   2.277  0.0819 -0.1426  0.4709
  454poe    c23 1984   0.664   2.667   2.228  0.2930 -0.4178 -0.4807
  454poe     o2 1985   0.773   2.752   2.199 -0.0952  0.1912 -0.1916
  454poe    c23 1986   0.732   2.886   2.185  0.0265  0.2888  0.3996
  454poe    c23 1987   0.798   2.957   2.066 -0.1327 -0.0832  0.0882
  454poe     o2 1988   0.732   2.940   1.942  0.7676 -0.1790 -0.3876
  454poe    c23 1989   0.737   3.060   1.869  0.2513 -0.0391 -0.1972
  454poe    c23 1990   0.708   3.043   1.719  0.4749  0.6606 -0.3239
  454poe     o2 1991   0.806   2.980   1.639 -0.0852 -0.4503 -0.1530
  454poe    c31 1992   0.757   2.921   1.521 -0.3081 -0.2942 -0.1405
  455poe    c31 1993   1.544   1.441   5.202  0.0421  0.5450  0.4589
  455poe     o2 1994   1.568   1.529   5.094 -0.4177 -0.1774 -0.2448
  455poe    c23 1995   1.613   1.653   5.144  0.0464 -0.3010 -0.3514
  455poe    c23 1996   1.607   1.742   5.019  0.1945  0.2829  0.0528
  455poe     o2 1997   1.732   1.742   4.952  0.1415  0.6064 -0.0493
  455poe    c23 1998   1.685   1.728   4.820 -0.2615 -0.2018  0.1728
  455poe    c23 1999   1.793   1.680   4.721  0.0505  0.3124  0.2607
  455poe     o2 2000   1.886   1.785   4.722  0.0969  0.2735 -0.0185
  455poe    c23 2001   1.999   1.762   4.640  0.2550 -0.1079  0.3026
  455poe    c23 2002   2.126   1.839   4.680  0.3365 -0.0069 -0.1435
  455poe     o2 2003   2.124   1.978   4.655 -0.3139  0.0082 -0.0265
  455poe    c31 2004   2.168   2.008   4.525 -0.1463 -0.1928 -0.0166
  456poe    c31 2005   2.192   1.429   4.839  0.1528 -0.5818  0.2230
  456poe     o2 2006   2.092   1.481   4.923  0.2021  0.0626 -0.1090
  456poe    c23 2007   2.007   1.375   4.961  0.4056 -0.1489 -0.2471
  456poe    c23 2008   1.897   1.418   5.059  0.8288 -0.2995  0.3050
  456poe     o2 2009   1.932   1.431   5.195 -0.1994 -0.1887  0.5690
  456poe    c23 2010   2.019   1.533   5.237 -0.3431  0.0740  0.2291
  456poe    c23 2011   1.968   1.566   5.378 -0.0725  0.5101  0.2296
  456poe     o2 2012   1.996   1.475   5.483  0.3163  0.5693  0.1761
  456poe    c23 2013   1.913   1.476   5.597 -0.0548 -0.3534 -0.0752
  456poe    c23 2014   1.916   1.343   5.674  0.3936 -0.1465  0.2743
  456poe     o2 2015   1.854   1.241   5.599  0.5344 -0.0483  0.0234
  456poe    c31 2016   1.877   1.117   5.662  0.3117 -0.0156  0.1685
  457poe    c31 2017   1.514   0.673   5.794 -0.6433 -0.4237 -0.3477
  457poe     o2 2018   1.537   0.791   5.720 -0.8618 -0.0320  0.1991
  457poe    c23 2019   1.548   0.753   5.584  1.1330  0.1199  0.2926
  457poe    c23 2020   1.579   0.879   5.501  0.3217  0.1455  0.0188
  457poe     o2 2021   1.470   0.968   5.497  0.0137 -0.2107  0.2794
  457poe    c23 2022   1.518   1.101   5.487 -0.7147  0.0064 -0.3910
  457poe    c23 2023   1.444   1.197   5.581 -0.1491  0.5048 -0.4484
  457poe     o2 2024   1.499   1.214   5.709 -0.0624 -0.0028 -0.4158
  457poe    c23 2025   1.533   1.349   5.732 -0.5447  0.0348  0.1051
  457poe    c23 2026   1.574   1.361   5.880  0.4123 -0.4838 -0.1127
  457poe     o2 2027   1.464   1.363   5.968  0.5210 -0.3270  0.0209
  457poe    c31 2028   1.438   1.233   6.014 -0.1991 -0.1454  0.1393
  458poe    c31 2029   1.291   1.459   6.522  0.5070 -0.1118 -0.0315
  458poe     o2 2030   1.316   1.453   6.661 -0.0049  0.0711  0.0700
  458poe    c23 2031   1.208   1.519   6.724 -0.2351 -0.1490 -0.0890
  458poe    c23 2032   1.232   1.517   6.876 -0.1395 -0.4876 -0.1069
  458poe     o2 2033   1.354   1.582   6.904 -0.3513 -0.0640 -0.1593
  458poe    c23 2034   1.379   1.568   7.042 -0.5255 -0.0846 -0.1301
  458poe    c23 2035   1.519   1.620   7.081 -0.5034 -0.1000 -0.1895
  458poe     o2 2036   1.536   1.760   7.079  0.1665 -0.1674  0.4954
  458poe    c23 2037   1.654   1.790   7.149  0.2536 -0.1124  0.3244
  458poe    c23 2038   1.720   1.928   7.130  0.0704 -0.1379 -0.5136
  458poe     o2 2039   1.666   2.035   7.204  0.1017 -0.0503 -0.6163
  458poe    c31 2040   1.754   2.145   7.213  0.2578 -0.2222  0.0044
  459poe    c31 2041   1.001   2.323   1.876  0.6553 -0.3636 -0.1952
  459poe     o2 2042   1.052   2.285   1.750  0.1237  0.0201 -0.5316
  459poe    c23 2043   1.187   2.325   1.743  0.1388  0.1284  0.2449
  459poe    c23 2044   1.278   2.200   1.747  0.0037 -0.0002 -0.4951
  459poe     o2 2045   1.268   2.109   1.640  0.1122 -0.5366 -0.0488
  459poe    c23 2046   1.304   2.158   1.513  0.0819 -0.2005  0.0731
  459poe    c23 2047   1.336   2.047   1.412 -0.1480 -0.2724  0.0787
  459poe     o2 2048   1.217   1.976   1.389 -0.3205  0.0301  0.0384
  459poe    c23 2049   1.187   1.952   1.253  0.5799  0.1557 -0.1878
  459poe    c23 2050   1.073   1.849   1.247  0.1931  0.5909 -0.4812
  459poe     o2 2051   0.974   1.879   1.343  0.0460 -0.3451 -0.3233
  459poe    c31 2052   0.847   1.834   1.301  0.0498 -0.8127  0.1585
  460poe    c31 2053   0.225   1.466   3.333 -0.3133  0.1872  0.1393
  460poe     o2 2054   0.285   1.587   3.374  0.0814 -0.1423  0.5510
  460poe    c23 2055   0.328   1.583   3.509  0.3719  0.0018  0.4624
  460poe    c23 2056   0.432   1.692   3.541  0.3650  0.1528 -0.0146
  460poe     o2 2057   0.368   1.813   3.508  0.3831  0.0708 -0.3561
  460poe    c23 2058   0.472   1.905   3.481  0.3466  0.2654  0.1473
  460poe    c23 2059   0.429   2.022   3.391 -0.0616  0.2652  0.3385
  460poe     o2 2060   0.379   1.979   3.266  0.2883  0.3057  0.1803
  460poe    c23 2061   0.318   2.086   3.197 -0.2195  0.2928  0.6008
  460poe    c23 2062   0.230   2.024   3.087  0.7260  0.2132 -0.1242
  460poe     o2 2063   0.137   1.931   3.138  0.0287  0.6865 -0.5101
  460poe    c31 2064   0.022   1.969   3.210  0.0315 -0.4159  0.1078
  461poe    c31 2065   0.498   0.219   6.359 -0.3787  0.3360 -0.3689
  461poe     o2 2066   0.418   0.126   6.428 -0.0408  0.3470  0.0424
  461poe    c23 2067   0.500   0.027   6.486  0.2199  0.4440 -0.1643
  461poe    c23 2068   0.458  -0.046   6.614  0.1220 -0.0770 -0.4920
  461poe     o2 2069   0.336  -0.115   6.595 -0.0763  0.0506  0.2837
  461poe    c23 2070   0.289  -0.185   6.708 -0.6826  0.0754  0.0483
  461poe    c23 2071   0.157  -0.140   6.775 -0.3922  0.2302  0.5243
  461poe     o2 2072   0.160  -0.040   6.874  0.1774  0.4383  0.3024
  461poe    c23 2073   0.048   0.043   6.853  0.0504  0.0426 -0.6123
  461poe    c23 2074   0.100   0.188   6.856  0.1434 -0.0027  0.0092
  461poe     o2 2075   0.161   0.204   6.730  0.6973 -0.1636  0.2533
  461poe    c31 2076   0.208   0.336   6.718  0.2914  0.0049  0.4695
  462poe    c31 2077   0.989   0.104   4.599  0.1374 -0.3063  0.5939
  462poe     o2 2078   0.936  -0.002   4.523 -0.0481 -0.0555  0.3718
  462poe    c23 2079   0.811   0.027   4.465 -0.2546  0.0095  0.8458
  462poe    c23 2080   0.737  -0.086   4.391  0.0322  0.0691  0.4610
  462poe     o2 2081   0.807  -0.132   4.278 -0.4481 -0.8111  0.5038
  462poe    c23 2082   0.732  -0.221   4.200 -0.3089 -0.4090 -0.0987
  462poe    c23 2083   0.782  -0.202   4.056 -0.0347  0.5126  0.1142
  462poe     o2 2084   0.917  -0.235   4.034 -0.0905  0.3870 -0.0474
  462poe    c23 2085   0.955  -0.186   3.908 -0.6624  0.2868 -0.2611
  462poe    c23 2086   1.063  -0.278   3.847 -0.1487  0.3162  0.5928
  462poe     o2 2087   1.184  -0.284   3.919 -0.0754 -0.1567  0.4332
  462poe    c31 2088   1.288  -0.309   3.827 -0.2262 -0.3681  0.3207
  463poe    c31 2089   1.242   1.387   0.921 -0.0055 -0.7411  0.3018
  463poe     o2 2090   1.221   1.260   0.862  0.0267 -0.3846 -0.4841
  463poe    c23 2091   1.085   1.239   0.831 -0.1327 -0.2088  0.0797
  463poe    c23 2092   1.065   1.122   0.733 -0.7576 -0.2146  0.2120
  463poe     o2 2093   1.133   1.007   0.779  0.1577  0.1893 -0.1046
  463poe    c23 2094   1.204   0.946   0.674 -0.0054 -0.4671  0.1594
  463poe    c23 2095   1.274   0.821   0.731 -0.2382 -0.3102  0.7904
  463poe     o2 2096   1.359   0.834   0.844  0.5141  0.0558  0.1950
  463poe    c23 2097   1.384   0.709   0.904 -0.6034 -0.2016  0.1530
  463poe    c23 2098   1.485   0.727   1.019 -0.0599  0.0986 -0.3655
  463poe     o2 2099   1.443   0.802   1.130  0.5583 -0.1034  0.0100
  463poe    c31 2100   1.525   0.780   1.242  0.4640  0.6770  0.2382
  464poe    c31 2101   1.952   1.141   3.460  0.3412  0.4591 -0.1622
  464poe     o2 2102   1.877   1.061   3.372 -0.2245  0.2034  0.5511
  464poe    c23 2103   1.860   1.115   3.243  0.7699 -0.1466  0.2621
  464poe    c23 2104   1.811   1.016   3.136  0.3195 -0.3700  0.6639
  464poe     o2 2105   1.909   0.937   3.071  0.2687 -0.1736  0.3413
  464poe    c23 2106   1.947   0.997   2.950 -0.4588 -0.1916  0.0944
  464poe    c23 2107   2.045   0.906   2.874 -0.1739 -0.1259  0.3776
  464poe     o2 2108   1.984   0.780   2.861 -0.3579  0.0195 -0.1938
  464poe    c23 2109   2.079   0.676   2.850 -0.1120  0.2334 -0.0909
  464poe    c23 2110   2.022   0.533   2.859 -0.1927  0.2820  0.1828
  464poe     o2 2111   1.955   0.515   2.982 -0.1598  0.1756  0.1854
  464poe    c31 2112   1.859   0.414   2.961  0.0956  0.0956 -0.6309
  465poe    c31 2113   0.327   2.044   6.278 -0.3979 -0.5076 -0.2262
  465poe     o2 2114   0.206   2.114   6.262 -0.1343  0.1634  0.6267
  465poe    c23 2115   0.135   2.069   6.149  0.4425  0.1945  0.2535
  465poe    c23 2116  -0.017   2.088   6.163  0.3829 -0.2496  0.2469
  465poe     o2 2117  -0.070   2.218   6.143  0.3533 -0.2686  0.2014
  465poe    c23 2118  -0.207   2.215   6.173  0.4769  0.2469  0.8308
  465poe    c23 2119  -0.285   2.348   6.169  0.2818  0.1129  0.1745
  465poe     o2 2120  -0.222   2.455   6.235  0.4762  0.3463 -0.3793
  465poe    c23 2121  -0.303   2.564   6.274 -0.0924 -0.2087  0.0143
  465poe    c23 2122  -0.319   2.583   6.426  0.2865  0.5230 -0.0322
  465poe     o2 2123  -0.209   2.588   6.514  0.3044 -0.3133  0.0042
  465poe    c31 2124  -0.203   2.707   6.590 -0.7584 -0.4182  0.2688
  466poe    c31 2125   1.048   2.335   1.303  0.2588 -0.0417 -0.4794
  466poe     o2 2126   0.932   2.364   1.229 -0.0624 -0.7003 -0.2418
  466poe    c23 2127   0.868   2.252   1.172 -0.3838 -0.7643  0.2405
  466poe    c23 2128   0.748   2.290   1.083  0.0278 -0.6343 -0.2630
  466poe     o2 2129   0.773   2.366   0.967  0.3512 -0.2704  0.0408
  466poe    c23 2130   0.668   2.352   0.874  0.2898 -0.2694  0.1100
  466poe    c23 2131   0.693   2.452   0.760  0.3498 -0.3932  0.0147
  466poe     o2 2132   0.683   2.590   0.790  0.0409 -0.4680  0.2513
  466poe    c23 2133   0.682   2.677   0.680 -0.0442  0.2270  0.7946
  466poe    c23 2134   0.547   2.679   0.605  0.3504  0.0493  0.0715
  466poe     o2 2135   0.522   2.562   0.529 -0.8769  0.3589 -0.0189
  466poe    c31 2136   0.448   2.608   0.419 -0.1095 -0.1633 -0.7665
  467poe    c31 2137   1.312   1.704   2.319 -0.5998  0.1268 -0.3462
  467poe     o2 2138   1.255   1.820   2.261  0.0490  0.6097 -0.0321
  467poe    c23 2139   1.325   1.863   2.147  0.1716  0.4354 -0.0233
  467poe    c23 2140   1.257   1.988   2.087 -0.1887  0.5417  0.6008
  467poe     o2 2141   1.298   2.103   2.157 -0.3264  0.4320  0.8637
  467poe    c23 2142   1.431   2.142   2.132 -0.2173 -0.4179  0.0664
  467poe    c23 2143   1.436   2.288   2.181 -0.6101 -0.3321 -0.1480
  467poe     o2 2144   1.385   2.381   2.087 -0.2319 -0.1999 -0.2214
  467poe    c23 2145   1.486   2.434   2.004 -0.6330  0.7529 -0.1118
  467poe    c23 2146   1.573   2.551   2.054  0.1928 -0.0252  0.3202
  467poe     o2 2147   1.491   2.665   2.070 -0.4464 -0.3953 -0.2537
  467poe    c31 2148   1.573   2.767   2.122  0.0256 -1.0504  0.2977
  468poe    c31 2149   0.329   1.063   3.785  0.6755 -0.2864 -0.5255
  468poe     o2 2150   0.444   1.102   3.713  0.8954 -0.3646 -0.2170
  468poe    c23 2151   0.413   1.112   3.576  0.2210  0.3185 -0.0209
  468poe    c23 2152   0.525   1.106   3.470 -0.1896 -0.2297 -0.4254
  468poe     o2 2153   0.629   1.012   3.486  0.0195  0.1130  0.2465
  468poe    c23 2154   0.682   1.031   3.357 -0.1384 -0.5137  0.0855
  468poe    c23 2155   0.830   0.988   3.349 -0.1682 -0.4566 -0.7815
  468poe     o2 2156   0.853   0.877   3.432 -0.0482  0.4895  0.4813
  468poe    c23 2157   0.989   0.873   3.470 -0.1231  0.3044  0.7306
  468poe    c23 2158   0.995   0.773   3.587  0.2772 -0.2473  0.2373
  468poe     o2 2159   0.889   0.804   3.674 -0.3354 -0.3495 -0.4564
  468poe    c31 2160   0.907   0.724   3.789  1.0267 -0.4233 -0.7026
  469poe    c31 2161   1.939   1.138   3.892 -0.1027 -0.2930 -0.1184
  469poe     o2 2162   2.039   1.141   3.793  0.5704 -0.7076  0.5390
  469poe    c23 2163   2.146   1.219   3.842  0.1076  0.4009 -0.1704
  469poe    c23 2164   2.232   1.265   3.723  0.1081 -0.0473 -0.3462
  469poe     o2 2165   2.169   1.365   3.647 -0.1371  0.4061  0.4383
  469poe    c23 2166   2.262   1.451   3.585  0.1208 -0.0065  0.2465
  469poe    c23 2167   2.225   1.466   3.436  0.3264 -0.2386  0.1707
  469poe     o2 2168   2.106   1.538   3.415  0.4255 -0.1042  0.0650
  469poe    c23 2169   2.060   1.518   3.284 -0.1895  0.5491  0.1703
  469poe    c23 2170   1.911   1.556   3.279 -0.3057  0.0187 -0.7478
  469poe     o2 2171   1.834   1.491   3.377  0.0497  0.6177 -0.0605
  469poe    c31 2172   1.700   1.525   3.349 -0.0293  0.3277 -0.0429
  470poe    c31 2173   0.713   0.942   5.421  0.7106  0.1667  0.8415
  470poe     o2 2174   0.726   0.897   5.554 -0.3260 -0.0388  0.8841
  470poe    c23 2175   0.768   0.763   5.546  0.0114  0.1185 -0.1537
  470poe    c23 2176   0.665   0.656   5.589  0.1732 -0.1185 -0.3496
  470poe     o2 2177   0.683   0.625   5.725  0.1209 -0.0965 -0.3374
  470poe    c23 2178   0.583   0.536   5.770 -0.0032  0.0809 -0.2612
  470poe    c23 2179   0.586   0.504   5.921 -0.2079 -0.3477 -0.3480
  470poe     o2 2180   0.549   0.609   6.007  0.2873 -0.3717 -0.1034
  470poe    c23 2181   0.529   0.561   6.138 -0.5552  0.2359  0.0009
  470poe    c23 2182   0.519   0.663   6.252 -0.1208 -0.0683  0.3177
  470poe     o2 2183   0.605   0.772   6.227 -0.0628 -0.2275 -0.1919
  470poe    c31 2184   0.611   0.849   6.345 -0.6803 -0.1341 -0.2139
  471poe    c31 2185   0.155   2.245   1.222 -0.6866  0.3651 -0.2153
  471poe     o2 2186   0.130   2.108   1.200  0.6980 -0.0716  0.7844
  471poe    c23 2187   0.228   2.036   1.129 -0.1730 -0.1756 -0.3434
  471poe    c23 2188   0.186   1.892   1.098  0.2480 -0.3262 -0.2238
  471poe     o2 2189   0.056   1.873   1.046  0.2018  0.0644 -0.2487
  471poe    c23 2190   0.062   1.859   0.906  0.0434 -0.7186 -0.1791
  471poe    c23 2191  -0.057   1.786   0.842 -0.0954 -0.5141 -0.1539
  471poe     o2 2192  -0.088   1.664   0.906 -0.0240 -0.4631 -0.0207
  471poe    c23 2193  -0.206   1.601   0.859  0.2243 -0.0680 -1.2161
  471poe    c23 2194  -0.251   1.468   0.921 -0.0649  0.4955 -0.1931
  471poe     o2 2195  -0.312   1.481   1.048 -0.1933  0.0031 -0.1997
  471poe    c31 2196  -0.375   1.361   1.084  0.0557  0.2349  1.0278
  472poe    c31 2197   1.831   0.701   3.772  0.6867  0.4189 -0.4054
  472poe     o2 2198   1.792   0.814   3.697 -0.3384  0.2012 -0.2056
  472poe    c23 2199   1.680   0.876   3.757 -0.2820 -0.3592  0.4972
  472poe    c23 2200   1.640   0.997   3.670  0.3725 -0.4127  0.1192
  472poe     o2 2201   1.578   0.972   3.545 -0.4206  0.2552  0.3754
  472poe    c23 2202   1.514   1.087   3.495  0.3991  0.5395 -0.0337
  472poe    c23 2203   1.457   1.055   3.356 -0.0540  0.2836  0.2117
  472poe     o2 2204   1.356   0.956   3.346  0.2340  0.0149 -0.0901
  472poe    c23 2205   1.378   0.880   3.230 -0.1338 -0.0851 -0.0950
  472poe    c23 2206   1.283   0.760   3.217 -0.1426 -0.1564  0.5798
  472poe     o2 2207   1.320   0.668   3.317 -0.2769 -0.3679  0.4393
  472poe    c31 2208   1.271   0.541   3.283  0.1183 -0.4261  0.0844
  473poe    c31 2209   0.077   1.960   2.142  0.4862  0.2764 -0.7447
  473poe     o2 2210  -0.044   1.937   2.073 -0.2055 -0.3244  0.6228
  473poe    c23 2211  -0.110   1.828   2.133  0.3490 -0.8230  0.3465
  473poe    c23 2212  -0.180   1.742   2.027 -0.6118 -0.1228  0.3954
  473poe     o2 2213  -0.286   1.818   1.973 -0.1056 -0.0191 -0.4831
  473poe    c23 2214  -0.349   1.787   1.851 -0.6589 -0.0583 -0.1930
  473poe    c23 2215  -0.425   1.654   1.865 -0.3111 -0.3289 -0.8220
  473poe     o2 2216  -0.338   1.545   1.844  0.2289  0.1034 -0.8525
  473poe    c23 2217  -0.416   1.442   1.787 -0.3548 -0.2426  0.5288
  473poe    c23 2218  -0.327   1.316   1.794  0.0799  0.0244 -0.1291
  473poe     o2 2219  -0.225   1.315   1.696  0.2619 -0.3962  0.0641
  473poe    c31 2220  -0.128   1.213   1.706  0.5760 -0.1074 -0.0526
  474poe    c31 2221   2.194   1.110   5.977  0.1636 -0.2158 -0.1801
  474poe     o2 2222   2.183   0.976   6.020 -0.5363 -0.0010  0.3409
  474poe    c23 2223   2.059   0.923   5.978 -0.4755  0.2359 -0.1467
  474poe    c23 2224   2.051   0.774   6.014 -0.1205  0.2143 -0.1553
  474poe     o2 2225   2.170   0.708   5.976 -0.3376 -0.0214 -0.4345
  474poe    c23 2226   2.154   0.573   6.011  0.3322 -0.1212 -0.4959
  474poe    c23 2227   2.280   0.487   5.994  0.5040 -0.0254  0.2579
  474poe     o2 2228   2.389   0.553   6.056  0.6119  0.2970 -0.2725
  474poe    c23 2229   2.508   0.486   6.022  0.2516 -0.0155 -0.9503
  474poe    c23 2230   2.642   0.538   6.078  0.1016 -1.1813  0.5491
  474poe     o2 2231   2.673   0.529   6.215 -0.0657 -0.1851  0.6603
  474poe    c31 2232   2.675   0.396   6.261 -0.1960 -0.2329  0.5286
  475poe    c31 2233   0.790   0.955   4.379 -0.2861  0.1606  0.1742
  475poe     o2 2234   0.910   0.942   4.305 -0.2651 -0.2534  0.2785
  475poe    c23 2235   0.915   0.820   4.234  0.0881 -0.3172  0.4139
  475poe    c23 2236   1.051   0.800   4.166  0.1214  0.2633  0.3080
  475poe     o2 2237   1.102   0.904   4.085  0.4046  0.3813  0.6348
  475poe    c23 2238   1.224   0.848   4.043  0.5213  0.5348  0.7649
  475poe    c23 2239   1.308   0.962   3.983  0.4218  0.5521  0.6587
  475poe     o2 2240   1.346   1.056   4.080  0.8666  0.3387  0.6913
  475poe    c23 2241   1.313   1.185   4.033  0.3806  0.0412  0.2121
  475poe    c23 2242   1.377   1.296   4.119  0.1276 -0.0711  0.5498
  475poe     o2 2243   1.371   1.412   4.039  0.5432  0.0640  0.7170
  475poe    c31 2244   1.489   1.454   3.974  0.0636  0.1519 -0.0970
  476poe    c31 2245   0.387   1.854   5.868  0.0752  0.1260 -0.2083
  476poe     o2 2246   0.302   1.884   5.759  0.5036  0.2158 -0.5194
  476poe    c23 2247   0.262   2.019   5.767  0.1104  0.0809 -0.1956
  476poe    c23 2248   0.153   2.062   5.667  0.7047 -0.1673 -0.9638
  476poe     o2 2249   0.101   2.193   5.664  0.4953 -0.2182  0.0288
  476poe    c23 2250  -0.031   2.201   5.712  0.6339 -0.4920  0.4549
  476poe    c23 2251  -0.057   2.311   5.817  0.0857 -0.2159  0.0314
  476poe     o2 2252  -0.131   2.421   5.768  0.4242 -0.0522 -0.1118
  476poe    c23 2253  -0.186   2.504   5.867 -0.3754 -0.1659 -0.4517
  476poe    c23 2254  -0.204   2.648   5.817 -0.0913 -0.2491 -0.7912
  476poe     o2 2255  -0.314   2.669   5.731 -0.6262 -0.2795 -0.1143
  476poe    c31 2256  -0.423   2.699   5.815 -0.0383 -0.4411  0.7261
  477poe    c31 2257   2.083   1.696   2.328  0.9161 -0.0495  0.0754
  477poe     o2 2258   2.090   1.559   2.358  0.4148 -0.0991 -0.0171
  477poe    c23 2259   2.098   1.554   2.498  0.0901 -0.2186 -0.0023
  477poe    c23 2260   2.074   1.420   2.570 -0.3259 -0.0673  0.1479
  477poe     o2 2261   1.944   1.370   2.545  0.0027 -0.5502 -0.6500
  477poe    c23 2262   1.935   1.251   2.619 -0.3582 -0.1339 -0.0196
  477poe    c23 2263   1.880   1.135   2.534  0.3544  0.2174 -0.9826
  477poe     o2 2264   1.755   1.176   2.482 -0.4001 -0.3491  0.3278
  477poe    c23 2265   1.699   1.076   2.400  0.0253  0.1372 -0.5652
  477poe    c23 2266   1.587   1.137   2.313 -0.2126  0.3551 -0.1073
  477poe     o2 2267   1.661   1.240   2.251  0.3055  0.0510  0.0037
  477poe    c31 2268   1.584   1.323   2.168  0.3983 -0.0896 -0.2259
  478poe    c31 2269   0.148   0.499   4.170  0.5023  0.1967 -0.0029
  478poe     o2 2270   0.204   0.476   4.043 -0.0154  0.0969 -0.2165
  478poe    c23 2271   0.264   0.590   3.986  0.1066  0.2075  0.1297
  478poe    c23 2272   0.339   0.545   3.859 -0.2390 -0.0066 -0.0007
  478poe     o2 2273   0.247   0.508   3.759 -0.3339  0.3584 -0.0531
  478poe    c23 2274   0.281   0.565   3.635  0.3896 -0.2029 -0.1236
  478poe    c23 2275   0.163   0.555   3.536 -0.0605  0.4082  0.3432
  478poe     o2 2276   0.138   0.419   3.504  0.4650  0.5411 -0.6689
  478poe    c23 2277   0.036   0.375   3.418  0.0416 -0.1335  0.1660
  478poe    c23 2278   0.083   0.234   3.381  0.4459 -0.1940  0.8754
  478poe     o2 2279   0.069   0.137   3.483  0.3269 -0.4135  0.6538
  478poe    c31 2280   0.073   0.003   3.439  0.4251 -0.3823  0.5672
  479poe    c31 2281   1.733   1.716   3.824  0.1381 -0.2942  0.3530
  479poe     o2 2282   1.824   1.777   3.735  0.0492 -0.9662 -0.2148
  479poe    c23 2283   1.794   1.915   3.737  0.5303 -0.8625  0.1834
  479poe    c23 2284   1.886   2.020   3.802 -0.3680  0.3420 -0.4376
  479poe     o2 2285   2.015   2.021   3.745 -0.2928  0.3237 -0.2663
  479poe    c23 2286   2.120   2.084   3.817 -0.3856  0.2113 -0.0303
  479poe    c23 2287   2.183   2.016   3.940 -0.0006  0.1643 -0.2513
  479poe     o2 2288   2.239   1.889   3.915 -0.3662  0.0549 -0.5308
  479poe    c23 2289   2.379   1.905   3.910 -0.3473 -0.0369 -0.2837
  479poe    c23 2290   2.460   1.777   3.882 -0.2223 -0.0268  0.0255
  479poe     o2 2291   2.453   1.689   3.992  0.0619 -0.2805 -0.1619
  479poe    c31 2292   2.397   1.566   3.952 -0.4334 -0.2128  0.3186
  480poe    c31 2293   0.542   1.616   4.415 -0.3557  0.1985 -0.4194
  480poe     o2 2294   0.525   1.663   4.283 -0.1664 -0.2476 -0.6065
  480poe    c23 2295   0.391   1.708   4.279  0.0637  0.4797 -0.2975
  480poe    c23 2296   0.354   1.727   4.131 -0.4896 -0.6935 -0.3252
  480poe     o2 2297   0.460   1.804   4.077 -0.1282 -0.9136  0.0674
  480poe    c23 2298   0.445   1.832   3.940  0.4486  0.0133  0.1836
  480poe    c23 2299   0.562   1.919   3.892  0.2422  0.2496  0.1045
  480poe     o2 2300   0.688   1.856   3.880  0.2386  0.1787  0.4475
  480poe    c23 2301   0.789   1.926   3.811 -0.3850  0.2873 -0.3634
  480poe    c23 2302   0.930   1.867   3.830 -0.8801 -0.8035 -0.0182
  480poe     o2 2303   0.976   1.910   3.956  0.1758 -0.5980 -0.4650
  480poe    c31 2304   1.104   1.854   3.978  0.4941  0.5483  0.6926
  481poe    c31 2305   0.129   2.201   3.769 -0.0559 -0.1834  0.4260
  481poe     o2 2306   0.163   2.129   3.886  0.0010 -0.1446  0.4334
  481poe    c23 2307   0.198   2.213   3.994  0.2524  0.1624  0.1148
  481poe    c23 2308   0.091   2.203   4.104 -0.0962 -0.1544 -0.2485
  481poe     o2 2309  -0.036   2.258   4.075 -0.2151 -0.2707  0.0454
  481poe    c23 2310  -0.129   2.252   4.180  0.1035 -0.0651  0.3419
  481poe    c23 2311  -0.239   2.348   4.131 -0.0143 -0.1595  0.4176
  481poe     o2 2312  -0.297   2.333   4.003  0.1558  0.0083  0.3206
  481poe    c23 2313  -0.406   2.422   3.989  0.0324 -0.2757 -0.5768
  481poe    c23 2314  -0.537   2.386   4.061  0.0567  0.2119 -0.2873
  481poe     o2 2315  -0.603   2.268   4.022  0.7349 -0.2935  0.0695
  481poe    c31 2316  -0.691   2.232   4.126  0.5525  0.8805  0.3390
  482poe    c31 2317   0.178   1.392   0.887  0.1008 -0.7561  0.6220
  482poe     o2 2318   0.111   1.340   0.774  0.3338 -0.0378  0.1451
  482poe    c23 2319   0.127   1.445   0.682 -0.5446 -0.1040 -0.0947
  482poe    c23 2320   0.192   1.404   0.548 -0.2098 -0.1825  0.0910
  482poe     o2 2321   0.332   1.390   0.544 -0.2167 -0.1447 -0.2563
  482poe    c23 2322   0.401   1.513   0.541  0.2499 -0.3540  1.2041
  482poe    c23 2323   0.541   1.476   0.489 -0.2366 -0.3967 -0.1188
  482poe     o2 2324   0.532   1.432   0.356  0.1172  0.0123 -0.2806
  482poe    c23 2325   0.654   1.390   0.299  0.0624 -0.3438 -0.1408
  482poe    c23 2326   0.626   1.290   0.186  0.2244  0.2013 -0.6724
  482poe     o2 2327   0.537   1.189   0.227  0.4971  0.1999 -0.0665
  482poe    c31 2328   0.519   1.093   0.125  0.0349  0.3148 -0.0955
  483poe    c31 2329   0.239   0.346   5.271  0.0477 -0.0892  0.1408
  483poe     o2 2330   0.131   0.412   5.208  0.0483 -0.2032  0.0199
  483poe    c23 2331   0.013   0.344   5.245  0.1680 -0.9131 -0.8587
  483poe    c23 2332  -0.117   0.404   5.187  0.4116  0.2156 -0.2656
  483poe     o2 2333  -0.120   0.383   5.048 -0.0202  0.0791 -0.2355
  483poe    c23 2334  -0.228   0.441   4.978 -0.3096 -0.2815 -0.0904
  483poe    c23 2335  -0.194   0.425   4.829  0.1445  0.0540 -0.0257
  483poe     o2 2336  -0.067   0.470   4.788  0.1784  0.0470  0.0712
  483poe    c23 2337  -0.058   0.480   4.647  0.2009  0.6391  0.1129
  483poe    c23 2338   0.075   0.533   4.592  0.3917 -0.1219 -0.1681
  483poe     o2 2339   0.099   0.667   4.630 -0.0051  0.0813 -0.6325
  483poe    c31 2340   0.228   0.710   4.592  0.0725  0.1229 -0.3256
  484poe    c31 2341   2.234   1.058   6.439  0.1693 -0.2765 -0.3260
  484poe     o2 2342   2.228   1.192   6.481 -0.8675 -0.1611 -0.8077
  484poe    c23 2343   2.316   1.263   6.396  0.3006 -0.1599  0.3669
  484poe    c23 2344   2.330   1.406   6.451 -0.1247 -0.0922  0.3083
  484poe     o2 2345   2.214   1.484   6.435  0.4213  0.5346 -0.6628
  484poe    c23 2346   2.205   1.595   6.522 -0.0123 -0.1988  0.2426
  484poe    c23 2347   2.151   1.713   6.439  0.0848  0.0516  0.5307
  484poe     o2 2348   2.020   1.676   6.401  0.0523  0.6660  0.0249
  484poe    c23 2349   1.949   1.792   6.362 -0.1412  0.5731  0.0978
  484poe    c23 2350   1.881   1.787   6.224  0.2747  0.4912 -0.1046
  484poe     o2 2351   1.758   1.718   6.219  0.6944 -0.2706 -0.0818
  484poe    c31 2352   1.697   1.750   6.097  0.6399 -0.1087 -0.0127
  485poe    c31 2353   1.173   1.459   5.417 -0.4463 -0.0284  1.1167
  485poe     o2 2354   1.205   1.325   5.386 -0.2812  0.2828 -0.0928
  485poe    c23 2355   1.177   1.306   5.249 -1.0875  0.3110  0.0667
  485poe    c23 2356   1.209   1.167   5.190  0.1033  0.1461  1.0669
  485poe     o2 2357   1.346   1.165   5.158 -0.2455  0.2601 -0.5231
  485poe    c23 2358   1.378   1.038   5.105 -0.3832 -0.0601  0.1489
  485poe    c23 2359   1.526   1.015   5.069 -0.4656 -0.0440 -0.2030
  485poe     o2 2360   1.550   1.101   4.959  0.3645  0.6710  0.5215
  485poe    c23 2361   1.684   1.078   4.922  0.0141 -0.1752 -0.2678
  485poe    c23 2362   1.695   1.140   4.781  0.7278 -0.5115 -0.3630
  485poe     o2 2363   1.720   1.279   4.786  0.0182 -0.3993  0.2222
  485poe    c31 2364   1.794   1.331   4.678 -0.7254  0.3983  0.0881
  486poe    c31 2365   0.948   0.506   5.301  0.0512  0.3936 -0.1879
  486poe     o2 2366   1.028   0.610   5.252  0.6755  0.4036  0.8124
  486poe    c23 2367   0.959   0.690   5.158  0.9369  0.2704  0.5038
  486poe    c23 2368   1.048   0.724   5.037  0.2476  0.3395  0.0103
  486poe     o2 2369   1.114   0.616   4.975  0.1514  0.3482 -0.1075
  486poe    c23 2370   1.033   0.528   4.900  0.3885  0.2401 -0.2373
  486poe    c23 2371   1.109   0.399   4.861 -0.0339 -0.0866  0.0110
  486poe     o2 2372   1.231   0.412   4.792  0.0711 -0.0173  0.2087
  486poe    c23 2373   1.223   0.477   4.667  0.1302 -0.1329  0.1450
  486poe    c23 2374   1.351   0.511   4.588  0.1021 -0.3474  0.0054
  486poe     o2 2375   1.410   0.405   4.517  0.0800 -0.5144  0.2369
  486poe    c31 2376   1.521   0.450   4.443 -0.1353 -0.0651  0.1831
  487lim     li 2377   2.183   1.300   6.866  0.0155 -0.4562  0.5338
  488lim     li 2378   0.319   0.355   1.972 -1.2586 -0.2791 -0.2596
  489lim     li 2379   1.007   1.143   6.603 -0.0851 -1.4403 -0.5211
  490lim     li 2380   0.941   0.090   6.479  0.1404  1.3880  0.5978
  491lim     li 2381   0.140   0.147   3.874 -0.0610  0.0005 -0.1045
  492lim     li 2382   0.595   1.418   2.156  0.7859 -0.5953  0.2864
  493lim     li 2383   1.068   1.964   1.485  0.3485  0.1581 -1.4200
  494lim     li 2384   1.855   0.638   3.326 -0.5018 -0.8112 -0.0670
  495lim     li 2385   0.571   1.074   1.649  1.5288 -0.8697  0.6415
  496lim     li 2386   1.365   1.890   6.388  0.6343  0.3072 -0.1278
  497lim     li 2387   0.624   1.733   4.151 -0.2957 -0.3700  0.3495
  498lim     li 2388   2.446   2.090   1.727 -0.4242 -0.1741  1.2686
  499lim     li 2389   1.121   0.461   0.482 -0.8895 -0.0904  0.0505
  500lim     li 2390   1.898   0.377   1.732  0.6227  0.2203 -0.3133
  501lim     li 2391   0.147   1.056   5.396 -0.0502  0.9103  0.3856
  502lim     li 2392   1.467   0.447   5.028 -0.1136  0.4887 -0.6590
  503lim     li 2393   0.533   1.753   5.456  0.0982  0.2533  0.4069
  504lim     li 2394   2.410   1.193   4.591 -0.0622 -0.0304  0.3682
  505lim     li 2395   0.498   1.851   0.276  0.3160 -0.2669  0.2270
  506lim     li 2396   1.315   2.414   5.826 -0.0600  0.5940  0.2538
  507lim     li 2397   2.081   1.165   5.320  0.2787 -0.3221 -0.3269
  508lim     li 2398   1.874   1.843   4.956 -0.4648  0.0017  0.0761
  509lim     li 2399   1.309   2.461   3.155  0.8503  0.0755 -0.0109
  510lim     li 2400   0.663   0.131   2.845 -0.5548 -0.1338  0.2798
  511lim     li 2401   0.736   0.889   3.598  0.4532 -0.8126 -0.1735
  512lim     li 2402   1.142   1.888   0.157  0.3722 -0.5300 -0.2426
  513lim     li 2403   0.705   1.580   3.196  0.0468 -0.1985  0.0487
  514lim     li 2404   1.157   2.342   2.436 -0.1595  0.0278  0.7106
  515lim     li 2405   1.278   0.667   6.536  0.8214  0.0014 -0.7173
  516lim     li 2406   1.932   2.131   0.908 -0.1950  0.4972  0.2216
  517lim     li 2407   1.775   1.339   2.418  0.0051 -0.0333 -0.0916
  518lim     li 2408   0.065   0.919   6.151 -0.2174  0.1691 -1.2901
  519lim     li 2409   1.975   1.708   3.688 -0.2753 -0.2129 -0.2355
  520lim     li 2410   1.048   1.465   4.277  0.7961 -1.3117  0.3401
  521lim     li 2411   1.054   0.228   1.727  0.5174  0.1173  0.5965
  522lim     li 2412   0.481   1.037   0.552 -0.6680  0.9232  0.5389
  523lim     li 2413   2.427   0.622   0.879 -0.2895 -0.3192  0.0226
  524lim     li 2414   0.842   0.166   1.125 -0.0359  0.0064  0.2905
  525lim     li 2415   2.339   2.442   5.163  0.6775 -0.9551 -0.4219
  526lim     li 2416   2.287   0.308   0.370 -0.6539  0.6983 -0.8192
  527lim     li 2417   0.931   1.539   2.567  0.0660  0.8327  0.9237
  528lim     li 2418   0.166   1.016   2.678 -0.1332 -0.7586  0.1475
  529lim     li 2419   0.079   2.471   6.381 -0.0945 -0.5333 -1.4818
  530lim     li 2420   1.916   1.037   0.914 -1.3678 -0.5751 -0.0677
  531lim     li 2421   0.187   1.773   3.075  0.0486 -0.2994  1.1218
  532lim     li 2422   1.088   0.047   5.284  0.7587  0.1650 -0.9824
  533lim     li 2423   1.887   2.103   2.968  0.5911  0.1220 -0.3725
  534lim     li 2424   2.358   1.564   1.523  0.5374 -0.2913  0.4363
  535lim     li 2425   2.381   0.641   1.830  0.3867  0.7731 -0.6733
  536lim     li 2426   1.334   1.467   4.792  0.1658  1.3175 -0.0062
  537lim     li 2427   2.196   0.448   3.765 -0.3828  0.2566  0.1311
  538lim     li 2428   1.349   1.195   1.259  0.6346  0.7081  0.6476
  539lim     li 2429   1.804   0.494   2.466 -1.1467  0.2821 -0.4584
  540lim     li 2430   1.203   2.384   4.307  1.4619  0.1927  0.0503
  541ntf    cn1 2431   0.024   1.595   2.448 -0.2878 -0.0938  0.1678
  541ntf    sn2 2432   0.135   1.455   2.485  0.2841  0.2047 -0.4061
  541ntf    nn3 2433   0.067   1.331   2.417  1.0139 -0.3086 -0.2163
  541ntf    sn2 2434   0.074   1.274   2.271 -0.2631 -0.4984 -0.2180
  541ntf    cn1 2435  -0.084   1.334   2.204 -0.0581 -0.0670 -0.3211
  541ntf    fn4 2436   0.062   1.704   2.512 -0.4118 -0.0383  0.1464
  541ntf    fn4 2437   0.041   1.627   2.321 -0.2943  0.6547  0.3505
  541ntf    fn4 2438  -0.104   1.570   2.473 -0.4148  0.4259  0.0448
  541ntf    on5 2439   0.265   1.495   2.436  0.2693  0.5266 -0.1816
  541ntf    on5 2440   0.125   1.453   2.629 -0.2126  0.6626 -0.4308
  541ntf    on5 2441   0.057   1.131   2.284  0.1767 -0.6476 -1.1905
  541ntf    on5 2442   0.174   1.327   2.181 -0.2216  0.3008  0.2908
  541ntf    fn4 2443  -0.099   1.465   2.197  0.3077 -0.0120 -0.0739
  541ntf    fn4 2444  -0.109   1.292   2.081 -0.1049  0.2911 -0.4330
  541ntf    fn4 2445  -0.182   1.292   2.282  0.0956 -0.2095 -0.2058
  542ntf    cn1 2446   0.579   0.570   4.419 -0.0335  0.0607  0.4810
  542ntf    sn2 2447   0.600   0.409   4.500  0.2116 -0.0881  0.1274
  542ntf    nn3 2448   0.449   0.367   4.510  0.1694  0.0468  0.0529
  542ntf    sn2 2449   0.378   0.262   4.417  0.2194 -0.0503  0.1254
  542ntf    cn1 2450   0.424   0.105   4.498  0.0906 -0.0542  0.1922
  542ntf    fn4 2451   0.686   0.648   4.410  0.2730 -0.4296 -0.2121
  542ntf    fn4 2452   0.529   0.561   4.297  0.4225  0.3022  0.2722
  542ntf    fn4 2453   0.492   0.641   4.488 -1.0855  0.0324 -0.7764
  542ntf    on5 2454   0.685   0.324   4.419  0.2028  0.1879 -0.1722
  542ntf    on5 2455   0.659   0.435   4.629 -0.1167  0.2021  0.2177
  542ntf    on5 2456   0.435   0.247   4.286 -0.3174  0.3378 -0.1522
  542ntf    on5 2457   0.234   0.260   4.422  0.2179  0.3037  0.2143
  542ntf    fn4 2458   0.415   0.004   4.412  0.0554  0.3480 -0.2842
  542ntf    fn4 2459   0.553   0.107   4.527  0.0561  0.0209  0.3367
  542ntf    fn4 2460   0.359   0.081   4.610  0.1195 -0.8456  0.0442
  543ntf    cn1 2461   1.867   1.670   4.195 -0.0939  0.1005  0.2154
  543ntf    sn2 2462   2.035   1.608   4.222 -0.1332 -0.0988  0.0029
  543ntf    nn3 2463   2.012   1.499   4.333  1.1052 -0.3185  0.0597
  543ntf    sn2 2464   2.010   1.342   4.321 -0.0553 -0.2541 -0.7611
  543ntf    cn1 2465   1.836   1.324   4.270 -0.2208 -0.4662 -0.1288
  543ntf    fn4 2466   1.866   1.792   4.142  0.2577  0.1201  0.2566
  543ntf    fn4 2467   1.810   1.578   4.119  0.0151  0.0325  0.2161
  543ntf    fn4 2468   1.804   1.670   4.312  0.1460  0.9155  0.3556
  543ntf    on5 2469   2.071   1.565   4.089  0.3048 -0.2899  0.1797
  543ntf    on5 2470   2.108   1.723   4.268 -0.1348 -0.0292 -0.1701
  543ntf    on5 2471   2.005   1.266   4.443  0.0041  0.0013 -0.6001
  543ntf    on5 2472   2.075   1.279   4.208 -0.1345 -0.4003 -0.7262
  543ntf    fn4 2473   1.758   1.406   4.337  0.0148 -0.1867 -0.1925
  543ntf    fn4 2474   1.817   1.361   4.144 -0.2702 -0.2932 -0.0701
  543ntf    fn4 2475   1.791   1.201   4.288 -0.1577 -0.5131 -0.2869
  544ntf    cn1 2476   0.461   2.396   1.381 -0.1892  0.4710  0.0095
  544ntf    sn2 2477   0.542   2.322   1.526 -0.3688  0.0867 -0.0835
  544ntf    nn3 2478   0.491   2.416   1.641 -0.5528  0.4803 -0.4840
  544ntf    sn2 2479   0.585   2.502   1.734  0.1644 -0.2606 -0.5119
  544ntf    cn1 2480   0.637   2.372   1.851  0.5379  0.2768 -0.0793
  544ntf    fn4 2481   0.474   2.322   1.272  0.1508  0.0911  0.3026
  544ntf    fn4 2482   0.330   2.412   1.397 -0.2567 -0.0980  0.0716
  544ntf    fn4 2483   0.510   2.513   1.345 -0.0829  0.4477  0.0786
  544ntf    on5 2484   0.489   2.189   1.536 -0.4347  0.0851 -0.4475
  544ntf    on5 2485   0.681   2.334   1.487 -0.3712  0.2154 -0.0535
  544ntf    on5 2486   0.512   2.590   1.822  0.4040  0.1811 -0.7550
  544ntf    on5 2487   0.705   2.557   1.677 -0.0970 -0.0144 -0.8315
  544ntf    fn4 2488   0.534   2.309   1.905  0.4452  0.2999 -0.2279
  544ntf    fn4 2489   0.703   2.275   1.791  0.1729 -0.1083  0.1394
  544ntf    fn4 2490   0.720   2.418   1.943  0.1945  0.2174  0.2604
  545ntf    cn1 2491   0.583   2.256   3.708  0.0523 -0.2009 -0.1303
  545ntf    sn2 2492   0.572   2.382   3.577  0.3383  0.1379  0.1690
  545ntf    nn3 2493   0.653   2.492   3.654  0.3224 -0.0770  0.5005
  545ntf    sn2 2494   0.607   2.600   3.758  0.0723  0.2181  0.0916
  545ntf    cn1 2495   0.627   2.749   3.656 -0.2666  0.0935 -0.1590
  545ntf    fn4 2496   0.515   2.278   3.819 -0.0772  0.2867 -0.3066
  545ntf    fn4 2497   0.538   2.144   3.653 -0.4890 -0.0665  0.0328
  545ntf    fn4 2498   0.708   2.239   3.749  0.1998 -0.0077 -0.4933
  545ntf    on5 2499   0.650   2.318   3.474  0.9897  0.5191  0.4222
  545ntf    on5 2500   0.432   2.408   3.553  0.4002 -0.4007 -0.8062
  545ntf    on5 2501   0.698   2.613   3.869  0.4015 -0.1259 -0.1370
  545ntf    on5 2502   0.466   2.604   3.786 -0.0821 -0.4873 -0.5687
  545ntf    fn4 2503   0.748   2.753   3.601 -0.0021 -0.4486  0.3738
  545ntf    fn4 2504   0.543   2.753   3.555 -0.3474  0.7100 -0.0696
  545ntf    fn4 2505   0.612   2.858   3.730 -0.5063 -0.0718  0.0361
  546ntf    cn1 2506   2.168   0.116   3.157  0.0276  0.2037  0.1999
  546ntf    sn2 2507   2.100   0.162   3.319  0.0689 -0.2464  0.3446
  546ntf    nn3 2508   2.159   0.049   3.412  0.0783 -0.0086  0.6326
  546ntf    sn2 2509   2.106  -0.098   3.427  0.3681 -0.1822 -0.0057
  546ntf    cn1 2510   1.994  -0.099   3.570  0.3992 -0.3266  0.0183
  546ntf    fn4 2511   2.106   0.019   3.093  0.7131 -0.1368  0.0447
  546ntf    fn4 2512   2.175   0.216   3.071 -0.2262 -0.1994 -0.2938
  546ntf    fn4 2513   2.294   0.080   3.171 -0.0111 -0.0001  0.0207
  546ntf    on5 2514   2.159   0.292   3.338  0.6357 -0.3744 -0.4956
  546ntf    on5 2515   1.960   0.153   3.288  0.2758 -0.4883 -0.5392
  546ntf    on5 2516   2.209  -0.187   3.476  0.2055 -0.2920  0.1378
  546ntf    on5 2517   2.024  -0.152   3.321 -0.1494 -0.1866  0.3969
  546ntf    fn4 2518   1.979  -0.217   3.628  0.5810 -0.5982 -0.4743
  546ntf    fn4 2519   2.040  -0.022   3.667  0.0861 -0.0097 -0.0793
  546ntf    fn4 2520   1.880  -0.043   3.534  0.4633 -0.4142 -0.3250
  547ntf    cn1 2521   1.704   1.401   2.976  0.0275  0.1000 -0.4050
  547ntf    sn2 2522   1.546   1.311   2.974  0.1652 -0.1459 -0.2475
  547ntf    nn3 2523   1.595   1.171   2.922 -0.0910 -0.3071 -0.0616
  547ntf    sn2 2524   1.552   1.110   2.784 -0.4268  0.0513 -0.1175
  547ntf    cn1 2525   1.393   1.034   2.831 -0.1853 -0.3069  0.1215
  547ntf    fn4 2526   1.778   1.357   3.077 -0.1428 -0.0236 -0.3328
  547ntf    fn4 2527   1.768   1.373   2.863  0.2579  0.4620 -0.3650
  547ntf    fn4 2528   1.698   1.532   2.991 -0.1920 -0.0262  0.7330
  547ntf    on5 2529   1.519   1.307   3.116  0.0870  0.0629 -0.2561
  547ntf    on5 2530   1.455   1.389   2.895  0.1454  0.2438  0.1570
  547ntf    on5 2531   1.639   1.005   2.738 -0.2180  0.2898 -0.2649
  547ntf    on5 2532   1.519   1.203   2.679  0.1686  0.2154 -0.1617
  547ntf    fn4 2533   1.414   0.944   2.926 -0.3747  0.1817  0.6306
  547ntf    fn4 2534   1.302   1.114   2.885  0.2453 -0.0043  0.4060
  547ntf    fn4 2535   1.330   0.975   2.732 -0.4587 -0.0810  0.1606
  548ntf    cn1 2536   2.125   2.100   6.534 -0.0244  0.0039 -0.0367
  548ntf    sn2 2537   2.216   2.132   6.688  0.4702  0.1066 -0.3463
  548ntf    nn3 2538   2.257   1.988   6.735 -0.1875  0.1806  0.4756
  548ntf    sn2 2539   2.383   1.949   6.819  0.2017  0.4344  0.0127
  548ntf    cn1 2540   2.506   1.930   6.686  0.1578 -0.2274  0.0620
  548ntf    fn4 2541   2.085   2.208   6.469 -0.1075  0.2387  0.4059
  548ntf    fn4 2542   2.201   2.047   6.439  0.4759  0.0202  0.3479
  548ntf    fn4 2543   2.017   2.026   6.550 -0.5160  0.5322 -0.8101
  548ntf    on5 2544   2.327   2.212   6.643  0.4045  0.0189 -0.6653
  548ntf    on5 2545   2.113   2.193   6.768  0.0418 -0.1428 -0.6991
  548ntf    on5 2546   2.369   1.816   6.872 -0.6794  0.6548  0.3407
  548ntf    on5 2547   2.441   2.051   6.902  0.0571  0.0294  0.6104
  548ntf    fn4 2548   2.483   1.828   6.604 -0.2194  0.1855 -0.3492
  548ntf    fn4 2549   2.523   2.039   6.612  0.0135 -0.4408 -0.2897
  548ntf    fn4 2550   2.621   1.904   6.746  0.2902 -0.2187 -0.1873
  549ntf    cn1 2551   0.968   0.710   3.050  0.0548 -0.1900  0.0741
  549ntf    sn2 2552   0.850   0.606   3.141 -0.1022 -0.1647 -0.1015
  549ntf    nn3 2553   0.737   0.711   3.170  0.5605  0.5841 -0.2006
  549ntf    sn2 2554   0.598   0.725   3.097  0.3142 -0.2146  0.1048
  549ntf    cn1 2555   0.488   0.705   3.240  0.0560 -0.2335 -0.0972
  549ntf    fn4 2556   1.004   0.819   3.116 -0.2638  0.1868 -0.3718
  549ntf    fn4 2557   1.077   0.646   3.009 -0.0738  0.0403 -0.6414
  549ntf    fn4 2558   0.911   0.763   2.943 -0.3184  0.2099  0.4722
  549ntf    on5 2559   0.812   0.499   3.052 -0.1507  0.2462 -0.5780
  549ntf    on5 2560   0.922   0.567   3.259  0.6462  0.3645 -0.3778
  549ntf    on5 2561   0.549   0.615   3.019  0.4551 -0.0112 -0.2736
  549ntf    on5 2562   0.571   0.859   3.052 -0.2051 -0.2324  0.3601
  549ntf    fn4 2563   0.512   0.799   3.330 -0.1038  0.3306 -0.6359
  549ntf    fn4 2564   0.360   0.720   3.208  0.1827  0.3100 -0.3602
  549ntf    fn4 2565   0.501   0.590   3.303 -0.0599 -0.1077  0.1587
  550ntf    cn1 2566   1.892   0.468   4.216 -0.4243 -0.2527 -0.2918
  550ntf    sn2 2567   1.947   0.297   4.187  0.3407 -0.0794  0.1270
  550ntf    nn3 2568   2.072   0.289   4.281  0.3657 -0.0701  0.0950
  550ntf    sn2 2569   2.224   0.288   4.240  0.3341  0.3168 -0.0364
  550ntf    cn1 2570   2.293   0.190   4.376 -0.3630 -0.2041 -0.0534
  550ntf    fn4 2571   1.806   0.483   4.315  0.1845  0.0003  0.2011
  550ntf    fn4 2572   1.993   0.549   4.240 -0.1446 -0.7129  0.0939
  550ntf    fn4 2573   1.833   0.518   4.109 -0.1636  0.4199 -0.1228
  550ntf    on5 2574   1.833   0.230   4.242  0.0785 -0.1914 -0.5378
  550ntf    on5 2575   1.967   0.293   4.044  0.3677 -0.2250  0.1342
  550ntf    on5 2576   2.291   0.415   4.254  0.5143  0.2289 -0.1129
  550ntf    on5 2577   2.260   0.208   4.126 -0.7742 -0.3068  0.0305
  550ntf    fn4 2578   2.268   0.233   4.498  0.2393  0.2295 -0.0798
  550ntf    fn4 2579   2.248   0.065   4.377  0.0362 -0.3514 -0.2966
  550ntf    fn4 2580   2.423   0.186   4.352 -0.2851 -0.2079  0.3591
  551ntf    cn1 2581   1.935   0.391   6.534  0.4378  0.1787  0.2311
  551ntf    sn2 2582   1.797   0.506   6.562  0.1035 -0.1352 -0.1246
  551ntf    nn3 2583   1.861   0.624   6.643  0.4461 -0.2699 -0.1996
  551ntf    sn2 2584   1.924   0.757   6.588  0.3510 -0.1823 -0.0983
  551ntf    cn1 2585   1.784   0.871   6.574  0.3341 -0.1249  0.5008
  551ntf    fn4 2586   2.045   0.450   6.489  0.5972 -0.2167  0.1042
  551ntf    fn4 2587   1.965   0.329   6.647  0.5977 -0.2597 -0.0518
  551ntf    fn4 2588   1.914   0.296   6.445  0.7603 -0.0698  0.4216
  551ntf    on5 2589   1.739   0.542   6.435 -0.2039  0.7387  0.2532
  551ntf    on5 2590   1.706   0.435   6.649  0.4633  0.3114  0.6227
  551ntf    on5 2591   1.991   0.746   6.461  0.0560  0.2621 -0.2915
  551ntf    on5 2592   2.001   0.819   6.693  0.1448  0.0525 -0.0864
  551ntf    fn4 2593   1.811   0.992   6.525 -0.0088 -0.2563 -0.0275
  551ntf    fn4 2594   1.691   0.825   6.492  0.3874 -0.2677  0.5214
  551ntf    fn4 2595   1.724   0.897   6.689 -0.2056 -0.1703  0.2343
  552ntf    cn1 2596   1.376   1.608   1.400  0.2885  0.1880  0.0935
  552ntf    sn2 2597   1.416   1.484   1.527  0.0995 -0.0372 -0.0659
  552ntf    nn3 2598   1.330   1.544   1.644  0.0910 -0.3929  0.1095
  552ntf    sn2 2599   1.362   1.622   1.776 -0.1463 -0.0428 -0.0399
  552ntf    cn1 2600   1.317   1.502   1.905  0.3214  0.0760  0.2359
  552ntf    fn4 2601   1.454   1.593   1.294  0.0017 -0.2664 -0.0586
  552ntf    fn4 2602   1.251   1.598   1.356  0.3717 -0.4796  0.0018
  552ntf    fn4 2603   1.389   1.736   1.430  0.8044  0.1107  0.2117
  552ntf    on5 2604   1.372   1.354   1.483  0.5968 -0.2158 -0.0403
  552ntf    on5 2605   1.559   1.501   1.535  0.1131  0.1487 -0.6197
  552ntf    on5 2606   1.265   1.728   1.789 -0.2849 -0.0566 -0.9167
  552ntf    on5 2607   1.500   1.650   1.807 -0.1078 -0.0693 -0.1862
  552ntf    fn4 2608   1.379   1.535   2.017  0.2090  0.6139  0.1426
  552ntf    fn4 2609   1.186   1.499   1.926  0.1983  0.0174 -0.5208
  552ntf    fn4 2610   1.355   1.378   1.875 -0.7601 -0.2206  0.0358
  553ntf    cn1 2611   1.963   0.810   5.149 -0.0007 -0.0187  0.4073
  553ntf    sn2 2612   1.930   0.695   5.286 -0.2873 -0.0399  0.3218
  553ntf    nn3 2613   2.017   0.742   5.407 -0.1945  0.0885  0.2054
  553ntf    sn2 2614   2.103   0.650   5.500 -0.0938 -0.0998 -0.0733
  553ntf    cn1 2615   1.992   0.647   5.644  0.1014  0.6116  0.0935
  553ntf    fn4 2616   1.888   0.799   5.040 -0.1815  0.1202  0.5181
  553ntf    fn4 2617   1.941   0.934   5.190 -1.4038 -0.0345 -0.2350
  553ntf    fn4 2618   2.086   0.815   5.101 -0.1927  0.2575 -0.0752
  553ntf    on5 2619   1.788   0.714   5.305 -0.2274  0.1753  0.5560
  553ntf    on5 2620   1.959   0.564   5.233  0.3696  0.0816  0.3722
  553ntf    on5 2621   2.222   0.718   5.545 -0.3583  0.7294 -0.6274
  553ntf    on5 2622   2.112   0.512   5.458 -0.3769 -0.1932  0.1683
  553ntf    fn4 2623   1.964   0.765   5.698 -0.5710  0.0964  0.8871
  553ntf    fn4 2624   1.876   0.590   5.620  0.2025  0.3749  0.1675
  553ntf    fn4 2625   2.052   0.574   5.737 -0.0033  0.1360 -0.2129
  554ntf    cn1 2626   1.011   0.916   2.539 -0.0839 -0.2718  0.0696
  554ntf    sn2 2627   1.075   0.992   2.387  0.0950 -0.3017  0.1304
  554ntf    nn3 2628   1.063   0.870   2.288  0.1828 -0.2100  0.0056
  554ntf    sn2 2629   1.127   0.869   2.145  0.5934  0.4056  0.1818
  554ntf    cn1 2630   1.289   0.796   2.185  0.4112  0.0402  0.2533
  554ntf    fn4 2631   1.023   0.993   2.646 -0.1806 -0.1756  0.0113
  554ntf    fn4 2632   0.880   0.898   2.532 -0.1415  0.0405  0.3148
  554ntf    fn4 2633   1.075   0.804   2.566 -0.1976 -0.3956 -0.1700
  554ntf    on5 2634   0.981   1.097   2.359 -0.2099 -0.4673  0.5260
  554ntf    on5 2635   1.208   1.035   2.423  0.0210 -0.2595  0.3531
  554ntf    on5 2636   1.164   0.994   2.084  0.2558  0.4470  0.0620
  554ntf    on5 2637   1.062   0.775   2.057  0.9116 -0.1376  0.5241
  554ntf    fn4 2638   1.292   0.672   2.232 -0.6745 -0.0378  0.1390
  554ntf    fn4 2639   1.362   0.798   2.074  0.0754 -0.2998  0.0210
  554ntf    fn4 2640   1.344   0.872   2.277 -0.3123  0.0797  0.6575
  555ntf    cn1 2641   0.121   1.342   4.136 -0.2502  0.1218  0.3741
  555ntf    sn2 2642   0.283   1.282   4.194 -0.2610 -0.1805  0.0976
  555ntf    nn3 2643   0.286   1.137   4.133  0.4084 -0.1354  0.0141
  555ntf    sn2 2644   0.251   1.004   4.209  0.2005 -0.1065 -0.0288
  555ntf    cn1 2645   0.405   0.912   4.176  0.3355  0.0185  0.2419
  555ntf    fn4 2646   0.096   1.471   4.144  0.0869  0.2613 -0.6042
  555ntf    fn4 2647   0.110   1.312   4.007 -0.4525 -0.1123  0.4442
  555ntf    fn4 2648   0.024   1.276   4.197 -0.2707  0.2310  0.4586
  555ntf    on5 2649   0.381   1.357   4.119 -0.3802 -0.4766 -0.3576
  555ntf    on5 2650   0.269   1.292   4.337  0.3287  0.1350  0.1377
  555ntf    on5 2651   0.149   0.930   4.140  0.0063 -0.3464  0.5100
  555ntf    on5 2652   0.237   1.010   4.353  0.3970 -0.0211 -0.0119
  555ntf    fn4 2653   0.407   0.862   4.054 -0.3992 -0.4850  0.4307
  555ntf    fn4 2654   0.516   0.981   4.195  0.2570  0.2335 -0.0632
  555ntf    fn4 2655   0.415   0.810   4.259 -0.4514 -0.4543 -0.2231
  556ntf    cn1 2656   0.600   1.876   2.525  0.1631  0.1225  0.0329
  556ntf    sn2 2657   0.522   1.902   2.363  0.4985 -0.2505 -0.1912
  556ntf    nn3 2658   0.617   1.826   2.263  0.1388 -0.3501 -0.4600
  556ntf    sn2 2659   0.760   1.876   2.220  0.0764  0.0232 -0.2416
  556ntf    cn1 2660   0.735   2.005   2.095 -0.8924 -0.1924 -0.2803
  556ntf    fn4 2661   0.518   1.884   2.628 -0.0252  0.1045 -0.1142
  556ntf    fn4 2662   0.648   1.752   2.527 -0.1819 -0.0080  0.3442
  556ntf    fn4 2663   0.698   1.963   2.542  0.1810  0.2069 -0.5039
  556ntf    on5 2664   0.401   1.826   2.381  0.4249 -0.0303  0.2479
  556ntf    on5 2665   0.513   2.045   2.344 -0.6558 -0.3082 -0.1467
  556ntf    on5 2666   0.818   1.770   2.141 -0.4874 -0.3200 -0.2039
  556ntf    on5 2667   0.843   1.938   2.320  0.5611 -0.3051 -0.4377
  556ntf    fn4 2668   0.721   2.123   2.153 -0.4106 -0.3542  0.1714
  556ntf    fn4 2669   0.836   2.026   2.013 -0.1016 -1.2385  0.4077
  556ntf    fn4 2670   0.628   1.985   2.020 -0.6898  0.5335 -0.7723
  557ntf    cn1 2671   2.395   2.286   0.497  0.4499 -0.2019  0.1942
  557ntf    sn2 2672   2.561   2.360   0.502  0.3133  0.1127  0.1158
  557ntf    nn3 2673   2.582   2.380   0.657  0.3304  0.2277  0.0985
  557ntf    sn2 2674   2.610   2.264   0.758  0.0601  0.2154  0.1601
  557ntf    cn1 2675   2.790   2.287   0.779  0.1361 -0.0800 -0.1585
  557ntf    fn4 2676   2.400   2.155   0.512 -0.2161 -0.1911  0.5803
  557ntf    fn4 2677   2.316   2.335   0.591 -0.2402  0.0077 -0.4795
  557ntf    fn4 2678   2.331   2.314   0.384  0.1396 -0.7584  0.2277
  557ntf    on5 2679   2.633   2.256   0.433 -0.1735 -0.0443 -0.1641
  557ntf    on5 2680   2.541   2.489   0.441  0.3593  0.2020  0.2869
  557ntf    on5 2681   2.594   2.128   0.713 -0.0099  0.2373  0.1194
  557ntf    on5 2682   2.550   2.291   0.886  0.1121 -0.5677  0.3573
  557ntf    fn4 2683   2.868   2.261   0.675  0.3684  0.0813 -0.0243
  557ntf    fn4 2684   2.824   2.401   0.836  0.4034 -0.0788 -0.3207
  557ntf    fn4 2685   2.823   2.192   0.866 -0.3371  0.1215  0.2475
  558ntf    cn1 2686   0.135   1.202   1.346 -0.2931  0.6230 -0.0961
  558ntf    sn2 2687  -0.028   1.202   1.266 -0.2100  0.1366 -0.2675
  558ntf    nn3 2688  -0.104   1.098   1.355  0.7313 -0.2980  0.0387
  558ntf    sn2 2689  -0.141   0.950   1.314 -0.5820 -0.1208  0.5151
  558ntf    cn1 2690  -0.248   0.905   1.454 -0.5235 -0.1083  0.5643
  558ntf    fn4 2691   0.145   1.184   1.477  0.1674  0.3936 -0.1639
  558ntf    fn4 2692   0.211   1.108   1.295 -0.2589  0.4652  0.2439
  558ntf    fn4 2693   0.196   1.316   1.319  0.5178  0.1786 -0.1416
  558ntf    on5 2694  -0.075   1.337   1.289  0.5966  0.3691  0.0483
  558ntf    on5 2695   0.010   1.171   1.130  0.5229 -0.5095  0.0788
  558ntf    on5 2696  -0.032   0.856   1.324 -0.9557 -0.6326 -0.1714
  558ntf    on5 2697  -0.217   0.936   1.193  0.5131  0.1341 -0.2220
  558ntf    fn4 2698  -0.166   0.906   1.558 -0.0736  0.2083  0.2120
  558ntf    fn4 2699  -0.341   0.994   1.483 -0.1166  0.4762  0.1041
  558ntf    fn4 2700  -0.309   0.788   1.444 -0.4877 -0.0912  0.1133
  559ntf    cn1 2701   2.235   0.994   2.433  0.0886 -0.1625 -0.3518
  559ntf    sn2 2702   2.203   0.832   2.507 -0.2037  0.0252 -0.0655
  559ntf    nn3 2703   2.258   0.741   2.392  0.0124 -0.0699  0.1116
  559ntf    sn2 2704   2.326   0.600   2.408  0.0363 -0.0212  0.4346
  559ntf    cn1 2705   2.497   0.657   2.432 -0.0243  0.3185  0.0671
  559ntf    fn4 2706   2.180   1.011   2.313  0.2453  0.3220 -0.3580
  559ntf    fn4 2707   2.196   1.102   2.499  0.7154  0.2898 -0.7000
  559ntf    fn4 2708   2.365   1.015   2.417  0.1318  0.1090  0.3111
  559ntf    on5 2709   2.287   0.832   2.624 -0.1768  0.1678 -0.0848
  559ntf    on5 2710   2.062   0.819   2.534 -0.0986  0.3387  0.6632
  559ntf    on5 2711   2.323   0.535   2.280  0.3219  0.4579  0.1836
  559ntf    on5 2712   2.287   0.528   2.527 -0.5744 -0.7377 -0.1886
  559ntf    fn4 2713   2.513   0.704   2.555 -0.0198  0.0193  0.1812
  559ntf    fn4 2714   2.578   0.552   2.430  0.0498  0.3818 -0.4031
  559ntf    fn4 2715   2.543   0.739   2.339  0.2880  0.2161  0.1317
  560ntf    cn1 2716   0.321   0.245   1.500 -0.0307  0.1872 -0.7614
  560ntf    sn2 2717   0.229   0.398   1.469  0.2316  0.4622 -0.1870
  560ntf    nn3 2718   0.142   0.355   1.346  0.0825  0.5172 -0.1005
  560ntf    sn2 2719  -0.003   0.293   1.336  0.2459  0.0764  0.2258
  560ntf    cn1 2720   0.024   0.179   1.198  0.1526  0.2216  0.0871
  560ntf    fn4 2721   0.389   0.196   1.397  0.1349 -0.9359 -0.1385
  560ntf    fn4 2722   0.404   0.252   1.603 -0.4842  0.2475 -0.3995
  560ntf    fn4 2723   0.239   0.145   1.530  0.4688  0.2908  1.0493
  560ntf    on5 2724   0.164   0.422   1.595 -0.6743 -0.0315 -0.5502
  560ntf    on5 2725   0.326   0.499   1.432  0.6760  0.1587  0.1334
  560ntf    on5 2726  -0.100   0.387   1.287  0.3067 -0.0241 -0.0850
  560ntf    on5 2727  -0.052   0.212   1.445  0.3471 -0.2459  0.0314
  560ntf    fn4 2728  -0.089   0.129   1.152  0.3499 -0.2636  0.1172
  560ntf    fn4 2729   0.083   0.235   1.094  0.3663 -0.0088  0.0837
  560ntf    fn4 2730   0.099   0.075   1.233 -0.1959  0.0221  0.2388
  561ntf    cn1 2731   1.869   1.015   1.992  0.0596 -0.0445  0.2903
  561ntf    sn2 2732   1.937   0.848   2.013  0.5487  0.1275  0.1082
  561ntf    nn3 2733   1.825   0.762   1.944 -0.3938  0.9588  0.5752
  561ntf    sn2 2734   1.712   0.664   1.990  0.1187 -0.0317 -0.2447
  561ntf    cn1 2735   1.565   0.727   1.903 -0.2432 -0.3796  0.1103
  561ntf    fn4 2736   1.748   1.029   2.044  0.1233  0.0859  0.4062
  561ntf    fn4 2737   1.957   1.099   2.046  0.2774 -0.3073  0.3481
  561ntf    fn4 2738   1.845   1.041   1.865 -0.2548 -0.9484  0.1602
  561ntf    on5 2739   2.063   0.838   1.944  0.7879 -0.6896  0.6447
  561ntf    on5 2740   1.947   0.826   2.156 -0.4416 -0.2469  0.1293
  561ntf    on5 2741   1.682   0.665   2.131  0.2661 -0.1121 -0.2127
  561ntf    on5 2742   1.728   0.534   1.930 -0.7191 -0.2644  0.0236
  561ntf    fn4 2743   1.584   0.733   1.772 -0.0565 -0.6301  0.1255
  561ntf    fn4 2744   1.452   0.659   1.917 -0.3770 -0.2156 -0.1753
  561ntf    fn4 2745   1.539   0.850   1.944  0.5645  0.0561 -0.6526
  562ntf    cn1 2746   0.602   2.138   2.828  0.3629  0.3959 -0.5811
  562ntf    sn2 2747   0.699   2.010   2.914 -0.2812  0.1375 -0.2386
  562ntf    nn3 2748   0.803   2.099   2.991 -0.1765  0.2476 -0.5059
  562ntf    sn2 2749   0.950   2.135   2.948  0.0254 -0.1638 -0.1708
  562ntf    cn1 2750   1.023   1.978   3.003 -0.0458 -0.1361  0.0054
  562ntf    fn4 2751   0.548   2.220   2.917  0.5566 -0.3635  0.2509
  562ntf    fn4 2752   0.678   2.217   2.754  1.0309  0.1571 -0.1626
  562ntf    fn4 2753   0.499   2.083   2.767  0.3864 -0.1891 -0.1048
  562ntf    on5 2754   0.610   1.955   3.013  0.5077  0.0494  0.4318
  562ntf    on5 2755   0.750   1.921   2.813 -0.2646 -0.1628  0.0337
  562ntf    on5 2756   1.006   2.239   3.030 -0.1627 -0.0188 -0.2250
  562ntf    on5 2757   0.971   2.144   2.806 -0.0861 -0.1382 -0.1860
  562ntf    fn4 2758   0.942   1.923   3.092 -0.8551  0.2571 -0.4768
  562ntf    fn4 2759   1.033   1.905   2.893  0.0553  0.1248 -0.1592
  562ntf    fn4 2760   1.142   1.974   3.060 -0.1697  0.3764  0.3012
  563ntf    cn1 2761   1.983   2.074   2.475 -0.1480  0.0545 -0.2153
  563ntf    sn2 2762   1.809   2.122   2.455 -0.2149 -0.2284 -0.3142
  563ntf    nn3 2763   1.740   1.991   2.403 -0.2519 -0.2139 -0.3010
  563ntf    sn2 2764   1.668   1.890   2.499  0.0564  0.0358  0.1983
  563ntf    cn1 2765   1.505   1.968   2.518  0.0007  0.0006 -0.1187
  563ntf    fn4 2766   1.990   1.953   2.529  0.0751  0.3231  0.3681
  563ntf    fn4 2767   2.037   2.049   2.357 -0.0377  0.3410 -0.2269
  563ntf    fn4 2768   2.059   2.162   2.539 -0.1951 -0.1191  0.0806
  563ntf    on5 2769   1.763   2.172   2.582 -0.0676 -0.7298 -0.0598
  563ntf    on5 2770   1.816   2.216   2.345 -0.1800  0.6119  0.3951
  563ntf    on5 2771   1.716   1.881   2.634 -0.2517 -0.5841  0.2691
  563ntf    on5 2772   1.647   1.764   2.431  0.6490 -0.2681  0.5660
  563ntf    fn4 2773   1.424   1.887   2.584  0.2590 -0.3790 -0.2636
  563ntf    fn4 2774   1.516   2.079   2.589  0.8383 -0.1361 -0.0194
  563ntf    fn4 2775   1.439   1.987   2.405 -0.9277  0.1963  0.4459
  564ntf    cn1 2776   1.591   0.216   3.920 -0.1771  0.3289 -0.2076
  564ntf    sn2 2777   1.423   0.147   3.917 -0.0992  0.1536 -0.5931
  564ntf    nn3 2778   1.342   0.246   3.826 -0.4644  0.1626 -0.2614
  564ntf    sn2 2779   1.275   0.381   3.870 -0.0521  0.2044  0.2480
  564ntf    cn1 2780   1.103   0.344   3.822  0.0607  0.1835 -0.1495
  564ntf    fn4 2781   1.599   0.344   3.952 -0.1052  0.2527  0.0818
  564ntf    fn4 2782   1.661   0.148   4.009  0.6033  0.4444 -0.7263
  564ntf    fn4 2783   1.667   0.203   3.812  0.0463  0.2866 -0.0458
  564ntf    on5 2784   1.447   0.022   3.849 -0.8655 -0.1596 -0.3032
  564ntf    on5 2785   1.394   0.138   4.058  0.8188 -0.6035 -0.4404
  564ntf    on5 2786   1.314   0.500   3.798  0.2941 -0.4503 -0.6672
  564ntf    on5 2787   1.267   0.399   4.013 -0.5639 -0.1363  0.2651
  564ntf    fn4 2788   1.090   0.293   3.701  0.0045 -0.2447  0.0376
  564ntf    fn4 2789   1.046   0.257   3.904  0.7358  0.1913  0.3404
  564ntf    fn4 2790   1.031   0.455   3.833  0.5091  0.4723 -0.1043
  565ntf    cn1 2791   1.597   1.784   3.063 -0.0725  0.2513  0.0149
  565ntf    sn2 2792   1.455   1.894   3.033 -0.3425 -0.0279  0.2524
  565ntf    nn3 2793   1.413   1.931   3.179 -0.2448  0.2011  0.2234
  565ntf    sn2 2794   1.480   2.019   3.290  0.2528  0.1992 -0.0742
  565ntf    cn1 2795   1.528   1.890   3.409 -0.1585 -0.0570 -0.1849
  565ntf    fn4 2796   1.680   1.831   3.154 -0.0162 -0.3068  0.2562
  565ntf    fn4 2797   1.559   1.662   3.097  0.3106  0.0907 -0.1320
  565ntf    fn4 2798   1.677   1.765   2.960  0.1011 -0.2608  0.2387
  565ntf    on5 2799   1.511   2.007   2.962  0.2873 -0.7798 -0.4731
  565ntf    on5 2800   1.366   1.815   2.952 -0.1062  0.2116 -0.2463
  565ntf    on5 2801   1.392   2.107   3.363 -0.2989 -0.3194 -0.1096
  565ntf    on5 2802   1.603   2.085   3.252  0.4577  0.0930  0.3869
  565ntf    fn4 2803   1.623   1.811   3.361 -0.0714  0.4845 -0.9323
  565ntf    fn4 2804   1.587   1.948   3.513  0.1289 -0.2380 -0.2441
  565ntf    fn4 2805   1.422   1.826   3.455 -0.5833  0.2108 -0.7821
  566ntf    cn1 2806   1.917   2.247   1.364  0.0586  0.2718 -0.2188
  566ntf    sn2 2807   1.796   2.128   1.430  0.1692  0.1878 -0.1670
  566ntf    nn3 2808   1.798   2.177   1.580 -0.3434 -0.5448  0.0821
  566ntf    sn2 2809   1.890   2.141   1.702 -0.0706 -0.1864 -0.0174
  566ntf    cn1 2810   1.809   1.996   1.776 -0.1661 -0.1535 -0.0575
  566ntf    fn4 2811   1.952   2.203   1.244  0.0641 -0.0377 -0.1051
  566ntf    fn4 2812   1.860   2.365   1.346  0.4703  0.4700 -0.2311
  566ntf    fn4 2813   2.025   2.259   1.440 -0.4477 -1.0768  0.7582
  566ntf    on5 2814   1.672   2.143   1.359  0.7344 -0.0963 -1.2311
  566ntf    on5 2815   1.863   2.001   1.415  0.1187  0.1446 -0.0249
  566ntf    on5 2816   1.881   2.242   1.804 -0.0008 -0.4919  0.2933
  566ntf    on5 2817   2.022   2.091   1.671 -0.0249 -0.4045  0.5227
  566ntf    fn4 2818   1.841   1.976   1.903  0.6556 -0.0702 -0.2456
  566ntf    fn4 2819   1.678   2.013   1.780 -0.1273  0.1463 -0.0113
  566ntf    fn4 2820   1.832   1.879   1.719  0.1956 -0.2688  0.3172
  567ntf    cn1 2821   1.241   1.783   5.460  0.1610  0.2527 -0.0787
  567ntf    sn2 2822   1.382   1.888   5.411  0.3736  0.0416  0.0778
  567ntf    nn3 2823   1.503   1.788   5.415 -0.0192 -0.4558 -0.2624
  567ntf    sn2 2824   1.566   1.711   5.536 -0.1340 -0.0434  0.0611
  567ntf    cn1 2825   1.721   1.804   5.558 -0.1068 -0.1947  0.5228
  567ntf    fn4 2826   1.261   1.702   5.563  0.5288 -0.2624 -0.5517
  567ntf    fn4 2827   1.136   1.858   5.490  0.0186 -0.0707  0.2381
  567ntf    fn4 2828   1.205   1.707   5.358 -0.2175 -0.1414  0.3464
  567ntf    on5 2829   1.345   1.930   5.278  0.4598  0.0558  0.0587
  567ntf    on5 2830   1.383   1.994   5.507 -0.6125 -0.0864  0.2459
  567ntf    on5 2831   1.610   1.579   5.496 -0.1578 -0.1329  0.3303
  567ntf    on5 2832   1.510   1.724   5.668  0.2730  0.1827  0.2131
  567ntf    fn4 2833   1.704   1.926   5.607  0.6676  0.1348 -0.0007
  567ntf    fn4 2834   1.793   1.745   5.652  0.7187  0.4745  0.3196
  567ntf    fn4 2835   1.790   1.815   5.446 -0.4539  0.6047  0.3788
  568ntf    cn1 2836   0.548   0.605   0.691  0.3307  0.0392  0.6497
  568ntf    sn2 2837   0.726   0.636   0.670  0.2854 -0.0073  0.1710
  568ntf    nn3 2838   0.786   0.564   0.797  0.9328 -0.3260 -0.3102
  568ntf    sn2 2839   0.825   0.631   0.933  0.0078 -0.0902 -0.1518
  568ntf    cn1 2840   0.987   0.699   0.885 -0.0145  0.1935  0.1623
  568ntf    fn4 2841   0.523   0.480   0.729 -0.1449 -0.1359 -0.1891
  568ntf    fn4 2842   0.495   0.685   0.782 -0.5501  0.5280 -0.2727
  568ntf    fn4 2843   0.478   0.614   0.579 -0.2730 -0.2511  0.9974
  568ntf    on5 2844   0.760   0.560   0.553 -0.2543 -0.1584  0.1070
  568ntf    on5 2845   0.735   0.779   0.655  0.0722 -0.0256 -0.1331
  568ntf    on5 2846   0.849   0.542   1.044  0.4852 -0.1388 -0.2919
  568ntf    on5 2847   0.747   0.747   0.970 -0.0308 -0.1366 -0.0889
  568ntf    fn4 2848   1.071   0.608   0.837  0.0084  0.2385  0.1167
  568ntf    fn4 2849   0.988   0.793   0.791  0.0903  0.2547  0.2245
  568ntf    fn4 2850   1.055   0.759   0.981  0.1496  0.1033  0.1024
  569ntf    cn1 2851   0.091   0.920   3.440 -0.1956  0.0680  0.1697
  569ntf    sn2 2852   0.101   1.071   3.339 -0.2224 -0.0438 -0.0008
  569ntf    nn3 2853  -0.021   1.046   3.244 -0.3348  0.4051  0.0226
  569ntf    sn2 2854  -0.037   1.088   3.094 -0.0431 -0.0533 -0.1386
  569ntf    cn1 2855  -0.174   1.206   3.111  0.2689  0.3216 -0.2089
  569ntf    fn4 2856   0.145   0.820   3.374 -0.4929 -0.2598  0.4156
  569ntf    fn4 2857   0.163   0.940   3.549  0.0761  0.1110 -0.0181
  569ntf    fn4 2858  -0.027   0.878   3.483 -0.2735  0.1899  0.0762
  569ntf    on5 2859   0.081   1.177   3.435 -0.6941  0.0161 -0.1659
  569ntf    on5 2860   0.230   1.059   3.276  0.0062  0.0268  0.4449
  569ntf    on5 2861  -0.104   0.984   3.019 -0.0673 -0.1821  0.0617
  569ntf    on5 2862   0.070   1.161   3.029  0.1439 -0.1773  0.0289
  569ntf    fn4 2863  -0.117   1.322   3.139  1.0334 -0.1105  0.0491
  569ntf    fn4 2864  -0.234   1.230   2.995 -0.1889 -0.7992 -0.2115
  569ntf    fn4 2865  -0.263   1.184   3.206  0.5980  0.3204  0.1008
  570ntf    cn1 2866   2.413   1.665   5.327 -0.1233 -0.4642  0.3161
  570ntf    sn2 2867   2.424   1.564   5.176 -0.4290  0.1065 -0.0889
  570ntf    nn3 2868   2.578   1.592   5.167 -0.3150 -0.4541  0.1382
  570ntf    sn2 2869   2.685   1.476   5.164  0.1599 -0.0194  0.1904
  570ntf    cn1 2870   2.811   1.564   5.067 -0.1689 -0.0122 -0.2341
  570ntf    fn4 2871   2.471   1.783   5.318 -0.0970 -0.4756  0.3322
  570ntf    fn4 2872   2.286   1.689   5.353  0.0402  0.7939  0.0225
  570ntf    fn4 2873   2.466   1.600   5.430 -0.3044  0.2618  0.8795
  570ntf    on5 2874   2.387   1.430   5.214  0.5739 -0.1925 -0.1423
  570ntf    on5 2875   2.343   1.640   5.084 -0.2439 -0.2164 -0.5212
  570ntf    on5 2876   2.656   1.359   5.085 -0.0163 -0.0943  0.3674
  570ntf    on5 2877   2.746   1.455   5.293 -0.0559  0.1605  0.3233
  570ntf    fn4 2878   2.931   1.519   5.103 -0.1518  0.2597  0.0445
  570ntf    fn4 2879   2.804   1.534   4.938 -0.0554 -0.4082 -0.1502
  570ntf    fn4 2880   2.805   1.695   5.079  0.3807  0.0138 -0.1964
  571ntf    cn1 2881   1.233   0.530   2.758  0.0149  0.1990 -0.1883
  571ntf    sn2 2882   1.332   0.381   2.724 -0.3029  0.0161 -0.3148
  571ntf    nn3 2883   1.243   0.331   2.605 -0.3611 -0.1744 -0.1924
  571ntf    sn2 2884   1.278   0.347   2.453 -0.0358  0.6345 -0.0362
  571ntf    cn1 2885   1.130   0.432   2.389 -0.4542  0.1647  0.3060
  571ntf    fn4 2886   1.218   0.610   2.654 -0.1976 -0.0956 -0.3865
  571ntf    fn4 2887   1.117   0.474   2.786  0.0314 -0.0432 -0.5884
  571ntf    fn4 2888   1.282   0.601   2.858 -0.1995  0.0124  0.0501
  571ntf    on5 2889   1.470   0.421   2.709 -0.2999  0.1404  0.0338
  571ntf    on5 2890   1.302   0.290   2.832 -0.2765  0.0484 -0.2806
  571ntf    on5 2891   1.260   0.225   2.379  0.2690  0.4643  0.1739
  571ntf    on5 2892   1.391   0.431   2.421  0.0229  0.2204 -0.9529
  571ntf    fn4 2893   1.127   0.437   2.257  0.0968  0.1798  0.2930
  571ntf    fn4 2894   1.021   0.375   2.438 -0.2959 -0.1379  0.3066
  571ntf    fn4 2895   1.132   0.559   2.425 -0.2778  0.2961 -0.1673
  572ntf    cn1 2896   0.071   0.505   5.666  0.0628  0.1507  0.2656
  572ntf    sn2 2897   0.175   0.356   5.656  0.1274  0.2120  0.0187
  572ntf    nn3 2898   0.200   0.310   5.804 -0.3617  0.2055  0.1024
  572ntf    sn2 2899   0.230   0.164   5.854 -0.0273  0.0524 -0.5349
  572ntf    cn1 2900   0.403   0.184   5.906 -0.0784 -0.2288 -0.2574
  572ntf    fn4 2901   0.126   0.604   5.735  0.0038  0.3633  0.0064
  572ntf    fn4 2902   0.044   0.549   5.545  0.1391  0.4753  0.3649
  572ntf    fn4 2903  -0.047   0.485   5.723 -0.3341  0.6444 -0.3800
  572ntf    on5 2904   0.084   0.275   5.579 -0.4307  0.3988  0.4748
  572ntf    on5 2905   0.294   0.407   5.594  0.3910 -0.2833  0.1133
  572ntf    on5 2906   0.232   0.062   5.753  0.5500 -0.3732 -0.0985
  572ntf    on5 2907   0.157   0.135   5.975  0.4901  0.3924 -0.1308
  572ntf    fn4 2908   0.467   0.068   5.907 -0.1147 -0.2477 -0.0563
  572ntf    fn4 2909   0.476   0.254   5.820  0.1323 -0.2393 -0.0888
  572ntf    fn4 2910   0.414   0.234   6.028 -0.0088  0.0791 -0.3902
  573ntf    cn1 2911   1.911   0.382   1.036 -0.4019  0.3262  0.1429
  573ntf    sn2 2912   1.932   0.531   0.934 -0.0380  0.0190 -0.2349
  573ntf    nn3 2913   1.881   0.484   0.793 -0.3492 -0.1835 -0.0552
  573ntf    sn2 2914   1.769   0.537   0.697  0.0378  0.5989 -0.0816
  573ntf    cn1 2915   1.759   0.401   0.577  0.2960 -0.1332  0.7089
  573ntf    fn4 2916   2.021   0.310   1.042 -0.0872  0.7663 -0.2494
  573ntf    fn4 2917   1.879   0.418   1.159 -0.4667  0.2029  0.1627
  573ntf    fn4 2918   1.823   0.295   0.988  0.2584  0.0359 -0.5621
  573ntf    on5 2919   1.856   0.638   0.994  0.4099  0.0887  0.2158
  573ntf    on5 2920   2.076   0.539   0.937 -0.0417  0.0498 -0.1319
  573ntf    on5 2921   1.801   0.655   0.621  0.3520  0.1144 -0.7063
  573ntf    on5 2922   1.643   0.532   0.767 -0.0003 -0.1811 -0.1931
  573ntf    fn4 2923   1.660   0.416   0.491  0.2260 -0.4911  0.7277
  573ntf    fn4 2924   1.861   0.398   0.492 -0.3583  0.5646 -0.1285
  573ntf    fn4 2925   1.756   0.276   0.618  0.1641 -0.4896 -0.3549
  574ntf    cn1 2926   0.460   1.763   0.836  0.0094 -0.4939  0.1210
  574ntf    sn2 2927   0.619   1.822   0.901  0.1240 -0.3319 -0.3046
  574ntf    nn3 2928   0.708   1.741   0.800  0.5634  0.1298 -0.2892
  574ntf    sn2 2929   0.797   1.624   0.855 -0.0311 -0.1299  0.1197
  574ntf    cn1 2930   0.904   1.594   0.711 -0.3171  0.2766 -0.1774
  574ntf    fn4 2931   0.433   1.643   0.886  0.7462 -0.2841  1.0581
  574ntf    fn4 2932   0.360   1.841   0.876  0.0440 -0.1299 -0.4923
  574ntf    fn4 2933   0.445   1.749   0.705 -0.3835 -0.3941  0.1533
  574ntf    on5 2934   0.627   1.963   0.874 -0.6810 -0.1987  0.1237
  574ntf    on5 2935   0.613   1.777   1.038  0.0016  0.3695 -0.0758
  574ntf    on5 2936   0.733   1.494   0.852  0.0687 -0.1878  0.4760
  574ntf    on5 2937   0.893   1.671   0.952 -0.3414  0.3395  0.2033
  574ntf    fn4 2938   0.845   1.565   0.596 -0.8483  0.2789  0.0872
  574ntf    fn4 2939   0.982   1.699   0.690  0.2483 -0.0278  0.3728
  574ntf    fn4 2940   0.988   1.494   0.731 -0.4301  0.2909  0.4034
  575ntf    cn1 2941   1.278   0.442   1.505 -0.1781  0.1124  0.3150
  575ntf    sn2 2942   1.441   0.363   1.494 -0.1813  0.1131  0.2622
  575ntf    nn3 2943   1.436   0.265   1.371  0.3630  0.0154  0.3156
  575ntf    sn2 2944   1.407   0.111   1.361 -0.3843  0.1875 -0.1944
  575ntf    cn1 2945   1.340   0.114   1.192 -0.5476  0.1689 -0.1300
  575ntf    fn4 2946   1.179   0.358   1.531  0.0925 -0.2000  0.3545
  575ntf    fn4 2947   1.287   0.536   1.597 -0.6462  0.0977  0.3799
  575ntf    fn4 2948   1.236   0.502   1.395 -0.6916 -0.6765  0.0646
  575ntf    on5 2949   1.527   0.477   1.474  0.0134 -0.1396 -0.3613
  575ntf    on5 2950   1.454   0.296   1.621 -0.5005  0.0732  0.2728
  575ntf    on5 2951   1.295   0.064   1.439 -0.4009 -0.1902 -0.4425
  575ntf    on5 2952   1.525   0.029   1.359  0.0461  0.8028 -0.5779
  575ntf    fn4 2953   1.227   0.180   1.174 -0.5636  0.1264 -0.1857
  575ntf    fn4 2954   1.426   0.149   1.098 -0.2047 -0.7505 -0.1724
  575ntf    fn4 2955   1.298  -0.007   1.157 -0.0220 -0.2493  0.6642
  576ntf    cn1 2956   0.304   0.985   2.007 -0.0262  0.2756  0.4967
  576ntf    sn2 2957   0.441   0.870   2.041 -0.0663  0.1663  0.2931
  576ntf    nn3 2958   0.531   0.946   2.146  0.2956  0.0021  0.1042
  576ntf    sn2 2959   0.540   0.916   2.300  0.2731  0.3474  0.1723
  576ntf    cn1 2960   0.666   0.785   2.296  0.3602  0.4161  0.5763
  576ntf    fn4 2961   0.337   1.091   1.935  0.3213 -0.1994 -0.0599
  576ntf    fn4 2962   0.210   0.924   1.938  0.5158  0.1368 -0.1363
  576ntf    fn4 2963   0.252   1.036   2.117  0.0152  0.1125  0.5924
  576ntf    on5 2964   0.375   0.751   2.088  0.0555 -0.0569 -0.0977
  576ntf    on5 2965   0.505   0.857   1.912  0.5309  0.0428  0.5964
  576ntf    on5 2966   0.424   0.860   2.364  0.2828  0.4190  0.2516
  576ntf    on5 2967   0.599   1.029   2.367  0.2441  0.2103  0.4318
  576ntf    fn4 2968   0.748   0.789   2.399  0.0543 -0.0267  0.8401
  576ntf    fn4 2969   0.612   0.664   2.288  0.3155  0.4541  0.2922
  576ntf    fn4 2970   0.748   0.801   2.193 -0.0389  0.0633  0.1978
  577ntf    cn1 2971   0.382   2.056   4.305  0.3521 -0.0487  0.0736
  577ntf    sn2 2972   0.316   2.101   4.468  0.1247 -0.0204 -0.0261
  577ntf    nn3 2973   0.342   1.967   4.545  0.0051  0.1802  0.3683
  577ntf    sn2 2974   0.435   1.934   4.668  0.1427 -0.1064  0.1903
  577ntf    cn1 2975   0.359   1.778   4.720  0.1204 -0.1200  0.1175
  577ntf    fn4 2976   0.391   2.168   4.236  0.3260  0.1834  0.4449
  577ntf    fn4 2977   0.501   1.996   4.302  0.2378 -0.2870  0.2502
  577ntf    fn4 2978   0.295   1.987   4.233  0.1693  0.7136 -0.4501
  577ntf    on5 2979   0.409   2.204   4.509 -0.0100  0.3279 -0.5790
  577ntf    on5 2980   0.180   2.138   4.438 -0.1768 -0.5536  0.6454
  577ntf    on5 2981   0.423   2.017   4.785  0.5086  0.2405 -0.0143
  577ntf    on5 2982   0.565   1.897   4.617 -0.0842 -0.3232 -0.2454
  577ntf    fn4 2983   0.407   1.740   4.837  0.2604 -0.2640  0.0128
  577ntf    fn4 2984   0.234   1.811   4.749  0.0515 -0.0128 -0.2952
  577ntf    fn4 2985   0.359   1.683   4.628 -0.4391  0.0529 -0.0678
  578ntf    cn1 2986   0.022   0.997   0.431  0.3791 -0.1096 -0.1961
  578ntf    sn2 2987   0.092   0.830   0.453  0.3050 -0.1473 -0.2459
  578ntf    nn3 2988   0.195   0.850   0.336  0.8708 -0.1347  0.2488
  578ntf    sn2 2989   0.229   0.753   0.217  0.2080 -0.2656  0.1648
  578ntf    cn1 2990   0.135   0.835   0.085  0.1776 -0.4934  0.0464
  578ntf    fn4 2991  -0.046   0.998   0.318 -0.4145 -0.1164  0.2752
  578ntf    fn4 2992  -0.061   1.029   0.529  0.4026 -0.2093 -0.1425
  578ntf    fn4 2993   0.122   1.083   0.433  0.6199 -0.3865 -0.1506
  578ntf    on5 2994   0.147   0.843   0.586  0.6872  0.9089 -0.4956
  578ntf    on5 2995  -0.019   0.741   0.435  0.4721 -0.4600  0.2636
  578ntf    on5 2996   0.166   0.624   0.210 -0.2177 -0.0493 -0.0342
  578ntf    on5 2997   0.365   0.763   0.172 -0.0741  0.3311 -0.5710
  578ntf    fn4 2998   0.188   0.951   0.052 -0.3652 -0.2639 -0.0413
  578ntf    fn4 2999   0.130   0.757  -0.022 -0.1983 -0.7373  0.2375
  578ntf    fn4 3000   0.010   0.860   0.123  0.2461  0.3944 -0.2898
  579ntf    cn1 3001   2.465   1.646   6.155 -0.4130  0.1093 -0.0070
  579ntf    sn2 3002   2.432   1.514   6.035  0.5169  0.1523 -0.3176
  579ntf    nn3 3003   2.275   1.523   6.026  0.5293  0.1395 -0.5651
  579ntf    sn2 3004   2.184   1.538   5.899 -0.0723 -0.1004 -0.1629
  579ntf    cn1 3005   2.171   1.720   5.894 -0.2202 -0.1022  0.0896
  579ntf    fn4 3006   2.591   1.649   6.194 -0.3186 -0.2768 -0.2756
  579ntf    fn4 3007   2.426   1.764   6.110 -0.2329 -0.0060 -0.4698
  579ntf    fn4 3008   2.402   1.621   6.269  0.2719  0.2095  0.4015
  579ntf    on5 3009   2.506   1.548   5.916  0.5108 -0.2456 -0.4365
  579ntf    on5 3010   2.488   1.406   6.112  0.5746  0.3887 -0.0303
  579ntf    on5 3011   2.046   1.504   5.925 -0.1858  0.2814 -0.2595
  579ntf    on5 3012   2.239   1.489   5.776 -0.5644  0.3000 -0.5492
  579ntf    fn4 3013   2.121   1.768   6.006 -0.5317 -0.3461  0.0574
  579ntf    fn4 3014   2.288   1.780   5.880 -0.2938  0.0791  0.2492
  579ntf    fn4 3015   2.100   1.768   5.793  0.1928 -0.6456 -0.4668
  580ntf    cn1 3016   1.691   2.102   4.462 -0.3718  0.2004 -0.3872
  580ntf    sn2 3017   1.511   2.080   4.464 -0.3571  0.0945 -0.1418
  580ntf    nn3 3018   1.492   1.929   4.425  0.3008 -0.0968  0.2674
  580ntf    sn2 3019   1.399   1.878   4.309  0.0585  0.1606  0.3477
  580ntf    cn1 3020   1.504   1.913   4.165 -0.5524  0.3502 -0.0562
  580ntf    fn4 3021   1.732   2.228   4.457 -0.1885  0.1408 -0.3744
  580ntf    fn4 3022   1.752   2.064   4.573 -0.4259  0.7156 -0.1762
  580ntf    fn4 3023   1.755   2.042   4.363  0.4311  0.8320 -0.2576
  580ntf    on5 3024   1.476   2.099   4.602 -0.0644  0.3443 -0.1010
  580ntf    on5 3025   1.471   2.180   4.368 -0.4958  0.3134  0.1420
  580ntf    on5 3026   1.278   1.950   4.276 -0.0507 -0.1015  0.1719
  580ntf    on5 3027   1.396   1.734   4.306  0.6294  0.1658 -0.8891
  580ntf    fn4 3028   1.540   2.040   4.165  0.0654  0.1814 -0.6627
  580ntf    fn4 3029   1.623   1.854   4.168 -0.5491  0.3338 -0.4337
  580ntf    fn4 3030   1.446   1.876   4.052 -0.3099  0.1582 -0.1207
  581ntf    cn1 3031   0.455   1.637   1.326 -0.0475  0.1888 -0.2281
  581ntf    sn2 3032   0.432   1.514   1.458 -0.0752  0.0830 -0.3312
  581ntf    nn3 3033   0.523   1.577   1.570 -0.6028 -0.3850  0.3684
  581ntf    sn2 3034   0.670   1.536   1.604 -0.3977  0.2503  0.2583
  581ntf    cn1 3035   0.734   1.691   1.672  0.9076 -0.1136 -0.0892
  581ntf    fn4 3036   0.583   1.661   1.303  0.0435 -0.0894 -0.0186
  581ntf    fn4 3037   0.397   1.605   1.212 -0.0186  0.5044 -0.3320
  581ntf    fn4 3038   0.413   1.757   1.362  0.3478  0.1810  0.2649
  581ntf    on5 3039   0.292   1.521   1.491  0.0351  0.3696  0.0768
  581ntf    on5 3040   0.475   1.389   1.401  0.2906  0.1060 -0.1140
  581ntf    on5 3041   0.752   1.506   1.488 -1.4164 -0.5262 -0.2778
  581ntf    on5 3042   0.686   1.444   1.714  0.2000 -0.1444 -0.1494
  581ntf    fn4 3043   0.844   1.670   1.743  0.5380 -0.0205  0.5221
  581ntf    fn4 3044   0.754   1.792   1.589 -0.0515  0.1487 -0.0201
  581ntf    fn4 3045   0.647   1.740   1.760  0.8894 -0.2158 -0.0507
  582ntf    cn1 3046   2.220   1.593   2.867  0.2316 -0.1765  0.1334
  582ntf    sn2 3047   2.234   1.754   2.951 -0.0952  0.0733 -0.2873
  582ntf    nn3 3048   2.343   1.829   2.867  0.1452  0.0066 -0.0369
  582ntf    sn2 3049   2.354   1.983   2.842  0.0555 -0.0139 -0.2072
  582ntf    cn1 3050   2.275   1.971   2.679 -0.3461  0.0119 -0.0145
  582ntf    fn4 3051   2.319   1.510   2.895  0.4255 -0.1999 -0.6126
  582ntf    fn4 3052   2.104   1.538   2.899  0.2718 -0.4177 -0.1304
  582ntf    fn4 3053   2.229   1.601   2.735  0.2533 -0.5536  0.1110
  582ntf    on5 3054   2.098   1.803   2.944 -0.0732  0.2272  0.3472
  582ntf    on5 3055   2.272   1.722   3.086 -0.3713 -0.3435 -0.3075
  582ntf    on5 3056   2.488   2.028   2.810  0.0759  0.2447  0.2371
  582ntf    on5 3057   2.277   2.074   2.923  0.1897  0.0586 -0.1588
  582ntf    fn4 3058   2.147   1.938   2.687 -0.1708 -0.6411  0.1744
  582ntf    fn4 3059   2.280   2.087   2.615 -0.2500 -0.0983 -0.2073
  582ntf    fn4 3060   2.339   1.885   2.601  0.2267  0.0649  0.3896
  583ntf    cn1 3061   1.385   1.031   0.247 -0.1102  0.0836  0.3113
  583ntf    sn2 3062   1.381   1.199   0.178  0.1563  0.0749  0.2747
  583ntf    nn3 3063   1.262   1.266   0.256 -0.0634  0.3653 -0.3069
  583ntf    sn2 3064   1.114   1.298   0.215 -0.2024 -0.2617 -0.3070
  583ntf    cn1 3065   1.026   1.238   0.362  0.2992 -0.0315  0.0889
  583ntf    fn4 3066   1.383   1.037   0.379 -0.3171 -0.7432  0.3497
  583ntf    fn4 3067   1.278   0.967   0.203  0.1099  0.2790 -0.5377
  583ntf    fn4 3068   1.488   0.957   0.210 -0.5113 -0.1610 -0.3249
  583ntf    on5 3069   1.504   1.262   0.221  0.2795 -0.0367  0.0839
  583ntf    on5 3070   1.366   1.175   0.037 -0.4862 -0.0528  0.3660
  583ntf    on5 3071   1.054   1.217   0.111 -1.1634  0.1625 -0.0906
  583ntf    on5 3072   1.081   1.438   0.217 -0.1685 -0.2399 -0.9213
  583ntf    fn4 3073   1.092   1.294   0.462 -0.1828  0.7379 -0.0141
  583ntf    fn4 3074   0.897   1.267   0.361  0.4665  0.7202 -1.0148
  583ntf    fn4 3075   1.036   1.108   0.386  0.0302 -0.0934 -0.1348
  584ntf    cn1 3076   1.948   2.111   5.868 -0.2656 -0.1977  0.2399
  584ntf    sn2 3077   1.889   2.261   5.953  0.4359  0.0427  0.3074
  584ntf    nn3 3078   1.882   2.200   6.097  0.1898  0.1917  0.3573
  584ntf    sn2 3079   1.768   2.207   6.205 -0.3191 -0.0161 -0.1633
  584ntf    cn1 3080   1.741   2.386   6.225  0.1176  0.0454 -0.1236
  584ntf    fn4 3081   2.079   2.092   5.871 -0.2185  0.1579  0.5226
  584ntf    fn4 3082   1.885   1.999   5.899 -0.4322 -0.0722  0.3590
  584ntf    fn4 3083   1.932   2.117   5.737 -1.1921 -0.8409  0.3103
  584ntf    on5 3084   1.996   2.354   5.926  0.3142 -0.0006 -0.3521
  584ntf    on5 3085   1.761   2.288   5.892  0.8855  1.0214 -0.2322
  584ntf    on5 3086   1.811   2.182   6.340 -0.1772  0.2955 -0.1495
  584ntf    on5 3087   1.639   2.156   6.165 -0.2286 -0.4145  0.0478
  584ntf    fn4 3088   1.638   2.419   6.302  0.2374  0.0300  0.0445
  584ntf    fn4 3089   1.844   2.452   6.275 -0.2186  0.4243  0.0763
  584ntf    fn4 3090   1.719   2.442   6.107 -0.2323  0.3373  0.0794
  585ntf    cn1 3091   0.745   1.390   4.934  0.2800  0.2447 -0.2578
  585ntf    sn2 3092   0.863   1.262   4.988 -0.0823  0.0117 -0.0183
  585ntf    nn3 3093   0.805   1.148   4.896 -0.1106 -0.0439  0.0678
  585ntf    sn2 3094   0.877   1.083   4.772 -0.0167 -0.0156  0.1079
  585ntf    cn1 3095   0.799   0.920   4.776 -0.3439  0.1373 -0.0392
  585ntf    fn4 3096   0.622   1.353   4.905  0.2920  0.3322 -0.4190
  585ntf    fn4 3097   0.738   1.482   5.028  0.1598 -0.1616  0.1351
  585ntf    fn4 3098   0.789   1.446   4.823 -0.1259  0.1027 -0.4938
  585ntf    on5 3099   0.988   1.327   4.960 -0.0701 -0.0975 -0.2213
  585ntf    on5 3100   0.819   1.243   5.124  0.3275 -0.2829  0.0748
  585ntf    on5 3101   1.015   1.045   4.788  0.0596  0.0202 -0.4505
  585ntf    on5 3102   0.833   1.139   4.647  0.3087  0.2505  0.1107
  585ntf    fn4 3103   0.840   0.861   4.887  0.1351 -0.2654 -0.4245
  585ntf    fn4 3104   0.666   0.915   4.771 -0.3737  0.6640  0.2281
  585ntf    fn4 3105   0.849   0.841   4.682 -0.2012  0.6922 -0.4333
  586ntf    cn1 3106   1.203   0.293   5.844  0.2193  0.0215 -0.4268
  586ntf    sn2 3107   1.361   0.251   5.765  0.3027  0.1716 -0.3382
  586ntf    nn3 3108   1.460   0.330   5.857  0.1100 -0.2145  0.2003
  586ntf    sn2 3109   1.530   0.277   5.988  0.0693  0.1996  0.3919
  586ntf    cn1 3110   1.685   0.212   5.920 -0.1200  0.3433 -0.1886
  586ntf    fn4 3111   1.100   0.258   5.768  0.0852 -0.0376 -0.2166
  586ntf    fn4 3112   1.177   0.241   5.963 -0.3767  1.1561 -0.0515
  586ntf    fn4 3113   1.194   0.424   5.860 -0.5088 -0.0701 -0.0304
  586ntf    on5 3114   1.368   0.107   5.762 -0.2729  0.1177  0.6708
  586ntf    on5 3115   1.345   0.313   5.635 -0.0696  0.1205 -0.3176
  586ntf    on5 3116   1.467   0.165   6.053 -0.0150 -0.0002 -0.0325
  586ntf    on5 3117   1.569   0.387   6.072 -0.2113  0.6684 -0.0809
  586ntf    fn4 3118   1.724   0.278   5.812  0.3382  0.3658 -0.0127
  586ntf    fn4 3119   1.779   0.213   6.014 -0.8654 -0.5792  0.5849
  586ntf    fn4 3120   1.667   0.087   5.884 -0.5774  0.4019 -0.1617
  587ntf    cn1 3121   1.756   0.793   4.374 -0.0943  0.0736  0.1027
  587ntf    sn2 3122   1.778   0.781   4.554  0.1227  0.6481  0.1153
  587ntf    nn3 3123   1.787   0.627   4.583  0.0356  0.6956  0.3959
  587ntf    sn2 3124   1.757   0.555   4.719  0.0037  0.0049  0.0265
  587ntf    cn1 3125   1.914   0.579   4.807 -0.2205  0.4964  0.2922
  587ntf    fn4 3126   1.753   0.918   4.330  0.2931  0.0186 -0.0851
  587ntf    fn4 3127   1.857   0.740   4.308 -0.1203  0.1015  0.0400
  587ntf    fn4 3128   1.649   0.734   4.322 -0.2418  0.0321  0.4539
  587ntf    on5 3129   1.909   0.838   4.574  0.6648 -0.3275 -0.5913
  587ntf    on5 3130   1.669   0.853   4.614 -0.1691 -0.0338  0.4069
  587ntf    on5 3131   1.760   0.411   4.705 -0.0470 -0.0171  0.2424
  587ntf    on5 3132   1.669   0.625   4.808 -0.3962 -0.3322 -0.0998
  587ntf    fn4 3133   1.913   0.506   4.917 -0.4738  0.0200 -0.0238
  587ntf    fn4 3134   2.026   0.551   4.742 -0.3625  0.2148  0.1698
  587ntf    fn4 3135   1.921   0.707   4.840  0.2220  0.5309  0.0771
  588ntf    cn1 3136   0.555   0.587   6.664  0.2756  0.0612  0.4545
  588ntf    sn2 3137   0.735   0.571   6.649  0.2663  0.4970 -0.1801
  588ntf    nn3 3138   0.760   0.529   6.799 -0.6185 -0.1104 -0.1933
  588ntf    sn2 3139   0.740   0.389   6.867 -0.1698 -0.1849 -0.2097
  588ntf    cn1 3140   0.796   0.447   7.030  0.1652 -0.1778 -0.3261
  588ntf    fn4 3141   0.530   0.673   6.761 -0.3075  0.0527  0.3144
  588ntf    fn4 3142   0.500   0.625   6.550 -0.2982 -0.5193  0.5351
  588ntf    fn4 3143   0.502   0.471   6.700  0.0279 -0.0533 -0.2643
  588ntf    on5 3144   0.766   0.474   6.547  0.0224  0.4155 -0.1756
  588ntf    on5 3145   0.777   0.707   6.628 -0.0972  0.5984 -0.2396
  588ntf    on5 3146   0.834   0.290   6.822  0.0617 -0.0249 -0.0788
  588ntf    on5 3147   0.605   0.350   6.901 -0.3688  0.5292 -0.1648
  588ntf    fn4 3148   0.750   0.566   7.063 -0.1541 -0.1206 -0.9508
  588ntf    fn4 3149   0.761   0.364   7.127  0.1905  0.0754 -0.0973
  588ntf    fn4 3150   0.927   0.456   7.044  0.0685  0.2367  0.3229
  589ntf    cn1 3151   1.381   1.707   0.865 -0.3807 -0.0329  0.1227
  589ntf    sn2 3152   1.451   1.866   0.813  0.0333 -0.3270 -0.2306
  589ntf    nn3 3153   1.415   1.843   0.662 -0.3837 -0.7677 -0.0682
  589ntf    sn2 3154   1.290   1.899   0.586 -0.0954  0.3225  0.2378
  589ntf    cn1 3155   1.356   2.065   0.551  0.1390  0.1876  0.0445
  589ntf    fn4 3156   1.412   1.608   0.782 -0.0111  0.3047 -0.1441
  589ntf    fn4 3157   1.415   1.667   0.986 -0.4116 -0.0943  0.1113
  589ntf    fn4 3158   1.249   1.715   0.867 -0.3807 -0.1213  0.4506
  589ntf    on5 3159   1.389   1.974   0.886  0.5698 -0.1930  0.0313
  589ntf    on5 3160   1.594   1.853   0.826  0.0391 -0.2777 -0.2451
  589ntf    on5 3161   1.173   1.926   0.666 -0.0217  0.1540  0.4028
  589ntf    on5 3162   1.266   1.851   0.452  0.6673 -0.1076  0.2490
  589ntf    fn4 3163   1.471   2.061   0.486  0.1342 -0.1717  0.0537
  589ntf    fn4 3164   1.272   2.138   0.479 -0.2329 -0.2210  0.0529
  589ntf    fn4 3165   1.382   2.134   0.660  0.4208  0.5043 -0.2246
  590ntf    cn1 3166   1.560   0.002   0.339 -0.1873  0.1752  0.0785
  590ntf    sn2 3167   1.426   0.114   0.390 -0.0454  0.3531  0.0638
  590ntf    nn3 3168   1.464   0.130   0.542 -0.4832  0.2014  0.1896
  590ntf    sn2 3169   1.432   0.033   0.661  0.1667 -0.1323  0.0944
  590ntf    cn1 3170   1.286   0.120   0.727  0.2978  0.3031 -0.1875
  590ntf    fn4 3171   1.570  -0.019   0.208 -0.1306  0.5186  0.0259
  590ntf    fn4 3172   1.679   0.039   0.384  0.0293 -0.3679 -0.0370
  590ntf    fn4 3173   1.541  -0.120   0.386  0.2242  0.0397 -0.0926
  590ntf    on5 3174   1.444   0.233   0.311  0.0775  0.0206 -0.4191
  590ntf    on5 3175   1.308   0.037   0.359  0.4151 -0.0767 -0.6557
  590ntf    on5 3176   1.527   0.043   0.769 -0.1428  0.1879  0.3404
  590ntf    on5 3177   1.387  -0.098   0.623 -0.4784  0.0561  0.2041
  590ntf    fn4 3178   1.169   0.102   0.668  0.1200 -0.5158  0.4061
  590ntf    fn4 3179   1.263   0.091   0.853  0.0736  0.0197 -0.2929
  590ntf    fn4 3180   1.293   0.252   0.720 -0.0355  0.3183 -0.2419
  591ntf    cn1 3181   1.007   1.908   6.066 -0.0322  0.0330  0.3467
  591ntf    sn2 3182   0.843   1.947   5.997  0.0367 -0.1111  0.1011
  591ntf    nn3 3183   0.864   2.096   5.954  0.4678 -0.1348  0.2214
  591ntf    sn2 3184   0.857   2.145   5.805  0.0977  0.1674  0.3365
  591ntf    cn1 3185   0.677   2.156   5.779  0.1171 -0.3021 -0.0205
  591ntf    fn4 3186   1.111   1.961   6.002  0.2589 -0.0977  0.7092
  591ntf    fn4 3187   1.019   1.947   6.192 -0.1946  0.3254  0.2727
  591ntf    fn4 3188   1.021   1.777   6.062  0.2957  0.0813 -0.2563
  591ntf    on5 3189   0.821   1.840   5.902 -0.7756  0.1171  0.0249
  591ntf    on5 3190   0.757   1.944   6.113 -0.0166  0.2782  0.0707
  591ntf    on5 3191   0.897   2.048   5.706 -1.0727 -0.2952  0.2927
  591ntf    on5 3192   0.909   2.275   5.774  0.2706 -0.1061 -0.5704
  591ntf    fn4 3193   0.647   2.211   5.663  0.3465 -0.1620 -0.0131
  591ntf    fn4 3194   0.621   2.036   5.780 -0.2061 -0.1510  0.0078
  591ntf    fn4 3195   0.615   2.233   5.867 -0.1102  0.2298 -0.6390
  592ntf    cn1 3196   0.665   1.471   3.611 -0.0691 -0.1481  0.3683
  592ntf    sn2 3197   0.816   1.538   3.688  0.1120  0.1979 -0.2851
  592ntf    nn3 3198   0.915   1.421   3.651  0.5014  0.3170  0.3833
  592ntf    sn2 3199   0.972   1.302   3.737 -0.2778  0.0629  0.5519
  592ntf    cn1 3200   1.145   1.295   3.684 -0.2899 -0.2727  0.5533
  592ntf    fn4 3201   0.677   1.341   3.590 -0.4687 -0.2128  0.5356
  592ntf    fn4 3202   0.559   1.482   3.690 -0.6520  0.4795 -0.4813
  592ntf    fn4 3203   0.625   1.526   3.498  0.2088  0.0180  0.3504
  592ntf    on5 3204   0.844   1.649   3.600 -0.8858  0.0612 -0.7869
  592ntf    on5 3205   0.788   1.564   3.826  0.0112 -0.1976 -0.2310
  592ntf    on5 3206   0.917   1.175   3.696  0.1102  0.0612  0.0291
  592ntf    on5 3207   0.989   1.322   3.878  0.1440 -0.1001  0.5236
  592ntf    fn4 3208   1.151   1.295   3.552 -0.1456  0.3599  0.5550
  592ntf    fn4 3209   1.226   1.388   3.733 -0.3982  0.2373 -0.2058
  592ntf    fn4 3210   1.197   1.179   3.718  0.3153 -0.1837 -0.0438
  593ntf    cn1 3211   2.139   1.208   0.360 -0.3305  0.2468  0.0519
  593ntf    sn2 3212   2.191   1.339   0.475  0.0469  0.0605  0.0985
  593ntf    nn3 3213   2.333   1.373   0.417  0.1942 -0.4668  0.1449
  593ntf    sn2 3214   2.379   1.483   0.315 -0.4901 -0.1356  0.1825
  593ntf    cn1 3215   2.402   1.631   0.419 -0.3304 -0.1071  0.1072
  593ntf    fn4 3216   2.229   1.110   0.362  0.2825  0.7978 -0.0158
  593ntf    fn4 3217   2.028   1.144   0.394 -0.0122 -0.4508 -0.1871
  593ntf    fn4 3218   2.133   1.243   0.233  0.2349  0.0236 -0.0415
  593ntf    on5 3219   2.090   1.442   0.465  0.1002  0.1319  0.2997
  593ntf    on5 3220   2.188   1.267   0.599 -0.0049 -0.3214 -0.1224
  593ntf    on5 3221   2.289   1.523   0.210 -0.6712 -0.6677  0.1330
  593ntf    on5 3222   2.512   1.459   0.264 -0.7545 -0.8136 -0.1921
  593ntf    fn4 3223   2.392   1.745   0.353 -0.8016 -0.1198  0.1543
  593ntf    fn4 3224   2.307   1.636   0.511 -0.1424  0.1202  0.2907
  593ntf    fn4 3225   2.518   1.630   0.483 -0.0276  0.0762 -0.4312
  594ntf    cn1 3226   0.624   1.550   6.828  0.1691  0.3039  0.1256
  594ntf    sn2 3227   0.802   1.556   6.792  0.0941  0.2183 -0.2555
  594ntf    nn3 3228   0.816   1.655   6.671  1.0900  0.3793 -0.0202
  594ntf    sn2 3229   0.846   1.633   6.518  0.0859 -0.1124 -0.1585
  594ntf    cn1 3230   0.676   1.657   6.458  0.1644  0.2392 -0.2448
  594ntf    fn4 3231   0.565   1.664   6.860  0.3690  0.2373  0.7412
  594ntf    fn4 3232   0.560   1.506   6.722  0.0726 -0.4777  0.5019
  594ntf    fn4 3233   0.602   1.467   6.929  0.3126 -0.4559 -0.4645
  594ntf    on5 3234   0.841   1.614   6.917 -0.4330  0.0918 -0.0276
  594ntf    on5 3235   0.839   1.417   6.773 -0.0989  0.0943  0.2624
  594ntf    on5 3236   0.894   1.503   6.480 -0.1285 -0.1573 -0.2774
  594ntf    on5 3237   0.912   1.747   6.458 -0.0682  0.4251  0.6764
  594ntf    fn4 3238   0.593   1.598   6.542  0.2511  0.2669 -0.1389
  594ntf    fn4 3239   0.638   1.783   6.455  0.2850  0.2726 -0.3671
  594ntf    fn4 3240   0.669   1.604   6.337  0.4852 -1.0778  0.2932
   2.49305   2.49305   6.96404
