Converted from moscito
17280
    1SOL     ow    1   5.881   4.453   0.880 -0.0226  0.0364  0.1265
    1SOL     hw    2   5.911   4.518   0.816  0.4582 -0.4433 -0.1457
    1SOL     hw    3   5.818   4.399   0.832  2.2898 -2.0235 -0.8304
    1SOL     vw    4   5.877   4.454   0.865  0.3462 -0.2985 -0.0357
    2SOL     ow    5   2.893   6.575   2.777  0.2832 -0.6782 -0.1815
    2SOL     hw    6   2.987   6.589   2.766  0.2885 -1.7388 -1.7059
    2SOL     hw    7   2.886   6.511   2.848  0.6120  0.4850  0.9406
    2SOL     vw    8   2.904   6.569   2.785  0.3271 -0.6647 -0.2346
    3SOL     ow    9   3.800   3.794   1.008 -0.3443 -0.5284 -0.4568
    3SOL     hw   10   3.848   3.876   1.001  0.5379 -1.0473 -0.6376
    3SOL     hw   11   3.866   3.730   1.035 -1.0821 -1.1171 -0.0075
    3SOL     vw   12   3.815   3.796   1.011 -0.3253 -0.6746 -0.4213
    4SOL     ow   13   0.190   3.707   0.728 -0.3767 -0.8615  0.9100
    4SOL     hw   14   0.129   3.637   0.748  0.4704 -1.9929 -0.2237
    4SOL     hw   15   0.267   3.662   0.692  0.4463  0.6067  0.7301
    4SOL     vw   16   0.192   3.692   0.726 -0.1563 -0.8171  0.7367
    5SOL     ow   17   4.482   3.100   4.416 -0.3283  0.1987  0.1796
    5SOL     hw   18   4.568   3.121   4.380 -0.2205  0.6843  0.7000
    5SOL     hw   19   4.500   3.078   4.508 -0.7627  0.3182  0.2947
    5SOL     vw   20   4.496   3.100   4.424 -0.3717  0.2785  0.2635
    6SOL     ow   21   5.105   3.423   5.484  0.3304  0.2007  0.3423
    6SOL     hw   22   5.169   3.388   5.546  0.9002 -0.0969 -0.3977
    6SOL     hw   23   5.149   3.498   5.444  0.4182 -0.2885 -0.5098
    6SOL     vw   24   5.119   3.428   5.487  0.4172  0.0970  0.1323
    7SOL     ow   25   1.478   1.156   2.091 -0.1033 -0.2001  0.1191
    7SOL     hw   26   1.454   1.233   2.040  1.2068 -0.3306 -0.7308
    7SOL     hw   27   1.491   1.190   2.180  1.2335  0.7322 -0.4034
    7SOL     vw   28   1.477   1.171   2.096  0.2459 -0.0944 -0.0620
    8SOL     ow   29   6.673   0.407   1.252 -0.0159  0.2413 -0.0801
    8SOL     hw   30   6.594   0.360   1.227 -0.2438 -0.2577  1.4904
    8SOL     hw   31   6.647   0.499   1.253 -0.6370  0.0683  0.5868
    8SOL     vw   32   6.659   0.413   1.249 -0.1280  0.1526  0.2151
    9SOL     ow   33   3.809   1.392   5.932  0.0367 -0.0064  0.1514
    9SOL     hw   34   3.838   1.468   5.983 -2.4139  1.1075 -0.0069
    9SOL     hw   35   3.856   1.318   5.971  1.9718  1.4605  0.7512
    9SOL     vw   36   3.819   1.392   5.944 -0.0314  0.3342  0.2093
   10SOL     ow   37   1.659   2.547   2.891  0.0689 -0.0183  0.0890
   10SOL     hw   38   1.703   2.600   2.958 -0.1462 -1.4782  1.4326
   10SOL     hw   39   1.570   2.582   2.888  0.1094  0.1269  0.5037
   10SOL     vw   40   1.653   2.559   2.899  0.0459 -0.1917  0.3210
   11SOL     ow   41   5.178   5.455   5.050 -0.2418 -0.3913  0.1653
   11SOL     hw   42   5.182   5.532   5.106  2.4563 -0.9979  0.9909
   11SOL     hw   43   5.121   5.393   5.096  1.5638 -0.7035  2.1198
   11SOL     vw   44   5.171   5.457   5.063  0.3524 -0.5128  0.5322
   12SOL     ow   45   6.483   6.284   0.851  0.3483  0.5211  0.0288
   12SOL     hw   46   6.435   6.295   0.769  1.8297 -0.6008 -1.0375
   12SOL     hw   47   6.417   6.253   0.913 -0.9351  1.9912 -0.5331
   12SOL     vw   48   6.468   6.281   0.848  0.3743  0.5672 -0.1860
   13SOL     ow   49   1.893   2.842   2.053  0.2784  0.0669  0.1057
   13SOL     hw   50   1.971   2.877   2.095  1.6074 -1.1867 -1.2012
   13SOL     hw   51   1.886   2.752   2.085 -0.1021 -0.1116 -0.4461
   13SOL     vw   52   1.902   2.834   2.063  0.4035 -0.1221 -0.1395
   14SOL     ow   53   5.836   0.692   0.930 -0.3816  0.7624 -0.1070
   14SOL     hw   54   5.794   0.701   1.016 -1.1605 -1.5470 -0.1643
   14SOL     hw   55   5.777   0.736   0.869 -0.6694  0.9885  0.3242
   14SOL     vw   56   5.823   0.699   0.934 -0.5224  0.4875 -0.0576
   15SOL     ow   57   1.351   1.957   0.168 -0.8170 -0.2297  0.1761
   15SOL     hw   58   1.402   2.034   0.192  1.0797 -0.9989 -1.1631
   15SOL     hw   59   1.350   1.958   0.072 -0.0523 -2.2767  0.0916
   15SOL     vw   60   1.358   1.967   0.158 -0.4659 -0.6012 -0.0118
   16SOL     ow   61   6.760   1.651   1.302  0.1766  0.6149  0.2954
   16SOL     hw   62   6.786   1.670   1.392  0.8578 -1.4773  0.5989
   16SOL     hw   63   6.837   1.672   1.249  0.4073  0.1696  0.4461
   16SOL     vw   64   6.773   1.656   1.307  0.2971  0.2801  0.3554
   17SOL     ow   65   4.851   3.399   1.552  0.0709  0.3540 -0.2162
   17SOL     hw   66   4.842   3.304   1.547  1.8091 -0.0084  1.9480
   17SOL     hw   67   4.877   3.416   1.643 -1.5593  3.0508 -0.1420
   17SOL     vw   68   4.853   3.389   1.563  0.0851  0.6620  0.0791
   18SOL     ow   69   2.246   0.819   3.501 -0.1232 -0.4646  0.5589
   18SOL     hw   70   2.175   0.877   3.528  0.1683 -0.3264  1.0565
   18SOL     hw   71   2.297   0.805   3.581 -1.1949 -2.8829  0.9026
   18SOL     vw   72   2.243   0.825   3.516 -0.2263 -0.7654  0.6700
   19SOL     ow   73   0.910   3.313   4.056 -0.4887 -0.0844 -0.3587
   19SOL     hw   74   0.947   3.308   3.968 -0.7777  2.1020 -0.6586
   19SOL     hw   75   0.862   3.231   4.066  2.5162 -2.0459 -0.7779
   19SOL     vw   76   0.908   3.302   4.046 -0.1304 -0.0547 -0.4535
   20SOL     ow   77   6.684   3.416   6.185  0.4979  0.2869  0.1120
   20SOL     hw   78   6.677   3.321   6.182  2.2715  0.1417 -0.8878
   20SOL     hw   79   6.749   3.434   6.253 -0.4897  0.8417  0.9246
   20SOL     vw   80   6.692   3.406   6.193  0.6015  0.3411  0.0873
   21SOL     ow   81   1.900   0.989   6.191  0.0106  0.0601  0.1117
   21SOL     hw   82   1.835   1.045   6.233  0.1170 -0.0269  0.3933
   21SOL     hw   83   1.851   0.941   6.124 -0.2637 -0.1685  0.4736
   21SOL     vw   84   1.885   0.990   6.188 -0.0116  0.0185  0.1965
   22SOL     ow   85   4.338   3.830   3.365 -0.0919 -0.0150 -0.3071
   22SOL     hw   86   4.401   3.760   3.346 -0.5454  0.0391 -2.3213
   22SOL     hw   87   4.388   3.911   3.355  0.2083 -0.0065  1.0977
   22SOL     vw   88   4.353   3.831   3.361 -0.1121 -0.0068 -0.3874
   23SOL     ow   89   0.071   6.465   5.546 -0.2217 -0.1706  0.4743
   23SOL     hw   90   0.136   6.454   5.614  0.8720 -2.2132 -0.7967
   23SOL     hw   91   0.121   6.470   5.465 -1.5748 -1.8158 -0.5454
   23SOL     vw   92   0.086   6.464   5.544 -0.2559 -0.6571  0.1721
   24SOL     ow   93   2.095   3.315   1.238 -0.2623 -0.1771  0.3906
   24SOL     hw   94   2.092   3.410   1.230 -0.9195 -0.2368 -0.1079
   24SOL     hw   95   2.011   3.291   1.276 -0.0617 -0.5515  0.6054
   24SOL     vw   96   2.084   3.324   1.242 -0.3225 -0.2344  0.3532
   25SOL     ow   97   5.909   3.786   2.558  0.3595  0.6853 -0.1190
   25SOL     hw   98   6.002   3.769   2.539  0.3230  1.1951 -0.7846
   25SOL     hw   99   5.910   3.870   2.603  0.2920  0.2733  0.6656
   25SOL     vw  100   5.922   3.795   2.561  0.3457  0.6981 -0.1031
   26SOL     ow  101   4.781   0.689   1.467 -0.5481 -0.1318 -0.2598
   26SOL     hw  102   4.849   0.623   1.484  1.1253  0.2870 -4.2093
   26SOL     hw  103   4.699   0.644   1.484  0.4491 -0.7073  4.6065
   26SOL     vw  104   4.779   0.675   1.472 -0.1957 -0.1525 -0.1388
   27SOL     ow  105   3.449   1.263   1.489 -0.1050 -0.0706  0.0562
   27SOL     hw  106   3.480   1.249   1.399 -1.6448  2.3431 -0.9844
   27SOL     hw  107   3.513   1.322   1.527 -0.4663  0.4909 -0.1830
   27SOL     vw  108   3.461   1.269   1.482 -0.3557  0.3219 -0.1127
   28SOL     ow  109   4.650   1.084   3.806  0.2391 -0.3799 -0.2632
   28SOL     hw  110   4.735   1.122   3.826  0.6381 -1.5227  0.2901
   28SOL     hw  111   4.613   1.060   3.891 -1.0175  0.8526 -0.4268
   28SOL     vw  112   4.656   1.085   3.820  0.1256 -0.3681 -0.2118
   29SOL     ow  113   3.565   6.411   3.724  0.0503  0.0059 -0.3198
   29SOL     hw  114   3.471   6.421   3.738  0.3918  2.9621  0.5599
   29SOL     hw  115   3.597   6.370   3.804 -0.3354  0.0955 -0.1173
   29SOL     vw  116   3.557   6.407   3.737  0.0445  0.4077 -0.1770
   30SOL     ow  117   6.416   6.280   6.437  1.0171  0.2596 -0.7227
   30SOL     hw  118   6.356   6.283   6.362  1.2527 -2.1575 -1.0755
   30SOL     hw  119   6.362   6.308   6.511 -0.3213 -0.9534 -1.1944
   30SOL     vw  120   6.401   6.284   6.437  0.8714 -0.2193 -0.8316
   31SOL     ow  121   5.768   2.348   3.599  0.3533 -0.6134  0.4519
   31SOL     hw  122   5.817   2.266   3.602 -0.4720 -1.1788 -0.7043
   31SOL     hw  123   5.683   2.324   3.562 -0.8196  0.3405  2.3614
   31SOL     vw  124   5.763   2.334   3.594  0.0896 -0.5623  0.5512
   32SOL     ow  125   4.124   3.509   1.591  0.1023  0.0273 -0.4140
   32SOL     hw  126   4.169   3.572   1.535  0.6499  1.1408  1.1686
   32SOL     hw  127   4.049   3.557   1.626 -0.3563 -0.7058 -0.3711
   32SOL     vw  128   4.120   3.524   1.589  0.1140  0.0774 -0.1996
   33SOL     ow  129   1.682   1.079   3.798 -0.0681 -0.0364  1.0869
   33SOL     hw  130   1.676   1.064   3.892  2.2842  2.6437  1.8239
   33SOL     hw  131   1.774   1.101   3.783 -0.6279  0.8593 -1.6044
   33SOL     vw  132   1.693   1.080   3.808  0.1684  0.4353  0.8290
   34SOL     ow  133   0.374   5.893   3.378 -0.9709  0.3510  0.0469
   34SOL     hw  134   0.301   5.900   3.316 -3.1611 -1.5632  2.2312
   34SOL     hw  135   0.332   5.887   3.464  1.9076  2.0349  1.7330
   34SOL     vw  136   0.359   5.893   3.381 -0.8801  0.3209  0.5575
   35SOL     ow  137   6.444   2.158   3.393 -0.1437 -0.1048  0.2354
   35SOL     hw  138   6.368   2.111   3.427 -1.3027  2.0071  0.7144
   35SOL     hw  139   6.409   2.214   3.324  1.7251 -2.2458 -2.6811
   35SOL     vw  140   6.429   2.159   3.389 -0.0501 -0.1085 -0.0862
   36SOL     ow  141   1.494   3.994   3.610  0.3940 -0.2288 -0.6584
   36SOL     hw  142   1.497   3.977   3.516 -0.3493  0.4714 -0.8116
   36SOL     hw  143   1.464   3.912   3.649 -0.6539 -0.0968 -1.1628
   36SOL     vw  144   1.491   3.981   3.603  0.1577 -0.1190 -0.7452
   37SOL     ow  145   4.076   1.856   4.189 -0.1342  0.4769 -0.0759
   37SOL     hw  146   4.040   1.932   4.235  0.0981  0.7928 -0.4118
   37SOL     hw  147   4.154   1.833   4.239  0.1842  0.8934 -0.3745
   37SOL     vw  148   4.082   1.863   4.202 -0.0615  0.5735 -0.1595
   38SOL     ow  149   5.968   4.110   1.995 -0.0219  0.0496 -0.4369
   38SOL     hw  150   5.993   4.019   2.010 -0.9106  0.0183  1.1197
   38SOL     hw  151   6.027   4.140   1.926  0.9006 -1.4346 -0.3487
   38SOL     vw  152   5.979   4.102   1.988 -0.0174 -0.1504 -0.2198
   39SOL     ow  153   1.044   2.678   1.083  0.5137  0.4579 -0.0339
   39SOL     hw  154   0.972   2.720   1.131  0.5354  0.6788 -0.1927
   39SOL     hw  155   1.001   2.615   1.025  0.4035  1.0330 -0.5793
   39SOL     vw  156   1.029   2.675   1.082  0.5020  0.5630 -0.1269
   40SOL     ow  157   6.321   0.929   2.694  0.1768  0.1766  0.2016
   40SOL     hw  158   6.278   0.857   2.740  1.7584 -0.4937  0.7326
   40SOL     hw  159   6.313   0.907   2.601  0.4964 -0.6310  0.3509
   40SOL     vw  160   6.315   0.917   2.688  0.4277 -0.0184  0.2913
   41SOL     ow  161   1.110   2.191   3.185  0.4107  0.6898  0.0632
   41SOL     hw  162   1.199   2.206   3.152 -0.4047 -1.7177 -3.9076
   41SOL     hw  163   1.059   2.264   3.151  0.2383  0.1009 -0.9828
   41SOL     vw  164   1.115   2.202   3.176  0.2803  0.2944 -0.5988
   42SOL     ow  165   4.061   1.147   1.069  0.2587  0.0061 -0.0820
   42SOL     hw  166   4.040   1.054   1.073 -0.1665  0.1123  0.2511
   42SOL     hw  167   3.978   1.191   1.083  0.4419  0.4406 -0.3230
   42SOL     vw  168   4.048   1.140   1.071  0.2267  0.0774 -0.0698
   43SOL     ow  169   0.656   1.617   3.475  0.2089  0.0100  0.4032
   43SOL     hw  170   0.725   1.563   3.438 -0.8093 -0.3827 -1.0180
   43SOL     hw  171   0.694   1.654   3.555  1.1841 -2.1908  1.0243
   43SOL     vw  172   0.670   1.615   3.481  0.2032 -0.3322  0.2975
   44SOL     ow  173   0.193   5.925   0.523  0.2858 -0.2048 -0.3258
   44SOL     hw  174   0.209   5.871   0.601  1.1354 -0.3651 -0.5983
   44SOL     hw  175   0.279   5.961   0.501 -0.3358  1.6681  0.1143
   44SOL     vw  176   0.206   5.922   0.531  0.3159  0.0212 -0.3037
   45SOL     ow  177   6.008   4.677   0.989 -0.4156 -0.6752  0.0574
   45SOL     hw  178   6.041   4.752   1.038  0.8640 -1.3787  0.3076
   45SOL     hw  179   6.084   4.642   0.944 -1.4947 -0.2330 -2.2405
   45SOL     vw  180   6.022   4.683   0.990 -0.3891 -0.7095 -0.2128
   46SOL     ow  181   3.414   3.676   4.769  0.6510  0.1394 -0.2169
   46SOL     hw  182   3.387   3.696   4.858 -1.0314 -1.8816 -0.2022
   46SOL     hw  183   3.466   3.751   4.742  0.6788  1.0774  2.2346
   46SOL     vw  184   3.418   3.688   4.777  0.4326 -0.0033  0.1085
   47SOL     ow  185   0.913   3.645   4.223 -0.0179  0.2183  0.0882
   47SOL     hw  186   0.995   3.684   4.192  0.1474  1.3335  1.8083
   47SOL     hw  187   0.871   3.713   4.275 -2.3517 -0.1460 -1.1867
   47SOL     vw  188   0.919   3.659   4.226 -0.3040  0.3175  0.1469
   48SOL     ow  189   1.316   5.112   0.325 -0.3785 -0.0590 -0.0436
   48SOL     hw  190   1.312   5.207   0.308 -1.1219 -0.2921 -1.2721
   48SOL     hw  191   1.261   5.100   0.403  0.2706  0.5876  0.5399
   48SOL     vw  192   1.308   5.123   0.333 -0.3909 -0.0045 -0.1287
   49SOL     ow  193   1.365   0.019   5.356 -0.4155 -0.3525  0.0461
   49SOL     hw  194   1.459   0.028   5.369 -0.5791 -0.0123  1.0777
   49SOL     hw  195   1.329   0.008   5.444 -1.2511 -1.4334 -0.3987
   49SOL     vw  196   1.372   0.018   5.369 -0.5473 -0.4504  0.1235
   50SOL     ow  197   0.202   5.597   1.923  0.1298  0.4274  0.4138
   50SOL     hw  198   0.162   5.547   1.994  1.3290 -2.2556 -0.6767
   50SOL     hw  199   0.129   5.638   1.877 -1.0944 -1.5402  0.5041
   50SOL     vw  200   0.187   5.596   1.926  0.1265 -0.1862  0.2819
   51SOL     ow  201   0.008   5.283   3.736 -0.0147 -0.0679 -0.3752
   51SOL     hw  202   0.053   5.242   3.810 -0.9180  0.4186  0.4671
   51SOL     hw  203   0.027   5.376   3.745  1.1563 -0.1548 -1.6751
   51SOL     vw  204   0.017   5.290   3.747  0.0206 -0.0150 -0.4356
   52SOL     ow  205   3.531   2.018   5.353  0.3206 -0.4293  0.0279
   52SOL     hw  206   3.556   2.046   5.441 -0.6595 -0.1030  0.2196
   52SOL     hw  207   3.614   2.005   5.307  0.8361 -0.1988  0.8707
   52SOL     vw  208   3.545   2.020   5.359  0.2593 -0.3560  0.1643
   53SOL     ow  209   1.458   5.051   5.829 -0.3988 -0.3839 -0.2871
   53SOL     hw  210   1.468   4.989   5.757  0.7836 -1.0187  0.3822
   53SOL     hw  211   1.546   5.086   5.842 -0.7425  0.2503  0.3781
   53SOL     vw  212   1.471   5.047   5.821 -0.2882 -0.3839 -0.1106
   54SOL     ow  213   6.044   3.073   0.408  0.0339 -0.2577  0.0839
   54SOL     hw  214   6.119   3.133   0.404 -0.2744  0.2644  1.4884
   54SOL     hw  215   6.027   3.049   0.317  1.5207  0.0916 -0.3144
   54SOL     vw  216   6.052   3.077   0.395  0.1895 -0.1428  0.2166
   55SOL     ow  217   2.708   5.102   5.858  0.4357  0.2942 -0.1217
   55SOL     hw  218   2.689   5.053   5.938 -0.3399  0.7516 -0.0082
   55SOL     hw  219   2.627   5.097   5.808  1.1039 -0.4713 -1.1433
   55SOL     vw  220   2.694   5.095   5.862  0.4214  0.2537 -0.2418
   56SOL     ow  221   5.654   1.026   1.498  0.0797 -0.0814 -0.1887
   56SOL     hw  222   5.735   1.038   1.447 -0.9297  0.4628 -1.7508
   56SOL     hw  223   5.648   0.932   1.512  0.7632 -0.1656 -0.4444
   56SOL     vw  224   5.664   1.015   1.493  0.0365 -0.0208 -0.4286
   57SOL     ow  225   2.573   4.213   2.117 -0.6678  0.1672  0.2959
   57SOL     hw  226   2.652   4.192   2.067 -2.0046 -1.5310 -1.2571
   57SOL     hw  227   2.555   4.305   2.096  0.2499  0.2346 -0.2579
   57SOL     vw  228   2.581   4.222   2.107 -0.7231 -0.0482  0.0179
   58SOL     ow  229   3.757   4.777   2.058 -0.0480  0.3055 -0.5297
   58SOL     hw  230   3.738   4.688   2.085  0.6897 -0.1124 -1.3476
   58SOL     hw  231   3.730   4.831   2.133  2.3542 -0.8260  1.3055
   58SOL     vw  232   3.751   4.773   2.072  0.3663  0.1011 -0.3954
   59SOL     ow  233   3.363   2.976   3.145 -0.1063 -0.2119  0.0926
   59SOL     hw  234   3.339   2.921   3.219 -0.9520 -1.2081 -0.8726
   59SOL     hw  235   3.422   3.042   3.181  0.3153 -1.2908  1.4389
   59SOL     vw  236   3.368   2.977   3.159 -0.1621 -0.4857  0.1429
   60SOL     ow  237   2.633   5.057   0.455 -0.3863 -0.5415 -0.4374
   60SOL     hw  238   2.606   5.094   0.540  2.9816 -3.2862  2.1075
   60SOL     hw  239   2.676   5.130   0.410 -1.6738  0.8145  0.4099
   60SOL     vw  240   2.635   5.071   0.460 -0.1118 -0.7248  0.0101
   61SOL     ow  241   2.447   0.097   0.057  0.2111  0.5299  0.0173
   61SOL     hw  242   2.410   0.029   0.001 -0.9708  0.7354  0.5184
   61SOL     hw  243   2.461   0.172  -0.002 -0.1342  0.4334 -0.1883
   61SOL     vw  244   2.444   0.098   0.042  0.0097  0.5443  0.0563
   62SOL     ow  245   5.333   0.086   0.915  0.2420  0.2493  0.5506
   62SOL     hw  246   5.420   0.123   0.928  1.7345 -2.9995  0.5059
   62SOL     hw  247   5.347   0.006   0.864 -2.6961 -0.7331  1.0751
   62SOL     vw  248   5.346   0.081   0.910  0.0513 -0.3090  0.6139
   63SOL     ow  249   0.004   2.078   3.583 -0.6114 -0.1530  0.0427
   63SOL     hw  250  -0.027   2.034   3.663  2.9653 -1.9773  0.6865
   63SOL     hw  251   0.095   2.100   3.603  0.5026 -0.8517 -3.5842
   63SOL     vw  252   0.012   2.075   3.596  0.0074 -0.4860 -0.3510
   64SOL     ow  253   2.583   3.359   0.028  0.0104  0.5901 -0.4105
   64SOL     hw  254   2.624   3.295   0.086 -1.2496  0.8294  0.7744
   64SOL     hw  255   2.590   3.319  -0.059 -0.2261 -0.8916  0.2217
   64SOL     vw  256   2.590   3.345   0.024 -0.1870  0.4263 -0.1707
   65SOL     ow  257   6.211   1.722   0.752  0.1966  0.0945  0.0364
   65SOL     hw  258   6.236   1.740   0.661 -0.7461 -0.1482 -0.2750
   65SOL     hw  259   6.215   1.807   0.796 -1.1322  0.5429 -0.6738
   65SOL     vw  260   6.215   1.735   0.746 -0.1035  0.1215 -0.0984
   66SOL     ow  261   3.240   3.528   1.064  0.1976  0.1067 -0.1140
   66SOL     hw  262   3.252   3.438   1.032 -1.3905 -0.4285  0.6608
   66SOL     hw  263   3.326   3.556   1.093  0.6230 -1.3828  0.1363
   66SOL     vw  264   3.253   3.520   1.063  0.0442 -0.1606  0.0213
   67SOL     ow  265   1.412   0.422   0.289 -0.2028 -0.1718  0.2907
   67SOL     hw  266   1.381   0.357   0.352 -0.6554  0.3806  0.6550
   67SOL     hw  267   1.373   0.395   0.206  0.1031 -0.7033  0.3189
   67SOL     vw  268   1.403   0.410   0.286 -0.2221 -0.1691  0.3425
   68SOL     ow  269   0.111   1.057   0.146  0.0599  0.4050  0.2058
   68SOL     hw  270   0.117   1.007   0.064  2.0375  0.4731  0.2588
   68SOL     hw  271   0.021   1.045   0.174 -0.0984 -1.4184 -0.8763
   68SOL     vw  272   0.100   1.049   0.139  0.2999  0.1734  0.0700
   69SOL     ow  273   6.641   4.720   6.395  0.0695  0.3549  0.4838
   69SOL     hw  274   6.666   4.771   6.319 -1.0055  0.5379  0.2279
   69SOL     hw  275   6.561   4.675   6.368  0.3372 -0.5269  1.1067
   69SOL     vw  276   6.633   4.721   6.382 -0.0367  0.2625  0.5324
   70SOL     ow  277   4.133   2.190   4.678  0.0961  0.5148 -0.3013
   70SOL     hw  278   4.103   2.208   4.768  1.4143  0.6097  0.1328
   70SOL     hw  279   4.063   2.225   4.623 -1.6807 -1.2288  0.6885
   70SOL     vw  280   4.120   2.197   4.683  0.0358  0.2973 -0.1132
   71SOL     ow  281   3.251   6.454   2.275 -0.4399 -0.2345 -0.0863
   71SOL     hw  282   3.248   6.359   2.281  0.4830 -0.2596  0.3306
   71SOL     hw  283   3.251   6.484   2.367  2.1992 -0.0034 -0.0767
   71SOL     vw  284   3.251   6.446   2.288  0.0299 -0.2072 -0.0299
   72SOL     ow  285   3.326   4.438   3.347  0.2525  0.1684 -0.4239
   72SOL     hw  286   3.323   4.526   3.309 -2.6509 -0.6460 -2.5153
   72SOL     hw  287   3.273   4.445   3.427  0.9070  0.5204 -0.0143
   72SOL     vw  288   3.318   4.451   3.353 -0.0442  0.1075 -0.6459
   73SOL     ow  289   1.759   1.335   5.427 -0.0806  0.0045  0.1108
   73SOL     hw  290   1.792   1.409   5.479 -0.4186 -1.0506  1.8942
   73SOL     hw  291   1.747   1.265   5.490  0.4363 -1.6803 -1.5778
   73SOL     vw  292   1.762   1.336   5.442 -0.0570 -0.3570  0.1233
   74SOL     ow  293   1.245   5.968   4.318 -0.3832  0.3258  0.0293
   74SOL     hw  294   1.293   5.898   4.363 -2.0272 -1.7778 -1.2957
   74SOL     hw  295   1.284   5.969   4.230 -0.4503  1.0123  0.0083
   74SOL     vw  296   1.257   5.959   4.312 -0.6089  0.1385 -0.1485
   75SOL     ow  297   1.817   4.387   5.921  0.3488  0.2341 -0.2792
   75SOL     hw  298   1.833   4.326   5.993 -2.4026 -0.1137  0.1284
   75SOL     hw  299   1.777   4.333   5.853 -0.3609  1.2150 -0.6524
   75SOL     vw  300   1.814   4.372   5.922 -0.1079  0.3173 -0.2749
   76SOL     ow  301   4.584   4.550   6.660 -0.2529  0.7795 -0.3214
   76SOL     hw  302   4.550   4.639   6.665 -0.9001  0.4657  1.6715
   76SOL     hw  303   4.545   4.505   6.735  0.3565 -1.0857 -1.0614
   76SOL     vw  304   4.574   4.556   6.670 -0.2577  0.4919 -0.1562
   77SOL     ow  305   3.877   0.611   4.454  0.2546  0.0004  0.4703
   77SOL     hw  306   3.869   0.524   4.494 -1.8747 -0.2093 -0.2746
   77SOL     hw  307   3.923   0.664   4.519 -1.4176 -0.8098  2.4188
   77SOL     vw  308   3.882   0.606   4.468 -0.2469 -0.1341  0.6292
   78SOL     ow  309   1.866   5.824   4.025  0.6275 -0.3297  0.1111
   78SOL     hw  310   1.776   5.850   4.006  0.4236 -0.2015  1.1731
   78SOL     hw  311   1.871   5.824   4.121  1.6582 -0.6786  0.0693
   78SOL     vw  312   1.855   5.827   4.035  0.7366 -0.3588  0.2458
   79SOL     ow  313   4.103   1.227   2.078  0.6801  0.2213  0.1877
   79SOL     hw  314   4.092   1.317   2.046 -0.1576 -0.2911 -1.0067
   79SOL     hw  315   4.028   1.213   2.136 -0.0507 -0.2165 -0.8445
   79SOL     vw  316   4.091   1.237   2.082  0.4730  0.0959 -0.1062
   80SOL     ow  317   3.352   3.145   2.133  0.5092  0.3318  0.4131
   80SOL     hw  318   3.363   3.062   2.180 -0.0725  0.0997  0.1442
   80SOL     hw  319   3.317   3.120   2.048 -1.4238  0.9736  0.9734
   80SOL     vw  320   3.349   3.130   2.128  0.1774  0.3860  0.4514
   81SOL     ow  321   0.212   3.097   4.119 -0.6169 -0.7425  0.0061
   81SOL     hw  322   0.301   3.062   4.121 -0.8156 -1.2767  1.8450
   81SOL     hw  323   0.156   3.020   4.108 -0.8676 -0.2562 -3.0171
   81SOL     vw  324   0.216   3.082   4.118 -0.6762 -0.7488 -0.1502
   82SOL     ow  325   1.921   1.527   6.032 -0.3190 -0.2463  0.0664
   82SOL     hw  326   1.977   1.477   6.091  1.4010  1.2240 -0.2628
   82SOL     hw  327   1.899   1.606   6.081 -1.6656 -0.5359 -0.0298
   82SOL     vw  328   1.925   1.531   6.046 -0.2698 -0.0905  0.0103
   83SOL     ow  329   0.475   6.725   3.305 -0.0742 -0.7438  0.0758
   83SOL     hw  330   0.431   6.670   3.370 -0.5327  1.7559  2.0128
   83SOL     hw  331   0.566   6.728   3.334 -0.2322  0.1925  0.4934
   83SOL     vw  332   0.481   6.718   3.317 -0.1556 -0.2906  0.3865
   84SOL     ow  333   0.214   4.152   2.369  0.1141 -0.7846 -0.0230
   84SOL     hw  334   0.130   4.192   2.349  0.0598 -0.0548  1.5193
   84SOL     hw  335   0.279   4.215   2.339  0.2709 -2.3514 -3.3967
   84SOL     vw  336   0.211   4.165   2.362  0.1277 -0.8950 -0.2646
   85SOL     ow  337   4.075   2.092   3.419 -0.0134 -0.1398  0.2466
   85SOL     hw  338   4.166   2.068   3.437 -0.0285  0.0039  0.5290
   85SOL     hw  339   4.025   2.013   3.438  0.2179 -0.7361 -1.5183
   85SOL     vw  340   4.081   2.079   3.424  0.0150 -0.1994  0.0510
   86SOL     ow  341   5.798   5.994   1.045  0.0870  0.0705  0.1507
   86SOL     hw  342   5.772   5.922   1.103 -1.4953  1.3397  1.0942
   86SOL     hw  343   5.738   5.988   0.971  0.9460 -0.4559 -0.5319
   86SOL     vw  344   5.787   5.984   1.043 -0.0083  0.1681  0.1851
   87SOL     ow  345   0.707   4.809   1.093 -0.4489 -0.3955 -0.0777
   87SOL     hw  346   0.797   4.843   1.086 -0.3798  0.6016  3.6142
   87SOL     hw  347   0.713   4.718   1.061  1.7956 -0.2652 -0.1723
   87SOL     vw  348   0.720   4.801   1.088 -0.1436 -0.2468  0.3969
   88SOL     ow  349   5.460   3.345   3.354  0.3039 -0.1382 -0.4140
   88SOL     hw  350   5.391   3.316   3.296  0.3092 -1.2080  0.0828
   88SOL     hw  351   5.415   3.396   3.422 -0.3831 -2.6060  1.1348
   88SOL     vw  352   5.445   3.348   3.355  0.2139 -0.6049 -0.1440
   89SOL     ow  353   2.002   5.119   0.859 -0.3005 -0.2867 -0.1675
   89SOL     hw  354   2.047   5.054   0.913  1.3185  0.5988 -0.4059
   89SOL     hw  355   1.921   5.075   0.832 -0.3131 -1.3759  1.5185
   89SOL     vw  356   1.997   5.105   0.862 -0.0886 -0.3135  0.0235
   90SOL     ow  357   1.163   3.796   4.908  0.2204 -0.1107  0.2969
   90SOL     hw  358   1.229   3.733   4.938 -0.1166 -1.2473 -1.1709
   90SOL     hw  359   1.157   3.861   4.977  3.5739  0.5758  0.0872
   90SOL     vw  360   1.171   3.796   4.921  0.6184 -0.1701  0.0756
   91SOL     ow  361   0.571   2.900   3.405 -0.3694 -0.5600 -0.1293
   91SOL     hw  362   0.563   2.990   3.376 -1.6484 -0.5638  0.1592
   91SOL     hw  363   0.654   2.870   3.369  0.1462  0.7719 -0.0926
   91SOL     vw  364   0.581   2.908   3.397 -0.4702 -0.3848 -0.0862
   92SOL     ow  365   6.076   0.911   1.052  0.1987  0.1672  0.0264
   92SOL     hw  366   6.059   0.984   1.112 -0.2069 -1.1878  1.6260
   92SOL     hw  367   6.171   0.899   1.056  0.0204 -1.0545  1.8796
   92SOL     vw  368   6.086   0.919   1.060  0.1216 -0.1728  0.4820
   93SOL     ow  369   5.191   2.461   0.916 -0.1428 -0.2754  0.2314
   93SOL     hw  370   5.153   2.413   0.989 -0.3736 -2.1900 -1.0837
   93SOL     hw  371   5.120   2.515   0.883 -0.2997 -0.1071  0.8342
   93SOL     vw  372   5.177   2.462   0.921 -0.1938 -0.5057  0.1374
   94SOL     ow  373   0.483   6.155   3.471  0.2493 -0.1707 -0.4833
   94SOL     hw  374   0.454   6.130   3.559  1.3047  1.2325  0.3103
   94SOL     hw  375   0.519   6.243   3.482  2.0999 -0.6856 -1.9499
   94SOL     vw  376   0.484   6.163   3.484  0.6327 -0.0534 -0.5721
   95SOL     ow  377   4.188   5.287   6.636  0.2086  0.0416 -0.3963
   95SOL     hw  378   4.171   5.203   6.595 -0.0621  0.7738 -1.8470
   95SOL     hw  379   4.199   5.348   6.563  1.9361  0.9852  0.5907
   95SOL     vw  380   4.187   5.284   6.621  0.4008  0.2627 -0.4573
   96SOL     ow  381   2.375   2.003   0.105 -0.1321  0.0546 -0.0414
   96SOL     hw  382   2.307   1.936   0.099  0.7227 -0.8479  0.0787
   96SOL     hw  383   2.419   2.000   0.019  1.2919 -1.0828  0.6728
   96SOL     vw  384   2.372   1.994   0.093  0.1686 -0.2146  0.0687
   97SOL     ow  385   1.241   4.081   3.274 -0.2955 -0.2863  0.6320
   97SOL     hw  386   1.333   4.064   3.253 -0.4789 -0.2677 -0.2143
   97SOL     hw  387   1.244   4.153   3.337  0.3026 -0.8483  1.2632
   97SOL     vw  388   1.254   4.088   3.280 -0.2409 -0.3579  0.6038
   98SOL     ow  389   3.628   5.107   4.061 -0.0579 -0.2253  0.1302
   98SOL     hw  390   3.618   5.167   4.135 -0.9617 -0.7027  0.4123
   98SOL     hw  391   3.605   5.158   3.984 -2.0933 -0.5223  0.4926
   98SOL     vw  392   3.624   5.121   4.061 -0.4458 -0.3278  0.2153
   99SOL     ow  393   2.645   0.380   1.555 -0.0291 -0.8966 -0.3771
   99SOL     hw  394   2.702   0.308   1.581  0.6539 -0.2894 -0.1711
   99SOL     hw  395   2.699   0.434   1.497 -0.7337 -0.8800 -1.0304
   99SOL     vw  396   2.660   0.378   1.550 -0.0319 -0.8143 -0.4361
  100SOL     ow  397   4.884   1.880   5.404 -0.2967  0.0679  0.2917
  100SOL     hw  398   4.923   1.902   5.489 -0.9512 -1.9566  1.1765
  100SOL     hw  399   4.803   1.834   5.426 -0.1903 -1.0406 -1.4255
  100SOL     vw  400   4.879   1.877   5.418 -0.3688 -0.3454  0.1817
  101SOL     ow  401   5.068   6.414   5.199  0.1189 -0.7350  0.2711
  101SOL     hw  402   5.022   6.497   5.215 -0.1773 -0.9210  0.3941
  101SOL     hw  403   5.133   6.435   5.133 -0.5538 -0.6083 -0.3633
  101SOL     vw  404   5.070   6.428   5.193 -0.0088 -0.7429  0.2038
  102SOL     ow  405   5.562   1.791   0.273  0.1082 -0.1092 -0.5317
  102SOL     hw  406   5.597   1.753   0.353 -0.6227 -0.7935 -0.5193
  102SOL     hw  407   5.479   1.745   0.259 -0.4999  1.0413 -0.8669
  102SOL     vw  408   5.555   1.780   0.282 -0.0687 -0.0477 -0.5743
  103SOL     ow  409   6.048   0.733   0.153  0.3849  0.1496  0.5029
  103SOL     hw  410   6.138   0.748   0.124  0.2017 -2.4225 -1.8193
  103SOL     hw  411   6.056   0.668   0.223  0.3207 -0.9708 -0.5026
  103SOL     vw  412   6.061   0.726   0.158  0.3521 -0.3376  0.0639
  104SOL     ow  413   6.136   1.263   3.648  0.3209  0.0677  0.4330
  104SOL     hw  414   6.205   1.242   3.711 -0.2233 -0.2447  0.9438
  104SOL     hw  415   6.119   1.356   3.661 -0.0298 -0.0679  1.0106
  104SOL     vw  416   6.143   1.272   3.658  0.2029  0.0085  0.5766
  105SOL     ow  417   4.521   3.505   2.833 -0.2777  0.6006 -0.0094
  105SOL     hw  418   4.458   3.517   2.762 -0.9089  1.0081  0.6039
  105SOL     hw  419   4.532   3.410   2.840  0.0209  0.5665 -0.8382
  105SOL     vw  420   4.514   3.494   2.825 -0.3216  0.6498 -0.0378
  106SOL     ow  421   4.854   6.456   2.909  0.1690 -0.2057 -0.3082
  106SOL     hw  422   4.876   6.548   2.893 -0.4344 -0.4560 -2.9789
  106SOL     hw  423   4.821   6.424   2.825  1.3533 -3.1595  0.2174
  106SOL     vw  424   4.853   6.464   2.896  0.2460 -0.6285 -0.5912
  107SOL     ow  425   2.780   3.028   1.025  0.0021 -0.0549 -0.4109
  107SOL     hw  426   2.686   3.026   1.045 -0.0138 -1.0313 -0.5060
  107SOL     hw  427   2.784   3.019   0.930  0.1484  2.3463 -0.6917
  107SOL     vw  428   2.768   3.026   1.015  0.0193  0.1333 -0.4605
  108SOL     ow  429   2.425   2.302   0.123  0.4813 -0.1158 -0.1105
  108SOL     hw  430   2.452   2.300   0.031  0.0296  0.6940 -0.2716
  108SOL     hw  431   2.501   2.338   0.169  0.6445 -0.3538 -0.1924
  108SOL     vw  432   2.439   2.307   0.117  0.4432 -0.0403 -0.1425
  109SOL     ow  433   0.931   2.982   5.220 -0.2808  0.6461  0.4617
  109SOL     hw  434   1.004   3.039   5.195  0.2589  0.0475  0.6292
  109SOL     hw  435   0.880   2.972   5.140  0.7109 -0.2074 -0.0920
  109SOL     vw  436   0.934   2.988   5.206 -0.0788  0.4545  0.4110
  110SOL     ow  437   0.421   4.338   5.545  0.4471  0.0917 -0.7045
  110SOL     hw  438   0.415   4.305   5.455  0.4789 -0.8100 -0.3885
  110SOL     hw  439   0.334   4.323   5.582  0.8477 -0.9505 -0.1306
  110SOL     vw  440   0.409   4.331   5.538  0.5042 -0.1647 -0.5870
  111SOL     ow  441   1.855   2.575   6.363 -0.0708  0.1500  0.1305
  111SOL     hw  442   1.919   2.626   6.413 -0.4735  0.4396  0.3602
  111SOL     hw  443   1.831   2.503   6.420  0.7652 -0.5137 -0.3345
  111SOL     vw  444   1.861   2.572   6.377 -0.0136  0.1005  0.0997
  112SOL     ow  445   2.285   5.517   3.991 -0.7694  0.3157  0.4594
  112SOL     hw  446   2.334   5.570   4.054  0.3994 -2.2709  1.8583
  112SOL     hw  447   2.333   5.529   3.909  1.3735 -0.9115  1.4506
  112SOL     vw  448   2.298   5.526   3.988 -0.3325 -0.1874  0.7747
  113SOL     ow  449   6.055   0.230   0.723  0.7907 -0.2632  0.2806
  113SOL     hw  450   6.042   0.225   0.817  0.0087  0.4376  0.2255
  113SOL     hw  451   6.147   0.210   0.710  1.1564  0.6980  1.2923
  113SOL     vw  452   6.065   0.227   0.733  0.7358 -0.0439  0.4068
  114SOL     ow  453   1.142   2.026   0.399  0.2538  0.2173  0.5360
  114SOL     hw  454   1.222   2.071   0.427  0.8737 -0.5336  0.0100
  114SOL     hw  455   1.088   2.024   0.478  1.4730 -0.7914  1.3907
  114SOL     vw  456   1.146   2.032   0.413  0.4964 -0.0149  0.5794
  115SOL     ow  457   4.037   5.781   4.277  0.2081 -0.0766  0.1676
  115SOL     hw  458   3.991   5.735   4.348 -1.8721  0.3421 -0.8242
  115SOL     hw  459   3.968   5.802   4.214  1.7545  0.9092 -1.2684
  115SOL     vw  460   4.022   5.778   4.278  0.1378  0.1085 -0.1526
  116SOL     ow  461   4.658   1.611   2.412 -0.1627  0.4814  0.6437
  116SOL     hw  462   4.725   1.679   2.400 -0.5847  0.9755  1.0574
  116SOL     hw  463   4.645   1.608   2.507  0.8471 -1.1453  0.7671
  116SOL     vw  464   4.665   1.620   2.423 -0.0851  0.3320  0.7145
  117SOL     ow  465   5.818   2.101   1.746 -0.4168  0.0813 -0.6838
  117SOL     hw  466   5.886   2.154   1.788  0.6644 -1.2169 -0.7417
  117SOL     hw  467   5.738   2.123   1.795  0.2920  0.6118  0.2803
  117SOL     vw  468   5.816   2.111   1.758 -0.1810 -0.0200 -0.5643
  118SOL     ow  469   0.918   4.020   1.978 -0.3196  0.0467  0.1854
  118SOL     hw  470   0.964   3.965   1.916 -0.8163 -2.1033  1.6356
  118SOL     hw  471   0.986   4.057   2.034 -0.0972 -0.4547  0.2473
  118SOL     vw  472   0.933   4.018   1.977 -0.3558 -0.3033  0.3849
  119SOL     ow  473   2.529   3.628   6.653 -0.1286  0.4371 -0.5027
  119SOL     hw  474   2.564   3.671   6.575  1.7723 -1.0163 -0.5324
  119SOL     hw  475   2.439   3.604   6.629 -0.4125  2.1659 -1.3201
  119SOL     vw  476   2.521   3.630   6.639  0.0848  0.4735 -0.6146
  120SOL     ow  477   2.139   4.332   4.115  0.6749  0.5793  0.3497
  120SOL     hw  478   2.233   4.319   4.100  0.6720  1.6218 -0.7321
  120SOL     hw  479   2.105   4.244   4.132  2.0093  0.3120  1.8712
  120SOL     vw  480   2.147   4.319   4.115  0.8506  0.6816  0.4075
  121SOL     ow  481   4.087   2.528   6.474 -0.1309 -0.5641 -0.6102
  121SOL     hw  482   4.131   2.443   6.469  0.0229 -0.4278 -1.8399
  121SOL     hw  483   4.101   2.567   6.388 -0.0503  0.7875  0.0064
  121SOL     vw  484   4.094   2.522   6.462 -0.1001 -0.3676 -0.6912
  122SOL     ow  485   2.338   1.942   5.521 -0.1496 -0.1894  0.0611
  122SOL     hw  486   2.260   1.886   5.525 -0.3389  0.1652  2.3240
  122SOL     hw  487   2.410   1.880   5.506 -0.2350 -1.3019  3.4378
  122SOL     vw  488   2.337   1.926   5.519 -0.1856 -0.2894  0.8054
  123SOL     ow  489   5.560   4.888   0.063 -0.0239 -0.1083  0.2932
  123SOL     hw  490   5.475   4.933   0.069  0.1887  0.6016 -1.2875
  123SOL     hw  491   5.540   4.796   0.080 -1.0607  0.0987  0.2719
  123SOL     vw  492   5.546   4.882   0.066 -0.1326  0.0126  0.0818
  124SOL     ow  493   1.489   5.899   4.801  0.3508  0.0613  0.4843
  124SOL     hw  494   1.491   5.897   4.706  1.7455 -0.7265  0.4990
  124SOL     hw  495   1.398   5.882   4.824  0.4107 -2.2198 -0.6819
  124SOL     vw  496   1.477   5.897   4.792  0.5428 -0.3438  0.3324
  125SOL     ow  497   0.425   3.741   4.709  0.5536  0.0166  0.2977
  125SOL     hw  498   0.486   3.764   4.639  0.6166 -0.2691  0.2565
  125SOL     hw  499   0.481   3.713   4.781  0.5596 -4.6675 -1.1821
  125SOL     vw  500   0.440   3.740   4.709  0.5627 -0.6391  0.0970
  126SOL     ow  501   0.030   0.166   1.061 -0.0609  0.2096  0.4246
  126SOL     hw  502   0.073   0.111   0.995 -1.8240 -1.4639  0.5642
  126SOL     hw  503   0.046   0.121   1.144  1.4891  1.8867  1.0809
  126SOL     vw  504   0.037   0.153   1.063 -0.0889  0.2100  0.5297
  127SOL     ow  505   6.585   1.083   2.795 -0.2086  0.4512  0.1092
  127SOL     hw  506   6.633   1.132   2.728  0.3458  1.0120  0.9011
  127SOL     hw  507   6.636   1.004   2.809 -1.7623 -1.0789 -2.0960
  127SOL     vw  508   6.598   1.079   2.788 -0.3405  0.3233 -0.0772
  128SOL     ow  509   1.512   5.954   1.709 -0.3077 -0.2179 -0.1852
  128SOL     hw  510   1.521   5.953   1.804  0.5927 -1.3276 -0.2576
  128SOL     hw  511   1.592   5.997   1.678 -0.7154  0.3738 -0.4459
  128SOL     vw  512   1.524   5.960   1.717 -0.2427 -0.2863 -0.2291
  129SOL     ow  513   3.448   2.676   4.984  0.5833 -0.4385  0.3658
  129SOL     hw  514   3.543   2.666   4.994  0.5788 -1.3802 -0.3775
  129SOL     hw  515   3.436   2.768   4.959  1.4578 -0.6754 -1.0736
  129SOL     vw  516   3.459   2.687   4.982  0.6982 -0.5939  0.0780
  130SOL     ow  517   4.403   6.085   5.406  0.4861  0.5166 -0.0238
  130SOL     hw  518   4.329   6.143   5.393  1.0200  0.8401 -1.8068
  130SOL     hw  519   4.476   6.143   5.427  0.8478  0.4376 -1.0319
  130SOL     vw  520   4.403   6.100   5.407  0.6042  0.5488 -0.3920
  131SOL     ow  521   4.391   0.218   3.059 -0.0715  0.1266 -0.0967
  131SOL     hw  522   4.420   0.156   2.993  0.7367  0.2982  0.0890
  131SOL     hw  523   4.332   0.168   3.115  0.1866 -0.3422 -0.2365
  131SOL     vw  524   4.387   0.203   3.058  0.0691  0.0874 -0.0907
  132SOL     ow  525   0.368   5.784   2.778  0.1687  0.4420 -0.0113
  132SOL     hw  526   0.386   5.712   2.838 -0.2723  0.7327  0.4802
  132SOL     hw  527   0.445   5.841   2.785 -0.5240  1.2609  1.4569
  132SOL     vw  528   0.381   5.782   2.787  0.0191  0.5882  0.2472
  133SOL     ow  529   5.211   2.805   1.170  0.7024 -0.2066 -0.0381
  133SOL     hw  530   5.171   2.728   1.131  0.3404  0.8572 -1.9100
  133SOL     hw  531   5.155   2.878   1.142  1.8679  0.9012  0.3973
  133SOL     vw  532   5.198   2.805   1.162  0.8085  0.0800 -0.2276
  134SOL     ow  533   1.554   6.138   0.728 -0.4224  0.4294  0.5078
  134SOL     hw  534   1.572   6.232   0.737 -0.9062  0.4592  1.2807
  134SOL     hw  535   1.494   6.118   0.800  0.2264 -0.6230  0.7854
  134SOL     vw  536   1.548   6.148   0.739 -0.4007  0.2942  0.6464
  135SOL     ow  537   2.485   2.387   3.354 -0.0989  0.1695 -0.3153
  135SOL     hw  538   2.522   2.313   3.402  1.0959  1.2752  0.5277
  135SOL     hw  539   2.541   2.396   3.277 -1.5405 -1.1002 -1.6093
  135SOL     vw  540   2.497   2.378   3.350 -0.1314  0.1479 -0.3749
  136SOL     ow  541   5.273   1.171   6.536  0.0313  0.2719  1.0590
  136SOL     hw  542   5.186   1.157   6.572  0.3231  0.2855  1.7985
  136SOL     hw  543   5.268   1.139   6.446 -1.2610  2.1033  0.4464
  136SOL     vw  544   5.261   1.165   6.529 -0.1009  0.5153  1.0757
  137SOL     ow  545   4.236   5.838   5.383 -0.0701 -0.4820  0.4529
  137SOL     hw  546   4.182   5.761   5.366  0.1672 -0.5698  0.0642
  137SOL     hw  547   4.196   5.881   5.459 -1.1762 -0.0885 -0.3330
  137SOL     vw  548   4.224   5.834   5.391 -0.1848 -0.4416  0.2980
  138SOL     ow  549   4.363   3.683   0.109  0.7468  0.1549  0.5196
  138SOL     hw  550   4.410   3.698   0.027 -0.1131  1.8321  0.2810
  138SOL     hw  551   4.369   3.589   0.123 -0.1291 -0.3928 -2.1211
  138SOL     vw  552   4.370   3.673   0.100  0.5178  0.3039  0.1397
  139SOL     ow  553   2.571   4.543   5.042 -0.3850  0.4208 -0.4153
  139SOL     hw  554   2.483   4.561   5.074 -0.1856 -0.1297  0.4901
  139SOL     hw  555   2.626   4.612   5.080  0.1803 -1.2846  2.1065
  139SOL     vw  556   2.567   4.554   5.051 -0.2841  0.1230  0.0370
  140SOL     ow  557   1.705   0.225   1.365 -0.4665  0.3932  0.8335
  140SOL     hw  558   1.698   0.170   1.443  0.5844  2.6820  2.6752
  140SOL     hw  559   1.782   0.280   1.382  0.5038  0.2334 -2.3719
  140SOL     vw  560   1.714   0.225   1.378 -0.1999  0.6741  0.6535
  141SOL     ow  561   5.529   1.818   6.761  0.0520 -0.0318  0.0111
  141SOL     hw  562   5.462   1.760   6.796  0.2753 -1.2235 -1.4504
  141SOL     hw  563   5.484   1.901   6.747 -0.3205  0.1575  1.9523
  141SOL     vw  564   5.515   1.821   6.764  0.0327 -0.1640  0.0746
  142SOL     ow  565   2.653   1.782   1.589 -0.4764  0.6118 -0.0439
  142SOL     hw  566   2.710   1.822   1.655  0.3856  0.7368 -0.8429
  142SOL     hw  567   2.567   1.778   1.630  0.4744 -1.4170  2.0046
  142SOL     vw  568   2.649   1.787   1.603 -0.2372  0.3605  0.1209
  143SOL     ow  569   4.704   0.500   2.206  0.5574 -0.4309 -0.4310
  143SOL     hw  570   4.761   0.455   2.269 -1.5578 -0.1399  1.8805
  143SOL     hw  571   4.714   0.593   2.228 -0.6737 -0.3696 -0.0192
  143SOL     vw  572   4.713   0.506   2.217  0.1161 -0.3844 -0.0716
  144SOL     ow  573   3.631   5.670   2.098  0.9649  0.1892  0.3369
  144SOL     hw  574   3.672   5.648   2.181  0.0630 -0.2877  0.6789
  144SOL     hw  575   3.611   5.585   2.058 -1.1152  0.3266  0.9284
  144SOL     vw  576   3.634   5.656   2.104  0.5715  0.1442  0.4600
  145SOL     ow  577   2.782   1.350   5.376 -0.3127 -0.0619  0.0505
  145SOL     hw  578   2.745   1.312   5.455  1.9309  1.2262  1.8200
  145SOL     hw  579   2.758   1.442   5.379 -0.8024 -0.1163 -1.1978
  145SOL     vw  580   2.774   1.357   5.387 -0.0813  0.1009  0.1194
  146SOL     ow  581   6.022   5.878   6.729  0.0974  0.5198  0.0397
  146SOL     hw  582   5.998   5.963   6.693 -1.1564  0.5809  0.9704
  146SOL     hw  583   5.975   5.873   6.812 -0.8818 -1.5985 -0.5748
  146SOL     vw  584   6.013   5.889   6.735 -0.1974  0.2482  0.0813
  147SOL     ow  585   6.244   2.710   2.963 -0.0197  0.0115 -0.1754
  147SOL     hw  586   6.203   2.643   3.019 -1.8429  0.5993 -0.7426
  147SOL     hw  587   6.208   2.693   2.876  0.8287  0.6774 -0.6645
  147SOL     vw  588   6.234   2.699   2.959 -0.1485  0.1769 -0.3147
  148SOL     ow  589   4.905   4.327   0.927  0.4137  0.2693  0.3549
  148SOL     hw  590   4.916   4.363   1.015 -2.9522  2.3425  0.1144
  148SOL     hw  591   4.844   4.254   0.939  0.3903  0.1982 -0.1789
  148SOL     vw  592   4.898   4.322   0.940 -0.0336  0.5333  0.2528
  149SOL     ow  593   5.122   1.047   4.732 -0.3851  0.4231  0.0291
  149SOL     hw  594   5.128   1.143   4.734  0.8458  0.4031 -0.9299
  149SOL     hw  595   5.204   1.017   4.772 -0.7010 -0.2301  0.2038
  149SOL     vw  596   5.134   1.056   4.737 -0.2644  0.3343 -0.0741
  150SOL     ow  597   0.169   5.600   1.516  0.1800  0.5999  0.1659
  150SOL     hw  598   0.171   5.661   1.589 -0.9136  0.1822  0.5594
  150SOL     hw  599   0.100   5.633   1.459  1.9028  1.6965 -1.4018
  150SOL     vw  600   0.160   5.612   1.518  0.2630  0.6895  0.0109
  151SOL     ow  601   5.597   5.795   4.115  0.0420  0.6522 -0.0089
  151SOL     hw  602   5.689   5.817   4.099 -0.2614  1.4678 -0.7232
  151SOL     hw  603   5.581   5.717   4.061  0.0796  1.0593 -0.6205
  151SOL     vw  604   5.607   5.788   4.106  0.0072  0.8137 -0.1841
  152SOL     ow  605   2.822   3.394   3.055  0.4724 -0.3173  0.2596
  152SOL     hw  606   2.873   3.427   2.981  1.6157 -0.1531  1.1032
  152SOL     hw  607   2.795   3.473   3.102  3.3261 -0.4406  2.3613
  152SOL     vw  608   2.825   3.409   3.051  0.9998 -0.3120  0.6481
  153SOL     ow  609   4.361   0.074   5.519 -0.2731 -0.1196  0.6578
  153SOL     hw  610   4.386   0.075   5.426 -1.2654 -3.2048  0.2479
  153SOL     hw  611   4.367   0.166   5.546  0.0953  0.8891 -2.4200
  153SOL     vw  612   4.365   0.086   5.510 -0.3555 -0.3936  0.1976
  154SOL     ow  613   0.957   3.673   5.753  0.5584  0.0534  0.0081
  154SOL     hw  614   0.896   3.609   5.789 -0.1408  0.8157  0.1953
  154SOL     hw  615   0.975   3.643   5.664  1.6248 -1.3706  0.6611
  154SOL     vw  616   0.952   3.661   5.746  0.6069 -0.0340  0.1190
  155SOL     ow  617   5.745   1.244   6.028 -0.3703 -0.1144  0.0445
  155SOL     hw  618   5.731   1.162   6.075  0.5205 -0.0524  0.4393
  155SOL     hw  619   5.657   1.273   6.004 -0.8945 -0.0181  1.9243
  155SOL     vw  620   5.732   1.237   6.031 -0.3219 -0.0935  0.3445
  156SOL     ow  621   3.019   3.105   5.704 -0.5310  0.0626  0.0355
  156SOL     hw  622   3.075   3.182   5.717  2.8622 -2.0256 -0.8525
  156SOL     hw  623   3.030   3.055   5.785 -1.1281 -0.4236 -0.1802
  156SOL     vw  624   3.028   3.109   5.717 -0.1621 -0.2770 -0.1104
  157SOL     ow  625   0.687   4.658   2.024 -1.0713 -0.1510  0.2877
  157SOL     hw  626   0.768   4.612   2.046 -0.6225  1.6959  3.0059
  157SOL     hw  627   0.618   4.600   2.054 -0.5809 -0.0794  1.6349
  157SOL     vw  628   0.689   4.645   2.031 -0.9474  0.1023  0.8241
  158SOL     ow  629   4.326   0.067   0.564  0.5318  0.2939  0.5531
  158SOL     hw  630   4.292  -0.018   0.537 -1.4827  1.2358 -0.0151
  158SOL     hw  631   4.374   0.099   0.488  0.5686  0.0379  0.4692
  158SOL     vw  632   4.328   0.060   0.551  0.2706  0.3844  0.4671
  159SOL     ow  633   0.305   5.145   5.229  0.1427 -0.2193 -0.5067
  159SOL     hw  634   0.226   5.187   5.194  0.4470  1.2743  0.5074
  159SOL     hw  635   0.276   5.106   5.312  0.6258  1.0633  0.2879
  159SOL     vw  636   0.291   5.145   5.236  0.2466  0.1469 -0.2685
  160SOL     ow  637   1.663   3.421   4.869  0.6100  0.1992  0.0746
  160SOL     hw  638   1.577   3.411   4.910  0.9496 -2.2775  0.3487
  160SOL     hw  639   1.725   3.391   4.936  1.5483  0.3647 -0.6968
  160SOL     vw  640   1.660   3.416   4.883  0.7787 -0.1057  0.0088
  161SOL     ow  641   4.843   4.005   1.526  0.4086  0.3453  0.0631
  161SOL     hw  642   4.933   4.036   1.513  0.0297  1.3557 -0.2603
  161SOL     hw  643   4.814   3.978   1.439  0.1837  0.6417  0.0435
  161SOL     vw  644   4.851   4.006   1.513  0.3290  0.5178  0.0178
  162SOL     ow  645   3.152   3.607   4.742  0.5085  0.1429  0.4436
  162SOL     hw  646   3.122   3.696   4.760  0.5501  0.2669 -0.0891
  162SOL     hw  647   3.118   3.555   4.815  2.7017  1.0217  2.1904
  162SOL     vw  648   3.143   3.612   4.754  0.8034  0.2753  0.6037
  163SOL     ow  649   2.972   2.002   2.325  0.5599  0.1430 -0.2886
  163SOL     hw  650   2.969   1.998   2.229 -0.5699  0.6287 -0.2919
  163SOL     hw  651   2.927   1.922   2.354 -0.2568  0.6252 -0.1881
  163SOL     vw  652   2.965   1.991   2.316  0.3031  0.2708 -0.2759
  164SOL     ow  653   3.677   2.415   6.392  0.2181 -0.6355 -0.4233
  164SOL     hw  654   3.670   2.475   6.319  0.8772 -1.2643 -1.0237
  164SOL     hw  655   3.629   2.457   6.464  2.1325  1.4397 -0.2750
  164SOL     vw  656   3.670   2.428   6.392  0.5575 -0.4447 -0.4828
  165SOL     ow  657   6.773   0.304   5.148  0.3084 -0.4358  0.7962
  165SOL     hw  658   6.837   0.360   5.191 -0.0114  0.9643 -0.4720
  165SOL     hw  659   6.704   0.292   5.213  0.5784  0.3085  1.2230
  165SOL     vw  660   6.772   0.310   5.162  0.3018 -0.1529  0.6852
  166SOL     ow  661   2.678   2.134   2.369 -0.3320 -0.4074 -0.2457
  166SOL     hw  662   2.613   2.105   2.434 -1.7076  0.6306 -1.1121
  166SOL     hw  663   2.635   2.120   2.285  1.0027 -0.6771 -0.9000
  166SOL     vw  664   2.664   2.128   2.367 -0.3374 -0.3060 -0.4464
  167SOL     ow  665   5.052   0.467   4.100  0.2953  0.0532  0.1198
  167SOL     hw  666   5.043   0.520   4.179  0.9733  0.6797 -0.2103
  167SOL     hw  667   5.022   0.380   4.126 -2.3675  0.9407  0.2414
  167SOL     vw  668   5.047   0.463   4.114  0.0331  0.2530  0.0920
  168SOL     ow  669   4.118   0.908   0.513 -0.2694 -0.3236 -0.6530
  168SOL     hw  670   4.157   0.822   0.496  0.6127 -0.0440 -0.1061
  168SOL     hw  671   4.090   0.939   0.427 -1.6288 -1.6240 -0.7287
  168SOL     vw  672   4.119   0.901   0.500 -0.3324 -0.4583 -0.5908
  169SOL     ow  673   1.774   4.143   1.770  0.0459  0.2160 -0.6021
  169SOL     hw  674   1.807   4.231   1.751  0.4101 -0.1724 -1.9285
  169SOL     hw  675   1.841   4.102   1.823  0.0194  0.6363 -0.2438
  169SOL     vw  676   1.787   4.149   1.774  0.0904  0.2203 -0.7299
  170SOL     ow  677   2.056   3.733   5.753 -0.1265 -0.1058  0.9359
  170SOL     hw  678   2.059   3.828   5.746 -1.6842 -0.1236 -1.1653
  170SOL     hw  679   2.143   3.703   5.728  0.1035  0.7463  0.7083
  170SOL     vw  680   2.068   3.742   5.748 -0.3017  0.0043  0.6285
  171SOL     ow  681   5.162   2.604   0.039 -0.4848  0.4386 -0.2085
  171SOL     hw  682   5.132   2.605  -0.052 -0.2109  0.8312 -0.3016
  171SOL     hw  683   5.250   2.568   0.034 -1.3183 -1.7620  0.2001
  171SOL     vw  684   5.170   2.599   0.026 -0.5584  0.2000 -0.1669
  172SOL     ow  685   1.257   6.001   6.770  0.3634 -0.0741  0.1654
  172SOL     hw  686   1.234   5.935   6.836 -0.6012 -0.0097 -0.0846
  172SOL     hw  687   1.340   5.970   6.733 -0.1602 -1.2591 -0.0754
  172SOL     vw  688   1.265   5.988   6.774  0.1670 -0.2220  0.1009
  173SOL     ow  689   4.365   3.177   6.063  0.1065  0.7742 -0.4669
  173SOL     hw  690   4.390   3.216   5.979 -0.9207 -0.6495 -1.4870
  173SOL     hw  691   4.275   3.146   6.050  0.6891 -1.5190  0.3701
  173SOL     vw  692   4.356   3.178   6.050  0.0479  0.2838 -0.4911
  174SOL     ow  693   0.883   5.646   2.520 -0.0159  0.0385  0.7386
  174SOL     hw  694   0.842   5.566   2.552 -0.5775  0.5746  1.4011
  174SOL     hw  695   0.855   5.714   2.582 -0.2459  0.9050 -0.2770
  174SOL     vw  696   0.874   5.645   2.532 -0.1204  0.2236  0.6920
  175SOL     ow  697   5.965   1.324   2.576 -0.1984 -0.0668  0.0651
  175SOL     hw  698   5.933   1.336   2.665 -0.1016  1.4482 -0.0835
  175SOL     hw  699   5.996   1.410   2.549 -1.3248 -0.2060 -1.8702
  175SOL     vw  700   5.965   1.337   2.584 -0.3345  0.1146 -0.2098
  176SOL     ow  701   6.761   2.101   6.026 -0.2232  0.0219  0.4587
  176SOL     hw  702   6.730   2.046   6.098 -1.3875 -1.4094 -1.0713
  176SOL     hw  703   6.799   2.040   5.963  0.3535  1.1959 -0.3884
  176SOL     vw  704   6.762   2.086   6.027 -0.3009 -0.0120  0.1450
  177SOL     ow  705   5.572   3.223   2.115 -0.1264  0.0080  0.1877
  177SOL     hw  706   5.659   3.184   2.108 -0.4270 -0.5172 -1.0493
  177SOL     hw  707   5.548   3.214   2.207  0.0708 -2.2153  0.0703
  177SOL     vw  708   5.581   3.217   2.126 -0.1400 -0.3546  0.0091
  178SOL     ow  709   3.089   1.347   5.516  0.0519 -0.3299 -0.3868
  178SOL     hw  710   3.130   1.291   5.582  0.2159 -0.1198 -0.3074
  178SOL     hw  711   3.162   1.397   5.478 -0.2964  1.2584  0.9112
  178SOL     vw  712   3.104   1.347   5.520  0.0277 -0.0926 -0.2050
  179SOL     ow  713   3.481   2.290   1.328 -0.0854 -0.1741  0.0157
  179SOL     hw  714   3.404   2.339   1.358 -1.3786 -0.3704 -2.6693
  179SOL     hw  715   3.551   2.355   1.324 -0.3036  0.2031  1.6984
  179SOL     vw  716   3.480   2.305   1.332 -0.2849 -0.1503 -0.1165
  180SOL     ow  717   0.305   3.716   5.361 -0.2158  0.4198  0.4816
  180SOL     hw  718   0.217   3.717   5.323  0.6559  1.2088 -1.6755
  180SOL     hw  719   0.330   3.623   5.359 -0.2511  0.4156 -0.8403
  180SOL     vw  720   0.296   3.704   5.356 -0.1054  0.5233  0.0222
  181SOL     ow  721   0.018   3.984   2.549  0.5596 -0.0814 -0.1010
  181SOL     hw  722  -0.010   3.943   2.468 -0.2949  2.3799 -1.1549
  181SOL     hw  723  -0.025   3.933   2.618 -1.6452 -0.0875 -1.3924
  181SOL     vw  724   0.008   3.972   2.548  0.1559  0.2425 -0.4103
  182SOL     ow  725   3.050   3.392   1.297  0.4324 -0.4754  0.1669
  182SOL     hw  726   3.126   3.359   1.346  0.3839  0.3784  0.8535
  182SOL     hw  727   2.981   3.400   1.362 -0.4844 -1.8992 -0.5908
  182SOL     vw  728   3.051   3.389   1.312  0.3052 -0.5506  0.1575
  183SOL     ow  729   4.587   2.634   4.766 -0.2458  0.5474 -0.6069
  183SOL     hw  730   4.671   2.660   4.729  0.0451  0.1302 -0.2452
  183SOL     hw  731   4.569   2.700   4.833  0.8554 -0.5428  0.8373
  183SOL     vw  732   4.596   2.646   4.770 -0.0622  0.3486 -0.3688
  184SOL     ow  733   4.267   0.389   4.986  0.4084 -0.4093 -0.2786
  184SOL     hw  734   4.292   0.476   4.956  3.0841 -1.3873 -1.2035
  184SOL     hw  735   4.188   0.368   4.937  0.3716  1.0549 -0.8989
  184SOL     vw  736   4.260   0.398   4.976  0.7565 -0.3452 -0.4826
  185SOL     ow  737   2.032   5.954   2.029  0.1889 -0.8028 -0.1924
  185SOL     hw  738   2.040   5.859   2.022 -0.4298 -0.9579  0.9868
  185SOL     hw  739   1.977   5.968   2.106 -0.7720  0.4815 -1.0794
  185SOL     vw  740   2.026   5.944   2.038 -0.0194 -0.6537 -0.1539
  186SOL     ow  741   2.521   4.749   0.457 -0.0101  0.1662 -0.4528
  186SOL     hw  742   2.514   4.659   0.426  1.2221 -0.6162  1.3619
  186SOL     hw  743   2.505   4.744   0.551  0.9047  1.7074 -0.1712
  186SOL     vw  744   2.518   4.736   0.465  0.2730  0.2663 -0.1763
  187SOL     ow  745   2.021   0.215   4.030 -0.1075  0.3646  0.2868
  187SOL     hw  746   2.004   0.293   3.977 -0.3110  0.4123  0.4187
  187SOL     hw  747   1.994   0.142   3.976 -0.4677  0.4233  0.3894
  187SOL     vw  748   2.015   0.216   4.016 -0.1817  0.3787  0.3176
  188SOL     ow  749   4.581   1.078   3.440 -0.5268 -0.1358 -0.3808
  188SOL     hw  750   4.504   1.059   3.387 -0.4809  0.0750 -0.5221
  188SOL     hw  751   4.638   1.001   3.429 -0.7361 -0.3135 -0.2376
  188SOL     vw  752   4.579   1.065   3.432 -0.5486 -0.1315 -0.3804
  189SOL     ow  753   4.625   1.434   0.442  0.3800  0.2242 -0.5440
  189SOL     hw  754   4.662   1.435   0.531  0.1381  0.3336 -0.4444
  189SOL     hw  755   4.587   1.521   0.430  1.3523  0.5794 -1.1615
  189SOL     vw  756   4.625   1.445   0.452  0.4764  0.2854 -0.6123
  190SOL     ow  757   1.593   3.317   4.580 -0.2260  0.3886 -0.3869
  190SOL     hw  758   1.565   3.232   4.545  2.3624 -0.5592 -0.3980
  190SOL     hw  759   1.571   3.380   4.511 -0.7058 -0.5152 -1.0842
  190SOL     vw  760   1.586   3.314   4.566  0.0522  0.1442 -0.4804
  191SOL     ow  761   1.583   2.309   1.059 -0.0874 -0.3794 -0.0149
  191SOL     hw  762   1.640   2.349   0.992 -0.4052  0.6707  0.3252
  191SOL     hw  763   1.571   2.378   1.124 -0.6863 -1.0323  0.5735
  191SOL     vw  764   1.589   2.323   1.059 -0.2083 -0.3270  0.1076
  192SOL     ow  765   5.632   2.214   6.121  0.1213  0.1095  0.1258
  192SOL     hw  766   5.721   2.246   6.112  0.4119 -0.3811  1.1784
  192SOL     hw  767   5.608   2.233   6.211 -0.9619  0.5237 -0.2340
  192SOL     vw  768   5.640   2.221   6.132  0.0169  0.0993  0.2170
  193SOL     ow  769   3.181   2.612   4.778 -0.2114 -0.3475 -0.2992
  193SOL     hw  770   3.120   2.540   4.796 -0.3086 -0.0507  0.6260
  193SOL     hw  771   3.153   2.646   4.694  0.2623 -1.8107 -1.0757
  193SOL     vw  772   3.169   2.607   4.770 -0.1618 -0.5013 -0.2797
  194SOL     ow  773   3.014   5.516   2.669  0.7296 -0.0215  0.9669
  194SOL     hw  774   3.049   5.444   2.616 -0.6290 -0.6720  0.9234
  194SOL     hw  775   3.017   5.482   2.759  0.3972 -0.0006  0.9842
  194SOL     vw  776   3.019   5.502   2.674  0.5065 -0.1044  0.9634
  195SOL     ow  777   4.581   2.314   0.590 -0.2125  0.1637 -0.2841
  195SOL     hw  778   4.526   2.247   0.630  1.1501  0.5595  2.5367
  195SOL     hw  779   4.652   2.264   0.548  0.1924 -0.2428  0.8344
  195SOL     vw  780   4.583   2.298   0.590  0.0207  0.1621  0.2356
  196SOL     ow  781   1.318   0.154   1.589 -0.5115  0.0672 -0.4933
  196SOL     hw  782   1.229   0.122   1.576 -1.1234  1.1093  0.8850
  196SOL     hw  783   1.370   0.075   1.605 -1.3969 -0.4674 -0.2157
  196SOL     vw  784   1.313   0.140   1.590 -0.7091  0.1342 -0.2748
  197SOL     ow  785   2.426   0.072   5.992 -0.2492  0.3331 -0.4622
  197SOL     hw  786   2.456   0.025   6.069  1.4522  0.3842 -1.0622
  197SOL     hw  787   2.366   0.138   6.026  2.0477  1.7434  1.0877
  197SOL     vw  788   2.422   0.074   6.006  0.2784  0.5259 -0.3371
  198SOL     ow  789   3.668   2.206   0.469 -0.2654  0.3895 -0.5856
  198SOL     hw  790   3.748   2.154   0.472 -2.3041 -3.0279 -0.9494
  198SOL     hw  791   3.635   2.196   0.380 -3.2959 -2.1806  0.6164
  198SOL     vw  792   3.674   2.198   0.458 -0.9342 -0.4004 -0.4750
  199SOL     ow  793   4.634   1.738   6.235 -0.0034  0.1249 -0.4632
  199SOL     hw  794   4.543   1.754   6.209 -0.4185  1.0716  1.4107
  199SOL     hw  795   4.667   1.676   6.169 -1.5331  0.8791 -2.0289
  199SOL     vw  796   4.626   1.732   6.223 -0.2599  0.3493 -0.4225
  200SOL     ow  797   2.805   4.094   0.314  0.4808 -0.0705  0.0639
  200SOL     hw  798   2.722   4.046   0.320  1.5440 -1.8788  1.8400
  200SOL     hw  799   2.825   4.096   0.220 -0.9967 -0.6438 -0.2891
  200SOL     vw  800   2.797   4.088   0.302  0.4261 -0.3848  0.2517
  201SOL     ow  801   1.454   6.648   2.560 -0.3113 -0.1070 -0.6012
  201SOL     hw  802   1.472   6.582   2.626 -0.1244  1.9929  1.5723
  201SOL     hw  803   1.529   6.642   2.500  0.5690 -0.7039  0.5222
  201SOL     vw  804   1.466   6.639   2.561 -0.1705  0.0911 -0.1663
  202SOL     ow  805   3.648   0.496   2.565  0.5508 -0.4574  0.8320
  202SOL     hw  806   3.600   0.555   2.507  0.2740 -1.1264  0.3743
  202SOL     hw  807   3.588   0.423   2.580  1.1711 -0.9827  0.7904
  202SOL     vw  808   3.634   0.494   2.559  0.5962 -0.6150  0.7660
  203SOL     ow  809   1.190   1.563   5.980 -0.2535  0.5832  0.0467
  203SOL     hw  810   1.255   1.499   6.010 -1.0163 -0.0179  0.4382
  203SOL     hw  811   1.172   1.540   5.890 -2.4362 -1.4259  0.8986
  203SOL     vw  812   1.197   1.552   5.972 -0.6422  0.2388  0.2105
  204SOL     ow  813   5.754   2.976   0.512 -0.7005 -0.9678 -0.1424
  204SOL     hw  814   5.731   2.892   0.473  0.3302 -0.8993 -0.9355
  204SOL     hw  815   5.674   3.004   0.557 -1.7494 -1.3254 -1.7144
  204SOL     vw  816   5.740   2.969   0.513 -0.7031 -1.0059 -0.4545
  205SOL     ow  817   1.550   5.149   1.445 -0.4116  0.5748 -0.8186
  205SOL     hw  818   1.634   5.167   1.402 -0.4399 -0.7645 -1.4589
  205SOL     hw  819   1.574   5.106   1.527 -0.4854 -0.7619 -1.4794
  205SOL     vw  820   1.564   5.146   1.450 -0.4250  0.2222 -0.9903
  206SOL     ow  821   6.122   2.304   4.432  0.0146 -0.3122  0.0019
  206SOL     hw  822   6.179   2.347   4.368  1.4927  1.4641  2.3516
  206SOL     hw  823   6.131   2.210   4.413  0.9644  0.1023 -1.8613
  206SOL     vw  824   6.131   2.297   4.421  0.3350 -0.0231  0.0658
  207SOL     ow  825   1.921   0.079   4.297 -0.2925 -0.5019 -0.4522
  207SOL     hw  826   1.879   0.134   4.363 -3.1262 -1.0727 -1.6047
  207SOL     hw  827   1.914  -0.010   4.333  0.2806 -0.5747 -0.5137
  207SOL     vw  828   1.914   0.074   4.310 -0.5907 -0.5868 -0.6125
  208SOL     ow  829   5.989   0.749   4.784  0.1642  0.0559 -0.1822
  208SOL     hw  830   5.998   0.764   4.878 -1.1616  0.7010 -0.1470
  208SOL     hw  831   6.079   0.750   4.752  0.7988 -1.8128  1.2987
  208SOL     vw  832   6.002   0.751   4.792  0.0730 -0.1056  0.0176
  209SOL     ow  833   1.240   6.573   2.189 -0.4444  0.0826 -0.5565
  209SOL     hw  834   1.333   6.595   2.187 -0.3071  0.0966  2.1252
  209SOL     hw  835   1.199   6.637   2.131  1.2343 -0.2938 -2.2516
  209SOL     vw  836   1.247   6.584   2.181 -0.2048  0.0346 -0.4263
  210SOL     ow  837   4.963   6.587   0.112  0.2030  0.1225  0.0647
  210SOL     hw  838   4.889   6.556   0.061 -0.3430  0.8517  0.3874
  210SOL     hw  839   5.034   6.525   0.094 -0.1310  0.0762 -1.1565
  210SOL     vw  840   4.963   6.575   0.103  0.0870  0.2129 -0.0538
  211SOL     ow  841   3.209   4.433   6.350 -0.3744  0.0566  0.3552
  211SOL     hw  842   3.252   4.450   6.267  1.4355  2.6425  1.6748
  211SOL     hw  843   3.276   4.390   6.403 -0.6685  0.6247  1.2131
  211SOL     vw  844   3.223   4.430   6.346 -0.1744  0.4725  0.6423
  212SOL     ow  845   3.053   3.259   2.200  0.0882 -0.2118 -0.1205
  212SOL     hw  846   3.053   3.174   2.245  0.9214  0.5891  1.4783
  212SOL     hw  847   3.006   3.318   2.259  0.9174  0.7979 -0.4431
  212SOL     vw  848   3.047   3.255   2.214  0.3074  0.0272  0.0479
  213SOL     ow  849   4.044   5.364   3.407 -0.0343 -0.1581 -0.5413
  213SOL     hw  850   4.122   5.332   3.452 -0.3406 -0.4471 -0.2126
  213SOL     hw  851   4.004   5.286   3.370  0.7053  0.1615 -2.1350
  213SOL     vw  852   4.049   5.350   3.408  0.0229 -0.1540 -0.7082
  214SOL     ow  853   4.678   6.344   1.406 -0.1073 -0.1747 -0.7278
  214SOL     hw  854   4.758   6.392   1.426  0.4371 -1.1255 -0.5330
  214SOL     hw  855   4.705   6.252   1.406 -1.1937 -0.5080 -0.6968
  214SOL     vw  856   4.692   6.338   1.409 -0.1788 -0.3438 -0.6981
  215SOL     ow  857   5.041   1.647   0.946  0.0749  0.0969  0.0599
  215SOL     hw  858   4.965   1.595   0.972  0.0456  0.5793  0.9547
  215SOL     hw  859   5.097   1.585   0.899 -0.1800 -0.6272  0.6920
  215SOL     vw  860   5.039   1.632   0.943  0.0374  0.0650  0.2614
  216SOL     ow  861   6.624   0.121   5.833 -0.1546  0.0094 -0.1147
  216SOL     hw  862   6.537   0.081   5.839 -0.6200  0.8145 -1.1578
  216SOL     hw  863   6.616   0.184   5.762  0.6181  1.7779  1.2973
  216SOL     vw  864   6.611   0.124   5.825 -0.1142  0.3489 -0.0663
  217SOL     ow  865   1.430   5.771   1.414 -0.3163 -0.0872 -0.2895
  217SOL     hw  866   1.451   5.823   1.336 -0.0083  1.8984  1.0438
  217SOL     hw  867   1.338   5.748   1.403 -0.8933  2.0092 -0.2943
  217SOL     vw  868   1.420   5.775   1.402 -0.3517  0.4516 -0.1141
  218SOL     ow  869   0.658   4.136   2.114  0.3582 -0.1037  0.1318
  218SOL     hw  870   0.570   4.174   2.107 -0.5761 -1.9577  1.0203
  218SOL     hw  871   0.661   4.100   2.202  1.7060 -0.8243 -0.1897
  218SOL     vw  872   0.647   4.136   2.125  0.4128 -0.4435  0.2066
  219SOL     ow  873   4.363   5.763   0.947 -0.5315  0.1023  0.6205
  219SOL     hw  874   4.314   5.695   0.994  1.2763 -0.4861  1.7265
  219SOL     hw  875   4.440   5.780   1.001  0.9134  0.4397 -1.4128
  219SOL     vw  876   4.367   5.756   0.960 -0.1023  0.0689  0.4981
  220SOL     ow  877   2.417   5.778   2.599  0.0383  0.4921 -0.1419
  220SOL     hw  878   2.429   5.800   2.507 -0.6850  1.1325 -0.0921
  220SOL     hw  879   2.474   5.839   2.647  0.4756  0.1063 -0.1618
  220SOL     vw  880   2.426   5.789   2.593  0.0006  0.5257 -0.1380
  221SOL     ow  881   1.232   5.264   1.526  0.0287 -0.3631  0.3523
  221SOL     hw  882   1.196   5.219   1.602 -0.9924 -0.5953 -0.2387
  221SOL     hw  883   1.169   5.333   1.507  0.6376  0.1459  0.1405
  221SOL     vw  884   1.219   5.267   1.533 -0.0257 -0.3266  0.2463
  222SOL     ow  885   2.024   1.602   2.735 -1.0268 -0.3176  0.8663
  222SOL     hw  886   2.055   1.647   2.657 -1.0420 -2.0523 -0.2077
  222SOL     hw  887   2.014   1.671   2.801  0.4617  0.9733 -0.1857
  222SOL     vw  888   2.027   1.617   2.734 -0.8324 -0.3762  0.5858
  223SOL     ow  889   2.283   5.241   3.880  0.5613 -0.3823 -0.2549
  223SOL     hw  890   2.217   5.253   3.812 -0.8066 -0.1059  1.0725
  223SOL     hw  891   2.357   5.199   3.835 -0.1967  0.0381 -1.9400
  223SOL     vw  892   2.284   5.237   3.865  0.2809 -0.2904 -0.3022
  224SOL     ow  893   3.820   3.416   2.119  0.5400 -0.0628  0.2689
  224SOL     hw  894   3.766   3.367   2.058  0.8898 -0.9056  0.6226
  224SOL     hw  895   3.823   3.361   2.198  2.5405 -0.4337 -0.0095
  224SOL     vw  896   3.814   3.402   2.122  0.8502 -0.2230  0.2788
  225SOL     ow  897   5.995   4.395   5.788  0.0391  0.1391 -0.5141
  225SOL     hw  898   6.076   4.401   5.738 -1.1748  0.8970 -2.4912
  225SOL     hw  899   5.933   4.352   5.729 -0.5311 -2.3700  1.6648
  225SOL     vw  900   5.997   4.390   5.774 -0.1965 -0.0923 -0.4876
  226SOL     ow  901   6.309   4.397   2.739 -0.2848 -0.4221 -0.4705
  226SOL     hw  902   6.316   4.361   2.651 -1.5283 -0.6661 -0.4785
  226SOL     hw  903   6.360   4.478   2.736  1.5067 -1.5139 -0.7886
  226SOL     vw  904   6.317   4.403   2.727 -0.2124 -0.5982 -0.5136
  227SOL     ow  905   6.224   4.126   5.434  0.1620 -0.5418 -0.2251
  227SOL     hw  906   6.210   4.220   5.421 -0.4625 -0.5336  0.4008
  227SOL     hw  907   6.251   4.118   5.526  0.7928 -0.9238 -0.4360
  227SOL     vw  908   6.226   4.138   5.444  0.1626 -0.5908 -0.1700
  228SOL     ow  909   1.327   0.681   5.614  0.9631  0.0306  0.1825
  228SOL     hw  910   1.389   0.753   5.606  0.0983  0.6096 -2.4370
  228SOL     hw  911   1.244   0.724   5.634  0.4321 -0.1638 -1.4437
  228SOL     vw  912   1.324   0.696   5.616  0.7790  0.0813 -0.3779
  229SOL     ow  913   0.429   1.137   6.423 -0.0607 -0.2669 -0.3264
  229SOL     hw  914   0.398   1.221   6.456  1.8625  2.3106 -4.2023
  229SOL     hw  915   0.509   1.120   6.472 -1.4352 -0.9120  1.7823
  229SOL     vw  916   0.436   1.146   6.434  0.0117 -0.0120 -0.5591
  230SOL     ow  917   3.498   4.591   0.933  0.5712 -0.1143  0.1335
  230SOL     hw  918   3.483   4.634   1.017 -0.0710 -0.1090  0.0206
  230SOL     hw  919   3.430   4.525   0.926  1.5383 -1.1528  0.2870
  230SOL     vw  920   3.487   4.588   0.943  0.6140 -0.2506  0.1388
  231SOL     ow  921   3.988   5.200   0.060 -0.7414 -0.4595 -0.3147
  231SOL     hw  922   3.934   5.133   0.020  0.3749 -2.1153  0.8269
  231SOL     hw  923   4.048   5.152   0.117  0.5953  1.4496 -0.0034
  231SOL     vw  924   3.989   5.185   0.062 -0.4178 -0.4261 -0.1230
  232SOL     ow  925   1.225   2.951   2.085  0.2838  0.4379  0.0346
  232SOL     hw  926   1.260   2.998   2.161 -0.8339  0.6275  0.4398
  232SOL     hw  927   1.195   2.867   2.120  0.8189  0.0432 -0.4163
  232SOL     vw  928   1.226   2.946   2.099  0.2070  0.4108  0.0285
  233SOL     ow  929   3.928   6.145   2.086  0.2149 -0.5232 -0.7485
  233SOL     hw  930   3.908   6.194   2.166 -0.8387  0.5563 -1.6435
  233SOL     hw  931   3.947   6.057   2.116  3.5836  0.6337  1.0978
  233SOL     vw  932   3.928   6.140   2.100  0.5203 -0.2282 -0.6231
  234SOL     ow  933   1.609   1.476   0.461  0.5120  0.3539 -0.2087
  234SOL     hw  934   1.672   1.421   0.507  1.2141  0.0658 -1.4558
  234SOL     hw  935   1.527   1.426   0.465  1.1469 -0.8596 -1.3728
  234SOL     vw  936   1.607   1.462   0.467  0.6884  0.1557 -0.5268
  235SOL     ow  937   6.267   3.095   5.929  0.7552 -0.0070 -0.5334
  235SOL     hw  938   6.194   3.157   5.937 -0.5582 -1.6731  2.0200
  235SOL     hw  939   6.328   3.120   5.999  0.1232 -1.5530  0.6505
  235SOL     vw  940   6.265   3.107   5.940  0.4983 -0.4307 -0.0403
  236SOL     ow  941   2.045   1.339   2.601 -0.1854  0.7858 -0.3675
  236SOL     hw  942   2.134   1.334   2.634 -0.0333  2.5357 -0.3909
  236SOL     hw  943   2.031   1.256   2.555  0.7041 -0.3536  1.3447
  236SOL     vw  944   2.055   1.327   2.599 -0.0482  0.8662 -0.1446
  237SOL     ow  945   0.765   3.560   0.390 -0.8559  0.3633 -0.3598
  237SOL     hw  946   0.675   3.528   0.396  0.3528 -3.2129  1.3499
  237SOL     hw  947   0.770   3.626   0.459 -1.7682 -0.6191  0.7013
  237SOL     vw  948   0.754   3.564   0.400 -0.8168 -0.2381  0.0057
  238SOL     ow  949   5.555   3.886   1.043  0.1209 -0.3756  0.4988
  238SOL     hw  950   5.561   3.981   1.035 -1.6825 -0.3083 -0.6822
  238SOL     hw  951   5.529   3.871   1.134 -1.7237  0.4473  0.1629
  238SOL     vw  952   5.552   3.897   1.054 -0.3605 -0.2581  0.2986
  239SOL     ow  953   1.832   6.416   5.366 -0.6424  0.3478 -0.0934
  239SOL     hw  954   1.913   6.424   5.416 -0.1224 -2.1061 -0.3819
  239SOL     hw  955   1.795   6.332   5.394 -0.6348 -0.8725 -3.2741
  239SOL     vw  956   1.838   6.406   5.376 -0.5728 -0.1369 -0.5510
  240SOL     ow  957   0.524   5.493   4.623  0.1030  0.2774  0.7047
  240SOL     hw  958   0.521   5.588   4.622 -1.1681  0.2513  0.2427
  240SOL     hw  959   0.597   5.472   4.681 -0.2855  1.5254  1.6906
  240SOL     vw  960   0.533   5.502   4.630 -0.1159  0.4385  0.7737
  241SOL     ow  961   5.950   1.387   6.252 -0.0312  0.1916 -0.4535
  241SOL     hw  962   5.996   1.352   6.329  2.0916  0.5211 -1.4874
  241SOL     hw  963   5.903   1.464   6.285  2.1629  1.3078  0.2834
  241SOL     vw  964   5.950   1.393   6.266  0.5381  0.3823 -0.4926
  242SOL     ow  965   2.691   2.130   4.378 -0.3025  0.3557  0.1251
  242SOL     hw  966   2.719   2.159   4.291  0.4290  0.0660  0.2565
  242SOL     hw  967   2.746   2.179   4.439 -0.7924  0.5377  0.4288
  242SOL     vw  968   2.702   2.140   4.375 -0.2705  0.3414  0.1826
  243SOL     ow  969   1.603   4.505   6.371  0.0357 -0.1471  0.1528
  243SOL     hw  970   1.557   4.453   6.437 -0.0731  1.3430  1.3103
  243SOL     hw  971   1.653   4.570   6.421 -2.1158  2.7804 -1.1903
  243SOL     vw  972   1.604   4.507   6.386 -0.2626  0.4358  0.1285
  244SOL     ow  973   6.696   2.887   1.012 -0.2731 -0.0614  0.3961
  244SOL     hw  974   6.787   2.856   1.018 -0.1384  0.1621 -0.4438
  244SOL     hw  975   6.695   2.968   1.064  0.6523  1.3377 -1.6579
  244SOL     vw  976   6.708   2.894   1.020 -0.1335  0.1528  0.0142
  245SOL     ow  977   6.206   4.906   4.408  0.2709 -0.1233  0.8401
  245SOL     hw  978   6.242   4.994   4.399 -1.0018  0.3442  0.0094
  245SOL     hw  979   6.138   4.901   4.341 -0.0683 -1.5401  1.2560
  245SOL     vw  980   6.202   4.917   4.398  0.0582 -0.2487  0.7856
  246SOL     ow  981   2.640   1.663   6.165 -0.0723  0.0853  0.2375
  246SOL     hw  982   2.648   1.570   6.182 -0.9618  0.1754  1.2484
  246SOL     hw  983   2.730   1.697   6.170  0.1424 -0.5595  0.8207
  246SOL     vw  984   2.653   1.655   6.168 -0.1614  0.0120  0.4478
  247SOL     ow  985   4.460   2.156   5.560 -0.1456 -0.2471 -0.5857
  247SOL     hw  986   4.454   2.061   5.550  0.6055 -0.1677 -1.9788
  247SOL     hw  987   4.551   2.172   5.585 -0.4290  0.0700  0.2759
  247SOL     vw  988   4.471   2.146   5.562 -0.0837 -0.1949 -0.6557
  248SOL     ow  989   0.212   4.428   4.852 -0.5989 -0.0618 -0.0449
  248SOL     hw  990   0.211   4.483   4.930  0.9484  0.0605 -0.0849
  248SOL     hw  991   0.204   4.339   4.886  2.2669 -0.2101  0.5250
  248SOL     vw  992   0.211   4.424   4.866 -0.0167 -0.0651  0.0250
  249SOL     ow  993   2.556   3.888   4.529  0.0438 -0.6205 -1.2652
  249SOL     hw  994   2.555   3.958   4.464  0.5178  0.4148 -0.2103
  249SOL     hw  995   2.477   3.903   4.581 -0.3927 -1.5067 -1.6512
  249SOL     vw  996   2.545   3.900   4.528  0.0488 -0.6009 -1.1771
  250SOL     ow  997   5.569   0.931   5.492 -0.2773 -0.0068 -0.1940
  250SOL     hw  998   5.532   0.876   5.423  0.5658  0.6456 -1.1827
  250SOL     hw  999   5.654   0.891   5.511 -0.4574 -0.1184  0.4134
  250SOL     vw 1000   5.575   0.918   5.486 -0.1900  0.0645 -0.2444
  251SOL     ow 1001   3.419   5.545   5.214  0.0451 -0.0905  0.0254
  251SOL     hw 1002   3.446   5.592   5.136  0.9860 -1.2060 -0.3562
  251SOL     hw 1003   3.422   5.610   5.284 -0.3847  0.8142 -0.7835
  251SOL     vw 1004   3.423   5.559   5.213  0.1125 -0.1183 -0.1318
  252SOL     ow 1005   4.823   4.570   6.456 -0.1995  0.8275 -0.2937
  252SOL     hw 1006   4.907   4.573   6.410 -0.2611  2.4180 -0.3662
  252SOL     hw 1007   4.760   4.606   6.393 -0.0625  4.3581  1.3410
  252SOL     vw 1008   4.826   4.575   6.442 -0.1893  1.5032 -0.0880
  253SOL     ow 1009   2.489   1.299   3.374 -0.5673  0.2208 -0.0662
  253SOL     hw 1010   2.538   1.376   3.401 -0.9970 -0.0676  1.6736
  253SOL     hw 1011   2.449   1.266   3.455 -0.1079 -2.0309 -0.6683
  253SOL     vw 1012   2.490   1.304   3.388 -0.5635 -0.1144  0.0839
  254SOL     ow 1013   5.948   5.992   5.186  0.3955  0.3891  0.1191
  254SOL     hw 1014   5.963   6.071   5.237 -2.9484  0.9441  0.5068
  254SOL     hw 1015   5.921   6.023   5.100  2.9334 -0.4960 -1.0896
  254SOL     vw 1016   5.946   6.006   5.182  0.2892  0.3452  0.0110
  255SOL     ow 1017   2.285   0.878   0.500  0.1465  0.1068 -0.5831
  255SOL     hw 1018   2.194   0.848   0.499  1.0503 -3.1095  0.6230
  255SOL     hw 1019   2.312   0.877   0.408  0.3384 -4.2650 -0.7278
  255SOL     vw 1020   2.277   0.874   0.488  0.2911 -0.8943 -0.4431
  256SOL     ow 1021   0.298   2.779   6.045  0.2085  0.2213 -0.4120
  256SOL     hw 1022   0.286   2.738   6.130  0.5155  2.0619  0.5806
  256SOL     hw 1023   0.310   2.706   5.984  0.9934 -1.1273  1.2741
  256SOL     vw 1024   0.298   2.764   6.048  0.3525  0.2862 -0.0587
  257SOL     ow 1025   0.061   6.714   5.691  0.0905  0.8230 -0.5019
  257SOL     hw 1026   0.152   6.686   5.697 -0.3035 -0.2362  1.8551
  257SOL     hw 1027   0.057   6.794   5.742 -0.6978 -0.5023  1.6702
  257SOL     vw 1028   0.073   6.721   5.698 -0.0655  0.5085  0.0956
  258SOL     ow 1029   4.362   1.013   2.145  0.5529 -0.4176  0.3773
  258SOL     hw 1030   4.382   0.994   2.237  0.8895 -0.0580  0.3780
  258SOL     hw 1031   4.446   1.010   2.100  0.5767  0.7705  0.3267
  258SOL     vw 1032   4.376   1.010   2.151  0.6006 -0.2134  0.3707
  259SOL     ow 1033   5.909   6.186   2.872 -0.6022  0.1201  0.1072
  259SOL     hw 1034   5.828   6.151   2.908 -0.7017  0.5240  0.2842
  259SOL     hw 1035   5.938   6.121   2.808 -0.3601 -0.6862  1.0082
  259SOL     vw 1036   5.902   6.173   2.869 -0.5834  0.0672  0.2496
  260SOL     ow 1037   2.984   0.695   6.099  0.0869  0.2916  0.4577
  260SOL     hw 1038   3.023   0.621   6.052  0.0329  0.4382  0.1798
  260SOL     hw 1039   3.055   0.730   6.152 -0.0280 -0.3037  1.0217
  260SOL     vw 1040   2.998   0.690   6.100  0.0647  0.2324  0.4954
  261SOL     ow 1041   3.490   5.367   0.172  0.0258  0.4583 -0.0096
  261SOL     hw 1042   3.559   5.426   0.201  0.7051 -0.3719  0.1137
  261SOL     hw 1043   3.458   5.326   0.253 -1.6101  1.8552  0.1122
  261SOL     vw 1044   3.495   5.369   0.187 -0.1005  0.5331  0.0227
  262SOL     ow 1045   1.256   3.226   2.693  0.2492 -1.0051  0.0369
  262SOL     hw 1046   1.299   3.198   2.773  1.4508 -3.1021 -1.2392
  262SOL     hw 1047   1.284   3.162   2.627 -0.9955  0.3931 -1.9732
  262SOL     vw 1048   1.265   3.214   2.695  0.2434 -1.0974 -0.3967
  263SOL     ow 1049   0.264   5.215   0.626 -0.1692 -0.0117 -0.0781
  263SOL     hw 1050   0.228   5.269   0.696 -1.4136  0.0329 -0.7128
  263SOL     hw 1051   0.342   5.263   0.596 -0.6898  0.9296  0.0348
  263SOL     vw 1052   0.270   5.228   0.631 -0.4021  0.1183 -0.1470
  264SOL     ow 1053   2.819   4.026   3.403  0.1965 -0.4634  0.2514
  264SOL     hw 1054   2.773   3.964   3.346  1.1164 -0.5293 -0.4426
  264SOL     hw 1055   2.833   4.103   3.348 -1.3311  0.5697  1.2349
  264SOL     vw 1056   2.815   4.028   3.388  0.1162 -0.3357  0.2897
  265SOL     ow 1057   4.930   3.531   4.993 -0.2649 -0.0322 -0.1821
  265SOL     hw 1058   4.884   3.540   5.077 -0.4404 -1.1471 -0.1408
  265SOL     hw 1059   4.983   3.610   4.986 -1.5638  0.9120  0.1580
  265SOL     vw 1060   4.931   3.543   5.003 -0.4592 -0.0547 -0.1316
  266SOL     ow 1061   1.731   5.707   4.861  0.4714  0.3181  0.1389
  266SOL     hw 1062   1.705   5.633   4.916 -2.4330 -0.9874 -2.6645
  266SOL     hw 1063   1.790   5.669   4.796  0.9844  1.0292  0.1794
  266SOL     vw 1064   1.735   5.692   4.859  0.1559  0.2398 -0.2255
  267SOL     ow 1065   3.082   6.481   5.220 -0.0094 -0.3730  0.3386
  267SOL     hw 1066   3.094   6.443   5.307  0.3622 -0.3340  0.3027
  267SOL     hw 1067   2.993   6.454   5.196  0.3962 -1.6151  0.1219
  267SOL     vw 1068   3.072   6.472   5.229  0.0931 -0.5314  0.3052
  268SOL     ow 1069   0.034   2.918   0.712 -0.0560  0.5453  0.0128
  268SOL     hw 1070   0.082   3.000   0.700  0.4186  0.1978 -0.5237
  268SOL     hw 1071  -0.002   2.899   0.626 -0.5227  0.4050  0.2365
  268SOL     vw 1072   0.036   2.927   0.699 -0.0549  0.4810 -0.0284
  269SOL     ow 1073   1.701   3.114   1.972  0.1712 -0.4220 -0.3058
  269SOL     hw 1074   1.762   3.186   1.988  1.8009 -1.9688  0.7189
  269SOL     hw 1075   1.643   3.147   1.903  0.4103  2.1056  0.6272
  269SOL     vw 1076   1.701   3.128   1.965  0.4178 -0.2927 -0.0475
  270SOL     ow 1077   5.715   0.957   4.438 -0.0244 -0.3031  0.2385
  270SOL     hw 1078   5.632   0.988   4.401  1.6804  1.7688 -2.1482
  270SOL     hw 1079   5.767   0.931   4.362  0.5674 -4.5176  1.8122
  270SOL     vw 1080   5.711   0.957   4.423  0.2789 -0.5858  0.1314
  271SOL     ow 1081   5.492   0.077   6.380 -0.3306  0.2271 -0.5699
  271SOL     hw 1082   5.538   0.102   6.460 -2.8889 -0.8179  1.3894
  271SOL     hw 1083   5.403   0.113   6.390 -1.0283 -0.7710 -2.4849
  271SOL     vw 1084   5.486   0.085   6.392 -0.7601 -0.0425 -0.5641
  272SOL     ow 1085   5.369   2.649   1.945 -0.3070  0.2443 -0.2590
  272SOL     hw 1086   5.295   2.645   1.883 -1.1407  0.3179  0.7135
  272SOL     hw 1087   5.446   2.656   1.889 -1.0738  0.7082 -1.2936
  272SOL     vw 1088   5.370   2.649   1.929 -0.5181  0.3152 -0.2672
  273SOL     ow 1089   4.760   5.233   4.063 -0.3439  0.5119  0.0066
  273SOL     hw 1090   4.753   5.323   4.095 -1.5003  0.6035 -0.4846
  273SOL     hw 1091   4.688   5.186   4.105  0.7032 -0.3922  0.8694
  273SOL     vw 1092   4.750   5.238   4.073 -0.3583  0.4046  0.0556
  274SOL     ow 1093   5.293   5.488   0.236 -0.2326 -0.1311 -0.0777
  274SOL     hw 1094   5.277   5.486   0.142 -0.4097  0.7154 -0.0741
  274SOL     hw 1095   5.207   5.503   0.275 -0.0042  0.6852  0.1425
  274SOL     vw 1096   5.280   5.490   0.229 -0.2260  0.0882 -0.0482
  275SOL     ow 1097   5.306   0.169   2.160 -0.0625 -0.2093  0.1255
  275SOL     hw 1098   5.289   0.206   2.074 -1.5234  0.2807  0.5856
  275SOL     hw 1099   5.349   0.239   2.209  0.5751 -0.4156 -0.1350
  275SOL     vw 1100   5.309   0.183   2.155 -0.1712 -0.1719  0.1519
  276SOL     ow 1101   2.515   5.195   1.616 -0.1281 -0.2416  0.2832
  276SOL     hw 1102   2.574   5.207   1.690 -0.3088 -2.8926  0.9851
  276SOL     hw 1103   2.551   5.249   1.546  1.7956 -0.0214  1.3892
  276SOL     vw 1104   2.528   5.204   1.616  0.1018 -0.5622  0.5218
  277SOL     ow 1105   2.306   6.648   4.596 -0.1576 -0.2245  0.2834
  277SOL     hw 1106   2.292   6.717   4.661 -0.6227 -0.2954  0.2593
  277SOL     hw 1107   2.226   6.595   4.600 -0.4523  0.1160 -0.7818
  277SOL     vw 1108   2.294   6.650   4.605 -0.2578 -0.1888  0.1395
  278SOL     ow 1109   5.202   6.142   5.415 -0.3427 -0.2883 -0.2123
  278SOL     hw 1110   5.272   6.177   5.471 -0.4985 -1.9937  1.1171
  278SOL     hw 1111   5.231   6.054   5.393 -0.5760  0.1186 -2.4114
  278SOL     vw 1112   5.215   6.135   5.420 -0.3939 -0.4597 -0.3269
  279SOL     ow 1113   2.491   2.878   0.249 -0.1614 -0.1081  0.5566
  279SOL     hw 1114   2.459   2.846   0.165 -0.3945  1.2140  0.1322
  279SOL     hw 1115   2.566   2.821   0.269  1.1165  0.7515 -1.4811
  279SOL     vw 1116   2.497   2.866   0.241 -0.0235  0.1796  0.2318
  280SOL     ow 1117   1.580   2.640   4.730  1.2094  0.1626 -0.4223
  280SOL     hw 1118   1.576   2.557   4.682  1.0544  0.1889 -0.4556
  280SOL     hw 1119   1.666   2.640   4.771  1.4239  0.2276 -0.8618
  280SOL     vw 1120   1.591   2.629   4.729  1.2172  0.1746 -0.4845
  281SOL     ow 1121   3.317   5.309   5.034  0.6785 -0.0095  0.5428
  281SOL     hw 1122   3.251   5.367   4.997 -0.0439 -1.5405 -0.7059
  281SOL     hw 1123   3.269   5.251   5.093  1.1314 -0.3035  0.6329
  281SOL     vw 1124   3.302   5.309   5.037  0.6429 -0.2503  0.3901
  282SOL     ow 1125   6.322   6.069   4.333 -0.5244 -0.0804  0.4007
  282SOL     hw 1126   6.385   6.070   4.261 -0.9262  1.8369  0.0280
  282SOL     hw 1127   6.266   5.994   4.314  0.1448 -0.3561 -0.5895
  282SOL     vw 1128   6.323   6.059   4.321 -0.4890  0.1361  0.2208
  283SOL     ow 1129   6.268   2.832   6.583 -0.1203 -0.5769 -0.0498
  283SOL     hw 1130   6.333   2.767   6.610 -0.7472 -1.1288  0.1731
  283SOL     hw 1131   6.303   2.915   6.613 -0.0220 -0.9994  1.0531
  283SOL     vw 1132   6.281   2.834   6.591 -0.1903 -0.7055  0.1249
  284SOL     ow 1133   0.187   2.260   6.184 -0.1151 -0.0919 -0.0861
  284SOL     hw 1134   0.211   2.273   6.276  0.7473 -1.9648  0.0014
  284SOL     hw 1135   0.244   2.189   6.155 -0.7722  0.0919 -1.9267
  284SOL     vw 1136   0.198   2.252   6.192 -0.0880 -0.3148 -0.3176
  285SOL     ow 1137   1.746   2.419   1.846 -0.1494  0.0265  0.2756
  285SOL     hw 1138   1.706   2.435   1.761 -0.5370 -3.5323 -0.3693
  285SOL     hw 1139   1.840   2.419   1.828 -0.0979  1.5569  0.3911
  285SOL     vw 1140   1.753   2.421   1.833 -0.1938 -0.2412  0.2057
  286SOL     ow 1141   2.694   4.802   2.482 -0.3834 -0.3944  0.3606
  286SOL     hw 1142   2.615   4.788   2.534  0.6946 -0.2638  2.1342
  286SOL     hw 1143   2.742   4.720   2.489  0.2258 -0.0428  0.3898
  286SOL     vw 1144   2.690   4.790   2.490 -0.1607 -0.3309  0.5985
  287SOL     ow 1145   3.793   4.506   0.921  0.0792 -0.7410  0.0769
  287SOL     hw 1146   3.803   4.589   0.968 -1.2672 -0.1881 -0.5565
  287SOL     hw 1147   3.824   4.440   0.983 -1.0359  0.0172  1.5077
  287SOL     vw 1148   3.798   4.508   0.936 -0.2456 -0.5679  0.1822
  288SOL     ow 1149   2.838   3.528   5.792  0.3672  0.5141  0.4274
  288SOL     hw 1150   2.773   3.575   5.741  0.3896  0.1830  0.0867
  288SOL     hw 1151   2.915   3.525   5.736  0.0047 -0.9229 -0.0491
  288SOL     vw 1152   2.839   3.534   5.778  0.3223  0.2809  0.3195
  289SOL     ow 1153   5.962   5.818   3.385  0.1126 -0.3494 -0.4220
  289SOL     hw 1154   5.885   5.809   3.330  0.6719 -0.6748 -1.1659
  289SOL     hw 1155   5.938   5.885   3.450 -1.0537 -0.9995 -0.1627
  289SOL     vw 1156   5.949   5.826   3.387  0.0324 -0.4780 -0.4859
  290SOL     ow 1157   3.916   5.707   1.408 -0.5847 -0.5709 -0.0206
  290SOL     hw 1158   4.000   5.730   1.448 -0.5195  0.1562 -0.5402
  290SOL     hw 1159   3.879   5.640   1.465 -0.1852 -0.0600  0.8611
  290SOL     vw 1160   3.923   5.702   1.420 -0.5234 -0.4075  0.0272
  291SOL     ow 1161   3.222   6.425   1.956  0.0299  0.2604 -0.0412
  291SOL     hw 1162   3.277   6.409   1.879  0.1487  0.3713  0.0195
  291SOL     hw 1163   3.132   6.417   1.924  0.0198  2.0990 -0.6312
  291SOL     vw 1164   3.218   6.422   1.942  0.0443  0.5176 -0.1110
  292SOL     ow 1165   4.358   5.222   2.780 -1.0299  0.7309 -0.6811
  292SOL     hw 1166   4.288   5.207   2.845 -1.4520 -0.9766 -1.4876
  292SOL     hw 1167   4.323   5.185   2.699  0.0258  1.6744 -1.5844
  292SOL     vw 1168   4.344   5.215   2.778 -0.9463  0.6301 -0.9067
  293SOL     ow 1169   1.028   5.502   0.000 -0.7621 -0.5675 -0.6935
  293SOL     hw 1170   1.123   5.503   0.011 -0.8960 -0.2355  0.6361
  293SOL     hw 1171   1.013   5.454  -0.081  0.5378 -0.6306 -0.9106
  293SOL     vw 1172   1.039   5.496  -0.009 -0.6083 -0.5319 -0.5468
  294SOL     ow 1173   5.326   4.991   4.353  0.0336  0.2567 -0.4426
  294SOL     hw 1174   5.392   5.017   4.416  0.4407  2.2410 -1.5819
  294SOL     hw 1175   5.282   4.915   4.392  1.1739  0.5749  1.5435
  294SOL     vw 1176   5.329   4.985   4.366  0.2379  0.5603 -0.3307
  295SOL     ow 1177   6.792   3.408   2.448 -0.0809 -0.1161  1.1045
  295SOL     hw 1178   6.769   3.492   2.409  0.8031 -0.1530  0.4585
  295SOL     hw 1179   6.709   3.371   2.477 -1.0743 -0.8252 -2.2455
  295SOL     vw 1180   6.778   3.414   2.446 -0.0951 -0.2146  0.5772
  296SOL     ow 1181   2.458   5.358   6.294  0.0987 -0.7252  0.0771
  296SOL     hw 1182   2.393   5.379   6.227 -0.5912 -1.1225  0.5965
  296SOL     hw 1183   2.486   5.269   6.273  0.6904 -0.4498 -0.3102
  296SOL     vw 1184   2.453   5.349   6.283  0.0858 -0.7410  0.0944
  297SOL     ow 1185   1.393   1.712   1.450  0.5032  0.2849 -0.1466
  297SOL     hw 1186   1.417   1.619   1.442  1.0307  0.3168  0.8748
  297SOL     hw 1187   1.313   1.721   1.398 -0.0609 -0.9410  0.4658
  297SOL     vw 1188   1.386   1.701   1.442  0.4984  0.1274  0.0690
  298SOL     ow 1189   6.381   1.085   5.307 -0.1920 -0.1980 -0.5757
  298SOL     hw 1190   6.320   1.035   5.253  0.1440 -0.5026 -0.6808
  298SOL     hw 1191   6.460   1.094   5.252 -0.0452 -0.0428 -0.3408
  298SOL     vw 1192   6.384   1.080   5.292 -0.1280 -0.2177 -0.5584
  299SOL     ow 1193   2.941   4.259   0.618  0.5754 -0.4556  0.7803
  299SOL     hw 1194   2.997   4.258   0.696 -0.2135 -0.8482  1.3636
  299SOL     hw 1195   2.928   4.352   0.600  2.0549 -0.3428  0.1406
  299SOL     vw 1196   2.947   4.271   0.626  0.6666 -0.4923  0.7729
  300SOL     ow 1197   6.042   3.348   6.491  0.7334 -0.2287 -0.0674
  300SOL     hw 1198   5.971   3.319   6.434  0.8853 -0.1333 -0.3079
  300SOL     hw 1199   6.120   3.341   6.437  1.0128 -1.0181  0.4217
  300SOL     vw 1200   6.043   3.344   6.476  0.7904 -0.3203 -0.0346
  301SOL     ow 1201   5.027   4.717   3.043 -0.1424  0.2705 -0.1724
  301SOL     hw 1202   4.966   4.645   3.028  1.3454 -0.9871 -0.3960
  301SOL     hw 1203   4.972   4.788   3.078 -1.9711 -0.2510 -1.8221
  301SOL     vw 1204   5.012   4.717   3.046 -0.1874  0.0360 -0.4195
  302SOL     ow 1205   3.455   1.342   3.915  0.0210  0.2411  0.1947
  302SOL     hw 1206   3.447   1.392   3.996  0.9816  1.6144 -0.5086
  302SOL     hw 1207   3.548   1.320   3.910  0.0365  0.4532 -0.6611
  302SOL     vw 1208   3.467   1.346   3.925  0.1497  0.4503 -0.0108
  303SOL     ow 1209   3.302   0.251   5.225  0.6093 -0.9081 -0.0347
  303SOL     hw 1210   3.357   0.326   5.246 -0.2619 -0.2959  0.1198
  303SOL     hw 1211   3.277   0.214   5.310  0.6379 -1.0793 -0.0989
  303SOL     vw 1212   3.306   0.256   5.239  0.4981 -0.8499 -0.0229
  304SOL     ow 1213   3.745   3.007   3.974  0.1735 -0.2614 -0.2664
  304SOL     hw 1214   3.774   3.009   4.065 -0.0225 -0.6333 -0.1917
  304SOL     hw 1215   3.811   2.954   3.929 -0.4671 -1.2398 -0.0651
  304SOL     vw 1216   3.758   3.000   3.980  0.0632 -0.4396 -0.2300
  305SOL     ow 1217   0.112   0.267   0.032  0.2145 -0.0863 -0.2615
  305SOL     hw 1218   0.184   0.205   0.019  0.1537  0.1864 -2.0892
  305SOL     hw 1219   0.151   0.353   0.021 -0.2810  0.0850 -0.7127
  305SOL     vw 1220   0.127   0.270   0.029  0.1411 -0.0277 -0.5622
  306SOL     ow 1221   2.121   4.473   4.418  0.0950 -0.2560 -0.1745
  306SOL     hw 1222   2.195   4.516   4.461  0.2069 -0.5864 -0.0380
  306SOL     hw 1223   2.085   4.415   4.484  0.5446 -1.1043 -0.6647
  306SOL     vw 1224   2.126   4.471   4.432  0.1692 -0.4113 -0.2215
  307SOL     ow 1225   5.913   3.085   5.123  0.6312  0.6323  0.6380
  307SOL     hw 1226   5.862   3.132   5.189 -2.8968 -1.8959  0.0217
  307SOL     hw 1227   5.926   2.998   5.161  2.2021  0.3720 -0.3962
  307SOL     vw 1228   5.908   3.079   5.137  0.3731  0.2644  0.4203
  308SOL     ow 1229   3.186   0.618   1.661 -0.4241  0.5083  0.0887
  308SOL     hw 1230   3.143   0.644   1.742 -0.0591  1.2721  0.0495
  308SOL     hw 1231   3.272   0.661   1.665  0.3726 -1.0208  0.1986
  308SOL     vw 1232   3.192   0.627   1.672 -0.2710  0.4073  0.0980
  309SOL     ow 1233   5.158   1.559   2.085 -0.0012  0.1545  1.0897
  309SOL     hw 1234   5.155   1.546   2.180 -0.3158  2.0008  1.3643
  309SOL     hw 1235   5.164   1.654   2.074  0.3960 -0.0515 -0.7408
  309SOL     vw 1236   5.158   1.570   2.096  0.0095  0.3709  0.8843
  310SOL     ow 1237   3.069   0.864   0.526 -0.1692  0.3086 -0.1306
  310SOL     hw 1238   3.044   0.823   0.609 -0.3904  1.1474  0.2201
  310SOL     hw 1239   3.009   0.938   0.516 -0.6295 -0.2050 -1.4049
  310SOL     vw 1240   3.058   0.868   0.536 -0.2589  0.3515 -0.2525
  311SOL     ow 1241   5.687   3.089   4.968 -0.3433  0.3452  0.3839
  311SOL     hw 1242   5.669   3.137   4.887 -0.4530  0.8882  0.7215
  311SOL     hw 1243   5.761   3.135   5.006  0.0182 -0.2095  0.3521
  311SOL     vw 1244   5.694   3.101   4.962 -0.3102  0.3437  0.4244
  312SOL     ow 1245   5.179   1.234   1.985  0.3660 -0.0854  0.5418
  312SOL     hw 1246   5.124   1.179   1.928 -1.7605  2.6403 -0.2935
  312SOL     hw 1247   5.156   1.206   2.074 -1.4432  0.0813  0.1712
  312SOL     vw 1248   5.168   1.223   1.989 -0.1533  0.2963  0.3828
  313SOL     ow 1249   2.182   5.802   3.961 -0.1552 -0.4540  0.1082
  313SOL     hw 1250   2.260   5.828   4.009 -0.6918  0.7142  0.3846
  313SOL     hw 1251   2.185   5.706   3.958  1.0189 -0.4361  0.5416
  313SOL     vw 1252   2.192   5.793   3.967 -0.0710 -0.2975  0.2019
  314SOL     ow 1253   3.698   2.328   1.689  0.5213 -0.5541 -0.0843
  314SOL     hw 1254   3.764   2.267   1.654  3.2770  0.9924  2.0709
  314SOL     hw 1255   3.744   2.411   1.697 -2.4250  1.2802 -0.5911
  314SOL     vw 1256   3.713   2.331   1.685  0.4961 -0.1079  0.1332
  315SOL     ow 1257   4.888   0.477   6.132 -0.2643 -0.6171 -0.1934
  315SOL     hw 1258   4.847   0.507   6.051  0.1999  1.5129  0.3002
  315SOL     hw 1259   4.963   0.535   6.144 -1.6613  0.7847  2.9594
  315SOL     vw 1260   4.892   0.489   6.123 -0.3872 -0.1511  0.2878
  316SOL     ow 1261   2.315   1.062   1.726 -0.5542 -0.1853  0.2625
  316SOL     hw 1262   2.314   1.157   1.740 -0.4007 -0.1021 -0.2527
  316SOL     hw 1263   2.225   1.040   1.704 -0.5820 -0.1472  0.3406
  316SOL     vw 1264   2.303   1.072   1.725 -0.5375 -0.1693  0.2049
  317SOL     ow 1265   0.523   1.911   4.707  0.5841 -0.5177  0.4760
  317SOL     hw 1266   0.602   1.929   4.655  1.2413 -0.3547  1.5044
  317SOL     hw 1267   0.520   1.981   4.772 -0.7273 -0.2117  0.1147
  317SOL     vw 1268   0.533   1.923   4.708  0.4977 -0.4559  0.5639
  318SOL     ow 1269   2.195   4.142   6.428 -0.1125 -0.2741  0.7025
  318SOL     hw 1270   2.243   4.061   6.411  0.3394  0.1621 -0.1377
  318SOL     hw 1271   2.202   4.192   6.347 -2.0384 -0.2074  0.5232
  318SOL     vw 1272   2.202   4.138   6.415 -0.3068 -0.2079  0.5679
  319SOL     ow 1273   2.381   1.324   0.060 -0.4639 -0.3022  0.1416
  319SOL     hw 1274   2.315   1.273   0.013 -0.3266 -0.3541  0.0020
  319SOL     hw 1275   2.461   1.273   0.051 -0.0063  0.5896 -1.1888
  319SOL     vw 1276   2.383   1.311   0.053 -0.3854 -0.1913 -0.0523
  320SOL     ow 1277   3.741   4.657   2.745  0.3833 -0.4728  0.2926
  320SOL     hw 1278   3.800   4.654   2.820  1.0561 -1.5868 -0.2575
  320SOL     hw 1279   3.736   4.567   2.714  0.2091 -0.0218 -1.0778
  320SOL     vw 1280   3.748   4.645   2.751  0.4489 -0.5603  0.0392
  321SOL     ow 1281   0.708   6.598   0.860 -0.0433  0.1137  0.4167
  321SOL     hw 1282   0.714   6.675   0.915  0.1947  2.1859 -2.3187
  321SOL     hw 1283   0.614   6.585   0.847 -0.0843 -0.0993  0.9064
  321SOL     vw 1284   0.696   6.606   0.866 -0.0173  0.3588  0.1204
  322SOL     ow 1285   3.311   3.861   2.904 -0.2200 -0.4582 -0.5961
  322SOL     hw 1286   3.277   3.855   2.994  0.7349 -0.6633 -0.2330
  322SOL     hw 1287   3.378   3.793   2.900 -1.3745 -1.5630 -1.9891
  322SOL     vw 1288   3.315   3.851   2.916 -0.2464 -0.6310 -0.7321
  323SOL     ow 1289   6.507   4.351   1.302 -0.2517  0.1457 -0.0236
  323SOL     hw 1290   6.455   4.295   1.359 -0.8108  0.0547 -0.6093
  323SOL     hw 1291   6.543   4.293   1.236  2.8481 -0.2765  1.8460
  323SOL     vw 1292   6.505   4.336   1.301  0.0834  0.0780  0.1458
  324SOL     ow 1293   1.857   4.025   2.218 -0.1309 -0.1126  0.5656
  324SOL     hw 1294   1.921   4.018   2.289 -1.1579 -0.9324  1.4521
  324SOL     hw 1295   1.846   4.119   2.204  0.2694  0.0608  1.3452
  324SOL     vw 1296   1.864   4.036   2.226 -0.2136 -0.1979  0.7854
  325SOL     ow 1297   1.259   6.168   6.502  0.4668  0.0612  0.4565
  325SOL     hw 1298   1.246   6.080   6.467  1.8266  0.4291 -1.1387
  325SOL     hw 1299   1.354   6.181   6.499  0.3485  1.3300  1.3269
  325SOL     vw 1300   1.270   6.158   6.497  0.6306  0.2773  0.3610
  326SOL     ow 1301   0.756   6.214   6.238 -0.4593 -0.2018  0.2365
  326SOL     hw 1302   0.830   6.255   6.194 -0.9166 -1.4426 -1.8211
  326SOL     hw 1303   0.692   6.284   6.249 -0.6597  0.0052 -1.9004
  326SOL     vw 1304   0.757   6.228   6.233 -0.5460 -0.3381 -0.3169
  327SOL     ow 1305   0.562   1.427   0.323 -0.1852 -0.2776  0.1378
  327SOL     hw 1306   0.487   1.371   0.303 -1.3934  0.9230  1.0747
  327SOL     hw 1307   0.558   1.496   0.257 -1.2925  1.0239  1.4990
  327SOL     vw 1308   0.551   1.429   0.312 -0.4907  0.0525  0.4410
  328SOL     ow 1309   0.188   5.483   5.953  0.0812  0.1203 -0.1242
  328SOL     hw 1310   0.149   5.439   6.029  0.3288  2.2166  1.3212
  328SOL     hw 1311   0.238   5.415   5.908 -1.1742 -1.4902  0.8220
  328SOL     vw 1312   0.190   5.468   5.957 -0.0518  0.1845  0.1915
  329SOL     ow 1313   4.836   0.486   0.223  0.2285 -0.2284  0.0725
  329SOL     hw 1314   4.749   0.457   0.253  0.4066 -0.7013  0.1343
  329SOL     hw 1315   4.898   0.437   0.277  0.5345  0.6555  0.5403
  329SOL     vw 1316   4.832   0.476   0.234  0.2923 -0.1741  0.1424
  330SOL     ow 1317   4.961   1.631   4.080  0.0255 -0.2758  0.6550
  330SOL     hw 1318   5.053   1.647   4.103  0.0175  1.9783 -0.6509
  330SOL     hw 1319   4.959   1.538   4.056  2.2447 -0.1025 -0.4570
  330SOL     vw 1320   4.973   1.621   4.080  0.3171  0.0445  0.3359
  331SOL     ow 1321   5.799   5.390   2.985  0.6150  0.2174  0.0003
  331SOL     hw 1322   5.793   5.458   2.919 -1.1200  1.2890  1.1623
  331SOL     hw 1323   5.892   5.386   3.007  0.7465  2.4838  0.1327
  331SOL     vw 1324   5.810   5.398   2.980  0.4034  0.6578  0.1711
  332SOL     ow 1325   6.529   4.032   4.662  0.2895  0.0414 -0.0291
  332SOL     hw 1326   6.553   4.121   4.688 -2.7018  1.4155 -1.5251
  332SOL     hw 1327   6.557   4.025   4.571 -2.7011  0.9137 -1.1182
  332SOL     vw 1328   6.536   4.043   4.653 -0.4995  0.3381 -0.3700
  333SOL     ow 1329   1.795   1.390   5.113  0.5557  0.8064  0.2020
  333SOL     hw 1330   1.853   1.395   5.037 -0.9537  1.4190 -0.9444
  333SOL     hw 1331   1.818   1.467   5.165  1.8138  0.2161  0.5783
  333SOL     vw 1332   1.806   1.401   5.110  0.5225  0.8093  0.1004
  334SOL     ow 1333   4.709   5.485   0.495  0.0908  0.2173  0.1144
  334SOL     hw 1334   4.633   5.543   0.492  1.0072  1.6973  2.4251
  334SOL     hw 1335   4.701   5.430   0.417 -2.5171  1.3237 -0.4963
  334SOL     vw 1336   4.698   5.485   0.484 -0.1321  0.5586  0.3387
  335SOL     ow 1337   1.164   0.357   1.756 -0.4342 -0.3969  0.2961
  335SOL     hw 1338   1.180   0.406   1.837  1.6805 -1.3293  0.5232
  335SOL     hw 1339   1.094   0.297   1.778 -0.0773 -0.4427  1.3678
  335SOL     vw 1340   1.157   0.356   1.770 -0.1081 -0.5260  0.4674
  336SOL     ow 1341   2.734   2.770   2.603  0.3729  0.1085 -0.0277
  336SOL     hw 1342   2.757   2.734   2.689  0.4653 -2.2758 -0.9792
  336SOL     hw 1343   2.813   2.817   2.575  0.3763  0.8253  1.1354
  336SOL     vw 1344   2.748   2.771   2.611  0.3856 -0.1116  0.0002
  337SOL     ow 1345   6.462   2.614   2.285 -0.6064  0.4583  0.2169
  337SOL     hw 1346   6.492   2.561   2.359  0.7286 -0.7293 -1.1234
  337SOL     hw 1347   6.541   2.660   2.256  0.0713 -2.4268 -3.1488
  337SOL     vw 1348   6.477   2.613   2.291 -0.3407 -0.0789 -0.4040
  338SOL     ow 1349   6.192   1.671   4.405 -0.1768  0.5958 -0.5716
  338SOL     hw 1350   6.124   1.655   4.471  1.4911 -4.7996  0.3347
  338SOL     hw 1351   6.269   1.695   4.456 -0.0146  1.0160 -1.0132
  338SOL     vw 1352   6.193   1.672   4.421  0.0648 -0.0607 -0.5100
  339SOL     ow 1353   6.775   6.773   6.783 -0.0711  0.1031 -0.1621
  339SOL     hw 1354   6.811   6.706   6.725 -2.6721 -0.9227 -0.6899
  339SOL     hw 1355   6.773   6.731   6.869  1.8456  0.9034  0.3207
  339SOL     vw 1356   6.780   6.759   6.787 -0.1614  0.0734 -0.1681
  340SOL     ow 1357   1.955   0.736   4.839 -0.5474 -0.1958 -0.4149
  340SOL     hw 1358   1.889   0.673   4.809 -1.2116  0.3522 -0.1194
  340SOL     hw 1359   1.986   0.778   4.758 -0.9382 -0.0819 -0.5065
  340SOL     vw 1360   1.950   0.733   4.824 -0.6866 -0.1084 -0.3879
  341SOL     ow 1361   5.852   3.797   1.294  0.6909 -0.3230 -0.5328
  341SOL     hw 1362   5.912   3.725   1.312  1.4060  0.6383  1.1189
  341SOL     hw 1363   5.765   3.759   1.307  1.0583 -0.8552  0.4649
  341SOL     vw 1364   5.848   3.782   1.298  0.8337 -0.2664 -0.1833
  342SOL     ow 1365   5.852   0.510   3.326 -0.1771  0.1817 -0.8200
  342SOL     hw 1366   5.831   0.555   3.244 -0.4302  0.9611 -0.3480
  342SOL     hw 1367   5.782   0.538   3.386 -0.1777 -0.6386 -0.4344
  342SOL     vw 1368   5.840   0.520   3.324 -0.2105  0.1763 -0.7068
  343SOL     ow 1369   2.339   4.118   0.652 -0.2456 -0.4186 -0.6327
  343SOL     hw 1370   2.377   4.150   0.570  1.1923 -1.7382 -0.5297
  343SOL     hw 1371   2.372   4.029   0.660 -0.7765 -0.4885  1.1478
  343SOL     vw 1372   2.348   4.110   0.642 -0.1259 -0.6020 -0.3842
  344SOL     ow 1373   0.353   3.076   1.911  0.2512  0.5200  0.4403
  344SOL     hw 1374   0.324   2.989   1.937  0.8095  0.6429  1.5217
  344SOL     hw 1375   0.405   3.108   1.985  1.0461  1.2943 -0.4196
  344SOL     vw 1376   0.356   3.069   1.924  0.4297  0.6384  0.4695
  345SOL     ow 1377   1.300   1.048   4.956  0.4552 -0.3875 -0.1236
  345SOL     hw 1378   1.354   1.013   5.027  0.3751  0.6987  0.4865
  345SOL     hw 1379   1.330   1.001   4.878  3.0675  0.8930 -0.0175
  345SOL     vw 1380   1.311   1.037   4.955  0.7893 -0.0752 -0.0288
  346SOL     ow 1381   4.696   5.913   2.361  0.0507  0.3879  0.2394
  346SOL     hw 1382   4.670   5.896   2.452 -1.8619  0.4162 -0.2619
  346SOL     hw 1383   4.790   5.893   2.359 -0.1371 -0.8929  1.9165
  346SOL     vw 1384   4.705   5.908   2.373 -0.2263  0.2224  0.3945
  347SOL     ow 1385   1.456   1.770   2.834 -0.2877  0.5866 -0.1417
  347SOL     hw 1386   1.510   1.755   2.912 -0.5807  1.4856  0.2461
  347SOL     hw 1387   1.394   1.697   2.834  0.7409 -0.3242 -0.4555
  347SOL     vw 1388   1.455   1.758   2.845 -0.1907  0.5850 -0.1318
  348SOL     ow 1389   3.724   3.287   5.775  0.5447 -0.0101 -1.0125
  348SOL     hw 1390   3.717   3.253   5.686 -0.2143  0.4623 -1.1437
  348SOL     hw 1391   3.634   3.309   5.800  0.8730  0.8342 -0.5204
  348SOL     vw 1392   3.712   3.286   5.767  0.4879  0.1638 -0.9649
  349SOL     ow 1393   0.736   1.966   2.479 -0.2214  0.1669 -0.3232
  349SOL     hw 1394   0.822   2.007   2.476  0.4164 -1.1621 -0.6670
  349SOL     hw 1395   0.715   1.947   2.388 -0.6463  0.0147 -0.1966
  349SOL     vw 1396   0.744   1.969   2.467 -0.1933 -0.0285 -0.3519
  350SOL     ow 1397   4.316   1.034   6.391  0.4983  0.5929  0.3237
  350SOL     hw 1398   4.254   1.095   6.350  0.9134  1.9580  1.6473
  350SOL     hw 1399   4.317   0.959   6.332 -0.5756  1.5520 -0.9999
  350SOL     vw 1400   4.308   1.032   6.378  0.4115  0.8996  0.3233
  351SOL     ow 1401   3.987   6.626   4.207 -0.2281 -0.0977  0.2786
  351SOL     hw 1402   3.985   6.591   4.296 -0.1185 -3.5346 -0.9339
  351SOL     hw 1403   3.895   6.636   4.183 -0.2896  2.5522  1.2620
  351SOL     vw 1404   3.975   6.623   4.216 -0.2216 -0.2015  0.2482
  352SOL     ow 1405   3.739   0.911   4.420 -0.4385  0.0728 -0.2509
  352SOL     hw 1406   3.679   0.966   4.471  0.5605 -0.6492  1.7843
  352SOL     hw 1407   3.779   0.972   4.358  0.4062  1.6433  1.7267
  352SOL     vw 1408   3.736   0.927   4.419 -0.1953  0.1848  0.2785
  353SOL     ow 1409   3.652   6.554   0.923 -0.0482  0.2899  0.2400
  353SOL     hw 1410   3.661   6.480   0.862 -0.1259  1.8867 -1.8116
  353SOL     hw 1411   3.741   6.576   0.948 -0.0390 -0.6641  1.1577
  353SOL     vw 1412   3.665   6.547   0.918 -0.0572  0.3748  0.0903
  354SOL     ow 1413   4.611   2.041   6.311  0.0643  0.1758  0.0842
  354SOL     hw 1414   4.649   2.129   6.313 -2.1319  1.1635  1.5043
  354SOL     hw 1415   4.539   2.048   6.248 -0.0453 -0.6717  0.1051
  354SOL     vw 1416   4.607   2.054   6.303 -0.2398  0.1944  0.2742
  355SOL     ow 1417   4.588   6.133   6.665  0.3221 -0.3564  0.7927
  355SOL     hw 1418   4.576   6.184   6.746 -1.8216 -0.4401  0.5890
  355SOL     hw 1419   4.586   6.199   6.596  0.7773 -0.4148  0.7255
  355SOL     vw 1420   4.586   6.149   6.667  0.0992 -0.3750  0.7570
  356SOL     ow 1421   2.134   0.051   2.389  0.6627 -0.3253 -0.3656
  356SOL     hw 1422   2.079   0.115   2.434  1.8519  0.1743  0.4028
  356SOL     hw 1423   2.083  -0.030   2.391 -1.2942  0.7280 -2.1537
  356SOL     vw 1424   2.120   0.048   2.395  0.5614 -0.1204 -0.5001
  357SOL     ow 1425   5.145   3.435   1.435 -0.4174 -0.2506 -0.1956
  357SOL     hw 1426   5.156   3.414   1.528 -1.5543 -0.7285 -0.1419
  357SOL     hw 1427   5.228   3.472   1.408  0.1439 -0.7021  0.8597
  357SOL     vw 1428   5.157   3.437   1.444 -0.4933 -0.3734 -0.0493
  358SOL     ow 1429   3.358   2.456   5.633  0.3728 -0.2792  0.1746
  358SOL     hw 1430   3.280   2.452   5.689  1.0548  0.2277  1.1883
  358SOL     hw 1431   3.421   2.398   5.675  0.9513  0.2293  0.0286
  358SOL     vw 1432   3.356   2.448   5.646  0.5391 -0.1452  0.2892
  359SOL     ow 1433   3.374   0.852   0.450 -0.0731  0.6132  0.5425
  359SOL     hw 1434   3.413   0.824   0.533  0.7048 -0.1580 -0.0574
  359SOL     hw 1435   3.422   0.931   0.426  1.9246 -0.9054 -0.7100
  359SOL     vw 1436   3.385   0.859   0.458  0.2931  0.3111  0.2981
  360SOL     ow 1437   6.504   6.535   3.655  0.5156 -0.0154  0.1381
  360SOL     hw 1438   6.581   6.479   3.660  0.2809 -0.6605 -2.2912
  360SOL     hw 1439   6.448   6.494   3.589 -0.9977  1.5234  0.3744
  360SOL     vw 1440   6.506   6.523   3.647  0.2849  0.1023 -0.1513
  361SOL     ow 1441   1.451   0.724   6.368  0.1667 -0.3939  0.0040
  361SOL     hw 1442   1.450   0.814   6.400  1.3208  0.1496 -1.3526
  361SOL     hw 1443   1.542   0.696   6.380  0.6721 -0.1384 -2.6819
  361SOL     vw 1444   1.463   0.732   6.374  0.3856 -0.2884 -0.5295
  362SOL     ow 1445   0.815   1.248   2.062 -0.2073 -0.7416  0.4018
  362SOL     hw 1446   0.816   1.155   2.084  0.0377 -1.1726 -1.3028
  362SOL     hw 1447   0.906   1.268   2.040 -0.3985 -0.3000 -0.0040
  362SOL     vw 1448   0.827   1.238   2.062 -0.2002 -0.7402  0.1234
  363SOL     ow 1449   5.710   5.719   2.254 -0.4244 -0.6275 -0.1573
  363SOL     hw 1450   5.694   5.718   2.348  1.9307  0.6408  0.3457
  363SOL     hw 1451   5.749   5.633   2.235  0.2341 -0.4338  0.2871
  363SOL     vw 1452   5.713   5.708   2.264 -0.0265 -0.4346 -0.0322
  364SOL     ow 1453   5.127   6.266   1.184 -0.1453 -0.1926 -0.1050
  364SOL     hw 1454   5.079   6.251   1.103  0.3514  1.4836 -0.7532
  364SOL     hw 1455   5.196   6.329   1.160  0.8544 -0.6833  1.3197
  364SOL     vw 1456   5.130   6.272   1.171  0.0522 -0.0362 -0.0026
  365SOL     ow 1457   0.340   4.699   0.478  0.0335 -0.2064  0.4531
  365SOL     hw 1458   0.263   4.667   0.432 -0.2825  1.6311 -0.3793
  365SOL     hw 1459   0.383   4.758   0.416  1.9448 -0.9142  1.0124
  365SOL     vw 1460   0.336   4.702   0.464  0.2439 -0.0575  0.4170
  366SOL     ow 1461   2.148   3.220   3.626 -0.1297  0.0498  0.7049
  366SOL     hw 1462   2.222   3.269   3.589  0.2442 -0.6389  0.5210
  366SOL     hw 1463   2.178   3.129   3.626 -2.1135 -0.7232 -2.2108
  366SOL     vw 1464   2.162   3.215   3.621 -0.3420 -0.1429  0.2959
  367SOL     ow 1465   6.017   4.106   3.701  0.6061 -0.2268  0.2033
  367SOL     hw 1466   5.934   4.058   3.706  0.6965 -0.3095  1.1373
  367SOL     hw 1467   6.019   4.143   3.613 -1.8284  2.3228  1.0814
  367SOL     vw 1468   6.006   4.104   3.690  0.2968  0.0987  0.4423
  368SOL     ow 1469   4.825   5.257   0.680  0.1639  0.5043 -0.1231
  368SOL     hw 1470   4.852   5.196   0.611  0.1398 -0.3018  0.5587
  368SOL     hw 1471   4.843   5.210   0.761 -3.4014 -0.2036  0.4268
  368SOL     vw 1472   4.831   5.242   0.681 -0.3099  0.3045  0.0394
  369SOL     ow 1473   0.893   0.532   3.667  0.2076 -0.0269  0.5689
  369SOL     hw 1474   0.806   0.530   3.705  0.3282 -0.1133  0.8395
  369SOL     hw 1475   0.916   0.440   3.656 -1.1025 -0.1166 -2.6451
  369SOL     vw 1476   0.885   0.520   3.670  0.0507 -0.0501  0.1806
  370SOL     ow 1477   3.490   0.534   5.761  0.1551 -0.1819 -0.3591
  370SOL     hw 1478   3.466   0.472   5.692  3.2398 -1.6968 -0.2393
  370SOL     hw 1479   3.415   0.594   5.766 -1.1523 -1.3283 -3.4401
  370SOL     vw 1480   3.477   0.533   5.753  0.3897 -0.5330 -0.7496
  371SOL     ow 1481   6.553   0.866   3.946 -0.5879 -0.2266 -0.4773
  371SOL     hw 1482   6.534   0.805   3.875 -1.3864  1.0955 -1.4480
  371SOL     hw 1483   6.637   0.905   3.922 -1.1888  0.7265 -1.0885
  371SOL     vw 1484   6.561   0.863   3.933 -0.7727  0.0736 -0.6860
  372SOL     ow 1485   5.706   5.798   5.267 -0.3404  0.0787  0.3937
  372SOL     hw 1486   5.663   5.768   5.187 -0.8714 -0.5886  0.9205
  372SOL     hw 1487   5.640   5.786   5.336  0.1423  0.5505  0.9536
  372SOL     vw 1488   5.692   5.793   5.266 -0.3469  0.0532  0.5369
  373SOL     ow 1489   3.267   5.944   4.573 -0.6282 -0.1982 -0.2336
  373SOL     hw 1490   3.213   5.936   4.651  0.0235 -0.3739  0.1988
  373SOL     hw 1491   3.266   5.857   4.534 -1.0282 -0.0882 -0.4776
  373SOL     vw 1492   3.260   5.932   4.578 -0.5950 -0.2069 -0.2089
  374SOL     ow 1493   5.272   2.642   5.453  0.5311  0.0791  0.3675
  374SOL     hw 1494   5.361   2.611   5.438 -0.5043 -2.6986 -0.7749
  374SOL     hw 1495   5.276   2.688   5.536  2.4629 -2.7976  2.0503
  374SOL     vw 1496   5.284   2.644   5.462  0.6495 -0.6670  0.4389
  375SOL     ow 1497   0.333   1.288   0.227 -0.8224  0.2217  0.2638
  375SOL     hw 1498   0.255   1.320   0.273 -2.7954  0.5933 -2.9948
  375SOL     hw 1499   0.329   1.331   0.142  1.3369 -2.0276 -1.0820
  375SOL     vw 1500   0.322   1.297   0.222 -0.7978 -0.0260 -0.3437
  376SOL     ow 1501   3.794   0.176   0.557  0.1842 -0.0144  0.0127
  376SOL     hw 1502   3.718   0.143   0.606  0.3487 -1.5927 -0.7525
  376SOL     hw 1503   3.803   0.116   0.483  0.6769  1.6087 -1.3113
  376SOL     vw 1504   3.785   0.164   0.554  0.2708 -0.0085 -0.2630
  377SOL     ow 1505   3.952   2.982   5.333  0.2951 -0.6928 -0.1258
  377SOL     hw 1506   3.930   3.065   5.290 -0.1978  0.2071  1.7336
  377SOL     hw 1507   3.915   2.915   5.277 -0.4094  0.4155 -1.0331
  377SOL     vw 1508   3.944   2.984   5.320  0.1370 -0.4278 -0.0002
  378SOL     ow 1509   4.359   1.094   1.074 -0.0969 -0.4226  0.2098
  378SOL     hw 1510   4.445   1.093   1.032  0.3984 -0.7975  1.1979
  378SOL     hw 1511   4.341   1.002   1.094 -1.2205 -0.4697 -0.9508
  378SOL     vw 1512   4.368   1.082   1.071 -0.1800 -0.4783  0.1870
  379SOL     ow 1513   6.675   4.441   6.530 -0.0882  0.0616 -0.1987
  379SOL     hw 1514   6.656   4.392   6.449 -2.3961 -2.3970  1.6407
  379SOL     hw 1515   6.589   4.469   6.561  0.8655  1.9541  0.8714
  379SOL     vw 1516   6.661   4.438   6.523 -0.2670 -0.0129  0.1853
  380SOL     ow 1517   6.151   3.607   6.456  0.0650 -0.2355 -0.2128
  380SOL     hw 1518   6.092   3.667   6.410  1.5394 -0.3498 -2.4130
  380SOL     hw 1519   6.204   3.663   6.512 -0.6331  0.1233  0.1025
  380SOL     vw 1520   6.150   3.622   6.457  0.1674 -0.2033 -0.4618
  381SOL     ow 1521   0.999   4.700   4.123  0.3147  0.3626  0.1546
  381SOL     hw 1522   0.985   4.795   4.127 -0.1079  0.2605  1.4044
  381SOL     hw 1523   0.920   4.662   4.161  0.2362 -0.5251 -0.8441
  381SOL     vw 1524   0.987   4.707   4.128  0.2486  0.2322  0.1881
  382SOL     ow 1525   2.940   2.450   6.581 -0.4124 -0.1172  0.1122
  382SOL     hw 1526   2.987   2.464   6.663 -0.6885 -3.5336  0.9876
  382SOL     hw 1527   2.995   2.391   6.530 -1.5323 -0.3155 -0.9314
  382SOL     vw 1528   2.953   2.444   6.585 -0.5964 -0.5941  0.0899
  383SOL     ow 1529   5.488   3.986   3.065 -0.5139 -0.0421 -0.0746
  383SOL     hw 1530   5.520   4.058   3.009  1.0740 -0.6273  0.0318
  383SOL     hw 1531   5.548   3.986   3.140 -0.9167 -1.0546  0.2535
  383SOL     vw 1532   5.501   3.996   3.067 -0.3574 -0.2528 -0.0173
  384SOL     ow 1533   4.215   2.907   1.366 -0.1173 -0.3825 -0.5633
  384SOL     hw 1534   4.191   2.831   1.419 -1.8119 -1.6967 -3.0177
  384SOL     hw 1535   4.140   2.966   1.373  1.1383  1.1199  1.2340
  384SOL     vw 1536   4.202   2.905   1.374 -0.1750 -0.3577 -0.6500
  385SOL     ow 1537   1.860   2.991   5.657  0.1158 -0.1296 -0.1942
  385SOL     hw 1538   1.825   3.054   5.720 -0.5209 -0.4627 -0.2102
  385SOL     hw 1539   1.944   2.965   5.694  1.1354  1.8716 -0.9415
  385SOL     vw 1540   1.867   2.996   5.670  0.1664  0.0905 -0.2952
  386SOL     ow 1541   2.303   0.090   3.154  0.5202 -1.1473  0.1616
  386SOL     hw 1542   2.345   0.169   3.120 -2.0519  0.3366  0.1578
  386SOL     hw 1543   2.210   0.105   3.140 -0.1207 -3.8748  0.9097
  386SOL     vw 1544   2.296   0.102   3.147  0.0964 -1.3114  0.2598
  387SOL     ow 1545   4.499   5.075   4.936 -0.3828 -0.0406  0.4930
  387SOL     hw 1546   4.558   5.000   4.925 -0.0084  0.4003 -0.5728
  387SOL     hw 1547   4.525   5.113   5.020 -0.7973 -1.2765  1.2169
  387SOL     vw 1548   4.510   5.070   4.946 -0.3881 -0.1454  0.4480
  388SOL     ow 1549   0.528   2.978   6.005  0.4030 -0.2757  0.6169
  388SOL     hw 1550   0.589   2.914   6.042 -0.3283 -1.0708  0.4600
  388SOL     hw 1551   0.585   3.047   5.971  1.3670 -2.0321 -1.5585
  388SOL     vw 1552   0.544   2.979   6.006  0.4337 -0.6124  0.3090
  389SOL     ow 1553   3.485   2.555   2.560 -0.2510  0.5094  0.8290
  389SOL     hw 1554   3.411   2.563   2.500  0.0933 -0.5349  0.2280
  389SOL     hw 1555   3.458   2.487   2.622  0.5036 -0.5138  0.0854
  389SOL     vw 1556   3.471   2.547   2.560 -0.1060  0.2367  0.6516
  390SOL     ow 1557   5.594   3.363   3.093  0.2027  0.1524  0.0800
  390SOL     hw 1558   5.508   3.380   3.055  0.9267  2.1586 -0.8033
  390SOL     hw 1559   5.656   3.389   3.025  1.5185 -0.9644  0.8125
  390SOL     vw 1560   5.591   3.369   3.079  0.4718  0.2697  0.0601
  391SOL     ow 1561   5.455   3.901   0.740  0.2219  0.1665 -0.0539
  391SOL     hw 1562   5.409   3.984   0.723 -0.3700  0.5060  2.6778
  391SOL     hw 1563   5.548   3.924   0.735  0.0668  0.7921 -0.1631
  391SOL     vw 1564   5.462   3.915   0.737  0.1235  0.2939  0.2921
  392SOL     ow 1565   0.349   2.025   0.574 -0.0184  0.2755  0.1743
  392SOL     hw 1566   0.309   2.027   0.487  1.1451  0.6476 -0.3745
  392SOL     hw 1567   0.443   2.023   0.557  0.2182 -1.6589  1.4089
  392SOL     vw 1568   0.356   2.025   0.560  0.1663  0.0694  0.2648
  393SOL     ow 1569   1.118   1.269   4.788 -0.7023  0.7226 -0.6792
  393SOL     hw 1570   1.177   1.329   4.742 -0.2429  1.1237  0.3932
  393SOL     hw 1571   1.066   1.229   4.719  1.0983  0.0375 -1.7048
  393SOL     vw 1572   1.119   1.272   4.773 -0.4041  0.6852 -0.6731
  394SOL     ow 1573   5.417   4.373   4.214 -0.1127 -0.4881  0.2971
  394SOL     hw 1574   5.470   4.443   4.251 -0.4676  0.3422 -0.7160
  394SOL     hw 1575   5.475   4.296   4.216  0.2828 -0.1797  1.4077
  394SOL     vw 1576   5.432   4.372   4.219 -0.1073 -0.3378  0.3102
  395SOL     ow 1577   2.239   2.922   5.032 -0.2742 -0.3658 -0.1516
  395SOL     hw 1578   2.205   3.012   5.031  0.0056 -0.2496  0.4548
  395SOL     hw 1579   2.161   2.867   5.031 -0.4426 -0.1329 -1.2214
  395SOL     vw 1580   2.224   2.927   5.032 -0.2594 -0.3197 -0.2127
  396SOL     ow 1581   6.214   3.037   1.226 -0.2745  0.0253  0.0373
  396SOL     hw 1582   6.142   3.099   1.231  0.0816  0.3751  1.1497
  396SOL     hw 1583   6.292   3.092   1.215 -0.1507 -0.3392 -1.0263
  396SOL     vw 1584   6.215   3.052   1.225 -0.2112  0.0235  0.0437
  397SOL     ow 1585   4.452   4.629   0.578  0.3670 -0.0276 -0.3827
  397SOL     hw 1586   4.476   4.714   0.615 -0.8646  0.1165  0.1152
  397SOL     hw 1587   4.441   4.572   0.654 -0.1780 -0.2748 -0.6443
  397SOL     vw 1588   4.454   4.633   0.593  0.1323 -0.0410 -0.3515
  398SOL     ow 1589   5.419   4.721   3.568  0.3240  0.0872 -0.1242
  398SOL     hw 1590   5.335   4.707   3.523 -0.0820 -1.1273  0.9602
  398SOL     hw 1591   5.420   4.815   3.586 -1.0434  0.0587  0.2668
  398SOL     vw 1592   5.408   4.731   3.564  0.0899 -0.0768  0.0705
  399SOL     ow 1593   4.436   4.452   3.708  0.2681  0.1749 -1.0310
  399SOL     hw 1594   4.376   4.400   3.761  0.0532  0.9722 -0.4728
  399SOL     hw 1595   4.524   4.429   3.740  0.1526  0.4410 -0.5143
  399SOL     vw 1596   4.440   4.442   3.719  0.2246  0.3154 -0.8892
  400SOL     ow 1597   2.878   1.038   0.479 -0.1689 -0.5211  0.1749
  400SOL     hw 1598   2.924   1.118   0.451 -0.4542 -0.0182  1.1055
  400SOL     hw 1599   2.814   1.023   0.409 -1.1707  0.9648  0.7174
  400SOL     vw 1600   2.876   1.047   0.466 -0.3388 -0.2587  0.3692
  401SOL     ow 1601   5.823   0.436   2.497 -0.3678 -0.1915  0.0133
  401SOL     hw 1602   5.755   0.477   2.444  0.7510 -0.3527 -1.6138
  401SOL     hw 1603   5.870   0.510   2.536 -0.8969 -0.0571  0.4021
  401SOL     vw 1604   5.821   0.451   2.495 -0.2899 -0.1951 -0.1501
  402SOL     ow 1605   1.291   1.853   4.504 -0.1608  0.0630  0.6927
  402SOL     hw 1606   1.327   1.891   4.425 -0.0234 -0.7147  0.3675
  402SOL     hw 1607   1.367   1.829   4.557 -0.1654 -1.5683  0.0110
  402SOL     vw 1608   1.306   1.855   4.501 -0.1433 -0.2549  0.5598
  403SOL     ow 1609   1.161   5.544   2.430  0.3057 -0.6577  0.9136
  403SOL     hw 1610   1.198   5.565   2.516  0.9223  0.4989  0.3968
  403SOL     hw 1611   1.224   5.484   2.391  0.6236 -0.2635  0.8164
  403SOL     vw 1612   1.174   5.539   2.436  0.4290 -0.4530  0.8327
  404SOL     ow 1613   5.581   0.203   5.136  0.2136 -0.1878  0.3308
  404SOL     hw 1614   5.613   0.242   5.217 -0.1313 -0.2041  0.4747
  404SOL     hw 1615   5.655   0.208   5.076  0.5953 -0.5400  0.7694
  404SOL     vw 1616   5.595   0.209   5.138  0.2184 -0.2364  0.4077
  405SOL     ow 1617   5.064   2.738   6.103  0.1315  0.8747  0.3086
  405SOL     hw 1618   5.016   2.660   6.074  0.1967  0.6619  0.7537
  405SOL     hw 1619   5.098   2.777   6.022 -0.8436  1.0698 -0.0149
  405SOL     vw 1620   5.063   2.733   6.088  0.0114  0.8724  0.3245
  406SOL     ow 1621   4.377   3.159   2.603 -0.2600  0.3659  0.2773
  406SOL     hw 1622   4.337   3.166   2.690 -0.3388 -0.2216  0.2970
  406SOL     hw 1623   4.307   3.125   2.547  0.3243 -1.1894  0.4288
  406SOL     vw 1624   4.362   3.155   2.607 -0.1934  0.0831  0.2999
  407SOL     ow 1625   5.745   1.832   2.686  0.3015 -0.3755 -0.6114
  407SOL     hw 1626   5.840   1.821   2.675  0.3307 -0.9519  0.1593
  407SOL     hw 1627   5.717   1.754   2.733 -0.4747  0.0518 -0.3429
  407SOL     vw 1628   5.754   1.820   2.690  0.2031 -0.3951 -0.4745
  408SOL     ow 1629   1.632   4.083   5.027  0.9169 -0.2243  0.1467
  408SOL     hw 1630   1.619   3.988   5.021 -0.3810 -0.1451  1.2165
  408SOL     hw 1631   1.675   4.106   4.945  0.3406 -1.5976 -0.5785
  408SOL     vw 1632   1.636   4.073   5.015  0.6697 -0.3951  0.1922
  409SOL     ow 1633   4.307   5.943   4.309  0.6594 -0.0638 -0.5760
  409SOL     hw 1634   4.273   6.012   4.252  1.7034 -0.0036 -1.1542
  409SOL     hw 1635   4.398   5.969   4.327  0.6677 -0.6204  0.2718
  409SOL     vw 1636   4.315   5.956   4.304  0.7982 -0.1290 -0.5403
  410SOL     ow 1637   2.852   4.175   3.697 -0.2655 -0.3110  0.1442
  410SOL     hw 1638   2.896   4.260   3.695 -0.1948 -0.3614 -0.8367
  410SOL     hw 1639   2.797   4.178   3.775 -0.4206  0.7104  0.0043
  410SOL     vw 1640   2.851   4.187   3.707 -0.2767 -0.1831 -0.0035
  411SOL     ow 1641   1.203   0.351   4.132 -0.1700 -0.1406  0.2319
  411SOL     hw 1642   1.107   0.355   4.134 -0.1480  0.5912  0.0960
  411SOL     hw 1643   1.230   0.402   4.209  0.1375  1.5348 -0.9405
  411SOL     vw 1644   1.194   0.358   4.143 -0.1265  0.1770  0.0596
  412SOL     ow 1645   3.348   6.248   0.236 -0.1183  0.3419  0.6887
  412SOL     hw 1646   3.406   6.324   0.229  0.8558 -0.3881  0.6156
  412SOL     hw 1647   3.339   6.215   0.147 -0.5307  0.3609  0.7193
  412SOL     vw 1648   3.354   6.254   0.224 -0.0442  0.2484  0.6831
  413SOL     ow 1649   0.250   1.734   4.820  0.7895 -0.0200 -0.0009
  413SOL     hw 1650   0.191   1.732   4.745  1.4927 -1.3121 -0.5546
  413SOL     hw 1651   0.194   1.714   4.895  0.0720  1.3466 -0.1361
  413SOL     vw 1652   0.235   1.731   4.820  0.7876 -0.0102 -0.0918
  414SOL     ow 1653   6.496   2.950   2.916  0.0600 -0.0054  0.0388
  414SOL     hw 1654   6.585   2.984   2.927  0.1289 -0.5992  1.4784
  414SOL     hw 1655   6.448   2.983   2.992 -0.1814 -2.0698  0.8245
  414SOL     vw 1656   6.502   2.959   2.927  0.0374 -0.3560  0.3326
  415SOL     ow 1657   5.332   5.754   5.923  0.6720 -0.2264  0.1015
  415SOL     hw 1658   5.365   5.766   5.834 -0.7249 -1.4596 -0.6389
  415SOL     hw 1659   5.305   5.662   5.926  0.7116 -0.2157  1.8131
  415SOL     vw 1660   5.333   5.743   5.911  0.4930 -0.3877  0.2294
  416SOL     ow 1661   2.715   3.944   5.298  0.5566 -0.6670 -0.7343
  416SOL     hw 1662   2.700   3.898   5.216  1.2427 -0.0083 -1.2422
  416SOL     hw 1663   2.811   3.947   5.306  0.5236  0.5363 -0.6466
  416SOL     vw 1664   2.726   3.938   5.288  0.6428 -0.4214 -0.7896
  417SOL     ow 1665   2.032   0.138   6.773  0.4030  0.3087 -0.6732
  417SOL     hw 1666   2.105   0.090   6.734  1.1236  1.4959 -0.8552
  417SOL     hw 1667   2.024   0.217   6.720 -1.3380 -0.0021 -0.9328
  417SOL     vw 1668   2.041   0.142   6.761  0.2682  0.4243 -0.7315
  418SOL     ow 1669   0.448   0.111   3.086 -0.0144  0.7222  0.9057
  418SOL     hw 1670   0.472   0.136   3.175  1.3149  0.6294  0.5903
  418SOL     hw 1671   0.478   0.184   3.031  0.7373  0.0209  0.3592
  418SOL     vw 1672   0.455   0.124   3.090  0.2602  0.6175  0.7920
  419SOL     ow 1673   6.159   5.332   0.994  0.0302 -0.3249 -0.6657
  419SOL     hw 1674   6.063   5.335   0.985  0.0353  0.1679 -0.6139
  419SOL     hw 1675   6.174   5.288   1.077 -0.1321 -1.0727 -1.0290
  419SOL     vw 1676   6.148   5.327   1.003  0.0095 -0.3588 -0.7067
  420SOL     ow 1677   5.094   3.371   5.166  0.7348 -0.1197  0.4917
  420SOL     hw 1678   5.185   3.398   5.155  1.0135 -1.9786 -3.1977
  420SOL     hw 1679   5.043   3.441   5.127  0.8798 -0.7567 -0.8871
  420SOL     vw 1680   5.100   3.384   5.160  0.7908 -0.4491 -0.1769
  421SOL     ow 1681   5.164   5.191   1.310 -0.0817  0.0884 -0.2327
  421SOL     hw 1682   5.158   5.274   1.263 -0.8368  0.2931  0.2028
  421SOL     hw 1683   5.110   5.204   1.389  0.1374 -0.6667  0.0527
  421SOL     vw 1684   5.156   5.204   1.314 -0.1523  0.0162 -0.1376
  422SOL     ow 1685   1.051   2.610   0.720  0.0367  0.1389 -0.0538
  422SOL     hw 1686   1.129   2.584   0.769  0.9830  0.6184 -1.2516
  422SOL     hw 1687   1.009   2.676   0.776 -0.2494 -1.0483  1.1955
  422SOL     vw 1688   1.056   2.615   0.734  0.1237  0.0454 -0.0470
  423SOL     ow 1689   0.245   6.636   1.483 -0.2722  0.0884  0.1336
  423SOL     hw 1690   0.250   6.657   1.389 -1.6205 -1.2153 -0.2808
  423SOL     hw 1691   0.286   6.711   1.526  0.7032  0.5674 -1.5031
  423SOL     vw 1692   0.251   6.649   1.476 -0.3214 -0.0200 -0.1370
  424SOL     ow 1693   5.513   0.264   3.153 -0.2170  0.4382  0.5307
  424SOL     hw 1694   5.544   0.200   3.217  0.1660 -0.2697 -0.3456
  424SOL     hw 1695   5.417   0.257   3.158 -0.1810 -0.6370  0.0376
  424SOL     vw 1696   5.504   0.255   3.162 -0.1616  0.2030  0.3502
  425SOL     ow 1697   5.471   6.503   0.389 -0.3269 -0.5043  0.3179
  425SOL     hw 1698   5.482   6.514   0.483 -0.1789  1.5641  0.0875
  425SOL     hw 1699   5.395   6.556   0.366  0.2500 -0.1518 -0.8800
  425SOL     vw 1700   5.463   6.511   0.398 -0.2313 -0.1850  0.1295
  426SOL     ow 1701   1.418   5.057   4.541  0.4931 -0.2176  0.6255
  426SOL     hw 1702   1.507   5.024   4.534 -0.5489 -3.1204 -0.3469
  426SOL     hw 1703   1.413   5.128   4.477  2.1548  0.2698  0.9762
  426SOL     vw 1704   1.429   5.062   4.532  0.5749 -0.5364  0.5434
  427SOL     ow 1705   0.342   1.169   4.138  0.1008 -0.3572 -0.4299
  427SOL     hw 1706   0.415   1.151   4.197 -0.3957  1.5360  0.8414
  427SOL     hw 1707   0.265   1.173   4.194 -0.9094 -1.6145 -1.6576
  427SOL     vw 1708   0.341   1.167   4.153 -0.0980 -0.2733 -0.4244
  428SOL     ow 1709   3.265   4.686   4.155 -0.1017  0.1579  0.6582
  428SOL     hw 1710   3.282   4.644   4.070  1.6539  0.9976  0.5417
  428SOL     hw 1711   3.261   4.613   4.217  0.0277 -0.3697  0.0536
  428SOL     vw 1712   3.267   4.671   4.152  0.1471  0.1993  0.5629
  429SOL     ow 1713   2.374   4.311   0.884 -0.0739  0.2078  0.0949
  429SOL     hw 1714   2.467   4.295   0.897  0.8548  3.0455 -1.8944
  429SOL     hw 1715   2.364   4.406   0.895 -2.3166  0.2682 -1.5932
  429SOL     vw 1716   2.385   4.322   0.887 -0.2472  0.5903 -0.3903
  430SOL     ow 1717   1.473   0.496   2.895  0.4393  0.5637 -0.1646
  430SOL     hw 1718   1.442   0.416   2.939  0.5402  0.0313 -1.0495
  430SOL     hw 1719   1.568   0.494   2.907  0.5077  0.2170 -0.7218
  430SOL     vw 1720   1.481   0.485   2.903  0.4616  0.4477 -0.3550
  431SOL     ow 1721   0.380   3.566   3.592 -0.1729  0.4246  0.4533
  431SOL     hw 1722   0.295   3.565   3.636 -1.4502  0.1942 -1.8204
  431SOL     hw 1723   0.361   3.602   3.505  1.2293 -3.1060 -1.5652
  431SOL     vw 1724   0.366   3.570   3.586 -0.1564 -0.0718 -0.1128
  432SOL     ow 1725   4.330   4.747   3.754  0.1606  0.5908  0.1636
  432SOL     hw 1726   4.312   4.840   3.738 -1.0025  0.6895  1.7401
  432SOL     hw 1727   4.248   4.713   3.789  0.9986 -0.6849  0.9637
  432SOL     vw 1728   4.317   4.755   3.757  0.1180  0.4354  0.4773
  433SOL     ow 1729   4.345   2.071   4.877 -0.1442 -0.4091 -0.0112
  433SOL     hw 1730   4.438   2.091   4.887  0.2441 -1.5389 -1.0865
  433SOL     hw 1731   4.332   1.991   4.927 -0.8518  0.4249  1.1912
  433SOL     vw 1732   4.356   2.063   4.885 -0.1862 -0.4481  0.0057
  434SOL     ow 1733   6.708   6.487   0.858  0.4333  0.1042  0.3140
  434SOL     hw 1734   6.788   6.524   0.821 -0.5808 -0.3966 -2.7251
  434SOL     hw 1735   6.652   6.562   0.876  1.1394  0.3945  1.3372
  434SOL     vw 1736   6.711   6.501   0.855  0.3929  0.0763  0.0480
  435SOL     ow 1737   4.978   2.639   0.283 -0.4494 -0.4567  0.8188
  435SOL     hw 1738   5.017   2.574   0.341 -1.5206 -0.6227  1.3828
  435SOL     hw 1739   4.904   2.593   0.242  0.2778 -0.3480 -0.6880
  435SOL     vw 1740   4.973   2.624   0.285 -0.4950 -0.4643  0.6944
  436SOL     ow 1741   0.242   3.999   0.696  0.0396 -0.3876  0.0085
  436SOL     hw 1742   0.296   4.002   0.775 -0.7219 -1.3241  0.5841
  436SOL     hw 1743   0.306   3.996   0.624  0.7560  1.9551  0.4573
  436SOL     vw 1744   0.258   3.999   0.697  0.0336 -0.2022  0.1436
  437SOL     ow 1745   5.453   1.015   5.780 -0.2829 -0.1096 -0.4351
  437SOL     hw 1746   5.403   1.046   5.855  0.8637  2.5241 -0.6406
  437SOL     hw 1747   5.488   0.930   5.808  0.6308  1.0527  2.3048
  437SOL     vw 1748   5.451   1.007   5.793 -0.0107  0.3912 -0.1009
  438SOL     ow 1749   3.777   5.712   1.130  1.1242 -0.1324  0.2468
  438SOL     hw 1750   3.775   5.691   1.036 -0.9029  0.3111  0.1468
  438SOL     hw 1751   3.748   5.631   1.173 -1.8458  0.7830  0.1739
  438SOL     vw 1752   3.773   5.698   1.123  0.4649  0.0467  0.2241
  439SOL     ow 1753   4.495   5.797   2.127  0.0574  0.0325  0.1058
  439SOL     hw 1754   4.428   5.817   2.062 -0.7994 -1.3637  0.5115
  439SOL     hw 1755   4.447   5.753   2.198  1.7418 -3.9877 -0.9746
  439SOL     vw 1756   4.480   5.793   2.128  0.1667 -0.6821  0.0168
  440SOL     ow 1757   2.597   2.992   2.489 -0.5751 -0.3923 -0.3484
  440SOL     hw 1758   2.577   3.049   2.563  0.6112 -0.7254  0.2496
  440SOL     hw 1759   2.573   3.043   2.412 -0.1394  0.6537  0.2029
  440SOL     vw 1760   2.591   3.006   2.489 -0.3611 -0.2983 -0.1966
  441SOL     ow 1761   5.912   3.605   6.625  0.5559 -0.5301  0.2564
  441SOL     hw 1762   5.913   3.646   6.712  1.1807 -2.8251  1.4225
  441SOL     hw 1763   5.836   3.547   6.628  1.0953 -1.2878 -0.3859
  441SOL     vw 1764   5.902   3.603   6.637  0.7095 -0.9328  0.3254
  442SOL     ow 1765   3.396   1.089   3.074 -0.2769 -0.3563  0.7193
  442SOL     hw 1766   3.429   1.006   3.107 -0.2392 -1.2397 -1.3842
  442SOL     hw 1767   3.312   1.100   3.117 -0.6471 -1.8971  0.4539
  442SOL     vw 1768   3.389   1.080   3.084 -0.3208 -0.6761  0.4067
  443SOL     ow 1769   5.893   5.379   1.549 -0.4415  0.3049  0.5328
  443SOL     hw 1770   5.979   5.347   1.520  0.0054 -0.3314  2.4042
  443SOL     hw 1771   5.830   5.337   1.491  0.4275 -0.3699  0.0556
  443SOL     vw 1772   5.896   5.369   1.538 -0.2680  0.1318  0.7168
  444SOL     ow 1773   5.522   6.342   0.147  0.1315  0.5003 -0.3860
  444SOL     hw 1774   5.499   6.259   0.189 -0.8560  1.2329  0.5528
  444SOL     hw 1775   5.586   6.317   0.079  1.6224 -0.7426  1.3742
  444SOL     vw 1776   5.528   6.328   0.143  0.1981  0.4330 -0.0299
  445SOL     ow 1777   4.352   0.525   2.964  0.5933 -0.5496 -0.2376
  445SOL     hw 1778   4.322   0.524   2.874  0.7091 -0.4983 -0.2778
  445SOL     hw 1779   4.310   0.602   3.003  0.5071 -0.5980 -0.2350
  445SOL     vw 1780   4.343   0.535   2.958  0.5972 -0.5493 -0.2426
  446SOL     ow 1781   5.957   5.698   6.154  0.4160 -0.0076 -0.3957
  446SOL     hw 1782   6.042   5.733   6.129  1.0923 -0.8779  0.6137
  446SOL     hw 1783   5.971   5.658   6.240 -0.8360 -0.8253 -0.5398
  446SOL     vw 1784   5.970   5.698   6.162  0.3400 -0.2303 -0.2813
  447SOL     ow 1785   2.338   6.267   5.400  0.3327 -0.3481 -0.3060
  447SOL     hw 1786   2.297   6.180   5.408 -1.8445  0.5302 -1.1048
  447SOL     hw 1787   2.324   6.308   5.485  0.9488 -0.5955 -0.0803
  447SOL     vw 1788   2.331   6.261   5.412  0.1267 -0.2649 -0.3815
  448SOL     ow 1789   0.594   4.599   3.227 -0.1954  0.4677 -0.4791
  448SOL     hw 1790   0.626   4.510   3.213 -0.4183  0.2551  0.2742
  448SOL     hw 1791   0.524   4.611   3.162 -0.4758 -0.0767 -0.2826
  448SOL     vw 1792   0.589   4.589   3.217 -0.2618  0.3679 -0.3538
  449SOL     ow 1793   2.991   3.353   5.986 -0.4213  0.9205  0.6979
  449SOL     hw 1794   3.075   3.398   5.991  1.0817 -1.4774 -0.9955
  449SOL     hw 1795   3.000   3.277   6.043 -0.0896 -1.1732 -1.9551
  449SOL     vw 1796   3.003   3.349   5.994 -0.1793  0.3279  0.1245
  450SOL     ow 1797   1.243   4.662   2.800 -0.2532  0.4277  0.3371
  450SOL     hw 1798   1.160   4.709   2.792 -0.9231 -0.8111 -0.2554
  450SOL     hw 1799   1.307   4.730   2.824 -1.5399  1.3073  1.4520
  450SOL     vw 1800   1.240   4.677   2.802 -0.5113  0.3800  0.4060
  451SOL     ow 1801   0.034   3.999   3.795 -0.1652  0.3030 -0.8117
  451SOL     hw 1802  -0.008   3.976   3.878  0.6474 -0.8977 -0.7197
  451SOL     hw 1803  -0.023   4.067   3.758 -0.7448  0.5935  0.5391
  451SOL     vw 1804   0.021   4.005   3.801 -0.1344  0.1829 -0.6213
  452SOL     ow 1805   6.484   4.900   1.878 -0.1206  0.0621  0.6564
  452SOL     hw 1806   6.483   4.992   1.903 -0.0695 -0.0147  0.9480
  452SOL     hw 1807   6.577   4.876   1.881 -0.0418  0.2059 -0.1957
  452SOL     vw 1808   6.496   4.909   1.881 -0.1037  0.0710  0.5825
  453SOL     ow 1809   0.850   2.739   5.413 -0.0979 -0.0224  0.4501
  453SOL     hw 1810   0.867   2.650   5.443 -1.5468 -0.7448 -0.6967
  453SOL     hw 1811   0.779   2.729   5.348  1.4624  1.6456 -1.6687
  453SOL     vw 1812   0.843   2.726   5.408 -0.0832  0.1025  0.0193
  454SOL     ow 1813   2.835   4.209   2.229  0.2708 -0.5413  0.8162
  454SOL     hw 1814   2.880   4.125   2.215 -0.3282 -0.5982 -0.9730
  454SOL     hw 1815   2.901   4.263   2.272  1.5839 -1.0978 -0.4046
  454SOL     vw 1816   2.850   4.205   2.233  0.3651 -0.6220  0.4191
  455SOL     ow 1817   1.488   4.616   1.380 -0.2719  0.3377 -0.5783
  455SOL     hw 1818   1.536   4.640   1.460 -0.5209 -1.1148  0.0438
  455SOL     hw 1819   1.398   4.600   1.410  0.1062 -2.4347 -0.6807
  455SOL     vw 1820   1.482   4.617   1.395 -0.2548 -0.2196 -0.5097
  456SOL     ow 1821   4.485   0.324   4.252  0.4957 -0.4990 -0.1190
  456SOL     hw 1822   4.533   0.247   4.283  1.9217  0.7434  0.9342
  456SOL     hw 1823   4.497   0.388   4.322  0.4386  1.0994 -1.5318
  456SOL     vw 1824   4.493   0.322   4.266  0.6764 -0.1242 -0.1664
  457SOL     ow 1825   4.004   6.254   4.409 -0.2911  0.1409 -0.4605
  457SOL     hw 1826   3.981   6.347   4.420 -0.5998  0.0386 -0.2215
  457SOL     hw 1827   3.963   6.229   4.327  0.9641  0.5764 -1.2549
  457SOL     vw 1828   3.996   6.263   4.400 -0.1661  0.1845 -0.5338
  458SOL     ow 1829   4.207   1.306   4.895 -0.0725 -0.1838  0.1997
  458SOL     hw 1830   4.223   1.225   4.944 -0.3977 -1.1093 -1.1750
  458SOL     hw 1831   4.275   1.308   4.828 -1.2058 -0.3561 -1.0018
  458SOL     vw 1832   4.218   1.296   4.893 -0.2649 -0.3286 -0.1404
  459SOL     ow 1833   4.811   2.133   2.791  0.0950  0.1896  0.3944
  459SOL     hw 1834   4.726   2.094   2.809  0.5902 -0.9461  0.3535
  459SOL     hw 1835   4.801   2.225   2.816 -1.2242  0.1456  0.0977
  459SOL     vw 1836   4.799   2.140   2.797 -0.0138  0.0339  0.3498
  460SOL     ow 1837   5.747   6.679   1.790 -0.0686 -0.4612  0.1666
  460SOL     hw 1838   5.818   6.723   1.838 -0.5130  0.8320 -0.2946
  460SOL     hw 1839   5.680   6.663   1.855  0.5558 -1.4991  0.5660
  460SOL     vw 1840   5.748   6.683   1.805 -0.0448 -0.4272  0.1585
  461SOL     ow 1841   2.409   0.758   0.834 -0.2450  0.2615 -1.0133
  461SOL     hw 1842   2.320   0.770   0.866 -0.0902  2.4379 -1.2554
  461SOL     hw 1843   2.464   0.801   0.900  0.7281 -1.6368 -0.5121
  461SOL     vw 1844   2.405   0.765   0.847 -0.0962  0.2982 -0.9791
  462SOL     ow 1845   0.731   2.334   5.736  0.9913  0.0833 -0.8042
  462SOL     hw 1846   0.806   2.392   5.723  1.0603  1.0460  2.7390
  462SOL     hw 1847   0.752   2.286   5.816 -2.3725  0.8613  0.7048
  462SOL     vw 1848   0.744   2.335   5.745  0.5566  0.3130 -0.1373
  463SOL     ow 1849   4.094   6.400   6.368  0.1161 -0.1679 -0.0875
  463SOL     hw 1850   4.104   6.392   6.274  1.0369  0.6267 -0.0719
  463SOL     hw 1851   4.170   6.451   6.396 -0.3464 -0.0626  1.0300
  463SOL     vw 1852   4.105   6.406   6.360  0.1767 -0.0494  0.0620
  464SOL     ow 1853   0.802   2.611   1.638  0.7688  0.4404  0.8545
  464SOL     hw 1854   0.862   2.557   1.587 -1.6113 -2.9165  1.2185
  464SOL     hw 1855   0.789   2.690   1.585  2.3624 -0.5353 -1.1286
  464SOL     vw 1856   0.808   2.614   1.624  0.6650 -0.1314  0.6409
  465SOL     ow 1857   1.145   2.120   3.530  0.0733 -0.4265 -0.0152
  465SOL     hw 1858   1.217   2.177   3.560  0.4360 -0.1499 -1.3758
  465SOL     hw 1859   1.152   2.043   3.587  0.1684  0.4538  1.2201
  465SOL     vw 1860   1.156   2.117   3.542  0.1338 -0.2739 -0.0317
  466SOL     ow 1861   0.039   2.706   4.768  0.3833 -0.3650  0.2946
  466SOL     hw 1862   0.128   2.720   4.737  0.2400 -0.5089 -0.1906
  466SOL     hw 1863  -0.013   2.774   4.725 -0.3243 -2.2531 -2.1107
  466SOL     vw 1864   0.044   2.716   4.758  0.2711 -0.6330 -0.0868
  467SOL     ow 1865   5.771   1.312   2.318 -0.1500  0.8812  0.1194
  467SOL     hw 1866   5.737   1.372   2.385 -0.1262  0.9404  0.0778
  467SOL     hw 1867   5.822   1.367   2.260 -3.3532  1.6492 -2.2743
  467SOL     vw 1868   5.773   1.327   2.319 -0.5693  0.9903 -0.2019
  468SOL     ow 1869   5.555   3.263   4.274  0.3603  0.2323 -0.4332
  468SOL     hw 1870   5.460   3.260   4.262  0.2352 -1.5943  0.6746
  468SOL     hw 1871   5.577   3.178   4.312  2.7921 -0.3424 -2.8689
  468SOL     vw 1872   5.545   3.252   4.278  0.6645 -0.0846 -0.6084
  469SOL     ow 1873   5.614   5.226   3.147  0.8179  0.2293  0.3317
  469SOL     hw 1874   5.530   5.221   3.194 -0.4095  2.1703 -1.4955
  469SOL     hw 1875   5.674   5.174   3.201 -1.6838 -1.8627  1.3458
  469SOL     vw 1876   5.611   5.219   3.160  0.3259  0.2096  0.2244
  470SOL     ow 1877   4.561   6.224   3.720  0.2935 -0.0647  0.1878
  470SOL     hw 1878   4.536   6.143   3.764  1.7830 -1.2887 -1.1304
  470SOL     hw 1879   4.484   6.249   3.669  0.5609 -1.9673 -1.2370
  470SOL     vw 1880   4.547   6.217   3.719  0.5252 -0.4773 -0.1742
  471SOL     ow 1881   5.649   1.323   1.618  0.8190 -0.3823 -0.5219
  471SOL     hw 1882   5.678   1.299   1.706 -2.2729 -1.0967  0.4583
  471SOL     hw 1883   5.729   1.343   1.570  2.7993 -2.0794  1.8203
  471SOL     vw 1884   5.663   1.323   1.623  0.6723 -0.7004 -0.0836
  472SOL     ow 1885   3.090   1.241   4.846  0.3039  0.4386 -0.0892
  472SOL     hw 1886   3.106   1.333   4.867 -0.1177  0.1406  1.7654
  472SOL     hw 1887   3.175   1.199   4.859  0.2383  0.3955  0.2169
  472SOL     vw 1888   3.104   1.248   4.851  0.2396  0.3937  0.1960
  473SOL     ow 1889   1.033   4.842   2.801 -0.4746 -0.7062 -0.4019
  473SOL     hw 1890   1.106   4.883   2.847 -0.4760  0.5966 -1.5165
  473SOL     hw 1891   0.961   4.842   2.865  0.1851 -1.0833  0.3602
  473SOL     vw 1892   1.033   4.847   2.816 -0.3877 -0.5839 -0.4485
  474SOL     ow 1893   3.006   4.212   6.297  0.2782  0.3175 -0.0757
  474SOL     hw 1894   3.063   4.282   6.329 -0.7828  1.7572 -1.2044
  474SOL     hw 1895   2.988   4.158   6.374  2.4544  0.2828  0.4759
  474SOL     vw 1896   3.011   4.214   6.311  0.4253  0.5028 -0.1519
  475SOL     ow 1897   4.100   2.410   3.508  0.6683 -0.4328  0.5936
  475SOL     hw 1898   4.132   2.498   3.492  0.1583 -0.2316  0.6558
  475SOL     hw 1899   4.096   2.402   3.603  2.2451 -1.0955  0.6387
  475SOL     vw 1900   4.104   2.420   3.518  0.8092 -0.4936  0.6077
  476SOL     ow 1901   0.329   1.316   3.836 -0.7701 -0.5613  0.1383
  476SOL     hw 1902   0.295   1.290   3.751 -0.5986  1.0922 -0.4777
  476SOL     hw 1903   0.259   1.368   3.875 -0.3526 -0.2050  0.4261
  476SOL     vw 1904   0.315   1.320   3.830 -0.6924 -0.2961  0.0949
  477SOL     ow 1905   5.048   1.857   4.802 -0.8246  0.1162  0.0160
  477SOL     hw 1906   5.012   1.774   4.770  1.0128  0.3464 -2.9858
  477SOL     hw 1907   4.976   1.919   4.792 -1.2311 -0.4642 -0.8727
  477SOL     vw 1908   5.034   1.854   4.797 -0.6359  0.0700 -0.4973
  478SOL     ow 1909   1.827   1.837   3.989 -0.5915 -0.1373 -0.0414
  478SOL     hw 1910   1.815   1.900   4.061  0.0673 -3.1820  3.0046
  478SOL     hw 1911   1.907   1.865   3.946  0.6064  0.2752  2.2904
  478SOL     vw 1912   1.836   1.849   3.993 -0.3465 -0.4845  0.6682
  479SOL     ow 1913   2.792   2.910   5.536 -0.4083  0.1563 -0.1640
  479SOL     hw 1914   2.818   2.854   5.463 -0.1196  0.5121 -0.3365
  479SOL     hw 1915   2.732   2.856   5.588 -1.2526  0.1733 -1.1000
  479SOL     vw 1916   2.787   2.895   5.533 -0.4818  0.2054 -0.3102
  480SOL     ow 1917   6.606   5.356   2.477  0.2024 -0.2600  0.4047
  480SOL     hw 1918   6.570   5.439   2.448  1.4718 -0.0131 -0.5742
  480SOL     hw 1919   6.664   5.329   2.405  1.2509 -1.0507  1.5088
  480SOL     vw 1920   6.609   5.363   2.464  0.5083 -0.3319  0.4213
  481SOL     ow 1921   1.411   0.977   3.848  0.1668  1.0046 -0.2321
  481SOL     hw 1922   1.370   1.038   3.910 -1.1798  0.3348 -0.4144
  481SOL     hw 1923   1.473   0.927   3.902  0.0206  1.3635  0.2806
  481SOL     vw 1924   1.414   0.978   3.864 -0.0302  0.9636 -0.1885
  482SOL     ow 1925   5.332   0.381   5.062 -1.0136 -0.1612  1.1254
  482SOL     hw 1926   5.255   0.388   5.006 -0.3992  0.8204  0.3591
  482SOL     hw 1927   5.331   0.461   5.115  1.0719  1.5315 -1.0930
  482SOL     vw 1928   5.322   0.393   5.062 -0.6573  0.1917  0.7319
  483SOL     ow 1929   3.969   6.097   6.450  0.1046  0.3060 -0.0596
  483SOL     hw 1930   3.966   6.019   6.396  2.0262  0.5190 -0.5284
  483SOL     hw 1931   3.928   6.071   6.533 -2.1115 -0.2576 -1.2610
  483SOL     vw 1932   3.963   6.084   6.454  0.0656  0.2596 -0.2797
  484SOL     ow 1933   4.161   4.382   2.328 -0.3354 -0.5769 -0.3783
  484SOL     hw 1934   4.178   4.460   2.274  0.2792  0.0127  0.6247
  484SOL     hw 1935   4.077   4.349   2.297 -0.7590  0.6714 -0.6258
  484SOL     vw 1936   4.152   4.388   2.317 -0.3102 -0.3345 -0.2786
  485SOL     ow 1937   2.233   1.895   3.361 -0.2047 -0.0287 -0.2347
  485SOL     hw 1938   2.291   1.828   3.326  0.9770  0.2583  1.0745
  485SOL     hw 1939   2.192   1.853   3.437 -0.4319  0.3135 -0.1672
  485SOL     vw 1940   2.235   1.880   3.367 -0.0788  0.0543 -0.0532
  486SOL     ow 1941   5.143   2.022   4.589  0.1538 -0.0665 -0.3714
  486SOL     hw 1942   5.199   1.995   4.516 -0.5640 -0.4040 -0.8047
  486SOL     hw 1943   5.138   2.117   4.582 -0.4513 -0.1552 -1.1619
  486SOL     vw 1944   5.150   2.031   4.579 -0.0207 -0.1229 -0.5326
  487SOL     ow 1945   1.940   3.962   1.890  0.1489 -0.1470  0.1089
  487SOL     hw 1946   2.034   3.971   1.875  0.1301 -0.2053 -0.0363
  487SOL     hw 1947   1.912   3.893   1.831  0.0874 -0.4099  0.4456
  487SOL     vw 1948   1.949   3.954   1.881  0.1383 -0.1893  0.1342
  488SOL     ow 1949   2.409   2.512   3.652  0.0722 -1.0638 -0.2757
  488SOL     hw 1950   2.367   2.438   3.696 -0.4944 -0.3107  0.4936
  488SOL     hw 1951   2.401   2.584   3.715 -0.4501 -0.0382 -1.4832
  488SOL     vw 1952   2.403   2.512   3.666 -0.0715 -0.8292 -0.3334
  489SOL     ow 1953   3.670   3.054   3.670 -0.1121  0.1042  0.7826
  489SOL     hw 1954   3.739   3.066   3.604 -0.3280  1.5997  0.7950
  489SOL     hw 1955   3.600   3.008   3.623 -0.7621  2.1868 -0.4338
  489SOL     vw 1956   3.670   3.050   3.655 -0.2264  0.5764  0.6238
  490SOL     ow 1957   2.997   5.606   5.904 -0.3792 -0.1534 -0.0426
  490SOL     hw 1958   3.032   5.533   5.954 -2.8287  0.0188  2.1397
  490SOL     hw 1959   2.944   5.564   5.835  0.9369 -0.3844 -0.9475
  490SOL     vw 1960   2.995   5.591   5.902 -0.5287 -0.1612  0.1261
  491SOL     ow 1961   4.280   2.265   2.342  0.2139 -0.3011 -0.5761
  491SOL     hw 1962   4.261   2.182   2.299  1.4094 -0.8412 -0.1052
  491SOL     hw 1963   4.269   2.246   2.436 -1.1083  0.5196 -0.5404
  491SOL     vw 1964   4.276   2.252   2.349  0.1969 -0.2639 -0.5093
  492SOL     ow 1965   1.340   1.895   2.557  0.2299 -0.3857  0.0786
  492SOL     hw 1966   1.338   1.817   2.502  0.0569 -0.1982 -0.1806
  492SOL     hw 1967   1.305   1.965   2.502  1.8227  0.2219 -0.2395
  492SOL     vw 1968   1.335   1.894   2.543  0.4171 -0.2808  0.0024
  493SOL     ow 1969   4.904   4.405   5.094 -0.9483  0.2250  0.0023
  493SOL     hw 1970   4.872   4.451   5.016  0.6371  0.4633 -0.5365
  493SOL     hw 1971   4.886   4.466   5.167  0.2902  1.3434 -0.5820
  493SOL     vw 1972   4.897   4.420   5.094 -0.5758  0.4041 -0.1459
  494SOL     ow 1973   3.501   6.076   0.482  0.1138  0.3080 -0.3480
  494SOL     hw 1974   3.575   6.019   0.458 -0.5325 -0.0175 -1.6763
  494SOL     hw 1975   3.476   6.046   0.569  2.6897  1.6562  0.9836
  494SOL     vw 1976   3.508   6.064   0.491  0.3685  0.4432 -0.3475
  495SOL     ow 1977   0.301   5.834   2.081 -0.9881  0.4796 -0.4606
  495SOL     hw 1978   0.371   5.899   2.091 -0.8581  0.2905 -0.1202
  495SOL     hw 1979   0.224   5.876   2.119 -0.7624  0.2070  0.3159
  495SOL     vw 1980   0.300   5.848   2.088 -0.9412  0.4189 -0.3133
  496SOL     ow 1981   5.034   5.856   5.957  0.4419 -0.5407 -0.4427
  496SOL     hw 1982   4.976   5.788   5.922 -0.6932 -0.6634  1.5468
  496SOL     hw 1983   4.974   5.923   5.990  1.5124  0.5408 -0.6151
  496SOL     vw 1984   5.018   5.856   5.957  0.4334 -0.4141 -0.2029
  497SOL     ow 1985   5.358   5.502   4.831  0.2458  0.3301  0.3847
  497SOL     hw 1986   5.388   5.546   4.752  0.2372 -1.1010 -0.4527
  497SOL     hw 1987   5.438   5.476   4.877  0.2604  0.3289  0.3585
  497SOL     vw 1988   5.372   5.504   4.827  0.2470  0.1411  0.2706
  498SOL     ow 1989   0.818   0.805   1.411 -0.0673  0.4329 -0.1660
  498SOL     hw 1990   0.816   0.832   1.319  1.3493  0.5296 -0.1861
  498SOL     hw 1991   0.892   0.852   1.449 -0.5336  0.2717  1.0018
  498SOL     vw 1992   0.828   0.815   1.404  0.0581  0.4244 -0.0146
  499SOL     ow 1993   4.743   0.769   0.274  0.2206 -0.3697 -0.2293
  499SOL     hw 1994   4.647   0.769   0.278  0.0150 -2.6373 -2.5075
  499SOL     hw 1995   4.770   0.748   0.363 -1.3807  0.0963  0.4096
  499SOL     vw 1996   4.734   0.766   0.286 -0.0179 -0.6074 -0.4456
  500SOL     ow 1997   2.584   5.730   0.892 -0.3631 -0.7463  0.4707
  500SOL     hw 1998   2.540   5.785   0.956  2.2510  0.3996  1.4327
  500SOL     hw 1999   2.626   5.661   0.944  2.0150  0.3481  0.1632
  500SOL     vw 2000   2.584   5.728   0.907  0.2956 -0.4508  0.5570
  501SOL     ow 2001   0.894   2.709   0.473 -0.0831 -0.4581  0.3038
  501SOL     hw 2002   0.813   2.666   0.498 -0.1374 -0.0634  0.8412
  501SOL     hw 2003   0.879   2.739   0.383 -1.2759  1.3070  1.0249
  501SOL     vw 2004   0.881   2.707   0.465 -0.2476 -0.1732  0.4698
  502SOL     ow 2005   2.878   2.754   1.133  0.0881 -0.1398  0.6666
  502SOL     hw 2006   2.941   2.704   1.185  0.5003  0.7695  1.0635
  502SOL     hw 2007   2.885   2.717   1.045  0.3790 -0.7778  0.9513
  502SOL     vw 2008   2.888   2.743   1.128  0.1807 -0.1041  0.7565
  503SOL     ow 2009   1.515   1.806   3.914 -0.0957 -0.0519 -0.1020
  503SOL     hw 2010   1.497   1.899   3.896 -1.5867 -0.4364 -0.7119
  503SOL     hw 2011   1.434   1.761   3.892  0.5948 -1.5131  0.2329
  503SOL     vw 2012   1.502   1.813   3.909 -0.2013 -0.2955 -0.1382
  504SOL     ow 2013   0.223   5.189   3.575 -0.1606  0.2647 -0.3951
  504SOL     hw 2014   0.273   5.108   3.586  1.9671  1.5130 -0.2465
  504SOL     hw 2015   0.266   5.234   3.503 -2.4185  0.5245 -1.6660
  504SOL     vw 2016   0.236   5.184   3.567 -0.1778  0.4637 -0.5431
  505SOL     ow 2017   2.097   4.766   3.804  0.3034 -0.0087  0.5160
  505SOL     hw 2018   2.125   4.674   3.808  1.5518  0.3796  1.4912
  505SOL     hw 2019   2.171   4.812   3.763 -0.7577  0.4309 -0.9925
  505SOL     vw 2020   2.111   4.760   3.799  0.3281  0.1004  0.4456
  506SOL     ow 2021   1.392   4.867   0.081 -0.2919 -0.3597  0.2265
  506SOL     hw 2022   1.392   4.798   0.148 -0.6640 -2.3742 -1.7187
  506SOL     hw 2023   1.466   4.845   0.024 -1.0740  0.2274 -1.0501
  506SOL     vw 2024   1.402   4.855   0.082 -0.4442 -0.5479 -0.1986
  507SOL     ow 2025   4.454   2.348   0.313 -0.1809  0.2908 -0.1365
  507SOL     hw 2026   4.378   2.366   0.258  0.5511 -0.0075 -1.2593
  507SOL     hw 2027   4.463   2.253   0.312  0.5341  0.3595 -0.4615
  507SOL     vw 2028   4.445   2.338   0.306  0.0098  0.2606 -0.3275
  508SOL     ow 2029   6.305   2.462   0.613 -0.7755  0.5714  0.1310
  508SOL     hw 2030   6.363   2.512   0.556 -2.6335  1.9123 -0.6752
  508SOL     hw 2031   6.356   2.449   0.694  1.2602  0.1317 -1.1377
  508SOL     vw 2032   6.319   2.467   0.616 -0.7520  0.6902 -0.1427
  509SOL     ow 2033   2.818   5.079   5.577  0.4849 -0.6286 -0.2145
  509SOL     hw 2034   2.784   5.028   5.503 -2.7615  0.2719  0.5136
  509SOL     hw 2035   2.818   5.170   5.546 -0.8192 -0.2511  0.7915
  509SOL     vw 2036   2.814   5.084   5.563 -0.1154 -0.4601  0.0143
  510SOL     ow 2037   1.167   6.250   4.233 -0.6406  0.4306  0.1849
  510SOL     hw 2038   1.105   6.208   4.173 -1.3133  2.2798 -0.4809
  510SOL     hw 2039   1.135   6.340   4.242  1.3321  1.1290  0.7130
  510SOL     vw 2040   1.155   6.257   4.227 -0.4690  0.7665  0.1667
  511SOL     ow 2041   0.175   5.315   1.332 -0.6982  0.1199  0.4184
  511SOL     hw 2042   0.111   5.247   1.311 -0.7546  0.2515  0.1644
  511SOL     hw 2043   0.186   5.364   1.251  1.2471 -1.1498 -0.1546
  511SOL     vw 2044   0.168   5.312   1.319 -0.4490 -0.0300  0.3093
  512SOL     ow 2045   6.340   6.376   4.421  0.0428 -0.1873 -0.0902
  512SOL     hw 2046   6.413   6.411   4.370 -1.7501  1.5795 -1.6349
  512SOL     hw 2047   6.320   6.444   4.486 -2.2779  1.0389 -1.9001
  512SOL     vw 2048   6.347   6.390   4.423 -0.4997  0.2079 -0.5326
  513SOL     ow 2049   6.530   5.085   2.485  0.3846  0.1632 -0.3822
  513SOL     hw 2050   6.510   5.092   2.391 -0.5906 -1.4619 -0.3318
  513SOL     hw 2051   6.557   4.994   2.497  2.6248  0.8952  0.5785
  513SOL     vw 2052   6.531   5.074   2.474  0.5515  0.0453 -0.2489
  514SOL     ow 2053   1.436   1.236   1.015 -0.3092  0.0396  0.0243
  514SOL     hw 2054   1.455   1.168   1.081  0.2227 -0.1545 -0.3201
  514SOL     hw 2055   1.506   1.300   1.028 -0.5222  0.2732  0.0116
  514SOL     vw 2056   1.448   1.235   1.026 -0.2672  0.0448 -0.0229
  515SOL     ow 2057   3.086   1.851   4.172 -0.0550  0.0552  0.5178
  515SOL     hw 2058   3.150   1.908   4.129 -3.1481  4.8160  1.4427
  515SOL     hw 2059   3.022   1.831   4.104 -1.6380  2.2665  1.2271
  515SOL     vw 2060   3.086   1.856   4.158 -0.6719  0.9750  0.7334
  516SOL     ow 2061   0.075   3.127   2.607 -0.4983 -0.5029 -0.3931
  516SOL     hw 2062   0.041   3.078   2.683 -0.1135 -1.6581 -0.9377
  516SOL     hw 2063   0.034   3.084   2.532 -0.7688  0.5437 -0.8520
  516SOL     vw 2064   0.065   3.115   2.607 -0.4832 -0.5172 -0.5255
  517SOL     ow 2065   3.011   0.377   1.686  0.1871  0.1738  0.0245
  517SOL     hw 2066   3.008   0.282   1.673 -0.6906  0.2318 -0.2778
  517SOL     hw 2067   3.013   0.388   1.781 -0.4097 -0.1497  0.0856
  517SOL     vw 2068   3.011   0.365   1.697 -0.0075  0.1388 -0.0072
  518SOL     ow 2069   3.717   0.359   5.860 -0.0882 -0.4809 -0.5256
  518SOL     hw 2070   3.699   0.276   5.815 -1.9979 -0.7700  0.6621
  518SOL     hw 2071   3.749   0.334   5.946  0.0886  0.0291 -0.4366
  518SOL     vw 2072   3.719   0.345   5.865 -0.3170 -0.4518 -0.3572
  519SOL     ow 2073   0.660   5.590   3.285 -0.5616  0.2148 -0.5074
  519SOL     hw 2074   0.754   5.608   3.288  0.0693 -2.4539 -1.5483
  519SOL     hw 2075   0.638   5.563   3.375 -0.0199 -0.4189 -0.5570
  519SOL     vw 2076   0.669   5.589   3.297 -0.4069 -0.2208 -0.6512
  520SOL     ow 2077   5.866   6.028   3.550  0.0621  0.1419 -0.5163
  520SOL     hw 2078   5.937   6.042   3.612  0.1622 -1.1650 -0.3146
  520SOL     hw 2079   5.890   6.080   3.473  1.5860 -0.7826 -0.7128
  520SOL     vw 2080   5.878   6.037   3.548  0.2761 -0.1523 -0.5156
  521SOL     ow 2081   4.507   1.789   2.207  0.0515  0.2226  0.3025
  521SOL     hw 2082   4.578   1.849   2.184  1.5509 -1.5285  0.0827
  521SOL     hw 2083   4.466   1.767   2.124 -1.0980  1.5918  0.4776
  521SOL     vw 2084   4.511   1.794   2.193  0.0975  0.1721  0.2966
  522SOL     ow 2085   4.384   5.505   5.501 -0.4811 -0.0939  0.0221
  522SOL     hw 2086   4.297   5.521   5.462 -0.8156  1.9400  1.4532
  522SOL     hw 2087   4.433   5.461   5.431 -1.9783  0.6785 -1.6083
  522SOL     vw 2088   4.379   5.501   5.486 -0.7229  0.2766 -0.0043
  523SOL     ow 2089   6.508   4.860   3.786 -0.3689 -0.0720  0.4640
  523SOL     hw 2090   6.449   4.854   3.711 -0.8733 -0.8236  0.9156
  523SOL     hw 2091   6.559   4.779   3.783 -1.9781 -1.2311  2.2321
  523SOL     vw 2092   6.507   4.849   3.775 -0.6478 -0.3240  0.7567
  524SOL     ow 2093   4.018   1.098   6.610  0.2322 -0.0126  0.0325
  524SOL     hw 2094   4.035   1.004   6.613 -2.5978 -0.6022  2.5842
  524SOL     hw 2095   4.095   1.138   6.650  1.2635 -1.2508 -0.6358
  524SOL     vw 2096   4.030   1.091   6.615 -0.0050 -0.2537  0.2809
  525SOL     ow 2097   4.609   2.973   2.533 -0.2714 -0.1426  0.3359
  525SOL     hw 2098   4.583   2.911   2.466  2.0548 -0.6611 -0.1721
  525SOL     hw 2099   4.589   2.929   2.616  1.7974 -1.8426 -0.0106
  525SOL     vw 2100   4.603   2.959   2.535  0.3085 -0.4354  0.2232
  526SOL     ow 2101   0.500   0.400   5.938  0.0415  0.1473 -0.0837
  526SOL     hw 2102   0.551   0.467   5.984  1.4425 -1.0506  0.2000
  526SOL     hw 2103   0.512   0.321   5.991  3.1635 -1.7915 -3.1820
  526SOL     vw 2104   0.509   0.398   5.951  0.6382 -0.2666 -0.4549
  527SOL     ow 2105   1.620   4.076   0.524  0.0893  0.1112 -0.1539
  527SOL     hw 2106   1.646   4.090   0.433  0.7781  0.2315  0.0573
  527SOL     hw 2107   1.624   4.162   0.564  1.7649 -0.2401  0.4905
  527SOL     vw 2108   1.624   4.089   0.518  0.4013  0.0808 -0.0410
  528SOL     ow 2109   6.128   1.901   5.667 -0.6075  0.0799 -0.3331
  528SOL     hw 2110   6.113   1.967   5.598  1.3766 -0.8368 -1.7355
  528SOL     hw 2111   6.073   1.827   5.641 -1.0388  0.2921 -0.0468
  528SOL     vw 2112   6.119   1.900   5.654 -0.4025 -0.0131 -0.4804
  529SOL     ow 2113   6.297   0.012   3.737 -0.1303  0.2760 -0.5341
  529SOL     hw 2114   6.225  -0.018   3.792 -1.3715  1.7105 -1.2907
  529SOL     hw 2115   6.272   0.101   3.711  1.6380  0.5953 -1.3109
  529SOL     vw 2116   6.284   0.020   3.741 -0.0606  0.5074 -0.7365
  530SOL     ow 2117   6.432   2.050   5.591  0.7204  0.6300  0.1697
  530SOL     hw 2118   6.453   2.140   5.565  3.6060  0.5149  1.7095
  530SOL     hw 2119   6.509   2.000   5.567 -0.8717 -1.5138 -0.7358
  530SOL     vw 2120   6.445   2.056   5.584  0.8912  0.3320  0.2534
  531SOL     ow 2121   4.663   2.078   1.290  0.0105  0.3299  0.3297
  531SOL     hw 2122   4.623   2.077   1.203 -0.3613  0.0128  0.4979
  531SOL     hw 2123   4.731   2.144   1.285  0.0252  0.2752 -0.2196
  531SOL     vw 2124   4.667   2.086   1.278 -0.0362  0.2809  0.2795
  532SOL     ow 2125   6.232   3.134   5.164 -0.1084  0.0850 -0.2191
  532SOL     hw 2126   6.226   3.048   5.205  1.0859 -0.5543 -1.3056
  532SOL     hw 2127   6.324   3.157   5.169 -0.7100  2.4686  2.2329
  532SOL     vw 2128   6.243   3.125   5.170 -0.0303  0.3151 -0.0389
  533SOL     ow 2129   0.311   3.904   0.057 -0.1905  0.1956 -0.2394
  533SOL     hw 2130   0.404   3.881   0.055  0.0642  1.2143 -0.6730
  533SOL     hw 2131   0.267   3.825   0.026  0.7097  0.4799 -2.4689
  533SOL     vw 2132   0.318   3.891   0.052 -0.0381  0.3674 -0.5908
  534SOL     ow 2133   4.982   6.548   3.153 -0.3457  0.4225 -0.5953
  534SOL     hw 2134   5.029   6.497   3.219 -1.0325 -1.0441 -1.1993
  534SOL     hw 2135   5.038   6.624   3.136  0.4838  0.1120  0.6642
  534SOL     vw 2136   4.995   6.552   3.159 -0.3269  0.1881 -0.5088
  535SOL     ow 2137   5.494   0.056   2.873 -0.9228 -0.1496 -0.4598
  535SOL     hw 2138   5.525  -0.035   2.870 -0.6706 -0.0545 -0.9541
  535SOL     hw 2139   5.403   0.051   2.844 -0.2530  0.0075 -2.8203
  535SOL     vw 2140   5.486   0.043   2.869 -0.8016 -0.1163 -0.8365
  536SOL     ow 2141   0.032   5.362   0.565  0.6680 -0.4378 -0.2317
  536SOL     hw 2142  -0.061   5.339   0.568  0.4302  0.5772  0.7623
  536SOL     hw 2143   0.039   5.442   0.617  1.4885  1.7149 -3.3060
  536SOL     vw 2144   0.021   5.369   0.572  0.7451 -0.0198 -0.5062
  537SOL     ow 2145   4.075   2.907   5.617 -0.0250  0.0778  0.0592
  537SOL     hw 2146   4.038   2.898   5.705 -0.2270  0.3530  0.0046
  537SOL     hw 2147   4.139   2.836   5.610  0.6825  0.6274  0.7772
  537SOL     vw 2148   4.078   2.896   5.627  0.0420  0.1868  0.1469
  538SOL     ow 2149   4.200   2.995   4.410 -0.1306  0.2745 -0.5312
  538SOL     hw 2150   4.194   2.927   4.343  0.1901  0.0127 -0.2934
  538SOL     hw 2151   4.115   2.992   4.454 -0.3638  0.4851 -0.9562
  538SOL     vw 2152   4.188   2.986   4.407 -0.1190  0.2677 -0.5558
  539SOL     ow 2153   1.789   5.395   2.952 -0.0466 -0.2052  0.3584
  539SOL     hw 2154   1.768   5.486   2.934  0.2525 -0.1269  0.4093
  539SOL     hw 2155   1.883   5.388   2.938 -0.0985 -0.5545  0.1503
  539SOL     vw 2156   1.799   5.406   2.948 -0.0139 -0.2408  0.3376
  540SOL     ow 2157   3.052   1.329   0.929 -0.3948  0.4622 -0.4649
  540SOL     hw 2158   3.032   1.245   0.969 -1.1946  1.3706  1.1383
  540SOL     hw 2159   2.971   1.379   0.935  0.6687  2.1568  0.7857
  540SOL     vw 2160   3.039   1.325   0.935 -0.3599  0.8057 -0.0884
  541poe    c31 2161   2.256   4.447   3.787  0.6155  0.3895 -0.1293
  541poe     o2 2162   2.135   4.513   3.818  0.3083  0.0867 -0.6758
  541poe    c23 2163   2.031   4.425   3.780  0.0697  0.0607  0.0274
  541poe    c23 2164   1.887   4.469   3.810  0.0087  0.1105 -0.3406
  541poe     o2 2165   1.861   4.594   3.749  0.5325  0.5341  0.2903
  541poe    c23 2166   1.740   4.645   3.799  0.0618  0.2209 -0.5080
  541poe    c23 2167   1.697   4.773   3.725 -0.4291  0.0364 -0.5476
  541poe     o2 2168   1.815   4.851   3.720 -0.2117 -0.2688 -0.2099
  541poe    c23 2169   1.799   4.983   3.674 -0.2968 -0.2297 -0.0662
  541poe    c23 2170   1.938   5.047   3.654 -0.1194 -0.5527  0.1319
  541poe     o2 2171   2.013   4.952   3.581  0.5362 -0.0215  0.1076
  541poe    c31 2172   2.110   5.003   3.493  0.2266 -0.1830 -0.3328
  542poe    c31 2173   0.120   5.149   4.056  0.0254  0.2336 -0.4628
  542poe     o2 2174   0.117   5.113   3.920  0.3385 -0.2620 -0.3387
  542poe    c23 2175   0.080   4.978   3.899 -0.1649 -0.2163  0.2347
  542poe    c23 2176   0.120   4.926   3.760 -0.6812 -0.0541  0.0227
  542poe     o2 2177   0.040   4.978   3.656 -0.2005  0.2736 -0.1837
  542poe    c23 2178   0.052   4.894   3.543 -0.6156 -0.6852  0.4795
  542poe    c23 2179  -0.041   4.954   3.436  0.3167 -0.2913 -0.1201
  542poe     o2 2180  -0.030   5.095   3.438 -0.2605 -0.2460  0.1518
  542poe    c23 2181  -0.118   5.167   3.355  0.5984  0.0063 -0.5576
  542poe    c23 2182  -0.064   5.310   3.334  0.7245 -0.0310 -0.4854
  542poe     o2 2183  -0.013   5.357   3.456 -0.3690 -0.3896  0.1220
  542poe    c31 2184   0.047   5.484   3.446 -0.4178 -0.3829 -0.0761
  543poe    c31 2185   5.988   5.141   6.067 -0.3257 -0.2349 -0.0333
  543poe     o2 2186   6.110   5.177   6.007 -0.5524  0.5888  0.0004
  543poe    c23 2187   6.106   5.318   6.020 -0.1601  0.5545  0.4945
  543poe    c23 2188   6.247   5.374   6.046  0.3139 -0.5566  0.3627
  543poe     o2 2189   6.326   5.292   5.962  0.3282 -0.3531  0.1776
  543poe    c23 2190   6.454   5.265   6.014  0.4026  0.4120  0.4037
  543poe    c23 2191   6.447   5.124   6.075 -0.7328  0.2348 -0.1254
  543poe     o2 2192   6.378   5.043   5.982 -0.1714 -0.2378 -0.1298
  543poe    c23 2193   6.353   4.913   6.032 -0.3526 -0.0023  0.3975
  543poe    c23 2194   6.255   4.850   5.931  0.4968 -0.5317 -0.1101
  543poe     o2 2195   6.177   4.956   5.881  0.1707 -0.4763  0.4993
  543poe    c31 2196   6.049   4.912   5.841  0.0995  0.1750 -0.0129
  544poe    c31 2197   0.036   4.847   1.748 -0.3158  0.3941 -0.5424
  544poe     o2 2198  -0.057   4.830   1.854 -0.0744  0.1168 -0.3743
  544poe    c23 2199   0.004   4.755   1.956  0.0987  0.0728 -0.5086
  544poe    c23 2200  -0.076   4.771   2.087  0.2671 -0.5618 -0.3233
  544poe     o2 2201  -0.205   4.717   2.090 -0.0598  0.2132 -0.0454
  544poe    c23 2202  -0.268   4.790   2.193 -0.1067 -0.1729  0.2051
  544poe    c23 2203  -0.415   4.757   2.225 -0.2579  0.0237 -0.2791
  544poe     o2 2204  -0.484   4.767   2.102 -0.2941  0.1670 -0.2478
  544poe    c23 2205  -0.622   4.784   2.126 -0.2142  0.7851 -0.2072
  544poe    c23 2206  -0.702   4.760   1.996 -0.5688 -0.0435  0.1552
  544poe     o2 2207  -0.627   4.798   1.883 -0.4208 -0.1571  0.2162
  544poe    c31 2208  -0.712   4.816   1.772  0.0905 -0.0564 -0.1632
  545poe    c31 2209   5.788   4.114   0.679 -0.1006 -0.0998  0.3421
  545poe     o2 2210   5.751   4.006   0.761 -0.1311 -0.2767  0.0967
  545poe    c23 2211   5.836   3.896   0.739 -0.1788 -0.2827 -0.0582
  545poe    c23 2212   5.791   3.785   0.836  0.1323  0.0463  0.4707
  545poe     o2 2213   5.665   3.731   0.803  0.2456  0.1643 -0.1830
  545poe    c23 2214   5.645   3.598   0.845  0.2674  0.3106  0.3073
  545poe    c23 2215   5.499   3.565   0.806  0.3909 -0.2938  0.3386
  545poe     o2 2216   5.416   3.641   0.892  0.1234 -0.1496 -0.0424
  545poe    c23 2217   5.281   3.640   0.854  0.0230 -0.3980  0.3187
  545poe    c23 2218   5.209   3.724   0.961 -0.1722 -0.0802 -0.0636
  545poe     o2 2219   5.266   3.853   0.966 -0.4279  0.0492 -0.3936
  545poe    c31 2220   5.194   3.944   1.046  0.3576  0.0379  0.3488
  546poe    c31 2221   6.705   0.953   1.720  0.4333 -0.5978  0.2486
  546poe     o2 2222   6.607   1.018   1.799 -0.0800 -0.0559 -0.8165
  546poe    c23 2223   6.496   1.034   1.713 -0.2550  0.5923 -0.4746
  546poe    c23 2224   6.386   1.067   1.815 -0.0764  0.0899 -0.1138
  546poe     o2 2225   6.436   1.174   1.892  0.7687 -0.2536 -0.1750
  546poe    c23 2226   6.358   1.175   2.010  0.3619  0.2434 -0.4430
  546poe    c23 2227   6.438   1.272   2.100  0.3901  0.1342 -0.3498
  546poe     o2 2228   6.564   1.209   2.103  0.3964  0.1507 -0.2789
  546poe    c23 2229   6.659   1.258   2.195 -0.1011 -0.2026  0.4330
  546poe    c23 2230   6.763   1.145   2.205 -0.1289 -0.2684 -0.0036
  546poe     o2 2231   6.804   1.127   2.071  0.1649 -0.1065  0.0645
  546poe    c31 2232   6.871   1.003   2.057 -0.4188 -0.4055 -0.0909
  547poe    c31 2233   5.374   4.176   4.784 -0.1935 -0.4398  0.2342
  547poe     o2 2234   5.510   4.206   4.804 -0.2847  0.4451 -0.4064
  547poe    c23 2235   5.584   4.215   4.685 -0.3425  0.0889 -0.4711
  547poe    c23 2236   5.688   4.326   4.713 -0.7795  0.3986 -0.0700
  547poe     o2 2237   5.729   4.330   4.848 -0.0705 -0.0213 -0.2673
  547poe    c23 2238   5.789   4.453   4.884 -0.3776  0.1033 -0.1735
  547poe    c23 2239   5.835   4.453   5.031  0.1141 -0.0126 -0.3243
  547poe     o2 2240   5.713   4.419   5.092  0.2263 -0.3499 -0.2870
  547poe    c23 2241   5.740   4.344   5.209 -0.2952 -0.1635 -0.0408
  547poe    c23 2242   5.628   4.240   5.231 -0.5306  0.0323 -0.3015
  547poe     o2 2243   5.589   4.186   5.107 -0.1827  0.4908 -0.6194
  547poe    c31 2244   5.483   4.094   5.124  0.0576  0.2842 -0.2200
  548poe    c31 2245   3.623   6.673   4.102  0.0137 -0.0696 -0.5448
  548poe     o2 2246   3.756   6.630   4.085  0.0923 -0.1798  0.2994
  548poe    c23 2247   3.769   6.597   3.948  0.1694  0.0500  0.2523
  548poe    c23 2248   3.875   6.492   3.910  0.1687  0.0326  0.2979
  548poe     o2 2249   4.004   6.548   3.909  0.3819 -0.4539  0.2214
  548poe    c23 2250   4.092   6.465   3.836  0.2155 -0.4293 -0.0070
  548poe    c23 2251   4.214   6.551   3.797 -0.0039 -0.0598  0.1119
  548poe     o2 2252   4.237   6.619   3.919  0.4587 -0.1364  0.0684
  548poe    c23 2253   4.341   6.713   3.918 -0.1969  0.5942 -0.2338
  548poe    c23 2254   4.339   6.766   4.062 -0.1243  0.3401 -0.1395
  548poe     o2 2255   4.205   6.805   4.088 -0.1443  0.0932  0.1375
  548poe    c31 2256   4.205   6.890   4.200 -0.1632 -0.3473  0.4760
  549poe    c31 2257   2.872   5.777   1.385  0.1497 -0.2185 -0.0698
  549poe     o2 2258   2.865   5.899   1.315 -0.3916 -0.2446 -0.0682
  549poe    c23 2259   2.838   5.869   1.180 -0.2100 -0.4360 -0.0614
  549poe    c23 2260   2.866   5.996   1.098 -0.7349 -0.4577 -0.2711
  549poe     o2 2261   2.806   6.102   1.170  0.3375 -0.2832  0.3880
  549poe    c23 2262   2.837   6.234   1.132 -0.1102 -0.2799  0.0206
  549poe    c23 2263   2.768   6.331   1.230 -0.0849  0.0925 -0.3287
  549poe     o2 2264   2.801   6.289   1.361 -0.1505  0.4380 -0.2004
  549poe    c23 2265   2.714   6.334   1.462 -0.0158 -0.1780  0.1926
  549poe    c23 2266   2.747   6.250   1.587  0.4044 -0.0741  0.1526
  549poe     o2 2267   2.781   6.121   1.541  0.4052 -0.1358  0.3243
  549poe    c31 2268   2.774   6.029   1.647 -0.2823  0.1609  0.5436
  550poe    c31 2269   1.808   5.329   6.501 -0.1967 -0.4113 -0.2323
  550poe     o2 2270   1.917   5.347   6.587  0.0203 -0.1328 -0.5601
  550poe    c23 2271   1.872   5.432   6.690  0.1787  0.3132 -0.8600
  550poe    c23 2272   1.993   5.490   6.766 -0.4534 -0.2101  0.5835
  550poe     o2 2273   2.074   5.375   6.778 -0.2039 -0.1171 -0.1456
  550poe    c23 2274   2.186   5.382   6.863 -0.6794 -0.3367  0.5107
  550poe    c23 2275   2.259   5.250   6.895  0.0346 -0.0313  0.1811
  550poe     o2 2276   2.296   5.178   6.780 -0.0567  0.3945 -0.1206
  550poe    c23 2277   2.374   5.235   6.677  1.0131 -0.6618  0.0812
  550poe    c23 2278   2.319   5.187   6.542  0.0833 -0.1042  0.2532
  550poe     o2 2279   2.184   5.215   6.512  0.0793 -0.2475  0.1374
  550poe    c31 2280   2.163   5.174   6.378  0.6035 -0.2718  0.0600
  551poe    c31 2281   2.376   5.221   5.765  0.1902  0.0139  0.4074
  551poe     o2 2282   2.456   5.109   5.735 -0.1147 -0.0087 -0.3594
  551poe    c23 2283   2.366   5.006   5.700 -0.0722 -0.0562 -0.3287
  551poe    c23 2284   2.447   4.891   5.639 -0.2092 -0.3520  0.0434
  551poe     o2 2285   2.545   4.836   5.725 -0.2387 -0.2408  0.1466
  551poe    c23 2286   2.628   4.750   5.652 -0.0799  0.1231 -0.1065
  551poe    c23 2287   2.748   4.722   5.745 -0.4354  0.2359  0.3902
  551poe     o2 2288   2.834   4.833   5.759 -0.1254  0.0359  0.0996
  551poe    c23 2289   2.959   4.782   5.799 -0.1780  0.0149  0.2393
  551poe    c23 2290   3.069   4.884   5.765 -0.3545  0.2199  0.2814
  551poe     o2 2291   3.017   5.008   5.804 -0.5185  0.2600 -0.0609
  551poe    c31 2292   3.102   5.119   5.786 -0.4564  0.2259  0.0160
  552poe    c31 2293   0.604   2.592   3.403 -0.0308  0.3504 -0.0855
  552poe     o2 2294   0.485   2.647   3.455 -0.3418 -0.5965  0.2304
  552poe    c23 2295   0.451   2.597   3.582 -0.1138 -0.7118  0.2456
  552poe    c23 2296   0.318   2.667   3.614  0.0897 -0.0709 -0.2898
  552poe     o2 2297   0.344   2.805   3.601  0.3378 -0.0686  0.1897
  552poe    c23 2298   0.242   2.881   3.662  0.2107 -0.3373  0.3128
  552poe    c23 2299   0.295   3.024   3.644 -0.0625 -0.2456  0.2211
  552poe     o2 2300   0.330   3.044   3.509 -0.2574 -0.1876  0.1798
  552poe    c23 2301   0.349   3.183   3.492 -0.2906 -0.1776  0.2234
  552poe    c23 2302   0.397   3.205   3.347 -0.3543 -0.8289  0.0997
  552poe     o2 2303   0.523   3.152   3.312 -0.1354 -0.5443  0.4545
  552poe    c31 2304   0.550   3.191   3.180  0.3834  0.1224  0.7482
  553poe    c31 2305   5.630   5.701   1.159  0.1075  0.0517 -0.3154
  553poe     o2 2306   5.751   5.768   1.187 -0.0951  0.2460  0.1020
  553poe    c23 2307   5.843   5.674   1.237  0.2272  0.4890 -0.0247
  553poe    c23 2308   5.973   5.754   1.253  0.5533 -0.1295  0.4663
  553poe     o2 2309   6.021   5.825   1.141 -0.3533 -0.2562 -0.0076
  553poe    c23 2310   6.073   5.747   1.035  0.2713  0.1816 -0.0252
  553poe    c23 2311   6.140   5.843   0.935 -0.0357 -0.1018 -0.5010
  553poe     o2 2312   6.060   5.955   0.905 -0.0533 -0.0591 -0.2942
  553poe    c23 2313   6.116   6.024   0.795 -0.5135 -0.2065 -0.6272
  553poe    c23 2314   6.056   6.163   0.770  0.5115  0.4516  0.4760
  553poe     o2 2315   6.038   6.241   0.886  0.1099  0.2256  0.5646
  553poe    c31 2316   6.013   6.375   0.852 -0.3737 -0.0071 -0.0161
  554poe    c31 2317   0.849   4.503   0.952 -0.6430 -0.5578 -0.4695
  554poe     o2 2318   0.735   4.565   1.007  0.1335  0.3532  0.1326
  554poe    c23 2319   0.681   4.473   1.099  0.4524 -0.4645 -0.4875
  554poe    c23 2320   0.531   4.494   1.128  0.6326  0.3666 -0.1119
  554poe     o2 2321   0.491   4.610   1.196 -0.1674 -0.0292  0.1001
  554poe    c23 2322   0.351   4.615   1.184 -0.1169 -0.0578 -0.5267
  554poe    c23 2323   0.311   4.740   1.265  0.1214 -0.1491 -0.2665
  554poe     o2 2324   0.382   4.853   1.221  0.3271 -0.2563 -0.2105
  554poe    c23 2325   0.344   4.976   1.278  0.5237 -0.3822  0.1906
  554poe    c23 2326   0.446   5.080   1.227 -0.3318  0.5814  0.4103
  554poe     o2 2327   0.573   5.020   1.235 -0.4695  0.2590  0.2133
  554poe    c31 2328   0.660   5.121   1.188 -0.3244  0.2251  0.4033
  555poe    c31 2329   4.863   5.830   2.019 -0.5821  0.0073 -0.4791
  555poe     o2 2330   4.756   5.917   2.046 -0.2684  0.1077  0.4893
  555poe    c23 2331   4.796   6.052   2.039 -0.2824  0.1313  0.8823
  555poe    c23 2332   4.678   6.149   2.061 -0.6215 -0.0050 -0.2850
  555poe     o2 2333   4.612   6.118   2.182  0.2246  0.1845  0.2366
  555poe    c23 2334   4.480   6.166   2.178 -0.0836 -0.6822 -0.4627
  555poe    c23 2335   4.385   6.116   2.289 -0.6672  0.0313 -0.6300
  555poe     o2 2336   4.415   5.980   2.309 -0.5411  0.1180 -0.2273
  555poe    c23 2337   4.317   5.918   2.390 -0.0435  0.6163  0.7744
  555poe    c23 2338   4.341   5.767   2.409 -0.6470  0.3925 -0.1876
  555poe     o2 2339   4.334   5.691   2.290  0.1214 -0.2352  0.1605
  555poe    c31 2340   4.307   5.557   2.321  0.3064 -0.3047  0.0208
  556poe    c31 2341   2.390   1.681   4.128 -0.1092 -0.1462 -0.1020
  556poe     o2 2342   2.319   1.559   4.126 -0.3561  0.0023 -0.7006
  556poe    c23 2343   2.182   1.591   4.116 -0.4524 -0.2152 -0.1300
  556poe    c23 2344   2.102   1.459   4.113 -0.3328 -0.2797 -0.5282
  556poe     o2 2345   2.173   1.368   4.194 -0.1032 -0.1073 -0.5347
  556poe    c23 2346   2.119   1.238   4.185 -0.1350 -0.1400  0.0841
  556poe    c23 2347   2.206   1.144   4.271  0.2278  0.2032  0.0966
  556poe     o2 2348   2.343   1.178   4.267  0.2244  0.2058 -0.0035
  556poe    c23 2349   2.412   1.114   4.162  0.1594  0.3905 -0.1597
  556poe    c23 2350   2.542   1.196   4.165  0.4625 -0.0798 -0.3241
  556poe     o2 2351   2.517   1.331   4.133 -0.2955 -0.0987  0.1600
  556poe    c31 2352   2.612   1.387   4.045 -0.1150 -0.2939  0.2270
  557poe    c31 2353   4.355   3.507   2.505 -0.2794  0.0481  0.0495
  557poe     o2 2354   4.340   3.532   2.643 -0.6775  0.4805 -0.0717
  557poe    c23 2355   4.220   3.601   2.673 -0.7214  0.5386 -0.3762
  557poe    c23 2356   4.225   3.633   2.824  0.5375 -0.3851 -0.2054
  557poe     o2 2357   4.328   3.714   2.875  0.1865 -0.2598  0.3123
  557poe    c23 2358   4.281   3.790   2.984 -0.0865  0.0995 -0.0531
  557poe    c23 2359   4.401   3.863   3.047  0.0106 -0.0102 -0.1107
  557poe     o2 2360   4.505   3.768   3.056  0.4158  0.4560  0.1900
  557poe    c23 2361   4.628   3.820   3.102  0.7907 -0.0078 -0.2797
  557poe    c23 2362   4.710   3.691   3.121  0.2975 -0.2754  0.0714
  557poe     o2 2363   4.696   3.612   3.005  0.5252  0.2154 -0.2932
  557poe    c31 2364   4.795   3.512   3.005 -0.1749 -0.4813 -0.2070
  558poe    c31 2365   1.532   0.606   0.008  0.0195  0.5398  0.1517
  558poe     o2 2366   1.532   0.658   0.140  0.1995  0.2263  0.2765
  558poe    c23 2367   1.469   0.784   0.136 -0.0836  0.0914  0.4595
  558poe    c23 2368   1.431   0.844   0.272  0.7322 -0.1380  0.7940
  558poe     o2 2369   1.380   0.737   0.349 -0.0224 -0.5023 -0.2002
  558poe    c23 2370   1.321   0.768   0.473  0.2258  0.2908 -0.2715
  558poe    c23 2371   1.219   0.663   0.523  0.3182  0.1898 -0.2938
  558poe     o2 2372   1.287   0.540   0.531 -0.3100 -0.1560 -0.2332
  558poe    c23 2373   1.203   0.436   0.576 -0.1181 -0.1918  0.0432
  558poe    c23 2374   1.293   0.313   0.593 -0.1082 -0.2058 -0.1046
  558poe     o2 2375   1.348   0.273   0.470 -0.0383 -0.0525 -0.1235
  558poe    c31 2376   1.407   0.147   0.492  0.0811 -0.0060 -0.1766
  559poe    c31 2377   5.754   0.702   3.606  0.3785 -0.0774  0.2360
  559poe     o2 2378   5.745   0.571   3.555  0.3264  0.0636 -0.1188
  559poe    c23 2379   5.722   0.477   3.657 -0.4090  0.4189  0.0457
  559poe    c23 2380   5.695   0.336   3.603 -0.2875  0.2154  0.5088
  559poe     o2 2381   5.803   0.293   3.524 -0.2305 -0.2588  0.8401
  559poe    c23 2382   5.791   0.154   3.501  0.3328 -0.1383 -0.2580
  559poe    c23 2383   5.933   0.106   3.466  0.2946 -0.4963  0.0828
  559poe     o2 2384   5.993   0.202   3.383 -0.5534  0.1422  0.1967
  559poe    c23 2385   6.132   0.184   3.364 -0.5208  0.1863  0.3914
  559poe    c23 2386   6.181   0.303   3.280 -0.3029  0.1495  0.4669
  559poe     o2 2387   6.128   0.430   3.307  0.2354  0.4516  0.1304
  559poe    c31 2388   6.217   0.535   3.275 -0.1180  0.6209 -0.3162
  560poe    c31 2389   1.171   5.905   1.619 -0.0630  0.5737 -0.4994
  560poe     o2 2390   1.282   5.823   1.650 -0.4886  0.2917  0.3254
  560poe    c23 2391   1.249   5.701   1.712  0.0685 -0.2326 -0.3855
  560poe    c23 2392   1.377   5.643   1.776 -0.0806 -0.1152  0.0259
  560poe     o2 2393   1.477   5.636   1.677 -0.0826 -0.3394  0.0404
  560poe    c23 2394   1.601   5.600   1.735  0.2174  0.8550  0.1689
  560poe    c23 2395   1.698   5.635   1.621  0.4165  0.0912  0.0974
  560poe     o2 2396   1.666   5.760   1.564  0.0725 -0.1390 -0.2250
  560poe    c23 2397   1.756   5.811   1.468  0.2043 -0.0158 -0.0376
  560poe    c23 2398   1.700   5.940   1.406 -0.1581 -0.4616 -0.6560
  560poe     o2 2399   1.684   6.045   1.499  0.2149 -0.4660 -0.5841
  560poe    c31 2400   1.636   6.160   1.434  0.1869 -0.0577  0.1439
  561poe    c31 2401   1.428   0.961   1.784  0.1714  0.1518 -0.5944
  561poe     o2 2402   1.546   1.009   1.843  0.0857  0.2744 -0.5214
  561poe    c23 2403   1.642   1.012   1.739  0.2792  0.0003 -0.3516
  561poe    c23 2404   1.752   1.107   1.792  0.8698 -0.4668 -0.7312
  561poe     o2 2405   1.783   1.046   1.915 -0.1240 -0.0652 -0.2731
  561poe    c23 2406   1.879   1.115   1.993 -0.3082 -0.1014 -0.0116
  561poe    c23 2407   1.880   1.049   2.132 -0.2183 -0.3958 -0.1517
  561poe     o2 2408   1.746   1.061   2.173 -0.2684 -0.1603 -0.3838
  561poe    c23 2409   1.742   1.043   2.313  0.1035  0.1624 -0.3302
  561poe    c23 2410   1.614   1.096   2.381  0.0601 -0.1557 -0.1635
  561poe     o2 2411   1.587   1.224   2.329 -0.2811 -0.1602  0.0055
  561poe    c31 2412   1.491   1.295   2.405 -0.1758  0.0844 -0.0916
  562poe    c31 2413   1.231   0.958   0.814  0.3311 -0.1082  0.0168
  562poe     o2 2414   1.205   1.071   0.894  0.1578  0.0648 -0.2832
  562poe    c23 2415   1.110   1.043   0.994 -0.2092  0.2016 -0.5895
  562poe    c23 2416   1.121   1.158   1.096  0.2547 -0.2682 -0.1052
  562poe     o2 2417   1.139   1.269   1.011 -0.0133  0.0745  0.2867
  562poe    c23 2418   1.116   1.382   1.092 -0.5108  0.4084 -0.3149
  562poe    c23 2419   1.174   1.495   1.004 -0.4555  0.3571 -0.3440
  562poe     o2 2420   1.295   1.458   0.941 -0.4687  0.1138 -0.2292
  562poe    c23 2421   1.383   1.567   0.923  0.1125 -0.2910  0.1251
  562poe    c23 2422   1.525   1.519   0.890  0.0165 -0.2648 -0.3346
  562poe     o2 2423   1.593   1.453   0.994  0.1852  0.3086 -0.0746
  562poe    c31 2424   1.691   1.522   1.068  0.3106 -0.5780  0.6052
  563poe    c31 2425   2.601   0.089   3.258 -0.1795 -0.3938 -0.4073
  563poe     o2 2426   2.502   0.060   3.354  0.0520  0.3672  0.0711
  563poe    c23 2427   2.541   0.097   3.485 -0.2692 -0.0330  0.2844
  563poe    c23 2428   2.424   0.073   3.582 -0.1212  0.2248  0.5297
  563poe     o2 2429   2.308   0.115   3.514  0.1077  0.3539  0.2163
  563poe    c23 2430   2.189   0.100   3.588 -0.0785 -0.3904 -0.2255
  563poe    c23 2431   2.072   0.159   3.508 -0.4322 -0.7573  0.0182
  563poe     o2 2432   2.072   0.135   3.369  0.0806 -0.3205 -0.0615
  563poe    c23 2433   1.943   0.136   3.310 -0.0160 -0.2459  0.1519
  563poe    c23 2434   1.940   0.079   3.167 -0.7038  0.5007 -0.1392
  563poe     o2 2435   2.028   0.130   3.069 -0.3420  0.6144  0.2418
  563poe    c31 2436   1.998   0.082   2.940  0.5039  0.0578  0.2401
  564poe    c31 2437   0.001   0.789   2.803  0.0280 -0.2234 -0.7300
  564poe     o2 2438  -0.103   0.852   2.875  0.2011 -0.0177 -0.6602
  564poe    c23 2439  -0.208   0.758   2.869  0.1454 -0.0240  0.1902
  564poe    c23 2440  -0.322   0.788   2.968  0.1235  0.5631 -0.0028
  564poe     o2 2441  -0.373   0.915   2.936  0.0667  0.5925  0.2000
  564poe    c23 2442  -0.473   0.953   3.028 -0.3759 -0.2091  0.0545
  564poe    c23 2443  -0.500   1.104   3.041 -0.6441 -0.2474 -0.0469
  564poe     o2 2444  -0.494   1.163   2.913  0.0908 -0.0619  0.0670
  564poe    c23 2445  -0.473   1.302   2.907  0.3668 -0.1115 -0.1368
  564poe    c23 2446  -0.482   1.332   2.757 -0.2819  0.0172 -0.0729
  564poe     o2 2447  -0.441   1.218   2.685  0.0286 -0.0629  0.2313
  564poe    c31 2448  -0.415   1.251   2.550  0.2370 -0.5167  0.1574
  565poe    c31 2449   2.713   5.832   5.934 -0.5344  0.5112  0.0487
  565poe     o2 2450   2.846   5.845   5.889 -0.3579 -0.1456  0.3803
  565poe    c23 2451   2.854   5.947   5.793  0.1562 -0.6769 -0.1527
  565poe    c23 2452   2.970   5.915   5.697  0.4027  0.0954 -0.1271
  565poe     o2 2453   3.077   5.879   5.783  0.1636 -0.0215  0.1246
  565poe    c23 2454   3.196   5.839   5.718  0.0230  0.4514 -0.4390
  565poe    c23 2455   3.305   5.830   5.826 -0.1382 -0.3779 -0.3336
  565poe     o2 2456   3.248   5.739   5.917 -0.1115  0.2022  0.2770
  565poe    c23 2457   3.302   5.746   6.047  0.6544  0.0446 -0.0259
  565poe    c23 2458   3.182   5.726   6.142  0.2285 -0.3135 -0.6299
  565poe     o2 2459   3.073   5.809   6.111  0.1491 -0.3115 -0.3509
  565poe    c31 2460   2.986   5.830   6.220  0.3650  0.2649 -0.2849
  566poe    c31 2461   4.045   2.759   4.189 -0.1796 -0.1888  0.1639
  566poe     o2 2462   4.164   2.832   4.202 -0.5176  0.3653  0.1718
  566poe    c23 2463   4.216   2.853   4.073 -0.2516 -0.3881  0.1505
  566poe    c23 2464   4.345   2.936   4.058 -0.3520 -0.1925  0.3657
  566poe     o2 2465   4.328   3.063   4.118 -0.4530 -0.1623  0.2755
  566poe    c23 2466   4.426   3.162   4.096 -0.1698 -0.4852  0.0614
  566poe    c23 2467   4.391   3.305   4.143  0.1153 -0.5382  0.4299
  566poe     o2 2468   4.374   3.310   4.283 -0.0747 -0.3718  0.4012
  566poe    c23 2469   4.320   3.432   4.328  0.0222  0.0148 -0.5133
  566poe    c23 2470   4.288   3.401   4.475 -0.4103 -0.1172 -0.6327
  566poe     o2 2471   4.225   3.275   4.482  0.2790 -0.4220  0.3872
  566poe    c31 2472   4.163   3.281   4.608  0.6210  0.2193  0.5286
  567poe    c31 2473   6.176   6.325   6.689  0.0939 -0.2612 -0.3079
  567poe     o2 2474   6.304   6.360   6.642  0.0317  0.0287 -0.2649
  567poe    c23 2475   6.374   6.423   6.747  0.1180 -0.2124 -0.1782
  567poe    c23 2476   6.509   6.474   6.695  0.3180 -0.3158  0.2341
  567poe     o2 2477   6.598   6.381   6.636  0.0656 -0.1790 -0.3690
  567poe    c23 2478   6.660   6.281   6.713  0.2993  0.0664 -0.2380
  567poe    c23 2479   6.761   6.212   6.620  0.1636 -0.4720  0.0080
  567poe     o2 2480   6.688   6.174   6.505  0.0319  0.2755 -0.1614
  567poe    c23 2481   6.756   6.085   6.419  0.3367  0.6632 -0.3273
  567poe    c23 2482   6.677   6.092   6.286  0.1179 -0.4520 -0.2648
  567poe     o2 2483   6.645   6.228   6.269  0.2321 -0.3212  0.4883
  567poe    c31 2484   6.597   6.240   6.137 -0.3294  0.1449  0.7312
  568poe    c31 2485   1.326   5.836   6.374  0.1309  0.4219 -0.7539
  568poe     o2 2486   1.227   5.915   6.434 -0.0796 -0.2299 -0.2375
  568poe    c23 2487   1.109   5.837   6.441 -0.0978 -0.2168 -0.4008
  568poe    c23 2488   0.990   5.934   6.449  0.2339  0.1434  0.3078
  568poe     o2 2489   0.994   6.021   6.560  0.0321  0.1168  0.3357
  568poe    c23 2490   0.900   6.126   6.546 -0.0038 -0.0095 -0.4653
  568poe    c23 2491   0.910   6.221   6.667  0.2276 -0.1571 -0.3656
  568poe     o2 2492   1.042   6.266   6.683  0.2158 -0.2647  0.0364
  568poe    c23 2493   1.058   6.334   6.806 -0.8551  0.3543 -0.1532
  568poe    c23 2494   1.203   6.385   6.802 -0.8078  0.1979 -0.4591
  568poe     o2 2495   1.284   6.279   6.753 -0.4288 -0.0784  0.7291
  568poe    c31 2496   1.417   6.317   6.777 -0.2904 -0.1563  0.0832
  569poe    c31 2497   6.590   0.349   2.223 -0.0283  0.1923 -0.1718
  569poe     o2 2498   6.594   0.384   2.087  0.2375  0.7150 -0.0291
  569poe    c23 2499   6.523   0.300   1.999  0.6631  0.6103 -0.2749
  569poe    c23 2500   6.490   0.380   1.872 -0.9727 -0.0257 -0.2677
  569poe     o2 2501   6.612   0.442   1.839 -0.5963 -0.7107 -0.1883
  569poe    c23 2502   6.633   0.507   1.715 -0.0285 -0.3330  0.1044
  569poe    c23 2503   6.787   0.505   1.705  0.0068 -0.4801  0.6493
  569poe     o2 2504   6.849   0.572   1.813 -0.5863 -0.0333  0.7186
  569poe    c23 2505   6.985   0.547   1.836 -0.4361 -0.0133 -0.1409
  569poe    c23 2506   7.001   0.564   1.988 -0.6110  0.6694 -0.1967
  569poe     o2 2507   6.903   0.477   2.042  0.1440 -0.1013 -0.0537
  569poe    c31 2508   6.957   0.439   2.166 -0.3619 -0.8429 -0.0552
  570poe    c31 2509   1.737   4.316   2.059 -0.2810  0.5963 -0.0492
  570poe     o2 2510   1.849   4.232   2.075 -0.3517  0.5677  0.3163
  570poe    c23 2511   1.950   4.312   2.016 -0.2316  0.5067  0.4395
  570poe    c23 2512   2.080   4.257   2.075  0.0392  0.1699 -0.4582
  570poe     o2 2513   2.088   4.116   2.075  0.4736  0.1921 -0.5287
  570poe    c23 2514   2.214   4.082   2.129  0.3505  0.3990 -0.1121
  570poe    c23 2515   2.230   3.930   2.111 -0.1016  0.3559 -0.1745
  570poe     o2 2516   2.102   3.877   2.134  0.1475  0.0821  0.6393
  570poe    c23 2517   2.102   3.736   2.136 -0.0110  0.0747  0.3480
  570poe    c23 2518   1.958   3.691   2.165 -0.0084  0.0309  0.2930
  570poe     o2 2519   1.869   3.784   2.108 -0.0079  0.0892  0.3856
  570poe    c31 2520   1.739   3.746   2.148 -0.1208  0.3339  0.2551
  571poe    c31 2521   5.008   5.085   4.317 -0.2911  0.2412 -0.0873
  571poe     o2 2522   5.112   5.129   4.234 -0.3916  0.4540 -0.1023
  571poe    c23 2523   5.085   5.078   4.105  0.3375  0.0314 -0.0943
  571poe    c23 2524   5.196   5.118   4.006 -0.3067  0.1179 -0.7924
  571poe     o2 2525   5.317   5.074   4.064  0.0173  0.7026 -1.0067
  571poe    c23 2526   5.428   5.106   3.984  0.5125  0.6195 -0.3658
  571poe    c23 2527   5.551   5.073   4.070  0.2029  0.0853 -0.1220
  571poe     o2 2528   5.538   5.131   4.198  0.4931  1.0919 -0.5421
  571poe    c23 2529   5.646   5.085   4.276 -0.3028 -0.1046 -0.1338
  571poe    c23 2530   5.649   5.142   4.418 -0.1730 -0.1959 -0.0993
  571poe     o2 2531   5.534   5.090   4.482 -0.3010  0.2062  0.0060
  571poe    c31 2532   5.507   5.148   4.607 -0.6816 -0.3795  0.1992
  572poe    c31 2533   3.331   3.650   4.429 -0.2194 -0.2827  0.3313
  572poe     o2 2534   3.364   3.551   4.524 -0.4506 -0.4049  0.2874
  572poe    c23 2535   3.402   3.429   4.466 -0.1833 -0.0753 -0.2454
  572poe    c23 2536   3.497   3.372   4.573 -0.4167 -0.0803 -0.0402
  572poe     o2 2537   3.424   3.394   4.691 -0.2846 -0.7744  0.1753
  572poe    c23 2538   3.452   3.298   4.790 -0.2037 -0.7857  0.1409
  572poe    c23 2539   3.356   3.311   4.909 -0.2247 -0.6570  0.1102
  572poe     o2 2540   3.329   3.447   4.930  0.2639 -0.5798  0.2582
  572poe    c23 2541   3.333   3.459   5.070  0.9904 -0.1625  0.2067
  572poe    c23 2542   3.305   3.606   5.106 -0.2836 -0.2060 -0.5664
  572poe     o2 2543   3.385   3.702   5.041 -0.2063  0.1344  0.0229
  572poe    c31 2544   3.364   3.833   5.090 -0.5384  0.2084 -0.3048
  573poe    c31 2545   6.329   0.280   0.555  0.6050 -0.5448 -0.1731
  573poe     o2 2546   6.266   0.160   0.594 -0.2258  0.0576  0.3637
  573poe    c23 2547   6.260   0.074   0.483  0.6486  0.3237  0.1051
  573poe    c23 2548   6.154  -0.035   0.509  0.1725  0.7058 -0.2227
  573poe     o2 2549   6.025   0.021   0.502 -0.1342  0.0345  0.0439
  573poe    c23 2550   5.926  -0.075   0.532  0.0761 -0.0893  0.3470
  573poe    c23 2551   5.792  -0.007   0.501  0.1230 -0.1449  0.0165
  573poe     o2 2552   5.774   0.112   0.574 -0.2560 -0.6530  0.7600
  573poe    c23 2553   5.663   0.190   0.535  0.0544 -0.2693  0.6357
  573poe    c23 2554   5.669   0.315   0.625 -0.0836 -0.1537  0.4824
  573poe     o2 2555   5.808   0.336   0.635 -0.0001 -0.1144 -0.6254
  573poe    c31 2556   5.818   0.469   0.682  0.8128 -0.3925  0.0032
  574poe    c31 2557   2.527   1.340   5.180 -0.2702  0.1509  0.4153
  574poe     o2 2558   2.412   1.409   5.138  0.2203  0.4502 -0.4622
  574poe    c23 2559   2.392   1.533   5.202 -0.5092  0.1228 -0.0444
  574poe    c23 2560   2.254   1.582   5.153 -0.8208 -0.3280  0.3643
  574poe     o2 2561   2.215   1.534   5.026  0.1803 -0.2087  0.0015
  574poe    c23 2562   2.098   1.608   4.999 -0.2734 -0.7952  0.3402
  574poe    c23 2563   2.015   1.556   4.880  0.2194 -0.4657 -0.1502
  574poe     o2 2564   1.987   1.419   4.897 -0.0974 -0.3957 -0.0984
  574poe    c23 2565   1.916   1.369   4.786  0.2386 -0.7651 -0.1520
  574poe    c23 2566   1.904   1.216   4.783  0.4011 -0.7716 -0.4302
  574poe     o2 2567   1.863   1.158   4.905 -0.3775  0.3387 -0.1570
  574poe    c31 2568   1.771   1.052   4.890 -0.0067 -0.0408  0.2365
  575poe    c31 2569   2.685   0.875   6.165 -0.1904 -0.2167  0.2068
  575poe     o2 2570   2.724   0.769   6.249  0.6853 -0.1066 -0.0467
  575poe    c23 2571   2.720   0.806   6.385 -0.0443 -0.3777  0.0115
  575poe    c23 2572   2.760   0.689   6.476 -0.2276 -0.3727  0.0990
  575poe     o2 2573   2.857   0.620   6.400 -0.1890 -0.1969 -0.0125
  575poe    c23 2574   2.883   0.494   6.458  0.0659 -0.0646  0.1602
  575poe    c23 2575   2.994   0.437   6.369  0.3335  0.1938  0.3268
  575poe     o2 2576   2.973   0.471   6.233  0.2339  0.5696  0.4349
  575poe    c23 2577   3.063   0.393   6.158 -0.4271 -0.0771  0.2942
  575poe    c23 2578   3.021   0.355   6.015 -0.0841  0.4024  0.0624
  575poe     o2 2579   3.004   0.475   5.942  0.0160  0.3891  0.0180
  575poe    c31 2580   2.978   0.447   5.806 -0.2265 -0.0252  0.1471
  576poe    c31 2581   5.794   0.061   2.470  0.3126 -0.4155 -0.3400
  576poe     o2 2582   5.895   0.159   2.470 -0.5202  0.4553  0.5694
  576poe    c23 2583   5.999   0.133   2.561  0.3335  0.6313 -0.3450
  576poe    c23 2584   6.131   0.208   2.535  0.4720  0.3360 -0.5065
  576poe     o2 2585   6.098   0.337   2.487 -0.3257  0.4229  0.2565
  576poe    c23 2586   6.201   0.385   2.404 -0.6871  0.2158 -0.3200
  576poe    c23 2587   6.134   0.492   2.316 -0.5541  0.1410 -0.5131
  576poe     o2 2588   6.016   0.427   2.274 -0.3908 -0.5204  0.0269
  576poe    c23 2589   5.928   0.487   2.182  0.1051 -0.2543 -0.2799
  576poe    c23 2590   5.829   0.390   2.113 -0.4125  0.1620 -0.1229
  576poe     o2 2591   5.784   0.320   2.227  0.1155 -0.0199 -0.0234
  576poe    c31 2592   5.668   0.244   2.198 -0.1744  0.3968  0.0339
  577poe    c31 2593   2.174   6.120   6.722  0.6127 -0.2557 -0.0577
  577poe     o2 2594   2.206   6.026   6.822  0.2273 -0.2512  0.0727
  577poe    c23 2595   2.094   5.958   6.874  0.0863  0.0415  0.1529
  577poe    c23 2596   2.139   5.844   6.967  0.4976  0.6076  0.6568
  577poe     o2 2597   2.254   5.787   6.909 -0.2470 -0.2368 -0.0318
  577poe    c23 2598   2.325   5.709   7.003 -0.0281 -0.0185 -0.0134
  577poe    c23 2599   2.477   5.714   6.981  0.0305  0.1737  0.4216
  577poe     o2 2600   2.504   5.845   6.937 -0.0023  0.1122  0.2184
  577poe    c23 2601   2.631   5.882   6.889 -0.0363 -0.1975 -0.1153
  577poe    c23 2602   2.633   6.031   6.850  0.0124 -0.2159 -0.1830
  577poe     o2 2603   2.519   6.070   6.776  0.0493  0.4564  0.1022
  577poe    c31 2604   2.554   6.176   6.690  0.6579 -0.1447 -0.4100
  578poe    c31 2605   4.672   6.436   3.515 -0.4486  0.0766  0.3935
  578poe     o2 2606   4.757   6.408   3.624 -0.4212 -0.1501  0.3155
  578poe    c23 2607   4.840   6.520   3.645 -0.2611 -0.2550  0.2394
  578poe    c23 2608   4.898   6.487   3.783 -0.1262  0.3370  0.3285
  578poe     o2 2609   4.814   6.396   3.851  0.1726 -0.2177 -0.0291
  578poe    c23 2610   4.881   6.365   3.971 -0.3217  0.4324  0.4237
  578poe    c23 2611   4.786   6.273   4.050 -0.5260  0.1962 -0.0945
  578poe     o2 2612   4.701   6.208   3.958 -0.6357  0.1697  0.0240
  578poe    c23 2613   4.621   6.112   4.024  0.3389 -0.4773  0.2758
  578poe    c23 2614   4.602   5.984   3.940 -0.9970 -0.1741  0.1007
  578poe     o2 2615   4.523   6.008   3.825 -0.7213 -0.5687 -0.1735
  578poe    c31 2616   4.503   5.887   3.756 -0.3928 -0.7491  0.0422
  579poe    c31 2617   2.686   1.627   3.405 -0.0404  0.1907  0.0229
  579poe     o2 2618   2.665   1.494   3.447 -0.2330  0.1951 -0.0593
  579poe    c23 2619   2.751   1.464   3.554  0.0472 -0.4278 -0.4494
  579poe    c23 2620   2.713   1.340   3.637 -1.2781  0.0313 -0.3560
  579poe     o2 2621   2.709   1.220   3.563  0.2811 -0.1689 -0.1353
  579poe    c23 2622   2.664   1.110   3.640 -0.2814 -0.0174 -0.2447
  579poe    c23 2623   2.646   0.984   3.554  0.2447 -0.1978 -0.0961
  579poe     o2 2624   2.592   1.020   3.429 -0.1477  0.3892  0.2358
  579poe    c23 2625   2.574   0.907   3.348 -0.1645  0.0744  0.6771
  579poe    c23 2626   2.496   0.944   3.220  0.0168 -0.0673  0.5241
  579poe     o2 2627   2.548   1.067   3.176  0.5195 -0.4239  0.1164
  579poe    c31 2628   2.500   1.098   3.047  0.0378  0.2713  0.4592
  580poe    c31 2629   0.490   2.519   5.944  0.2034  0.4074 -0.6754
  580poe     o2 2630   0.401   2.609   5.883 -0.1547  0.6768  0.2174
  580poe    c23 2631   0.478   2.681   5.789  0.0791 -0.1178 -0.2131
  580poe    c23 2632   0.400   2.780   5.700 -0.0355 -0.0263 -0.0110
  580poe     o2 2633   0.354   2.891   5.774 -0.2769  0.2284 -0.5410
  580poe    c23 2634   0.268   2.980   5.706 -1.2341 -0.4082 -0.1749
  580poe    c23 2635   0.270   3.116   5.779  0.4794 -0.2091 -0.5591
  580poe     o2 2636   0.234   3.080   5.911  0.1262  0.0251 -0.5888
  580poe    c23 2637   0.194   3.198   5.975 -0.1064 -0.2578 -0.2092
  580poe    c23 2638   0.186   3.168   6.126 -0.1285 -0.3484 -0.2278
  580poe     o2 2639   0.306   3.098   6.152  0.1048  0.1796  0.1311
  580poe    c31 2640   0.315   3.070   6.290 -0.1270 -0.0875  0.0932
  581poe    c31 2641   1.548   5.217   1.790  0.3073 -0.0590  0.1167
  581poe     o2 2642   1.498   5.117   1.704 -0.2715  0.5237 -0.2291
  581poe    c23 2643   1.376   5.064   1.750  0.1842 -0.0957  0.2821
  581poe    c23 2644   1.343   4.958   1.644 -0.4541 -0.1520  0.5306
  581poe     o2 2645   1.297   5.016   1.524 -0.1445 -0.7669  0.1094
  581poe    c23 2646   1.232   4.926   1.436 -0.2765 -0.2879 -0.2821
  581poe    c23 2647   1.142   5.001   1.335 -0.1035 -0.5870 -0.6608
  581poe     o2 2648   1.241   5.084   1.281  0.0179  0.1013  0.5767
  581poe    c23 2649   1.176   5.169   1.188  0.1449  0.2677  0.6381
  581poe    c23 2650   1.285   5.271   1.153  0.5288 -0.2545  0.3088
  581poe     o2 2651   1.355   5.307   1.270  0.4376  0.1636  0.2353
  581poe    c31 2652   1.454   5.404   1.242  0.6445 -0.1686 -0.1895
  582poe    c31 2653   4.463   1.013   2.496  0.4609 -0.1963 -0.2361
  582poe     o2 2654   4.357   0.996   2.404 -0.0134 -0.2004  0.3078
  582poe    c23 2655   4.230   1.042   2.445 -0.0602 -0.4063  0.3960
  582poe    c23 2656   4.116   0.964   2.375  0.0496 -0.1804 -0.0401
  582poe     o2 2657   4.118   0.961   2.235  0.2259  0.2451 -0.0483
  582poe    c23 2658   3.997   0.900   2.197 -0.1049  1.0374 -0.2999
  582poe    c23 2659   4.015   0.836   2.058  0.5273  0.3470  0.0921
  582poe     o2 2660   4.076   0.940   1.984  0.8579  0.2071  0.1628
  582poe    c23 2661   4.121   0.888   1.861 -0.0476 -0.4152  0.0825
  582poe    c23 2662   4.200   1.003   1.796 -0.2476 -0.3228  0.0024
  582poe     o2 2663   4.272   1.069   1.897 -0.5944 -0.0938  0.1009
  582poe    c31 2664   4.313   1.187   1.831  0.5044 -0.2244  0.5350
  583poe    c31 2665   6.308   6.122   3.041 -0.5438  0.4009  0.2246
  583poe     o2 2666   6.362   6.102   2.913 -0.3378 -0.9870  0.5164
  583poe    c23 2667   6.265   6.049   2.824 -0.2866 -0.1464 -0.0593
  583poe    c23 2668   6.322   6.010   2.687 -0.1858  0.1685 -0.1081
  583poe     o2 2669   6.376   6.126   2.628  0.0384  0.1541  0.0715
  583poe    c23 2670   6.479   6.096   2.537  0.0332  0.0634  0.0955
  583poe    c23 2671   6.578   6.213   2.550  0.2012 -0.0318 -0.3001
  583poe     o2 2672   6.620   6.193   2.683  0.0558  0.0536 -0.2413
  583poe    c23 2673   6.704   6.302   2.711 -0.0185 -0.0065  0.2238
  583poe    c23 2674   6.737   6.293   2.861 -0.2243 -0.1724  0.2599
  583poe     o2 2675   6.615   6.285   2.931 -0.3318 -0.5267  0.0336
  583poe    c31 2676   6.632   6.275   3.071  0.1235  0.2062  0.0395
  584poe    c31 2677   0.001   5.697   6.101 -0.7962  0.3781 -0.1333
  584poe     o2 2678   0.002   5.699   5.960  0.0587 -0.1331 -0.1416
  584poe    c23 2679  -0.130   5.694   5.912  0.0002  0.0038  0.0062
  584poe    c23 2680  -0.123   5.713   5.760  0.8365 -0.2372  0.0125
  584poe     o2 2681  -0.009   5.637   5.724  1.0050 -0.1392  0.3425
  584poe    c23 2682   0.030   5.663   5.592 -0.7730  0.0138 -0.1790
  584poe    c23 2683   0.152   5.571   5.568 -0.2441  0.5856  0.2826
  584poe     o2 2684   0.235   5.574   5.682 -0.0301 -0.5095  0.1604
  584poe    c23 2685   0.347   5.489   5.668  0.3763  0.0389  0.0690
  584poe    c23 2686   0.337   5.338   5.697 -0.0419 -0.0383 -0.4574
  584poe     o2 2687   0.327   5.307   5.834  0.2877 -0.0121 -0.4270
  584poe    c31 2688   0.321   5.171   5.870 -0.0990  0.1637  0.1807
  585poe    c31 2689   2.536   3.191   6.508  0.2936  0.2880 -0.2338
  585poe     o2 2690   2.619   3.276   6.583  0.4885 -0.3628  0.2902
  585poe    c23 2691   2.707   3.345   6.498 -0.1563  0.3594  0.2025
  585poe    c23 2692   2.821   3.414   6.576 -0.0156  0.1224  0.2065
  585poe     o2 2693   2.789   3.503   6.681 -0.2366 -0.2831  0.4882
  585poe    c23 2694   2.895   3.506   6.773  0.0311 -0.2419  0.1770
  585poe    c23 2695   2.879   3.627   6.867 -0.1057  0.1351 -0.3278
  585poe     o2 2696   2.743   3.631   6.906 -0.0646  0.3698 -0.2067
  585poe    c23 2697   2.694   3.744   6.974 -0.0633 -0.0453  0.4918
  585poe    c23 2698   2.553   3.707   7.026 -0.4131  0.2654 -0.2225
  585poe     o2 2699   2.492   3.604   6.952 -0.1747  0.0647 -0.1428
  585poe    c31 2700   2.355   3.590   6.982 -0.2729  0.4298 -0.4078
  586poe    c31 2701   1.383   0.183   5.084 -0.1303 -0.5170 -0.4527
  586poe     o2 2702   1.271   0.099   5.099 -0.4527 -0.0108  0.0441
  586poe    c23 2703   1.238   0.038   4.976 -0.2653  0.5573 -0.2876
  586poe    c23 2704   1.108  -0.042   4.998  0.1160 -0.0909 -0.3725
  586poe     o2 2705   1.117  -0.112   5.120  0.0597 -0.1428 -0.3986
  586poe    c23 2706   0.990  -0.118   5.181  0.3230 -0.2880  0.1457
  586poe    c23 2707   1.001  -0.163   5.328 -0.4767 -0.0887  0.2750
  586poe     o2 2708   1.096  -0.092   5.405 -0.2018  0.0031 -0.1424
  586poe    c23 2709   1.068  -0.116   5.541  0.0138  0.0142 -0.0964
  586poe    c23 2710   1.152  -0.017   5.624 -0.1032  0.3505 -0.3769
  586poe     o2 2711   1.289  -0.035   5.599  0.0176  0.9262 -0.1515
  586poe    c31 2712   1.361   0.054   5.681 -0.1379  0.7595  0.1676
  587poe    c31 2713   1.777   5.898   0.868  0.3623  0.3172 -0.2606
  587poe     o2 2714   1.764   5.937   0.733 -0.2822  0.5652 -0.1322
  587poe    c23 2715   1.888   5.989   0.691 -0.0747 -0.0340 -0.2758
  587poe    c23 2716   1.883   6.003   0.537 -0.5891 -0.7358 -0.3293
  587poe     o2 2717   1.776   6.092   0.515 -0.2469 -0.1382  0.3568
  587poe    c23 2718   1.745   6.097   0.377  0.1997  0.0417  0.2594
  587poe    c23 2719   1.591   6.099   0.378  0.1927 -0.3799  0.0594
  587poe     o2 2720   1.553   6.001   0.472  0.0380 -0.4956 -0.1224
  587poe    c23 2721   1.413   5.985   0.471 -0.0487  0.2470 -0.3132
  587poe    c23 2722   1.394   5.857   0.555  0.7009  0.0311 -0.4665
  587poe     o2 2723   1.499   5.841   0.647  0.1256 -0.5533  0.0967
  587poe    c31 2724   1.467   5.748   0.749 -0.1215  0.0368  0.5605
  588poe    c31 2725   4.986   2.637   5.665 -0.4497 -0.0288 -0.5882
  588poe     o2 2726   4.997   2.554   5.552  0.3254 -0.8542  0.0744
  588poe    c23 2727   4.907   2.603   5.455  0.7583  0.0376  0.1088
  588poe    c23 2728   4.922   2.520   5.327 -0.0577 -0.1529  0.1291
  588poe     o2 2729   5.061   2.501   5.309 -0.0870 -0.5074  0.2720
  588poe    c23 2730   5.096   2.417   5.202  0.5527 -0.3281  0.3380
  588poe    c23 2731   5.248   2.432   5.179  0.4317 -0.0639 -0.3173
  588poe     o2 2732   5.319   2.400   5.296  0.0587 -0.4584 -0.1963
  588poe    c23 2733   5.458   2.400   5.275  0.0781  0.0095 -0.0832
  588poe    c23 2734   5.522   2.369   5.411 -0.6035 -0.3738  0.1521
  588poe     o2 2735   5.504   2.468   5.510  0.4128  0.0922 -0.1207
  588poe    c31 2736   5.551   2.447   5.641 -0.6607  0.0586  0.2724
  589poe    c31 2737   2.586   5.621   5.067  0.5879 -0.5318  0.5196
  589poe     o2 2738   2.565   5.504   4.990  0.3668 -0.1275 -0.0441
  589poe    c23 2739   2.655   5.407   5.038 -0.0466 -0.3547  0.2789
  589poe    c23 2740   2.611   5.284   4.957  0.0835 -0.3646  0.2239
  589poe     o2 2741   2.578   5.317   4.824  0.3108  0.0641  0.2721
  589poe    c23 2742   2.558   5.210   4.735 -0.1949 -0.0272  0.4954
  589poe    c23 2743   2.534   5.289   4.605 -0.4487 -0.7606  0.0878
  589poe     o2 2744   2.434   5.384   4.638 -0.2897 -0.4496 -0.3171
  589poe    c23 2745   2.434   5.483   4.537  0.4532 -0.4066 -0.2828
  589poe    c23 2746   2.521   5.602   4.582  0.1000 -0.2802  0.0672
  589poe     o2 2747   2.487   5.628   4.717 -0.4972 -0.1787 -0.0996
  589poe    c31 2748   2.471   5.766   4.743 -0.2204 -0.2253  0.3161
  590poe    c31 2749   0.294   6.715   4.726 -0.3125  0.7534 -0.4844
  590poe     o2 2750   0.411   6.783   4.684  0.2220  0.0276 -0.1972
  590poe    c23 2751   0.454   6.728   4.562  0.1231 -0.3205 -0.0776
  590poe    c23 2752   0.606   6.748   4.547  0.2026 -0.6615  0.2573
  590poe     o2 2753   0.620   6.886   4.572  0.1795 -0.4969 -0.6048
  590poe    c23 2754   0.754   6.915   4.603 -0.0109  0.1278 -0.3437
  590poe    c23 2755   0.747   7.052   4.672  0.5607  0.1352 -0.2919
  590poe     o2 2756   0.642   7.067   4.764  0.4580 -0.1549 -0.3620
  590poe    c23 2757   0.660   6.997   4.885  0.2984  0.7202  0.1759
  590poe    c23 2758   0.530   7.022   4.964 -0.2099  0.0917 -0.4584
  590poe     o2 2759   0.427   6.950   4.898  0.0060 -0.5991 -0.0483
  590poe    c31 2760   0.309   6.952   4.975  0.1175 -0.4645  0.1221
  591poe    c31 2761   5.940   2.977   5.805  0.2319  0.1267 -0.1236
  591poe     o2 2762   6.075   2.940   5.822  0.0956 -0.3617 -0.0917
  591poe    c23 2763   6.089   2.812   5.878 -0.0182 -0.5188 -0.4180
  591poe    c23 2764   6.231   2.780   5.928  0.1781 -0.2297 -0.7916
  591poe     o2 2765   6.325   2.847   5.848  0.3414  0.4558 -0.0367
  591poe    c23 2766   6.457   2.799   5.863  0.1226 -0.2894 -0.4248
  591poe    c23 2767   6.531   2.864   5.744 -0.4783  0.2814 -0.4961
  591poe     o2 2768   6.501   3.001   5.742 -0.4183  0.3015 -0.0184
  591poe    c23 2769   6.521   3.074   5.623 -0.3069 -0.3492 -0.4015
  591poe    c23 2770   6.419   3.187   5.600 -0.2671 -0.1596  0.3229
  591poe     o2 2771   6.290   3.154   5.647 -0.4915  0.1297 -0.0774
  591poe    c31 2772   6.218   3.275   5.639  0.2557  0.5769 -0.1923
  592poe    c31 2773   4.808   2.553   6.008  0.2946 -0.2495 -0.5947
  592poe     o2 2774   4.947   2.534   6.006  0.3479 -0.0394  0.4005
  592poe    c23 2775   4.982   2.399   6.024  0.0787 -0.2184 -0.3729
  592poe    c23 2776   5.132   2.366   6.011  0.1387 -0.1375  0.0825
  592poe     o2 2777   5.216   2.464   6.069  0.0793  0.2036 -0.3978
  592poe    c23 2778   5.351   2.462   6.029  0.1939 -0.0188  0.0015
  592poe    c23 2779   5.438   2.509   6.148 -0.1828 -0.1371  0.3248
  592poe     o2 2780   5.392   2.640   6.174  0.1929  0.1085 -0.2233
  592poe    c23 2781   5.457   2.697   6.285  0.0293 -0.0588 -0.0403
  592poe    c23 2782   5.387   2.832   6.305  0.2031 -0.0034  0.2020
  592poe     o2 2783   5.248   2.817   6.287  0.1224  0.6452  0.2455
  592poe    c31 2784   5.190   2.928   6.351 -0.1345  0.1994  0.8049
  593poe    c31 2785   2.771   3.979   0.660  0.1841 -0.0957  0.0811
  593poe     o2 2786   2.862   3.979   0.553 -0.4621 -0.2827 -0.4782
  593poe    c23 2787   2.961   3.879   0.558  0.2624  0.4506  0.1905
  593poe    c23 2788   3.054   3.887   0.435 -0.1051  0.1410 -0.1081
  593poe     o2 2789   3.091   4.023   0.428  0.1160  0.0596 -0.6187
  593poe    c23 2790   3.185   4.062   0.331  0.2142 -0.0689 -0.5757
  593poe    c23 2791   3.197   4.213   0.355  0.0015 -0.1546  0.0889
  593poe     o2 2792   3.065   4.262   0.361  0.0713  0.0612 -0.1206
  593poe    c23 2793   3.085   4.401   0.342  0.2909  0.0438 -0.0220
  593poe    c23 2794   2.963   4.494   0.360  0.7301  0.6095  0.0467
  593poe     o2 2795   2.926   4.496   0.495 -0.7648  0.0162 -0.3311
  593poe    c31 2796   2.801   4.560   0.509 -0.5665  0.4170 -0.3534
  594poe    c31 2797   5.271   2.072   6.739  0.0198 -0.5856 -0.3307
  594poe     o2 2798   5.408   2.052   6.763 -0.0406 -0.4536  0.1545
  594poe    c23 2799   5.463   2.136   6.862  0.2093 -0.0849 -0.2897
  594poe    c23 2800   5.613   2.162   6.843  0.0997  0.1723 -0.8274
  594poe     o2 2801   5.687   2.050   6.886  0.0207  0.3692 -0.1655
  594poe    c23 2802   5.825   2.067   6.868  0.1147  0.1506  0.3057
  594poe    c23 2803   5.889   1.949   6.943 -0.2135 -0.4776 -0.3882
  594poe     o2 2804   5.825   1.830   6.904 -0.0302 -0.7571  0.1499
  594poe    c23 2805   5.890   1.714   6.950  0.8537 -0.4258 -0.2523
  594poe    c23 2806   5.839   1.581   6.891  0.2564 -0.4459  0.3038
  594poe     o2 2807   5.701   1.555   6.901  0.1850 -0.2648 -0.1805
  594poe    c31 2808   5.679   1.416   6.899 -0.6519 -0.1435  0.0780
  595poe    c31 2809   5.300   4.947   3.103 -0.4607  0.1802 -0.2330
  595poe     o2 2810   5.298   4.814   3.058 -0.4073 -0.0092  0.3249
  595poe    c23 2811   5.424   4.754   3.078 -0.3759 -0.0004  0.1515
  595poe    c23 2812   5.439   4.662   2.955  0.1784  0.4418 -0.1164
  595poe     o2 2813   5.327   4.577   2.968  0.7855 -0.3518  0.0368
  595poe    c23 2814   5.354   4.466   2.885 -0.1129 -0.3887 -0.2192
  595poe    c23 2815   5.221   4.388   2.888 -0.3975  0.1118  0.4383
  595poe     o2 2816   5.112   4.472   2.858 -0.2015  0.2487  0.0950
  595poe    c23 2817   4.992   4.405   2.829 -0.0625 -0.0266  0.1537
  595poe    c23 2818   4.885   4.509   2.867 -0.2856 -0.2327  0.0926
  595poe     o2 2819   4.867   4.543   3.003  0.4892  0.2006  0.0911
  595poe    c31 2820   4.736   4.576   3.043  0.2230 -0.1606 -0.4656
  596poe    c31 2821   6.501   3.195   2.489  0.1011 -0.1325 -0.4725
  596poe     o2 2822   6.577   3.294   2.555  0.2254 -0.1647 -0.5688
  596poe    c23 2823   6.556   3.276   2.693 -0.2107 -0.1431 -0.6331
  596poe    c23 2824   6.641   3.381   2.765 -0.1680 -0.3853 -0.3256
  596poe     o2 2825   6.778   3.390   2.730 -0.0461  0.1768  0.2781
  596poe    c23 2826   6.831   3.507   2.789  0.4022 -0.0027  0.2343
  596poe    c23 2827   6.984   3.500   2.803  0.4017 -0.5004  0.0303
  596poe     o2 2828   7.019   3.439   2.681  0.1284 -0.1339 -0.2363
  596poe    c23 2829   7.158   3.428   2.660  0.0686  0.4938 -1.0350
  596poe    c23 2830   7.156   3.410   2.507  0.0374 -0.5994 -0.9173
  596poe     o2 2831   7.064   3.304   2.490 -0.2189 -0.5387  0.0150
  596poe    c31 2832   7.075   3.245   2.363 -0.0122 -0.1223 -0.1631
  597poe    c31 2833   2.976   5.259   4.848  0.3339  0.0239  0.7085
  597poe     o2 2834   3.091   5.289   4.772  0.2490 -0.1117  0.5272
  597poe    c23 2835   3.108   5.425   4.738 -0.6153 -0.1534 -0.1363
  597poe    c23 2836   3.249   5.440   4.678 -0.8769  0.2396 -0.6528
  597poe     o2 2837   3.281   5.324   4.605  0.1457 -0.1087  0.3185
  597poe    c23 2838   3.402   5.331   4.533 -0.3768  0.2535 -0.5519
  597poe    c23 2839   3.419   5.196   4.461  0.6665  0.2105 -0.2517
  597poe     o2 2840   3.389   5.081   4.536  0.0349  0.5855  0.0727
  597poe    c23 2841   3.472   5.052   4.647  0.1424  0.1833 -0.1142
  597poe    c23 2842   3.381   4.986   4.752  0.0529 -0.1028 -0.3680
  597poe     o2 2843   3.272   5.066   4.791 -0.0994 -0.5019  0.0433
  597poe    c31 2844   3.207   5.010   4.902  0.1198 -0.3248  0.2620
  598poe    c31 2845   3.509   3.608   0.067  0.0053 -0.0230 -0.2123
  598poe     o2 2846   3.465   3.486   0.010  0.2626 -0.2564  0.0839
  598poe    c23 2847   3.396   3.413   0.110 -0.0492 -0.5062 -0.3132
  598poe    c23 2848   3.320   3.297   0.043 -0.1940 -0.0897 -0.8810
  598poe     o2 2849   3.399   3.255  -0.066 -0.6108  0.8026 -1.5421
  598poe    c23 2850   3.334   3.166  -0.155  0.1103 -1.1009 -0.2388
  598poe    c23 2851   3.256   3.244  -0.262  0.5612  0.0705  0.2681
  598poe     o2 2852   3.347   3.347  -0.292  0.4836  0.0981  0.1215
  598poe    c23 2853   3.294   3.449  -0.373 -0.0084 -0.4709 -0.2756
  598poe    c23 2854   3.401   3.559  -0.366 -0.2446 -0.2493 -0.1483
  598poe     o2 2855   3.432   3.597  -0.234  0.3820 -0.5600 -0.2043
  598poe    c31 2856   3.465   3.734  -0.233 -0.4229 -0.3611 -0.3281
  599poe    c31 2857   3.578   2.534   1.944 -0.0278  0.9602 -0.6865
  599poe     o2 2858   3.514   2.447   1.854  0.0939  0.1599 -0.0129
  599poe    c23 2859   3.378   2.482   1.844 -0.1334 -0.7380 -0.1439
  599poe    c23 2860   3.331   2.398   1.724 -0.4919 -0.0845 -0.4651
  599poe     o2 2861   3.376   2.267   1.753  0.0365  0.1771 -0.0856
  599poe    c23 2862   3.351   2.180   1.645  0.8762 -0.2009  0.0215
  599poe    c23 2863   3.428   2.052   1.683  0.2178 -0.5923  0.0488
  599poe     o2 2864   3.553   2.087   1.738 -0.1951  0.0270  0.6047
  599poe    c23 2865   3.639   1.977   1.717 -0.0333  0.2925 -0.1707
  599poe    c23 2866   3.784   2.011   1.757 -0.1661  0.1686  0.4216
  599poe     o2 2867   3.836   2.109   1.671 -0.3503  0.2177  0.3643
  599poe    c31 2868   3.972   2.128   1.706 -0.2539 -0.4973  0.4017
  600poe    c31 2869   0.880   4.380   2.186 -0.8155  0.4107  0.0438
  600poe     o2 2870   0.911   4.506   2.132 -0.0413  0.3484  0.3317
  600poe    c23 2871   1.022   4.512   2.045 -0.3372  0.1111 -0.0656
  600poe    c23 2872   1.049   4.659   2.008 -0.3649  0.2851  0.5836
  600poe     o2 2873   0.946   4.711   1.926 -0.1105  0.0283  0.0979
  600poe    c23 2874   0.955   4.845   1.884  0.0459  0.0867  0.3131
  600poe    c23 2875   0.895   4.941   1.988  0.0112  0.0119  0.3630
  600poe     o2 2876   0.758   4.925   2.017 -0.0941 -0.4839 -0.3958
  600poe    c23 2877   0.715   5.024   2.107 -0.2339 -0.7225 -0.1967
  600poe    c23 2878   0.563   5.037   2.126 -0.1561  0.4319 -0.2646
  600poe     o2 2879   0.511   4.910   2.093  0.2665  0.1254  0.2333
  600poe    c31 2880   0.372   4.905   2.119  0.2020 -0.4906 -0.2113
  601poe    c31 2881   2.885   5.828   2.604  0.3034  0.3246  0.3273
  601poe     o2 2882   3.007   5.823   2.674  0.6054  0.0224 -0.2121
  601poe    c23 2883   3.004   5.885   2.801  0.5232 -0.2654 -0.0734
  601poe    c23 2884   3.144   5.865   2.860  0.4118 -0.2706  0.1916
  601poe     o2 2885   3.178   5.735   2.817 -0.2728 -0.4701  0.2504
  601poe    c23 2886   3.318   5.739   2.803 -0.2458 -0.5152  0.5099
  601poe    c23 2887   3.364   5.598   2.763  0.2948 -0.1503 -0.1715
  601poe     o2 2888   3.328   5.558   2.633  0.6759  0.2280 -0.3969
  601poe    c23 2889   3.354   5.421   2.609 -0.9751 -0.2292  0.3018
  601poe    c23 2890   3.284   5.355   2.488 -0.4101 -0.4916  0.1195
  601poe     o2 2891   3.147   5.380   2.508 -0.3318 -0.2161  0.3115
  601poe    c31 2892   3.084   5.341   2.388 -0.0730 -0.2114  0.1723
  602poe    c31 2893   4.221   6.742   6.516 -0.4183 -0.3521 -0.1210
  602poe     o2 2894   4.157   6.863   6.552  0.4240 -0.0088  0.2670
  602poe    c23 2895   4.242   6.962   6.605  0.6032  0.3849 -0.7212
  602poe    c23 2896   4.144   7.058   6.676  0.3333 -0.2905 -0.1609
  602poe     o2 2897   4.048   7.084   6.575 -0.1863 -0.1863  0.3556
  602poe    c23 2898   3.940   7.163   6.619 -0.2006 -0.1192  0.1995
  602poe    c23 2899   3.822   7.156   6.520 -0.1526 -0.1189  0.1431
  602poe     o2 2900   3.814   7.017   6.494 -0.7871 -0.1329  0.4053
  602poe    c23 2901   3.726   6.982   6.389  0.2220  0.0256 -0.5117
  602poe    c23 2902   3.772   6.842   6.346  0.1408 -0.0547 -0.3346
  602poe     o2 2903   3.912   6.836   6.352  0.1464  0.1622 -0.2553
  602poe    c31 2904   3.951   6.721   6.281  0.0083 -0.0330 -0.0145
  603poe    c31 2905   2.709   1.375   4.783 -0.2729 -0.3997 -0.5673
  603poe     o2 2906   2.788   1.262   4.813 -0.0355 -0.1943 -0.4102
  603poe    c23 2907   2.777   1.219   4.947  0.3429 -0.1431 -0.3625
  603poe    c23 2908   2.806   1.069   4.964  0.0136 -0.1521  0.1311
  603poe     o2 2909   2.904   1.032   4.870  0.2417  0.2567  0.2065
  603poe    c23 2910   2.967   0.909   4.896  0.0066  0.1039  0.0592
  603poe    c23 2911   3.069   0.870   4.788 -0.1108 -0.3976  0.1269
  603poe     o2 2912   3.010   0.819   4.671 -0.5498 -0.0593  0.2017
  603poe    c23 2913   3.101   0.829   4.564 -0.3426  0.1512  0.3951
  603poe    c23 2914   3.028   0.832   4.428  0.2630 -0.2190  0.0514
  603poe     o2 2915   2.942   0.721   4.419  0.2381 -0.1689 -0.3333
  603poe    c31 2916   2.920   0.705   4.281 -0.3601 -0.2511 -0.2315
  604poe    c31 2917   1.481   5.191   6.141  0.2873 -0.1891  0.6089
  604poe     o2 2918   1.367   5.182   6.057  0.2109  0.0225  0.6900
  604poe    c23 2919   1.296   5.303   6.068 -0.4688 -0.3089 -0.0045
  604poe    c23 2920   1.157   5.263   6.015 -0.4349  0.4567 -0.7004
  604poe     o2 2921   1.179   5.190   5.897 -0.2175  0.1724 -0.4855
  604poe    c23 2922   1.062   5.148   5.830 -0.3454 -0.0295 -0.1380
  604poe    c23 2923   1.092   5.100   5.687  0.3352  0.2518 -0.0912
  604poe     o2 2924   1.186   4.996   5.704  0.3589  0.2992  0.0723
  604poe    c23 2925   1.210   4.923   5.586  0.3859  0.2453  0.1118
  604poe    c23 2926   1.326   4.821   5.593  0.3025  0.1137 -0.3830
  604poe     o2 2927   1.441   4.858   5.665  0.2609  0.3319 -0.4261
  604poe    c31 2928   1.546   4.768   5.637 -0.2683 -0.3944 -0.1178
  605poe    c31 2929   1.487   0.380   5.681  0.5512 -0.5817 -0.1370
  605poe     o2 2930   1.454   0.438   5.557  0.0086 -0.1089  0.2226
  605poe    c23 2931   1.563   0.439   5.468  0.0655  0.3086  0.2926
  605poe    c23 2932   1.514   0.444   5.322 -0.1005  0.0320  0.3381
  605poe     o2 2933   1.439   0.563   5.319  0.2988  0.2757 -0.0434
  605poe    c23 2934   1.389   0.610   5.195 -0.3512  0.2117  0.1893
  605poe    c23 2935   1.274   0.707   5.229 -0.5951 -0.1116  0.2936
  605poe     o2 2936   1.202   0.684   5.348  0.2674  0.1745  0.8837
  605poe    c23 2937   1.103   0.778   5.382  0.4501  0.5397  0.4130
  605poe    c23 2938   1.005   0.754   5.498  0.2168  0.1761  0.1441
  605poe     o2 2939   1.069   0.760   5.623  0.1930  0.0891  0.1604
  605poe    c31 2940   0.997   0.822   5.727  0.1477 -0.0313  0.2009
  606poe    c31 2941   2.412   4.438   1.609 -0.9338 -0.3765 -0.3285
  606poe     o2 2942   2.495   4.339   1.553 -0.3557 -0.2119  0.2292
  606poe    c23 2943   2.515   4.237   1.648 -0.3832 -0.3451  0.0924
  606poe    c23 2944   2.632   4.144   1.610  0.0799  0.1983  0.1712
  606poe     o2 2945   2.613   4.112   1.474  0.1962 -0.0326  0.2084
  606poe    c23 2946   2.701   4.009   1.435  0.1118 -0.1452  0.3151
  606poe    c23 2947   2.659   3.982   1.289  0.1792 -0.0628  0.2805
  606poe     o2 2948   2.689   4.102   1.222  0.1179  0.0096  0.3813
  606poe    c23 2949   2.703   4.089   1.082  0.5343  0.4237  0.3825
  606poe    c23 2950   2.741   4.214   1.000  0.2906  0.0496 -0.3060
  606poe     o2 2951   2.642   4.300   0.949  0.4708  0.5049  0.1091
  606poe    c31 2952   2.698   4.386   0.852 -0.0070  0.1611 -0.4752
  607poe    c31 2953   2.953   5.103   1.462 -0.3168  0.5126 -0.3559
  607poe     o2 2954   3.023   5.224   1.448  0.0947  0.2739 -0.3748
  607poe    c23 2955   2.947   5.330   1.502 -0.3642 -0.3050  0.1383
  607poe    c23 2956   3.047   5.445   1.523  0.1171 -0.7504  0.3065
  607poe     o2 2957   3.134   5.446   1.413 -0.5652  0.1486 -0.2394
  607poe    c23 2958   3.214   5.562   1.413 -0.3230 -0.0169 -0.4701
  607poe    c23 2959   3.296   5.588   1.285 -0.1737 -0.3394 -0.4408
  607poe     o2 2960   3.418   5.517   1.282 -0.5413 -1.0078  0.1915
  607poe    c23 2961   3.475   5.503   1.153 -0.1890 -0.1609  0.2455
  607poe    c23 2962   3.603   5.417   1.155 -0.2122 -0.1896  0.8520
  607poe     o2 2963   3.718   5.483   1.203  0.3277 -0.0797 -0.5444
  607poe    c31 2964   3.830   5.397   1.204 -0.3514 -0.9705  0.2341
  608poe    c31 2965   1.481   0.089   2.226  0.1005  0.1325  0.1876
  608poe     o2 2966   1.521  -0.046   2.233 -0.3681 -0.0065  0.2460
  608poe    c23 2967   1.611  -0.086   2.132 -0.7870  0.0121 -0.1384
  608poe    c23 2968   1.599  -0.240   2.128 -0.0356 -0.0445 -0.3117
  608poe     o2 2969   1.479  -0.272   2.062 -0.2042 -0.3847  0.1554
  608poe    c23 2970   1.474  -0.409   2.028  0.0875 -0.4706  0.4447
  608poe    c23 2971   1.339  -0.452   1.966 -0.1970  0.7855  0.1548
  608poe     o2 2972   1.242  -0.484   2.063 -0.3910  0.1423 -0.2430
  608poe    c23 2973   1.125  -0.528   2.000 -0.2475 -0.0716 -0.3598
  608poe    c23 2974   1.010  -0.547   2.100 -0.1693  0.7039 -0.1212
  608poe     o2 2975   1.029  -0.444   2.195  0.4810  0.4371  0.0438
  608poe    c31 2976   0.915  -0.433   2.277  0.0176  0.2745 -0.5699
  609poe    c31 2977   0.322   2.037   1.670  0.2275  0.0258  0.1228
  609poe     o2 2978   0.244   2.068   1.557 -0.1929 -0.3615  0.3050
  609poe    c23 2979   0.271   1.975   1.453 -0.4803 -0.5104  0.3607
  609poe    c23 2980   0.183   2.018   1.335  0.2088  0.0036  0.0271
  609poe     o2 2981   0.064   2.062   1.396  0.2347  0.2229 -0.0784
  609poe    c23 2982  -0.046   2.086   1.310 -0.1430 -0.1025  0.3079
  609poe    c23 2983  -0.160   2.134   1.401  0.1586 -0.1520  0.7178
  609poe     o2 2984  -0.105   2.212   1.504 -0.3170  0.6373  0.3831
  609poe    c23 2985  -0.150   2.166   1.629 -0.0685 -0.2171  0.1662
  609poe    c23 2986  -0.083   2.244   1.744 -0.0696 -0.4336  0.3148
  609poe     o2 2987   0.056   2.248   1.720 -0.0859 -0.3936  0.2221
  609poe    c31 2988   0.111   2.354   1.795 -0.3444 -0.6166  0.7333
  610poe    c31 2989   3.659   4.264   3.509  0.1236 -0.0068  0.2746
  610poe     o2 2990   3.617   4.257   3.375 -0.2148  0.1108  0.3723
  610poe    c23 2991   3.624   4.121   3.337  0.4240  0.1104  0.4759
  610poe    c23 2992   3.606   4.123   3.184  0.2235 -0.2863  0.4945
  610poe     o2 2993   3.501   4.213   3.159  0.4100 -0.2588 -0.2138
  610poe    c23 2994   3.460   4.207   3.025  0.3420  0.0953 -0.2100
  610poe    c23 2995   3.343   4.305   3.006  0.2349 -0.0491 -0.2999
  610poe     o2 2996   3.379   4.438   3.037 -0.0348 -0.0906  0.2008
  610poe    c23 2997   3.269   4.525   3.044  0.3251  0.3894 -0.0287
  610poe    c23 2998   3.315   4.666   3.086  0.5594  0.4179 -0.3781
  610poe     o2 2999   3.340   4.662   3.224  0.1178  0.2539 -0.3015
  610poe    c31 3000   3.389   4.782   3.279  0.8672 -0.0928 -0.2044
  611poe    c31 3001   3.965   0.366   2.861 -0.3473 -0.2927 -0.2167
  611poe     o2 3002   3.905   0.486   2.817 -0.0092  0.1064  0.3821
  611poe    c23 3003   3.966   0.605   2.861  0.3960 -0.1145  0.4243
  611poe    c23 3004   3.888   0.728   2.812  0.9173  0.0058 -0.1072
  611poe     o2 3005   3.837   0.714   2.681 -0.3422 -0.2188  0.3884
  611poe    c23 3006   3.774   0.829   2.629  0.1577  0.0426  0.3519
  611poe    c23 3007   3.727   0.817   2.483 -0.3170 -0.6592  0.5551
  611poe     o2 3008   3.608   0.759   2.436 -0.3246 -0.4108  0.2637
  611poe    c23 3009   3.591   0.764   2.296  0.2690  0.1300  0.2051
  611poe    c23 3010   3.450   0.708   2.269  0.1728  0.6372 -0.3592
  611poe     o2 3011   3.449   0.577   2.321 -0.3083  0.6632 -0.3024
  611poe    c31 3012   3.320   0.545   2.369  0.0272 -0.2581  0.0185
  612poe    c31 3013   5.405   3.317   5.346  0.0744  0.3324 -0.1075
  612poe     o2 3014   5.283   3.245   5.342  0.1658  0.1694  0.0332
  612poe    c23 3015   5.310   3.121   5.403 -0.2292 -0.2166 -0.5705
  612poe    c23 3016   5.190   3.040   5.350 -0.4615 -0.0439 -0.3118
  612poe     o2 3017   5.072   3.118   5.360 -0.2937  0.1697  0.0305
  612poe    c23 3018   4.956   3.038   5.358 -0.2073  0.0424  0.0798
  612poe    c23 3019   4.847   3.142   5.387  0.1903  0.6161 -0.4564
  612poe     o2 3020   4.885   3.272   5.348  0.8062  0.5560 -0.0660
  612poe    c23 3021   4.768   3.348   5.326  0.3236 -0.1615 -0.0095
  612poe    c23 3022   4.767   3.501   5.344  0.3592 -0.1494 -0.1059
  612poe     o2 3023   4.841   3.564   5.242  0.5287 -0.1020  0.0442
  612poe    c31 3024   4.879   3.694   5.281  0.0383  0.0203  0.1202
  613poe    c31 3025   3.559   6.463   0.077 -0.3823 -0.1772 -0.1908
  613poe     o2 3026   3.495   6.456   0.202 -0.0517 -0.1881 -0.0219
  613poe    c23 3027   3.565   6.523   0.305 -0.3864  0.2953 -0.1074
  613poe    c23 3028   3.470   6.537   0.425 -0.5813  0.2583 -0.2560
  613poe     o2 3029   3.427   6.415   0.482  0.3612 -0.0673 -0.2186
  613poe    c23 3030   3.338   6.431   0.591  0.2879  0.2921 -0.3264
  613poe    c23 3031   3.281   6.301   0.651  0.6675  0.2853  0.0299
  613poe     o2 3032   3.239   6.234   0.534  0.1871  0.3953  0.1349
  613poe    c23 3033   3.147   6.130   0.552  0.1278  0.4761  0.2931
  613poe    c23 3034   3.117   6.055   0.421  0.2189  0.5625  0.2224
  613poe     o2 3035   3.242   6.020   0.366 -0.3602 -0.3570 -0.5538
  613poe    c31 3036   3.228   5.955   0.242  0.3913 -0.6987 -0.4625
  614poe    c31 3037   4.373   3.657   5.541  0.8254  0.2259  0.2005
  614poe     o2 3038   4.401   3.791   5.506  0.3124  0.1584 -0.4732
  614poe    c23 3039   4.295   3.835   5.423 -0.0408  0.2677  0.0308
  614poe    c23 3040   4.263   3.974   5.481 -0.3297  0.0967  0.2865
  614poe     o2 3041   4.382   4.040   5.518 -0.0767 -0.2377  0.0771
  614poe    c23 3042   4.374   4.173   5.566  0.3375 -0.2419  0.1636
  614poe    c23 3043   4.521   4.219   5.563  0.2317  0.0873 -0.0625
  614poe     o2 3044   4.600   4.117   5.621  0.0062  0.2336  0.5187
  614poe    c23 3045   4.739   4.112   5.597 -0.0899 -0.4067  0.0585
  614poe    c23 3046   4.787   3.975   5.648  0.3001 -0.2528  0.1124
  614poe     o2 3047   4.700   3.875   5.601 -0.8364  0.3388  0.9096
  614poe    c31 3048   4.721   3.741   5.641  0.0923  0.3696  0.5366
  615poe    c31 3049   4.617   5.358   2.620 -0.0600  0.0438 -0.2752
  615poe     o2 3050   4.653   5.236   2.681  0.1718 -0.0077 -0.5128
  615poe    c23 3051   4.686   5.139   2.584  0.1092 -0.1001 -0.4420
  615poe    c23 3052   4.719   5.008   2.657 -0.0137  0.0318 -0.1455
  615poe     o2 3053   4.615   4.986   2.750 -0.0101 -0.0074 -0.1511
  615poe    c23 3054   4.638   4.882   2.842 -0.0208  0.3672  0.2825
  615poe    c23 3055   4.500   4.846   2.898  0.1384 -0.3282  0.2453
  615poe     o2 3056   4.432   4.966   2.930  0.0599 -0.3405  0.1262
  615poe    c23 3057   4.310   4.915   2.980 -0.4333  0.1530 -0.5607
  615poe    c23 3058   4.226   5.030   3.037 -0.2478 -0.0257  0.0831
  615poe     o2 3059   4.188   5.128   2.942  0.0001  0.2777  0.2943
  615poe    c31 3060   4.068   5.187   2.985 -0.2031 -0.1873  0.3774
  616poe    c31 3061   6.102   1.139   5.492  0.6694  0.2944  0.2373
  616poe     o2 3062   6.204   1.104   5.583  0.2524 -0.7179  0.3163
  616poe    c23 3063   6.158   1.003   5.671 -0.2787 -0.6467  0.1263
  616poe    c23 3064   6.277   0.909   5.700 -0.0178 -0.4149 -0.1793
  616poe     o2 3065   6.369   0.903   5.594  0.2096 -0.2411  0.0064
  616poe    c23 3066   6.481   0.826   5.635  0.4506  0.3431  0.4573
  616poe    c23 3067   6.570   0.811   5.510 -0.2604 -0.1453 -0.0014
  616poe     o2 3068   6.577   0.938   5.450  0.2724 -0.3306 -0.3355
  616poe    c23 3069   6.655   0.924   5.333  0.6048 -0.2900 -0.1210
  616poe    c23 3070   6.704   1.058   5.276  0.0921 -0.1721 -0.2909
  616poe     o2 3071   6.592   1.120   5.217  0.2659 -0.0677 -0.5128
  616poe    c31 3072   6.634   1.245   5.169 -0.1112  0.4908  0.5793
  617poe    c31 3073   3.729   1.193   3.168  0.0105  0.0472 -0.1392
  617poe     o2 3074   3.616   1.259   3.116 -0.1358 -0.1751 -0.1054
  617poe    c23 3075   3.588   1.380   3.182 -0.3849 -0.2621 -0.0488
  617poe    c23 3076   3.438   1.408   3.162 -0.2815  0.3908  0.0403
  617poe     o2 3077   3.423   1.380   3.025  0.4643  0.6367 -0.0976
  617poe    c23 3078   3.303   1.429   2.969  0.0299 -0.1761  0.0928
  617poe    c23 3079   3.298   1.387   2.821  0.0949 -0.0054  0.0417
  617poe     o2 3080   3.347   1.255   2.823  0.2680  0.0604  0.1555
  617poe    c23 3081   3.387   1.221   2.692  0.6156  0.4818  0.1499
  617poe    c23 3082   3.493   1.112   2.716  0.0119 -0.0479  0.4282
  617poe     o2 3083   3.565   1.162   2.827 -0.3370  0.2532  0.5222
  617poe    c31 3084   3.697   1.114   2.818 -0.3298  0.3648 -0.0435
  618poe    c31 3085   3.921   3.901   4.315 -0.1254 -0.2125 -0.2504
  618poe     o2 3086   3.813   3.876   4.228 -0.4797 -0.8114  0.3517
  618poe    c23 3087   3.820   3.744   4.179  0.1307 -0.4031 -0.6803
  618poe    c23 3088   3.694   3.743   4.090  0.0129  0.2607 -0.5265
  618poe     o2 3089   3.588   3.811   4.154  0.3753 -0.2047  0.5960
  618poe    c23 3090   3.473   3.818   4.072  0.5169  0.3865  0.4389
  618poe    c23 3091   3.488   3.953   4.000  0.4859  0.1231 -0.0647
  618poe     o2 3092   3.535   4.033   4.106  0.2255  0.0274  0.1237
  618poe    c23 3093   3.553   4.164   4.058 -0.3143  0.1229  0.1716
  618poe    c23 3094   3.600   4.258   4.170  0.2391  0.0105  0.0411
  618poe     o2 3095   3.703   4.185   4.231  0.3285  0.0584 -0.0537
  618poe    c31 3096   3.784   4.279   4.297  0.2948 -0.3575  0.5946
  619poe    c31 3097   2.528   2.608   4.139 -0.1041  0.2617 -1.0806
  619poe     o2 3098   2.397   2.602   4.190  0.4364 -0.1778  0.3174
  619poe    c23 3099   2.326   2.541   4.084  0.3304 -0.3554  0.4905
  619poe    c23 3100   2.186   2.516   4.144  0.2366 -0.5801  0.1792
  619poe     o2 3101   2.131   2.642   4.178 -0.0526 -0.5370 -0.4169
  619poe    c23 3102   2.011   2.626   4.251  0.2610 -0.1195  0.2011
  619poe    c23 3103   2.015   2.761   4.325  0.1317  0.1052 -0.1967
  619poe     o2 3104   2.145   2.769   4.380  0.0316  0.0583  0.0472
  619poe    c23 3105   2.172   2.897   4.432  0.1205  0.2439 -0.4535
  619poe    c23 3106   2.321   2.890   4.470 -0.1416 -0.1835  0.5337
  619poe     o2 3107   2.400   2.835   4.367  0.2545 -0.6007  1.0571
  619poe    c31 3108   2.535   2.825   4.405  0.7096 -0.2134 -0.4103
  620poe    c31 3109   3.374   3.264   2.477  0.2185  0.5718  0.2867
  620poe     o2 3110   3.294   3.325   2.377 -0.1773 -0.1137  0.1778
  620poe    c23 3111   3.352   3.453   2.371  0.0607 -0.2372 -0.2186
  620poe    c23 3112   3.285   3.539   2.262  0.1261  0.2075  0.0853
  620poe     o2 3113   3.288   3.454   2.149 -0.1298  0.3060  0.0042
  620poe    c23 3114   3.241   3.512   2.029 -0.3587 -0.3338 -0.2145
  620poe    c23 3115   3.257   3.417   1.909  0.1186  0.2136 -0.5861
  620poe     o2 3116   3.214   3.284   1.926 -0.0939  0.3588  0.0314
  620poe    c23 3117   3.232   3.216   1.804 -0.0333 -0.0918  0.2890
  620poe    c23 3118   3.232   3.062   1.810  0.3232 -0.0980  0.1644
  620poe     o2 3119   3.305   2.999   1.913  0.1612 -0.0719  0.2960
  620poe    c31 3120   3.328   2.865   1.877 -0.2244 -0.1066  0.1768
  621poe    c31 3121   0.876   4.663   3.404  0.1818 -0.5725  0.4749
  621poe     o2 3122   0.752   4.635   3.464 -0.1133 -0.1105  0.0886
  621poe    c23 3123   0.773   4.537   3.563  0.0908 -0.1389  0.0164
  621poe    c23 3124   0.638   4.518   3.633  0.0128  0.3221 -0.0076
  621poe     o2 3125   0.538   4.520   3.533  0.1277 -0.5837 -0.1471
  621poe    c23 3126   0.408   4.521   3.586  0.1741 -0.0893 -0.0410
  621poe    c23 3127   0.331   4.552   3.456 -0.2998  0.2790  0.3251
  621poe     o2 3128   0.384   4.659   3.381 -0.5142  0.1242 -0.0477
  621poe    c23 3129   0.297   4.708   3.281  0.2191  0.3044 -0.6012
  621poe    c23 3130   0.265   4.626   3.154 -0.5115  0.2094 -0.3589
  621poe     o2 3131   0.385   4.609   3.082 -0.1490 -0.7178  0.4331
  621poe    c31 3132   0.364   4.560   2.951 -0.4752 -0.1032  0.2518
  622poe    c31 3133   3.809   6.575   4.465 -0.2258  0.3997 -0.6298
  622poe     o2 3134   3.936   6.516   4.450 -0.1954  0.3081 -0.0680
  622poe    c23 3135   4.022   6.577   4.543 -0.2510  0.2510  0.0201
  622poe    c23 3136   4.154   6.500   4.561 -0.2962  0.2508  0.3713
  622poe     o2 3137   4.138   6.376   4.626  0.0271  0.0301  0.0323
  622poe    c23 3138   4.255   6.298   4.610 -0.0891 -0.2001  0.3113
  622poe    c23 3139   4.236   6.168   4.690 -0.4277 -0.0989  0.4005
  622poe     o2 3140   4.108   6.118   4.658 -0.4821  0.3671 -0.1217
  622poe    c23 3141   4.116   5.985   4.613 -0.5430  0.3034  0.0550
  622poe    c23 3142   3.971   5.934   4.614 -0.2634 -0.5050 -0.0106
  622poe     o2 3143   3.888   6.031   4.554  0.0882 -0.3619 -0.2658
  622poe    c31 3144   3.761   5.992   4.507 -0.0063 -0.2288 -0.1234
  623poe    c31 3145   1.816   1.341   0.716 -0.5722  0.2966  0.0830
  623poe     o2 3146   1.781   1.325   0.580  0.4665 -0.0084 -0.1612
  623poe    c23 3147   1.777   1.188   0.546 -0.2289 -0.0370  0.0159
  623poe    c23 3148   1.774   1.163   0.394  0.0099 -0.0047  0.0052
  623poe     o2 3149   1.678   1.249   0.337 -0.1557 -0.1287  0.0942
  623poe    c23 3150   1.671   1.219   0.199  0.6646  0.2354 -0.0349
  623poe    c23 3151   1.554   1.299   0.137  0.1122 -0.3944  0.1837
  623poe     o2 3152   1.580   1.437   0.150 -0.1830 -0.2858 -0.3703
  623poe    c23 3153   1.476   1.530   0.128 -0.1621 -0.0459  0.5299
  623poe    c23 3154   1.523   1.674   0.153  0.5291 -0.1484 -0.1680
  623poe     o2 3155   1.584   1.662   0.280 -0.4004 -0.4093  0.2614
  623poe    c31 3156   1.617   1.777   0.355  0.3155 -0.3462 -0.1370
  624poe    c31 3157   3.332   1.112   6.250 -0.5424  0.3634  0.0486
  624poe     o2 3158   3.335   1.238   6.188 -0.0006  0.2964 -0.0634
  624poe    c23 3159   3.470   1.269   6.161  0.0095 -0.3096 -0.7240
  624poe    c23 3160   3.480   1.416   6.115  0.4434 -0.2063 -0.3042
  624poe     o2 3161   3.352   1.438   6.061  0.2488  0.3376  0.3803
  624poe    c23 3162   3.314   1.567   6.017  0.1006  0.1056 -0.1706
  624poe    c23 3163   3.174   1.550   5.956 -0.0270  0.7303 -0.0571
  624poe     o2 3164   3.092   1.485   6.051  0.2365  0.1726 -0.2071
  624poe    c23 3165   2.963   1.448   6.006  0.3667 -0.3226 -0.1835
  624poe    c23 3166   2.925   1.349   6.117  0.2543 -0.1501 -0.0681
  624poe     o2 3167   3.023   1.251   6.142  0.3821  0.0383  0.1804
  624poe    c31 3168   2.977   1.154   6.233  0.0446  0.1486  0.1284
  625poe    c31 3169   1.463   4.778   0.443 -0.2218  0.1306  0.5399
  625poe     o2 3170   1.357   4.779   0.350  0.0678 -0.2353  0.2016
  625poe    c23 3171   1.230   4.751   0.406 -0.1577  0.6498  0.1518
  625poe    c23 3172   1.113   4.767   0.306  0.1220 -0.1428 -0.3121
  625poe     o2 3173   1.103   4.895   0.248  0.0674 -0.1901 -0.4065
  625poe    c23 3174   1.024   4.885   0.132 -0.1280  0.2246 -0.3111
  625poe    c23 3175   1.044   5.008   0.042 -0.0908  0.3561 -0.1234
  625poe     o2 3176   1.181   5.027   0.014 -0.0399 -0.0815 -0.1747
  625poe    c23 3177   1.197   5.149  -0.054  0.2051 -0.1342 -0.2156
  625poe    c23 3178   1.349   5.160  -0.075  0.2303 -0.8300 -0.4028
  625poe     o2 3179   1.387   5.152   0.061 -0.3383 -0.2987 -0.2068
  625poe    c31 3180   1.525   5.176   0.078 -0.2726 -0.6109 -0.2882
  626poe    c31 3181   6.177   2.856   4.985  0.2974  0.5511 -0.8864
  626poe     o2 3182   6.153   2.990   4.948 -0.7290  0.7018  0.2625
  626poe    c23 3183   6.189   3.016   4.814 -0.2651  0.0184  0.2489
  626poe    c23 3184   6.213   3.168   4.821  0.1390 -0.0462  0.2528
  626poe     o2 3185   6.117   3.230   4.903 -0.4182 -0.1047 -0.3426
  626poe    c23 3186   6.153   3.364   4.925  0.7003 -0.3315 -0.6927
  626poe    c23 3187   6.047   3.422   5.021  0.7391 -0.1164 -0.7771
  626poe     o2 3188   6.040   3.335   5.133  0.5659  0.6210 -0.2107
  626poe    c23 3189   5.988   3.420   5.233 -0.3869  0.1712 -0.3130
  626poe    c23 3190   5.934   3.331   5.347 -0.0586 -0.3009 -0.5216
  626poe     o2 3191   5.831   3.244   5.304 -0.1179 -0.3770 -0.2256
  626poe    c31 3192   5.759   3.195   5.415 -0.4110  0.6864  0.0561
  627poe    c31 3193   6.136   0.623   0.822  0.0606  0.3559 -0.3694
  627poe     o2 3194   6.087   0.755   0.821 -0.3973  0.1883 -0.0629
  627poe    c23 3195   6.149   0.835   0.723  0.3153 -0.6603 -0.3142
  627poe    c23 3196   6.045   0.941   0.682  0.7853 -0.0363  0.0904
  627poe     o2 3197   5.967   0.976   0.794  0.0687  0.1829 -0.4720
  627poe    c23 3198   5.852   1.045   0.751 -0.3389 -0.0426  0.2445
  627poe    c23 3199   5.785   1.081   0.885  0.1101 -0.0382  0.4700
  627poe     o2 3200   5.800   0.975   0.977  0.1546 -0.2708  0.1984
  627poe    c23 3201   5.718   0.994   1.091 -0.6867 -0.4969 -0.3646
  627poe    c23 3202   5.742   0.891   1.203 -0.3784  0.1458  0.1670
  627poe     o2 3203   5.689   0.762   1.181  0.5879 -0.2319  0.0128
  627poe    c31 3204   5.644   0.701   1.300  0.3792  0.2088  0.1616
  628poe    c31 3205   3.862   1.036   0.666  0.4325  0.6958  0.1304
  628poe     o2 3206   3.976   1.113   0.698  0.6710  0.1513  0.6030
  628poe    c23 3207   3.934   1.219   0.781  0.1432  0.4383 -0.0287
  628poe    c23 3208   4.033   1.336   0.791  0.2458  0.3737 -0.2836
  628poe     o2 3209   4.163   1.305   0.836 -0.2516 -0.4181  0.6160
  628poe    c23 3210   4.244   1.419   0.851 -0.5766 -0.1307  0.1854
  628poe    c23 3211   4.226   1.498   0.982  0.2682 -0.0503  0.2574
  628poe     o2 3212   4.236   1.415   1.095  0.5385  0.0926  0.3402
  628poe    c23 3213   4.184   1.473   1.213 -0.0343 -0.2156  0.2445
  628poe    c23 3214   4.230   1.377   1.325 -0.5892 -0.2695  0.4297
  628poe     o2 3215   4.194   1.246   1.289 -0.5658 -0.0263 -0.5075
  628poe    c31 3216   4.254   1.159   1.382 -0.1204  0.1802 -0.5989
  629poe    c31 3217   0.628   3.067   2.646 -0.3896  0.1404  0.4529
  629poe     o2 3218   0.578   2.948   2.704 -0.3063 -0.1383 -0.0441
  629poe    c23 3219   0.607   2.951   2.842  0.3810 -0.1629 -0.1807
  629poe    c23 3220   0.515   2.840   2.894  0.2062  0.1651  0.2142
  629poe     o2 3221   0.539   2.730   2.809  0.1276  0.0911  0.2867
  629poe    c23 3222   0.477   2.611   2.854  0.5429 -0.2137  0.0643
  629poe    c23 3223   0.495   2.512   2.737 -0.6255 -0.4687  0.0861
  629poe     o2 3224   0.439   2.559   2.617 -0.4257  0.2911  0.2855
  629poe    c23 3225   0.396   2.459   2.527  0.3140  0.1234  0.1115
  629poe    c23 3226   0.508   2.391   2.447 -0.0719  0.0008 -0.3244
  629poe     o2 3227   0.547   2.449   2.324 -0.1940  0.2812 -0.2317
  629poe    c31 3228   0.615   2.355   2.243  0.2857  0.3525  0.0794
  630poe    c31 3229   6.699   1.935   3.215 -0.1778  0.3138 -0.3357
  630poe     o2 3230   6.742   2.044   3.293  0.3028 -0.0940 -0.0342
  630poe    c23 3231   6.780   2.140   3.198 -0.8035  0.1739 -0.2140
  630poe    c23 3232   6.796   2.270   3.279  0.4770 -0.0912 -0.0138
  630poe     o2 3233   6.685   2.296   3.362  0.5995 -0.1262  0.1604
  630poe    c23 3234   6.716   2.388   3.464 -0.2484  0.0588  0.2616
  630poe    c23 3235   6.609   2.382   3.574 -0.2118 -0.0283  0.2925
  630poe     o2 3236   6.589   2.243   3.593  0.4110 -0.0812  0.5769
  630poe    c23 3237   6.505   2.228   3.705 -0.1974 -0.0737  0.1247
  630poe    c23 3238   6.513   2.088   3.769  0.2014  0.4048  1.1365
  630poe     o2 3239   6.637   2.024   3.790  0.0670  0.0573  0.8773
  630poe    c31 3240   6.631   1.909   3.871  0.4002 -0.7232 -0.1918
  631poe    c31 3241   2.359   2.341   1.032 -0.1863 -0.6864  0.0286
  631poe     o2 3242   2.447   2.399   1.126 -0.3309 -0.3440 -0.0472
  631poe    c23 3243   2.548   2.470   1.058 -0.1541 -0.2139  0.3489
  631poe    c23 3244   2.640   2.525   1.169  0.2294  0.1297 -0.1368
  631poe     o2 3245   2.664   2.407   1.242  0.1053  0.2067  0.0318
  631poe    c23 3246   2.795   2.412   1.294  0.3243 -0.1697 -0.4713
  631poe    c23 3247   2.802   2.286   1.382 -0.1703  0.2862  0.2367
  631poe     o2 3248   2.671   2.272   1.430 -0.1387 -0.0449  0.2303
  631poe    c23 3249   2.644   2.143   1.481  0.3464 -0.1751  0.1659
  631poe    c23 3250   2.567   2.059   1.377  0.1483 -0.3916  0.4835
  631poe     o2 3251   2.480   2.145   1.306 -0.2238 -0.5918  0.6971
  631poe    c31 3252   2.366   2.085   1.249 -0.2686 -0.5146  0.7059
  632poe    c31 3253   4.994   5.598   4.708 -0.0021 -0.3407  0.0353
  632poe     o2 3254   5.041   5.477   4.762 -0.0232 -0.3577  0.0160
  632poe    c23 3255   4.951   5.370   4.740  0.2674 -0.4294 -0.8458
  632poe    c23 3256   4.987   5.250   4.829 -0.3945  0.1093  0.1616
  632poe     o2 3257   5.127   5.246   4.839 -0.4001 -0.1581  0.1313
  632poe    c23 3258   5.157   5.127   4.909 -0.2723  0.0316  0.4013
  632poe    c23 3259   5.309   5.103   4.903 -0.2140  0.3070  0.7523
  632poe     o2 3260   5.376   5.214   4.958  0.2459  0.2591  0.2882
  632poe    c23 3261   5.516   5.195   4.965  0.1961 -0.1669  0.1771
  632poe    c23 3262   5.570   5.316   5.043 -0.0730  0.0898 -0.0337
  632poe     o2 3263   5.545   5.446   4.993 -0.0418  0.3169  0.5344
  632poe    c31 3264   5.594   5.546   5.080  0.6275  0.5162 -0.0656
  633poe    c31 3265   3.399   6.278   4.547 -0.4011 -0.0069  0.4916
  633poe     o2 3266   3.292   6.236   4.466  0.3364  0.4154 -0.7307
  633poe    c23 3267   3.183   6.314   4.509  0.2017  0.0844 -0.4669
  633poe    c23 3268   3.083   6.263   4.404 -0.3180 -0.0524  0.0913
  633poe     o2 3269   3.090   6.122   4.397 -0.0640 -0.0180 -0.3752
  633poe    c23 3270   2.974   6.063   4.343 -0.0305 -0.0683 -0.3923
  633poe    c23 3271   2.959   5.912   4.372  0.5608 -0.0529  0.0100
  633poe     o2 3272   3.072   5.840   4.328  0.7189 -0.1222  0.5153
  633poe    c23 3273   3.061   5.704   4.362  0.1727 -0.1136  0.3934
  633poe    c23 3274   3.200   5.639   4.348 -0.1804 -0.9027  0.5051
  633poe     o2 3275   3.294   5.708   4.426 -0.0101 -0.5200 -0.0304
  633poe    c31 3276   3.425   5.684   4.381  0.4649 -0.1443  1.0887
  634poe    c31 3277   3.442   3.266   0.981  0.0152  0.1483  0.5916
  634poe     o2 3278   3.301   3.270   0.983 -0.0220 -0.4296 -0.1291
  634poe    c23 3279   3.239   3.242   0.860  0.0948 -0.5727 -0.1557
  634poe    c23 3280   3.086   3.238   0.878  0.1702 -0.5061  0.5359
  634poe     o2 3281   3.047   3.368   0.915 -0.0219 -0.3988 -0.0307
  634poe    c23 3282   2.909   3.393   0.896  0.0379 -0.1305 -0.1170
  634poe    c23 3283   2.882   3.544   0.907  0.3305 -0.0706 -0.1835
  634poe     o2 3284   2.939   3.585   1.029  0.0868 -0.1967 -0.0244
  634poe    c23 3285   2.910   3.717   1.069 -0.0962 -0.2705  0.0884
  634poe    c23 3286   2.943   3.741   1.217  0.0773 -0.4413  0.0778
  634poe     o2 3287   3.053   3.660   1.254  0.5161  0.0806 -0.0587
  634poe    c31 3288   3.107   3.721   1.369  0.2493 -0.3501  0.2959
  635poe    c31 3289   6.127   0.618   1.273 -0.0725 -0.0591  0.2924
  635poe     o2 3290   6.027   0.550   1.345  0.2479 -0.2383  0.5719
  635poe    c23 3291   5.932   0.485   1.264  0.2886 -0.0822  0.3976
  635poe    c23 3292   5.860   0.360   1.317  0.0771 -0.2193 -0.2054
  635poe     o2 3293   5.795   0.380   1.441  0.7252 -0.0220  0.1058
  635poe    c23 3294   5.775   0.252   1.495 -0.4582 -0.1417 -0.5762
  635poe    c23 3295   5.829   0.246   1.639  0.2396  0.5208 -0.8020
  635poe     o2 3296   5.964   0.287   1.642  0.3173  0.2216  0.0414
  635poe    c23 3297   6.013   0.292   1.774  0.4434 -0.3565  0.0194
  635poe    c23 3298   6.142   0.365   1.732  0.4718 -0.3099  0.1858
  635poe     o2 3299   6.120   0.484   1.659  0.6947 -0.1886  0.3144
  635poe    c31 3300   6.240   0.553   1.634  0.6588 -0.1121  0.3540
  636poe    c31 3301   4.216   4.111   6.570  0.0338  0.5097 -0.1411
  636poe     o2 3302   4.157   4.126   6.443 -0.5009 -0.4034 -0.0086
  636poe    c23 3303   4.181   4.014   6.359 -0.3408  0.2002 -0.7795
  636poe    c23 3304   4.141   4.058   6.217 -0.1489  0.1585 -0.8468
  636poe     o2 3305   4.027   4.141   6.229  0.0960  0.4247 -0.3091
  636poe    c23 3306   3.967   4.157   6.102 -0.2478 -0.0914 -0.2149
  636poe    c23 3307   3.833   4.230   6.121 -0.3219 -0.2574 -0.0919
  636poe     o2 3308   3.858   4.367   6.144  0.1414 -0.4133  0.3700
  636poe    c23 3309   3.747   4.453   6.122 -0.1358 -0.7923  0.2670
  636poe    c23 3310   3.760   4.562   6.230 -0.2131 -0.3105 -0.2102
  636poe     o2 3311   3.754   4.514   6.362  0.3448 -0.0003 -0.0701
  636poe    c31 3312   3.736   4.607   6.467 -0.3344  0.3719 -0.5121
  637poe    c31 3313   5.977   3.135   0.763 -0.0981  0.0452 -0.0411
  637poe     o2 3314   5.913   3.184   0.647 -0.1195 -0.7742 -0.3827
  637poe    c23 3315   5.803   3.257   0.696 -0.0715 -0.5424 -0.6142
  637poe    c23 3316   5.765   3.351   0.581 -0.4623  0.2127  0.1261
  637poe     o2 3317   5.758   3.268   0.468  0.5234  0.2697  0.0168
  637poe    c23 3318   5.734   3.347   0.354 -0.4176  0.2025  0.1622
  637poe    c23 3319   5.729   3.262   0.226 -0.1701  0.0507  0.2538
  637poe     o2 3320   5.840   3.176   0.216  0.1244  0.5528 -0.8975
  637poe    c23 3321   5.819   3.084   0.111  0.1912 -0.0443 -0.3934
  637poe    c23 3322   5.942   3.015   0.049 -0.1686 -0.8324 -0.2452
  637poe     o2 3323   6.022   2.962   0.152 -0.1719  0.0942  0.2482
  637poe    c31 3324   6.126   2.891   0.089 -1.0426 -0.4287 -0.6424
  638poe    c31 3325   2.892   3.400   3.406  0.6089  0.1177 -0.3131
  638poe     o2 3326   2.830   3.310   3.317  0.0783  0.2584 -0.0881
  638poe    c23 3327   2.755   3.215   3.389  0.1669  0.1196 -0.1780
  638poe    c23 3328   2.671   3.155   3.275 -0.0087  0.3625 -0.1790
  638poe     o2 3329   2.744   3.132   3.156  0.0553  0.3057 -0.1295
  638poe    c23 3330   2.673   3.071   3.050  0.3886  0.3962 -0.4056
  638poe    c23 3331   2.787   3.020   2.960  0.2097 -0.3465 -0.2164
  638poe     o2 3332   2.885   3.118   2.938 -0.1546  0.1204  0.2183
  638poe    c23 3333   3.014   3.064   2.956 -0.2296 -0.0219  0.3311
  638poe    c23 3334   3.111   3.163   3.024 -0.1573  0.1998 -0.0870
  638poe     o2 3335   3.045   3.209   3.140 -0.3461  0.1908 -0.1908
  638poe    c31 3336   3.138   3.285   3.214 -0.7176  0.3117  0.1608
  639poe    c31 3337   4.986   5.627   0.382 -0.0801  0.3993 -0.0232
  639poe     o2 3338   5.081   5.523   0.382  0.1354  0.5938 -0.3088
  639poe    c23 3339   5.078   5.445   0.500  0.1686 -0.0675 -0.7353
  639poe    c23 3340   5.194   5.344   0.502 -0.0629 -0.3266 -0.1260
  639poe     o2 3341   5.320   5.408   0.501 -0.1014 -0.2504 -0.8179
  639poe    c23 3342   5.420   5.315   0.535  0.6118  0.6704 -0.3528
  639poe    c23 3343   5.554   5.390   0.550  0.4365  0.8859  0.1285
  639poe     o2 3344   5.559   5.456   0.426  0.0541  0.0646 -0.3300
  639poe    c23 3345   5.684   5.518   0.404  0.1683  0.0223  0.1811
  639poe    c23 3346   5.684   5.588   0.266  0.1992 -0.3593 -0.0126
  639poe     o2 3347   5.556   5.646   0.262  0.2625 -0.2681 -0.8884
  639poe    c31 3348   5.549   5.722   0.143  0.0526 -0.5919 -1.0818
  640poe    c31 3349   4.972   1.155   0.007 -0.0743  0.5137  0.4096
  640poe     o2 3350   4.978   1.218  -0.119  0.3424  0.0474  0.1930
  640poe    c23 3351   4.937   1.351  -0.094  0.3181  0.0324  0.2317
  640poe    c23 3352   4.959   1.444  -0.214  0.5772 -0.2303  0.0747
  640poe     o2 3353   5.094   1.444  -0.256  0.5369 -0.2081 -0.0548
  640poe    c23 3354   5.133   1.568  -0.311 -0.0861  0.0123 -0.0057
  640poe    c23 3355   5.268   1.541  -0.380 -0.2940 -0.6566 -0.1557
  640poe     o2 3356   5.363   1.471  -0.304  0.0809 -0.6496 -0.6172
  640poe    c23 3357   5.487   1.477  -0.373  0.2621  0.2218 -0.2324
  640poe    c23 3358   5.558   1.346  -0.335 -0.4221 -0.1054 -0.0502
  640poe     o2 3359   5.532   1.319  -0.199 -0.2433  0.0721  0.0202
  640poe    c31 3360   5.580   1.190  -0.168 -0.6948  0.0365  0.5920
  641poe    c31 3361   4.875   6.261   0.904 -0.1004 -0.7958 -0.5579
  641poe     o2 3362   4.996   6.214   0.959  0.0985 -0.2675 -0.5306
  641poe    c23 3363   4.988   6.074   0.938 -0.4388 -0.3469  0.1781
  641poe    c23 3364   5.115   5.988   0.956 -0.5392 -0.4677  0.3115
  641poe     o2 3365   5.171   6.010   1.083  0.2821  1.0049 -0.2698
  641poe    c23 3366   5.310   5.985   1.078  0.1360  0.1480 -0.3160
  641poe    c23 3367   5.353   5.936   1.217 -0.6859  0.1036 -0.0740
  641poe     o2 3368   5.315   6.026   1.319 -0.2124  0.0197  0.1782
  641poe    c23 3369   5.297   5.969   1.447 -0.3248 -0.2911  0.0254
  641poe    c23 3370   5.235   6.076   1.539 -0.1068 -0.4587  0.3666
  641poe     o2 3371   5.153   6.155   1.457  0.7029  0.0180  0.0150
  641poe    c31 3372   5.087   6.246   1.542 -0.5146 -0.7866 -0.0370
  642poe    c31 3373   1.517   4.481   2.830 -0.0429 -0.1486 -0.3795
  642poe     o2 3374   1.394   4.463   2.897  0.3323  0.3247  0.4504
  642poe    c23 3375   1.407   4.402   3.023  0.9343 -0.0043  0.2303
  642poe    c23 3376   1.291   4.450   3.112  0.5385  0.5646 -0.5745
  642poe     o2 3377   1.182   4.459   3.024 -0.2152 -0.1546  0.2699
  642poe    c23 3378   1.063   4.506   3.084  0.1506  0.6079  0.3981
  642poe    c23 3379   0.952   4.466   2.986  0.5968 -0.6480  0.3831
  642poe     o2 3380   1.001   4.462   2.854 -0.4388  0.4443 -0.0573
  642poe    c23 3381   0.967   4.341   2.789  0.0179  0.1736  0.2061
  642poe    c23 3382   1.084   4.306   2.694 -0.0443  0.0657  0.1691
  642poe     o2 3383   1.206   4.307   2.764 -0.3671 -0.2674  0.7520
  642poe    c31 3384   1.295   4.219   2.699 -0.3059  0.2339  0.1399
  643poe    c31 3385   6.319   0.839   4.207 -0.4389 -0.3000 -0.0654
  643poe     o2 3386   6.437   0.763   4.192 -0.1647  0.0519  0.2838
  643poe    c23 3387   6.422   0.627   4.156  0.3282  0.0516  0.0677
  643poe    c23 3388   6.559   0.564   4.184  0.2253 -0.3052 -0.2239
  643poe     o2 3389   6.655   0.638   4.114  0.3395 -0.0453  0.2024
  643poe    c23 3390   6.766   0.559   4.079  0.2725 -0.0534  0.0052
  643poe    c23 3391   6.858   0.637   3.982  0.2336 -0.3495 -0.2714
  643poe     o2 3392   6.851   0.774   4.013  0.0910 -0.2639 -0.6862
  643poe    c23 3393   6.932   0.850   3.926  0.1508 -0.2137 -0.5871
  643poe    c23 3394   6.890   0.997   3.916  0.3420 -0.1307 -0.1929
  643poe     o2 3395   6.755   1.004   3.874  0.3612 -0.3506 -0.2898
  643poe    c31 3396   6.732   1.126   3.809 -0.0950  0.0227  0.5580
  644poe    c31 3397   4.377   2.993   6.444 -0.0065  0.2827 -0.1319
  644poe     o2 3398   4.380   3.119   6.381 -0.0969  0.3105 -0.0808
  644poe    c23 3399   4.293   3.204   6.452 -0.0368  0.5959 -0.3460
  644poe    c23 3400   4.264   3.330   6.368 -0.5411  0.0830 -0.9498
  644poe     o2 3401   4.369   3.424   6.363 -0.6621  0.2801 -0.0462
  644poe    c23 3402   4.418   3.455   6.234 -0.0896  0.1395  0.1349
  644poe    c23 3403   4.564   3.412   6.212 -0.1682  0.2086 -0.5214
  644poe     o2 3404   4.572   3.271   6.216 -0.4139  0.2193  0.4019
  644poe    c23 3405   4.705   3.236   6.251 -0.2078  0.2134 -0.3804
  644poe    c23 3406   4.735   3.092   6.205  0.1626  0.1555  0.0405
  644poe     o2 3407   4.628   3.012   6.250  0.2037  0.0151 -0.1108
  644poe    c31 3408   4.654   2.876   6.226  0.7810  0.1771 -0.4242
  645poe    c31 3409   3.157   1.818   3.377  0.2177  0.1967 -0.5739
  645poe     o2 3410   3.074   1.924   3.335 -0.3021 -0.1207 -0.3628
  645poe    c23 3411   2.949   1.875   3.293 -0.3780 -0.6173  0.4137
  645poe    c23 3412   2.861   1.970   3.210  0.4816  0.1083  0.3254
  645poe     o2 3413   2.850   2.092   3.281  0.0614  0.2783 -0.0261
  645poe    c23 3414   2.864   2.208   3.203 -0.0134  0.1799 -0.1873
  645poe    c23 3415   2.929   2.310   3.299 -0.0048 -0.5052  0.5456
  645poe     o2 3416   3.054   2.275   3.355  0.3501 -0.2301 -0.0646
  645poe    c23 3417   3.102   2.368   3.449 -0.1769  0.2677 -0.2800
  645poe    c23 3418   3.249   2.327   3.469 -0.2432  0.3144  0.3171
  645poe     o2 3419   3.256   2.186   3.479 -0.0971  0.2935 -0.0684
  645poe    c31 3420   3.387   2.137   3.502 -0.1242  0.1330 -0.2469
  646poe    c31 3421   0.365   6.474   2.108  0.8049 -0.0264  0.1186
  646poe     o2 3422   0.356   6.595   2.179 -0.4277  0.1250 -0.2786
  646poe    c23 3423   0.346   6.709   2.097  0.2221  0.1138 -0.3757
  646poe    c23 3424   0.347   6.840   2.177  0.3228 -0.1368  0.0344
  646poe     o2 3425   0.443   6.826   2.280  0.0822 -0.1725  0.2569
  646poe    c23 3426   0.471   6.945   2.350  0.2081 -0.0208 -0.0500
  646poe    c23 3427   0.593   6.907   2.436 -0.1610 -0.2911  0.3530
  646poe     o2 3428   0.547   6.789   2.498 -0.5580 -0.1327  0.3684
  646poe    c23 3429   0.662   6.714   2.534 -0.4976  0.0804  0.6248
  646poe    c23 3430   0.627   6.564   2.546 -0.6148  0.0485 -0.0735
  646poe     o2 3431   0.521   6.542   2.456 -0.4383  0.3162 -0.3509
  646poe    c31 3432   0.524   6.410   2.409  0.3021  0.1069  0.2718
  647poe    c31 3433   1.520   2.674   6.519  0.2016 -0.6182 -0.1883
  647poe     o2 3434   1.580   2.796   6.558  0.0350 -0.4952 -0.3167
  647poe    c23 3435   1.613   2.813   6.694 -0.1868  0.5109 -0.3796
  647poe    c23 3436   1.739   2.902   6.704  0.2088 -0.1295  0.3996
  647poe     o2 3437   1.725   3.038   6.669  0.5993 -0.2100 -0.0737
  647poe    c23 3438   1.760   3.054   6.533 -0.0202 -0.0634 -0.2159
  647poe    c23 3439   1.776   3.207   6.526 -0.1677 -0.0403 -0.0661
  647poe     o2 3440   1.659   3.275   6.566 -0.0127 -0.1332  0.5663
  647poe    c23 3441   1.696   3.411   6.579  0.0024 -0.0552 -0.2451
  647poe    c23 3442   1.575   3.484   6.640  0.3410  0.1371  0.1998
  647poe     o2 3443   1.518   3.412   6.748 -0.0644 -0.1048 -0.1733
  647poe    c31 3444   1.422   3.494   6.810  0.1212 -0.2043  0.2485
  648poe    c31 3445   3.505   2.167   6.504 -0.1872  1.0679 -0.0032
  648poe     o2 3446   3.628   2.151   6.436  0.0061  0.2384  0.5362
  648poe    c23 3447   3.717   2.058   6.493  0.3579  0.2272 -0.0257
  648poe    c23 3448   3.833   2.029   6.396 -0.0297  0.1621 -0.4745
  648poe     o2 3449   3.871   2.157   6.348  0.4958  0.2754  0.2211
  648poe    c23 3450   3.965   2.138   6.245  0.3044 -0.1605  0.1217
  648poe    c23 3451   3.979   2.279   6.185  0.5098 -0.2414 -0.0226
  648poe     o2 3452   3.847   2.328   6.174  0.5083 -0.2512 -0.0495
  648poe    c23 3453   3.849   2.440   6.088  0.3617 -0.0467  0.2138
  648poe    c23 3454   3.714   2.507   6.061  0.6749  0.5032  0.0098
  648poe     o2 3455   3.653   2.548   6.181  0.3586  0.1504 -0.0272
  648poe    c31 3456   3.527   2.608   6.157 -0.0283 -0.4786  0.3937
  649poe    c31 3457   3.550   5.899   6.318 -0.1463 -0.0200 -0.1204
  649poe     o2 3458   3.448   5.973   6.253 -0.5648 -0.2556  0.2688
  649poe    c23 3459   3.394   6.057   6.353 -0.1962  0.1542  0.1254
  649poe    c23 3460   3.308   6.171   6.297 -0.2112  0.2064  0.2566
  649poe     o2 3461   3.374   6.260   6.210  0.1919 -0.3515 -0.0164
  649poe    c23 3462   3.274   6.350   6.165  0.3104  0.0083  0.4334
  649poe    c23 3463   3.330   6.396   6.029 -0.1279  0.5533  0.4356
  649poe     o2 3464   3.463   6.442   6.036 -0.0579  0.4152  0.0204
  649poe    c23 3465   3.491   6.505   5.913  0.4076 -0.1911 -0.1907
  649poe    c23 3466   3.624   6.582   5.924  0.1721  0.2742 -0.5707
  649poe     o2 3467   3.724   6.496   5.975 -0.4188 -0.4775 -0.6520
  649poe    c31 3468   3.848   6.541   5.926 -0.4293 -0.0313 -0.2712
  650poe    c31 3469   2.726   5.099   2.722  0.6980  0.0380  0.1580
  650poe     o2 3470   2.806   5.043   2.621 -0.3122 -0.1774 -0.5438
  650poe    c23 3471   2.939   5.048   2.668 -0.5830 -0.0268  0.2249
  650poe    c23 3472   3.030   4.997   2.554 -0.2963  0.9251  0.0148
  650poe     o2 3473   2.960   4.932   2.450  0.1541  0.0148  0.2703
  650poe    c23 3474   3.036   4.921   2.331 -0.3993  1.0850 -0.1956
  650poe    c23 3475   2.927   4.913   2.222 -0.3190 -0.6535 -0.1612
  650poe     o2 3476   2.821   4.991   2.271  0.3490  0.5999 -0.6761
  650poe    c23 3477   2.710   4.980   2.184  0.1700  0.0659 -0.3868
  650poe    c23 3478   2.606   5.072   2.250  0.0331 -0.3011 -0.0869
  650poe     o2 3479   2.610   5.045   2.388  0.2821  0.4308  0.0524
  650poe    c31 3480   2.485   5.085   2.438 -0.3384 -1.2933 -0.0872
  651poe    c31 3481   2.383   1.453   2.554  0.3717 -0.1528  0.4077
  651poe     o2 3482   2.311   1.378   2.648 -0.4138  0.2699  0.1457
  651poe    c23 3483   2.341   1.420   2.779  0.4000  0.4486 -0.0944
  651poe    c23 3484   2.258   1.331   2.873 -0.2374  0.5663 -0.5420
  651poe     o2 3485   2.118   1.351   2.878 -0.3153  0.0072 -0.3390
  651poe    c23 3486   2.046   1.266   2.964  0.2521 -0.1222  0.0192
  651poe    c23 3487   1.899   1.310   2.981  0.0961 -0.5802 -0.1425
  651poe     o2 3488   1.844   1.346   2.856  0.0868  0.3563  0.1242
  651poe    c23 3489   1.718   1.406   2.873 -0.1883 -0.2740  0.3518
  651poe    c23 3490   1.664   1.445   2.734 -0.2624 -0.1534  0.4139
  651poe     o2 3491   1.781   1.482   2.665 -0.3752 -0.1668  0.2177
  651poe    c31 3492   1.756   1.541   2.539  0.2760 -0.0128  0.1564
  652poe    c31 3493   2.499   6.705   5.456 -0.4400  0.6691  0.3232
  652poe     o2 3494   2.482   6.577   5.514  0.2557  0.4363  0.0220
  652poe    c23 3495   2.614   6.533   5.534  0.0931 -0.2504 -0.3961
  652poe    c23 3496   2.630   6.387   5.581 -0.9298 -0.1022  0.4485
  652poe     o2 3497   2.610   6.301   5.471  0.0421  0.2635 -0.0214
  652poe    c23 3498   2.660   6.170   5.490 -0.0155  0.2007 -0.2954
  652poe    c23 3499   2.700   6.096   5.361  0.0411 -0.1932 -0.0534
  652poe     o2 3500   2.576   6.107   5.296  0.1397  0.0099 -0.2079
  652poe    c23 3501   2.566   6.042   5.171 -0.0606  0.1899 -0.2864
  652poe    c23 3502   2.435   6.089   5.106 -0.3288  0.1241  0.2026
  652poe     o2 3503   2.438   6.230   5.117 -0.1235  0.1311  0.0747
  652poe    c31 3504   2.349   6.294   5.029 -0.4272 -0.3324  0.0430
  653poe    c31 3505   6.073   4.463   5.422  0.0396  0.3548 -0.5164
  653poe     o2 3506   6.170   4.370   5.377  0.0428  0.0094  0.1850
  653poe    c23 3507   6.217   4.422   5.254  0.6953  1.0039  0.8390
  653poe    c23 3508   6.342   4.351   5.198 -0.0499  0.3423 -0.0067
  653poe     o2 3509   6.329   4.214   5.166  0.2796  0.3792 -0.3001
  653poe    c23 3510   6.458   4.156   5.173  0.2387  0.3000 -0.2015
  653poe    c23 3511   6.462   4.007   5.137 -0.3106  0.3017 -0.2801
  653poe     o2 3512   6.370   3.938   5.218 -0.1883  0.3436 -0.1044
  653poe    c23 3513   6.425   3.814   5.256 -0.3758  0.2260 -0.2120
  653poe    c23 3514   6.321   3.733   5.336  0.3640 -0.1389  0.3968
  653poe     o2 3515   6.234   3.824   5.399 -0.6433 -0.3843 -0.6195
  653poe    c31 3516   6.114   3.768   5.448 -0.3845 -0.9213 -0.6014
  654poe    c31 3517   4.917   4.058   0.722  0.0724  0.0255 -0.1012
  654poe     o2 3518   4.961   4.186   0.683 -0.2647  0.2246  0.1567
  654poe    c23 3519   4.915   4.211   0.552  0.3215  0.0006 -0.0969
  654poe    c23 3520   4.927   4.360   0.517 -0.7407  0.1531  0.1583
  654poe     o2 3521   4.892   4.418   0.640 -0.1494 -0.2364  0.5133
  654poe    c23 3522   4.871   4.557   0.629 -0.0899 -0.2667  0.0008
  654poe    c23 3523   4.928   4.627   0.754 -0.1469 -0.1859 -0.0179
  654poe     o2 3524   5.027   4.537   0.799 -0.5214 -0.6101 -0.0285
  654poe    c23 3525   5.089   4.597   0.912 -0.1640  0.0866 -0.5820
  654poe    c23 3526   5.143   4.517   1.032 -0.5645  0.1740 -0.3410
  654poe     o2 3527   5.052   4.439   1.105 -0.3356  0.2114 -0.0125
  654poe    c31 3528   5.030   4.485   1.236  0.1225 -0.1392  0.1896
  655poe    c31 3529   2.815   2.774   6.732 -0.0292  0.1366  0.4488
  655poe     o2 3530   2.774   2.665   6.653 -0.5785  0.2477  0.5710
  655poe    c23 3531   2.634   2.673   6.637 -0.5785  0.0006  0.4528
  655poe    c23 3532   2.581   2.563   6.543 -0.2756  0.0669  0.2026
  655poe     o2 3533   2.670   2.558   6.434 -0.0122 -0.7350  0.4474
  655poe    c23 3534   2.641   2.461   6.335  0.1581  0.0424 -0.3827
  655poe    c23 3535   2.763   2.450   6.242  0.2661  0.2929 -0.2717
  655poe     o2 3536   2.874   2.444   6.329 -0.3249 -0.4579  0.4477
  655poe    c23 3537   2.995   2.410   6.266 -0.4132 -0.0365  0.0394
  655poe    c23 3538   3.041   2.269   6.308  0.2918  0.1725 -0.0084
  655poe     o2 3539   3.049   2.255   6.448  0.7214  0.2191 -0.0274
  655poe    c31 3540   3.073   2.125   6.497 -0.6108 -0.3285 -0.7822
  656poe    c31 3541   0.443   0.867   3.177  0.1925  0.0580  0.0869
  656poe     o2 3542   0.542   0.774   3.138 -0.4809 -0.5461 -0.2022
  656poe    c23 3543   0.494   0.643   3.157 -0.3891 -0.6350 -0.5776
  656poe    c23 3544   0.592   0.575   3.253 -0.3286  0.4440  0.1396
  656poe     o2 3545   0.722   0.612   3.212 -0.1573 -0.7335 -0.4343
  656poe    c23 3546   0.814   0.517   3.259  0.0302 -0.1706  0.3718
  656poe    c23 3547   0.947   0.577   3.209 -0.3686 -0.0734 -0.5962
  656poe     o2 3548   0.938   0.715   3.236  0.0437 -0.1987  0.1989
  656poe    c23 3549   1.029   0.793   3.162  0.0987  0.2123  0.6951
  656poe    c23 3550   0.969   0.932   3.134 -0.3116 -0.1418 -0.2118
  656poe     o2 3551   0.834   0.919   3.096 -0.2718 -0.0427 -0.3878
  656poe    c31 3552   0.788   1.049   3.066 -0.0042  0.2002  0.2474
  657poe    c31 3553   2.074   0.900   0.940 -0.1936  0.3063  0.2953
  657poe     o2 3554   2.151   0.794   0.887 -0.2710  0.6282 -0.4778
  657poe    c23 3555   2.069   0.723   0.797 -0.2645  0.2935 -0.2204
  657poe    c23 3556   2.133   0.594   0.743  0.0451  0.3253  0.0659
  657poe     o2 3557   2.236   0.628   0.652  0.0268 -0.1689 -0.1422
  657poe    c23 3558   2.289   0.508   0.601  0.3388 -0.1121  0.0474
  657poe    c23 3559   2.401   0.553   0.504  0.0577 -0.2426 -0.3408
  657poe     o2 3560   2.487   0.644   0.569  0.3739 -0.3711 -0.5784
  657poe    c23 3561   2.592   0.697   0.491  0.1042  0.9799 -0.0581
  657poe    c23 3562   2.638   0.824   0.565  0.3833  0.3495  0.8736
  657poe     o2 3563   2.524   0.900   0.599 -0.4034 -0.2502 -0.3438
  657poe    c31 3564   2.557   1.024   0.658 -0.2207 -0.0577 -0.8434
  658poe    c31 3565   1.860   3.327   2.177 -0.8271 -0.2945 -0.0321
  658poe     o2 3566   1.871   3.298   2.039 -0.0895 -0.0021 -0.0391
  658poe    c23 3567   2.003   3.284   1.993 -0.0565 -0.2344  0.1230
  658poe    c23 3568   2.007   3.231   1.848  0.1440 -0.1706  0.1053
  658poe     o2 3569   1.969   3.096   1.834  0.3025 -0.2187  0.1258
  658poe    c23 3570   1.942   3.070   1.699 -0.6109 -0.6350  0.3794
  658poe    c23 3571   1.889   2.926   1.687 -0.1391 -0.7211 -0.8025
  658poe     o2 3572   1.771   2.913   1.762  0.1813 -0.2166 -0.2041
  658poe    c23 3573   1.709   2.788   1.737 -0.1580 -0.1444  0.2565
  658poe    c23 3574   1.586   2.782   1.829 -0.3243  0.5489  0.0861
  658poe     o2 3575   1.619   2.810   1.964  0.1777  0.2053  0.0398
  658poe    c31 3576   1.519   2.783   2.060  0.0094  0.3662 -0.0888
  659poe    c31 3577   3.707   3.815   6.199  0.2864  0.0938  0.3899
  659poe     o2 3578   3.746   3.924   6.279 -0.1550  0.2532  0.3953
  659poe    c23 3579   3.823   3.894   6.394  0.1791 -0.5701 -0.0305
  659poe    c23 3580   3.808   3.994   6.511  0.6161 -0.1989 -0.2884
  659poe     o2 3581   3.874   4.116   6.485 -0.0439  0.2714  0.2087
  659poe    c23 3582   3.833   4.213   6.578 -0.4011  0.2043  0.1228
  659poe    c23 3583   3.945   4.306   6.629 -0.2217  0.0572 -0.0054
  659poe     o2 3584   4.010   4.351   6.512 -0.2175  0.3380  0.1065
  659poe    c23 3585   4.107   4.449   6.541  0.0018  0.2408 -0.3033
  659poe    c23 3586   4.130   4.519   6.406 -0.1195 -0.2181 -0.5650
  659poe     o2 3587   4.158   4.421   6.309 -0.2679  0.1831 -1.0155
  659poe    c31 3588   4.185   4.467   6.178 -0.1332  0.7144 -0.8043
  660poe    c31 3589   3.085   5.277   5.287 -0.7021 -0.2838  0.6035
  660poe     o2 3590   3.211   5.234   5.243 -0.6354  0.4265  0.0884
  660poe    c23 3591   3.281   5.210   5.363  0.0365 -0.3282 -0.4448
  660poe    c23 3592   3.408   5.131   5.325  0.2108 -0.2527 -0.0229
  660poe     o2 3593   3.482   5.220   5.244  0.4259 -0.4126 -0.0026
  660poe    c23 3594   3.597   5.156   5.193  0.7580 -0.2402  0.5215
  660poe    c23 3595   3.704   5.248   5.133  0.1961  0.1340  0.0797
  660poe     o2 3596   3.629   5.354   5.080  0.4752 -0.0365 -0.6649
  660poe    c23 3597   3.708   5.468   5.053  0.0861  0.4586  0.2541
  660poe    c23 3598   3.642   5.558   4.947 -0.0700  0.0824  0.0306
  660poe     o2 3599   3.524   5.624   4.987 -0.0266 -0.0847  0.4302
  660poe    c31 3600   3.494   5.733   4.903  0.1673  0.1478  0.6611
  661poe    c31 3601   0.326   0.868   4.685  0.7651 -0.4638  0.3193
  661poe     o2 3602   0.430   0.788   4.633  0.3995 -0.7807  0.0749
  661poe    c23 3603   0.516   0.738   4.732  0.2233 -0.1719  0.5401
  661poe    c23 3604   0.660   0.725   4.680  0.0693 -0.0416  0.0752
  661poe     o2 3605   0.655   0.632   4.575 -0.1108 -0.1056  0.1401
  661poe    c23 3606   0.757   0.635   4.477 -0.2639 -0.1267 -0.0220
  661poe    c23 3607   0.739   0.752   4.378  0.0481 -0.2069 -0.1718
  661poe     o2 3608   0.602   0.745   4.348 -0.2134  0.3922  0.8665
  661poe    c23 3609   0.554   0.842   4.257  0.1431 -0.1583  0.0870
  661poe    c23 3610   0.407   0.803   4.235  0.0584  0.2441 -0.0636
  661poe     o2 3611   0.342   0.789   4.360  0.6893  0.7550  0.3228
  661poe    c31 3612   0.202   0.795   4.358  0.6694  0.1992 -0.1190
  662poe    c31 3613   0.260   2.908   6.708 -0.5112 -0.0404 -0.1012
  662poe     o2 3614   0.223   2.879   6.841  0.0307  0.3549  0.1390
  662poe    c23 3615   0.243   2.743   6.871  0.4655  0.3827 -0.0212
  662poe    c23 3616   0.316   2.729   7.007 -0.0525 -0.1720  0.2039
  662poe     o2 3617   0.259   2.828   7.090  0.1196 -0.1380  0.2808
  662poe    c23 3618   0.340   2.867   7.198  0.3820 -0.0350  0.0491
  662poe    c23 3619   0.379   3.013   7.167  0.1915 -0.0262 -0.1489
  662poe     o2 3620   0.277   3.068   7.088  0.0822  0.3730  0.2670
  662poe    c23 3621   0.316   3.191   7.031 -0.1615  0.3164 -0.0275
  662poe    c23 3622   0.195   3.236   6.948  0.2064  0.2843 -0.5886
  662poe     o2 3623   0.123   3.122   6.906  0.1325  0.2410 -0.3469
  662poe    c31 3624   0.026   3.167   6.814 -0.1895  0.2586  0.0017
  663poe    c31 3625   0.738   4.673   6.250  0.2466  0.0541  0.3037
  663poe     o2 3626   0.806   4.614   6.359  0.6344  0.3760  0.2377
  663poe    c23 3627   0.748   4.644   6.484 -0.0348 -0.7574  0.2149
  663poe    c23 3628   0.849   4.621   6.598  0.5313 -0.1951 -0.1592
  663poe     o2 3629   0.889   4.487   6.581  0.1216 -0.3395 -0.0146
  663poe    c23 3630   0.992   4.455   6.672 -0.1374 -0.3651  0.2700
  663poe    c23 3631   0.998   4.302   6.655  0.1206 -0.3615  0.3285
  663poe     o2 3632   1.024   4.269   6.521 -0.3040 -0.2374  0.2138
  663poe    c23 3633   0.944   4.163   6.472  0.2336 -0.2992 -0.5496
  663poe    c23 3634   0.940   4.189   6.320  0.2673 -0.0599 -0.5101
  663poe     o2 3635   0.905   4.323   6.295  0.4460  0.0387 -0.2362
  663poe    c31 3636   0.878   4.332   6.157 -0.0137  0.5328 -0.1213
  664poe    c31 3637   3.174   0.501   1.357  0.0570 -0.0961  0.2980
  664poe     o2 3638   3.210   0.405   1.454  0.1127 -0.1109  0.2629
  664poe    c23 3639   3.344   0.364   1.436  0.0509 -0.0335 -0.3790
  664poe    c23 3640   3.375   0.286   1.565  0.1030  0.1790 -0.2639
  664poe     o2 3641   3.318   0.350   1.678 -0.0313 -0.2185 -0.1070
  664poe    c23 3642   3.376   0.299   1.796 -0.2607 -0.3957 -0.0708
  664poe    c23 3643   3.335   0.392   1.911  0.0068  0.1842 -0.4410
  664poe     o2 3644   3.198   0.423   1.913 -0.2000 -0.7213  0.3986
  664poe    c23 3645   3.175   0.529   2.004 -0.2385 -0.2893 -0.1080
  664poe    c23 3646   3.045   0.611   1.997 -0.1185 -0.0379  0.5688
  664poe     o2 3647   3.048   0.662   1.865 -0.2714 -0.5746  0.3561
  664poe    c31 3648   2.917   0.691   1.819  0.0460 -0.0297 -0.2190
  665poe    c31 3649   1.951   2.076   3.417  0.1444 -0.2877 -0.2251
  665poe     o2 3650   2.022   2.092   3.297 -0.2386  0.6415 -0.3378
  665poe    c23 3651   2.084   2.219   3.301  0.1469  0.4312  0.8027
  665poe    c23 3652   2.167   2.252   3.176 -0.4721  0.0737  0.2846
  665poe     o2 3653   2.250   2.141   3.152  0.3864  0.7406  0.0981
  665poe    c23 3654   2.302   2.152   3.021 -0.0149  0.3302 -0.0988
  665poe    c23 3655   2.408   2.041   3.033 -0.2320  0.1532  0.2177
  665poe     o2 3656   2.347   1.921   3.074  0.5164 -0.1347  0.5199
  665poe    c23 3657   2.443   1.818   3.071  0.1710 -0.4563  0.3465
  665poe    c23 3658   2.380   1.682   3.106 -0.1554 -0.3848  0.0424
  665poe     o2 3659   2.325   1.685   3.236 -0.7314  0.6820 -0.2119
  665poe    c31 3660   2.254   1.565   3.253  0.1848  0.1305 -0.2355
  666poe    c31 3661   1.690   4.639   2.349 -0.3360 -0.2019  0.0291
  666poe     o2 3662   1.714   4.671   2.484 -0.5558 -0.1206  0.0497
  666poe    c23 3663   1.644   4.790   2.514 -0.5101 -0.2291  0.5818
  666poe    c23 3664   1.669   4.839   2.658 -0.5678  0.0844  0.4851
  666poe     o2 3665   1.804   4.812   2.687 -0.5624 -0.1839  0.2107
  666poe    c23 3666   1.838   4.835   2.822  0.2582 -0.2871  0.0284
  666poe    c23 3667   1.934   4.718   2.850  0.2805 -0.2938 -0.0764
  666poe     o2 3668   1.892   4.607   2.773  0.0949 -0.1417 -0.1955
  666poe    c23 3669   1.969   4.493   2.804 -0.1428 -0.1512  0.3725
  666poe    c23 3670   1.898   4.385   2.720 -0.7700  0.6317 -0.1192
  666poe     o2 3671   1.865   4.460   2.605  0.0138  0.2717 -0.5874
  666poe    c31 3672   1.806   4.365   2.519 -0.0812 -0.2072 -0.0024
  667poe    c31 3673   1.956   5.733   3.696  0.1337  0.0884 -0.4114
  667poe     o2 3674   1.968   5.854   3.766  0.3095 -0.1850  0.0314
  667poe    c23 3675   2.019   5.952   3.679  0.5039 -0.1046  0.2325
  667poe    c23 3676   1.991   6.087   3.748  0.2550  0.1219 -0.3076
  667poe     o2 3677   2.057   6.069   3.871  0.1724  0.1189 -0.2637
  667poe    c23 3678   2.058   6.182   3.955 -0.1973  0.0568 -0.1716
  667poe    c23 3679   2.002   6.142   4.093  0.1123  0.1648 -0.0130
  667poe     o2 3680   2.049   6.017   4.139 -0.0190  0.2148  0.2623
  667poe    c23 3681   2.049   6.027   4.280  0.1271  0.1164  0.2693
  667poe    c23 3682   2.026   5.883   4.330 -0.1145  0.2323  0.4983
  667poe     o2 3683   1.903   5.832   4.285  0.3839 -0.2417 -0.3673
  667poe    c31 3684   1.893   5.701   4.337 -0.2972 -0.2805 -0.5793
  668poe    c31 3685   1.296   5.643   4.050  0.4685 -0.2644  0.0221
  668poe     o2 3686   1.298   5.516   3.989  0.0520 -0.0827 -0.3742
  668poe    c23 3687   1.182   5.453   4.038  0.2183 -0.5268 -0.5465
  668poe    c23 3688   1.133   5.332   3.956 -0.3160 -0.1988 -0.7116
  668poe     o2 3689   1.258   5.278   3.920  0.1588  0.8076 -0.6234
  668poe    c23 3690   1.254   5.211   3.796 -0.0422  0.2015 -0.2922
  668poe    c23 3691   1.399   5.183   3.753 -0.0567 -0.2426 -0.0657
  668poe     o2 3692   1.470   5.299   3.791 -0.4172 -0.0357 -0.0227
  668poe    c23 3693   1.586   5.324   3.716 -0.2734 -0.2958  0.1114
  668poe    c23 3694   1.629   5.466   3.760 -0.0929 -0.3685  0.1714
  668poe     o2 3695   1.590   5.471   3.895 -0.7866  0.5433 -0.0526
  668poe    c31 3696   1.646   5.577   3.969  0.1353 -0.3145  0.5049
  669poe    c31 3697   1.047   6.261   1.257 -0.4803 -0.1880  0.0295
  669poe     o2 3698   0.983   6.144   1.304 -0.4703 -0.2653 -0.1460
  669poe    c23 3699   0.883   6.169   1.400 -0.3158  0.1072 -0.0757
  669poe    c23 3700   0.827   6.026   1.422  0.6397 -0.3131 -0.3316
  669poe     o2 3701   0.768   5.957   1.314 -0.0557 -0.1642 -0.0532
  669poe    c23 3702   0.690   5.847   1.352 -0.6939  0.3118  0.0343
  669poe    c23 3703   0.622   5.786   1.228  0.0354 -0.1776 -0.1309
  669poe     o2 3704   0.722   5.791   1.129 -0.2918  0.2274 -0.4386
  669poe    c23 3705   0.670   5.738   1.009 -0.7445  0.5695 -0.3978
  669poe    c23 3706   0.778   5.773   0.905  0.0184 -0.1738  0.1264
  669poe     o2 3707   0.822   5.902   0.942  0.4421 -0.2220 -0.2105
  669poe    c31 3708   0.927   5.942   0.857  0.6763 -0.4402 -0.0256
  670poe    c31 3709   6.326   6.709   5.920  0.3412 -0.4660  0.1534
  670poe     o2 3710   6.395   6.832   5.922  0.2857 -0.4325  0.0182
  670poe    c23 3711   6.298   6.925   5.964  0.5970  0.1726 -0.5902
  670poe    c23 3712   6.337   7.070   5.929  0.7294  0.2145 -0.2707
  670poe     o2 3713   6.450   7.108   6.003  0.2059  0.2624  0.5157
  670poe    c23 3714   6.480   7.244   5.987  0.1463  0.1885 -0.2687
  670poe    c23 3715   6.603   7.272   6.076 -0.2161  0.1954  0.2329
  670poe     o2 3716   6.703   7.175   6.051 -0.2203  0.3087 -0.2317
  670poe    c23 3717   6.831   7.229   6.077 -0.1480  0.3672 -0.6994
  670poe    c23 3718   6.931   7.147   5.994  0.1749 -0.2166  0.2469
  670poe     o2 3719   6.892   7.012   5.999  0.5377 -0.3249  0.1856
  670poe    c31 3720   7.003   6.929   5.972  0.6791 -0.0849  0.0353
  671poe    c31 3721   6.570   6.271   4.151 -0.3426 -0.0246 -0.2449
  671poe     o2 3722   6.537   6.180   4.253  0.0140  0.0293 -0.0795
  671poe    c23 3723   6.652   6.188   4.334  0.0022 -0.1254 -0.0473
  671poe    c23 3724   6.623   6.106   4.461 -0.0183 -0.6184 -0.3706
  671poe     o2 3725   6.515   6.162   4.531  0.6770  0.3185 -0.0316
  671poe    c23 3726   6.501   6.126   4.667  0.0023  0.8856  0.0591
  671poe    c23 3727   6.364   6.178   4.714 -0.3381  0.2583 -0.2156
  671poe     o2 3728   6.261   6.152   4.621 -0.0797  0.1550 -0.4751
  671poe    c23 3729   6.138   6.197   4.674  0.0400  0.4404 -0.4342
  671poe    c23 3730   6.029   6.186   4.566 -0.1364 -0.4841 -0.1724
  671poe     o2 3731   6.083   6.241   4.447  0.0452 -0.2191  0.0309
  671poe    c31 3732   5.985   6.232   4.346 -0.0662  0.7482  0.0452
  672poe    c31 3733   1.437   6.218   4.438  0.4204 -0.0133  0.0876
  672poe     o2 3734   1.320   6.175   4.503  0.2225  0.0999 -0.1912
  672poe    c23 3735   1.276   6.261   4.606  0.2178 -0.0429 -0.0726
  672poe    c23 3736   1.151   6.193   4.665  0.3626 -0.1942  0.0596
  672poe     o2 3737   1.079   6.165   4.547  0.1737  0.5060  0.0083
  672poe    c23 3738   0.943   6.145   4.578  0.2155 -0.6114 -0.5070
  672poe    c23 3739   0.863   6.146   4.446 -0.5340  0.7273 -0.0579
  672poe     o2 3740   0.927   6.058   4.357 -0.8544  0.1049  0.3214
  672poe    c23 3741   0.835   6.051   4.251 -0.3313 -0.0022 -0.1306
  672poe    c23 3742   0.902   6.026   4.115  0.2598  0.3272  0.0999
  672poe     o2 3743   0.990   6.124   4.063  0.4128  0.1316 -0.0101
  672poe    c31 3744   1.032   6.096   3.931  0.7800 -0.2991  0.1950
  673poe    c31 3745   0.851   3.234   0.356  0.1944 -0.0977  0.2638
  673poe     o2 3746   0.901   3.346   0.287  0.0445  0.0542  0.4021
  673poe    c23 3747   0.930   3.313   0.153  0.3854  0.1824  0.4442
  673poe    c23 3748   1.052   3.403   0.123  0.0885  0.5339  0.2869
  673poe     o2 3749   1.007   3.527   0.171  0.4362  0.7297  0.1115
  673poe    c23 3750   1.115   3.617   0.162  0.6343  0.4927  0.1127
  673poe    c23 3751   1.056   3.744   0.227  0.2959  0.4728 -0.1535
  673poe     o2 3752   1.033   3.721   0.364  0.5448 -0.0656 -0.1980
  673poe    c23 3753   0.985   3.843   0.418 -0.0418 -0.3533 -0.0558
  673poe    c23 3754   0.936   3.829   0.563  0.1788  0.0612  0.0606
  673poe     o2 3755   0.826   3.742   0.580  0.4464 -0.2666  0.1296
  673poe    c31 3756   0.769   3.760   0.707 -0.6320  0.1913 -0.4070
  674poe    c31 3757   4.917   3.281   0.184  0.0449 -0.4249  0.4139
  674poe     o2 3758   4.924   3.371   0.293  0.0437 -0.0153  0.0808
  674poe    c23 3759   4.959   3.502   0.255  0.4435 -0.1707 -0.0979
  674poe    c23 3760   4.981   3.575   0.389  0.1199  0.4442 -0.3753
  674poe     o2 3761   4.876   3.528   0.471  0.3207  0.3984 -0.1450
  674poe    c23 3762   4.899   3.574   0.602 -0.0436 -0.1134  0.1025
  674poe    c23 3763   4.848   3.464   0.697  0.3573 -0.3700  0.0224
  674poe     o2 3764   4.887   3.343   0.635  0.5313 -0.3449  0.0831
  674poe    c23 3765   4.856   3.231   0.714  0.0572 -0.0984  0.2495
  674poe    c23 3766   4.926   3.114   0.642 -0.0567  0.0433 -0.0920
  674poe     o2 3767   4.919   3.132   0.502 -0.0864  0.0321 -0.0920
  674poe    c31 3768   4.978   3.022   0.435  0.3946  0.6281 -0.6564
  675poe    c31 3769   5.871   3.750   6.187  0.5124 -0.1759 -0.0715
  675poe     o2 3770   5.964   3.799   6.281  0.2956  0.6939 -0.3032
  675poe    c23 3771   5.908   3.890   6.373 -0.0287  0.8140 -0.6169
  675poe    c23 3772   6.016   3.978   6.438  0.1741 -0.0515  0.2394
  675poe     o2 3773   6.106   3.890   6.503  0.4465 -0.2792 -0.4344
  675poe    c23 3774   6.115   3.894   6.643 -0.7454 -0.5619 -0.3387
  675poe    c23 3775   6.253   3.841   6.688 -0.1824  0.6221 -0.6314
  675poe     o2 3776   6.267   3.704   6.656  0.1183  0.4592  0.1777
  675poe    c23 3777   6.321   3.634   6.766  0.2146  0.2014 -0.0332
  675poe    c23 3778   6.288   3.485   6.748 -0.1574  0.1165  1.2737
  675poe     o2 3779   6.151   3.454   6.739 -0.0144 -0.2634  0.2594
  675poe    c31 3780   6.094   3.432   6.866 -0.2007 -0.2257  0.1831
  676poe    c31 3781   2.364   6.377   1.289 -0.1371  0.0033 -0.0359
  676poe     o2 3782   2.242   6.418   1.232 -0.1846 -0.3007 -0.1558
  676poe    c23 3783   2.156   6.455   1.338 -0.1507 -0.2320 -0.1520
  676poe    c23 3784   2.017   6.498   1.287 -0.1627 -0.3164 -0.1919
  676poe     o2 3785   1.986   6.389   1.204  0.2534 -0.5152 -0.0941
  676poe    c23 3786   1.857   6.400   1.147  0.1009  0.2429  0.3765
  676poe    c23 3787   1.872   6.450   1.002 -0.3421 -0.3989  0.1021
  676poe     o2 3788   1.975   6.372   0.945 -0.0664  0.2957 -0.3640
  676poe    c23 3789   2.016   6.390   0.811  0.3103 -0.6219 -0.3768
  676poe    c23 3790   2.147   6.309   0.808  0.5439 -0.2526 -0.1920
  676poe     o2 3791   2.216   6.334   0.928 -0.2344 -0.8479  0.3825
  676poe    c31 3792   2.355   6.329   0.901 -0.2054  0.6569  0.1871
  677poe    c31 3793   5.741   0.921   0.304  0.7078  0.8089 -0.6733
  677poe     o2 3794   5.733   0.865   0.175 -0.7999  0.1262 -0.3093
  677poe    c23 3795   5.662   0.744   0.158 -0.3187 -0.1887 -0.1298
  677poe    c23 3796   5.644   0.718   0.007 -0.0732  0.1193 -0.2129
  677poe     o2 3797   5.772   0.679  -0.038 -0.2041 -0.4582 -0.0880
  677poe    c23 3798   5.780   0.666  -0.179 -0.1025 -1.2463 -0.0162
  677poe    c23 3799   5.921   0.612  -0.208  0.2557 -0.3090 -0.0412
  677poe     o2 3800   6.022   0.684  -0.141 -0.1410 -0.4298  0.6995
  677poe    c23 3801   6.146   0.616  -0.144  0.1435  0.1084 -0.1243
  677poe    c23 3802   6.260   0.713  -0.107 -0.0654  0.0792  0.6128
  677poe     o2 3803   6.255   0.780   0.017  0.2006 -0.1485  0.7486
  677poe    c31 3804   6.367   0.864   0.033  0.0983 -0.0274  0.8328
  678poe    c31 3805   0.243   4.418   4.513 -0.2352 -0.1629  0.4936
  678poe     o2 3806   0.353   4.436   4.599  0.1186  0.0174  0.0074
  678poe    c23 3807   0.480   4.425   4.538  0.0609  0.2979 -0.1657
  678poe    c23 3808   0.582   4.411   4.653 -0.5724 -0.0445  0.3581
  678poe     o2 3809   0.553   4.512   4.748  0.2524  0.1883  0.3665
  678poe    c23 3810   0.616   4.485   4.871 -0.0366  0.1210  0.5019
  678poe    c23 3811   0.549   4.580   4.971 -0.1307 -0.2202  0.7638
  678poe     o2 3812   0.408   4.569   4.969 -0.1274 -0.1980 -0.1490
  678poe    c23 3813   0.364   4.679   5.046  0.0489 -0.2221 -0.0112
  678poe    c23 3814   0.254   4.630   5.143 -0.3972  0.1604 -0.3187
  678poe     o2 3815   0.160   4.560   5.065 -0.1297 -0.0548 -0.4514
  678poe    c31 3816   0.081   4.474   5.144  0.4123 -0.0186  0.1384
  679poe    c31 3817   0.089   2.096   4.874 -0.0101  0.6357  0.2457
  679poe     o2 3818  -0.032   2.116   4.943 -0.2667 -0.1258  0.0319
  679poe    c23 3819  -0.129   2.130   4.843  0.0605 -0.3278 -0.3158
  679poe    c23 3820  -0.270   2.111   4.903 -0.0107  0.1972 -0.3119
  679poe     o2 3821  -0.274   2.165   5.033 -0.0300  0.0128 -0.2356
  679poe    c23 3822  -0.379   2.110   5.109 -0.1519  0.1619 -0.2947
  679poe    c23 3823  -0.424   2.213   5.214  0.0161  0.2918 -0.3501
  679poe     o2 3824  -0.308   2.255   5.282  0.0607 -0.2560 -0.0796
  679poe    c23 3825  -0.345   2.365   5.362  0.0979  0.0460 -0.4761
  679poe    c23 3826  -0.268   2.381   5.494 -0.3529 -0.2252 -0.1802
  679poe     o2 3827  -0.307   2.298   5.601  0.4088 -0.4028 -0.0321
  679poe    c31 3828  -0.245   2.336   5.722 -0.1410 -0.0922  0.1552
  680poe    c31 3829   4.637   4.222   3.908  0.4012 -0.0582  0.1824
  680poe     o2 3830   4.637   4.361   3.888  0.3244 -0.0699  0.0966
  680poe    c23 3831   4.764   4.419   3.863  0.2698  0.0211  0.0286
  680poe    c23 3832   4.737   4.569   3.846 -0.0379 -0.0212  0.1248
  680poe     o2 3833   4.670   4.619   3.733  0.1600  0.1039  0.0602
  680poe    c23 3834   4.745   4.611   3.614 -0.1744 -0.9822 -0.0970
  680poe    c23 3835   4.681   4.682   3.493  0.4062 -0.2107  0.0374
  680poe     o2 3836   4.550   4.632   3.485 -0.0513  0.9526  0.0201
  680poe    c23 3837   4.470   4.684   3.381 -0.3955  0.1130 -0.1475
  680poe    c23 3838   4.332   4.615   3.373 -0.0433 -0.6205  0.0510
  680poe     o2 3839   4.276   4.617   3.503  0.6085 -0.0803  0.3312
  680poe    c31 3840   4.154   4.546   3.496  0.9078 -0.5723  0.0656
  681poe    c31 3841   2.383   3.237   4.099  0.0530  0.1027  0.5178
  681poe     o2 3842   2.405   3.373   4.069 -0.5880  0.1060  0.0170
  681poe    c23 3843   2.494   3.389   3.961  0.1343  0.0110  0.5900
  681poe    c23 3844   2.545   3.534   3.966  0.0343  0.0956 -0.6830
  681poe     o2 3845   2.438   3.621   3.995  0.3884  0.4441 -0.3942
  681poe    c23 3846   2.474   3.749   4.040 -0.0257  0.3599  0.1926
  681poe    c23 3847   2.424   3.759   4.185 -0.0346 -0.6904  0.2701
  681poe     o2 3848   2.317   3.670   4.207 -0.1009 -0.6528  0.1009
  681poe    c23 3849   2.279   3.673   4.343 -0.2235  0.0924  0.0595
  681poe    c23 3850   2.175   3.565   4.378  0.3012 -0.2432  0.6095
  681poe     o2 3851   2.172   3.480   4.266 -0.3862  0.3166  0.1934
  681poe    c31 3852   2.065   3.387   4.264  0.5036 -0.7159 -0.1720
  682poe    c31 3853   5.114   2.330   4.419 -0.2429  0.3326  0.2240
  682poe     o2 3854   5.105   2.289   4.554 -0.1245  0.5072  0.2852
  682poe    c23 3855   5.181   2.366   4.645  0.2057  0.3932  0.1073
  682poe    c23 3856   5.149   2.322   4.789  0.2442  0.2385  0.0687
  682poe     o2 3857   5.200   2.195   4.823 -0.0694  0.0690 -0.0899
  682poe    c23 3858   5.329   2.195   4.880  0.1240  0.0143 -0.5176
  682poe    c23 3859   5.387   2.057   4.914 -0.3300 -0.0134  0.1639
  682poe     o2 3860   5.371   1.966   4.808  0.2220 -0.2874  0.3127
  682poe    c23 3861   5.484   1.882   4.797  0.2505 -0.2386  0.2271
  682poe    c23 3862   5.464   1.794   4.672 -0.2856  0.1443  0.0407
  682poe     o2 3863   5.326   1.769   4.655 -0.2366  0.0068 -0.1533
  682poe    c31 3864   5.319   1.651   4.577  0.1668 -0.1003 -0.0295
  683poe    c31 3865   2.319   5.779   2.969  0.2790 -0.3650  0.5982
  683poe     o2 3866   2.399   5.704   2.880  0.0190  0.4780 -0.3717
  683poe    c23 3867   2.517   5.657   2.942 -0.4405 -0.3848 -0.1364
  683poe    c23 3868   2.628   5.640   2.837 -0.3389  0.4507 -0.1682
  683poe     o2 3869   2.573   5.570   2.728 -0.0922 -0.5967  0.3648
  683poe    c23 3870   2.677   5.528   2.643 -0.0067  0.1635  0.0826
  683poe    c23 3871   2.629   5.509   2.498 -0.4198  0.0099  0.2366
  683poe     o2 3872   2.632   5.640   2.444  0.0396 -0.1496 -0.1358
  683poe    c23 3873   2.582   5.649   2.313 -0.5766  0.0519  0.1086
  683poe    c23 3874   2.536   5.794   2.291  0.0735  0.2809  0.2402
  683poe     o2 3875   2.430   5.829   2.377 -0.1602 -0.3262  0.2046
  683poe    c31 3876   2.336   5.903   2.303  0.2828 -0.3466 -0.3873
  684poe    c31 3877   1.817   4.710   1.290 -0.4090  0.4586  0.9841
  684poe     o2 3878   1.703   4.738   1.211 -0.1781  0.0766  0.5130
  684poe    c23 3879   1.687   4.874   1.177 -0.0423 -0.0537 -0.0748
  684poe    c23 3880   1.590   4.868   1.057  0.0906 -0.1281 -0.1796
  684poe     o2 3881   1.481   4.786   1.091 -0.1336  0.0821 -0.3838
  684poe    c23 3882   1.374   4.789   1.000 -0.0991 -0.5610 -0.4518
  684poe    c23 3883   1.282   4.675   1.047 -0.3220 -0.0240  0.4369
  684poe     o2 3884   1.241   4.687   1.182 -0.4292  0.3252  0.3730
  684poe    c23 3885   1.146   4.590   1.220 -0.0468 -0.2596 -0.1405
  684poe    c23 3886   1.115   4.598   1.371 -0.1870  0.0943 -0.1860
  684poe     o2 3887   1.229   4.578   1.451 -0.0740  0.6575 -0.2019
  684poe    c31 3888   1.202   4.576   1.590  1.0328 -0.1454  0.0237
  685poe    c31 3889   4.885   0.848   3.461 -0.1964  0.1197 -0.6452
  685poe     o2 3890   4.746   0.851   3.485 -0.0874  0.0518  0.0080
  685poe    c23 3891   4.714   0.769   3.596 -0.1784  0.2822  0.1539
  685poe    c23 3892   4.562   0.771   3.622 -0.1579  0.2040  0.2819
  685poe     o2 3893   4.512   0.900   3.647 -0.2903  0.1349  0.3725
  685poe    c23 3894   4.377   0.883   3.686 -0.2456 -0.5052  0.2516
  685poe    c23 3895   4.338   1.019   3.746  0.3353 -0.1561 -0.1455
  685poe     o2 3896   4.381   1.123   3.662 -0.0242  0.3894  0.3318
  685poe    c23 3897   4.339   1.250   3.707 -0.3460  0.4528 -0.1403
  685poe    c23 3898   4.408   1.359   3.623 -0.0111  0.2000 -0.1965
  685poe     o2 3899   4.535   1.316   3.580 -0.1879 -0.3380 -0.1906
  685poe    c31 3900   4.578   1.416   3.490  0.1145  0.2782  0.6276
  686poe    c31 3901   5.584   4.722   4.254  0.3815  0.1280  0.1897
  686poe     o2 3902   5.525   4.613   4.321  0.3159  0.0912  0.0719
  686poe    c23 3903   5.546   4.623   4.461  0.0825 -0.1381  0.1228
  686poe    c23 3904   5.425   4.568   4.539 -0.2122 -0.1037 -0.2991
  686poe     o2 3905   5.389   4.432   4.524 -0.1044 -0.1299 -0.3252
  686poe    c23 3906   5.248   4.421   4.531 -0.1505  0.6297  0.0685
  686poe    c23 3907   5.177   4.288   4.501  0.5389  0.2889 -0.0601
  686poe     o2 3908   5.183   4.257   4.364  0.2438 -0.0117 -0.0056
  686poe    c23 3909   5.110   4.145   4.318 -0.3960  0.7030 -0.7746
  686poe    c23 3910   5.157   4.109   4.176  0.5129  0.1982 -0.3579
  686poe     o2 3911   5.188   4.228   4.107  0.3003  0.4987  0.0627
  686poe    c31 3912   5.121   4.224   3.983  0.3378  0.1862  0.0523
  687poe    c31 3913   6.433   1.583   6.353  0.4038 -0.4078  0.3515
  687poe     o2 3914   6.387   1.546   6.481 -0.1657 -0.5812  0.0983
  687poe    c23 3915   6.335   1.649   6.562  0.2972 -0.1261 -0.1804
  687poe    c23 3916   6.237   1.603   6.672  0.1080 -0.4631 -0.4886
  687poe     o2 3917   6.323   1.508   6.732  0.0967 -0.1181  0.0794
  687poe    c23 3918   6.311   1.503   6.872  0.3034  0.0406  0.1038
  687poe    c23 3919   6.358   1.364   6.920 -0.0898 -0.1020  0.0768
  687poe     o2 3920   6.496   1.359   6.893 -0.1651  0.2219 -0.3896
  687poe    c23 3921   6.535   1.229   6.853  0.0336  0.1228  0.1100
  687poe    c23 3922   6.637   1.256   6.741 -0.5358 -0.6856 -0.6209
  687poe     o2 3923   6.591   1.337   6.635 -0.2298  0.0590 -0.1950
  687poe    c31 3924   6.700   1.355   6.548 -0.4458  0.3495 -0.4090
  688poe    c31 3925   4.118   0.764   6.649  0.2541 -0.2014 -0.4425
  688poe     o2 3926   4.008   0.831   6.593 -0.0838 -0.5958 -0.2511
  688poe    c23 3927   3.887   0.760   6.612 -0.5077  0.2142  0.1079
  688poe    c23 3928   3.773   0.834   6.538 -0.7859 -0.3743 -0.0554
  688poe     o2 3929   3.735   0.955   6.599  0.0792  0.0170 -0.2800
  688poe    c23 3930   3.614   0.993   6.538  0.0098 -0.1332 -0.2359
  688poe    c23 3931   3.565   1.124   6.602  0.4311 -0.0629 -0.0530
  688poe     o2 3932   3.682   1.203   6.602  0.3742  0.0221 -0.0225
  688poe    c23 3933   3.671   1.334   6.653  0.1168  0.0066 -0.0335
  688poe    c23 3934   3.807   1.402   6.678 -0.1118  0.5131 -0.1692
  688poe     o2 3935   3.891   1.319   6.754 -0.1625  0.5030 -0.1235
  688poe    c31 3936   4.000   1.400   6.793  0.5583 -0.4922 -0.0128
  689poe    c31 3937   2.774   4.832   0.191 -0.4021 -0.4991 -0.5146
  689poe     o2 3938   2.639   4.857   0.223 -0.1226 -0.0737  0.3643
  689poe    c23 3939   2.558   4.892   0.113  0.0811  0.0138  0.2417
  689poe    c23 3940   2.415   4.871   0.166 -0.0837 -0.1835 -0.2772
  689poe     o2 3941   2.391   4.964   0.269  0.0168 -0.0696 -0.3551
  689poe    c23 3942   2.266   4.940   0.331 -0.0377 -0.0973 -0.4750
  689poe    c23 3943   2.248   5.040   0.447 -0.2092 -0.9168  0.2163
  689poe     o2 3944   2.352   5.031   0.542 -0.2678 -0.7491  0.2974
  689poe    c23 3945   2.337   5.098   0.666 -0.1307  0.1829 -0.1818
  689poe    c23 3946   2.473   5.099   0.737 -0.0846  0.2600 -0.2704
  689poe     o2 3947   2.568   5.180   0.672 -0.0810  0.1051 -0.4612
  689poe    c31 3948   2.693   5.182   0.738 -0.4140 -0.6930  0.2071
  690poe    c31 3949   4.045   1.340   0.393  0.2965  0.2996  0.2546
  690poe     o2 3950   4.136   1.306   0.496  0.1664  0.3795  0.3973
  690poe    c23 3951   4.259   1.270   0.436 -0.2248 -0.2634 -0.0363
  690poe    c23 3952   4.361   1.226   0.543  0.3991 -0.4564 -0.7010
  690poe     o2 3953   4.305   1.119   0.616 -0.2392  0.3846  0.0776
  690poe    c23 3954   4.381   1.065   0.722 -0.1431 -0.0090 -0.1893
  690poe    c23 3955   4.324   0.934   0.780 -0.2802 -0.0300 -0.3728
  690poe     o2 3956   4.184   0.950   0.789 -0.2185  0.0164  0.6410
  690poe    c23 3957   4.140   0.832   0.853  0.2617 -0.5323 -0.0224
  690poe    c23 3958   4.007   0.835   0.931  0.1251 -0.4550 -0.2549
  690poe     o2 3959   4.023   0.897   1.056 -0.3012 -0.2657 -0.2951
  690poe    c31 3960   3.927   0.863   1.155 -0.1186 -0.6288 -0.2423
  691poe    c31 3961   0.352   2.629   4.672 -0.1723  0.1165 -0.1833
  691poe     o2 3962   0.279   2.729   4.738 -0.4097  0.0893 -0.4030
  691poe    c23 3963   0.341   2.764   4.860 -0.3969 -0.2935 -0.2990
  691poe    c23 3964   0.299   2.890   4.938 -0.0273 -0.3520 -0.0020
  691poe     o2 3965   0.162   2.886   4.970 -0.0914  0.2387 -0.2069
  691poe    c23 3966   0.134   2.993   5.058 -0.3824 -0.3588  0.4302
  691poe    c23 3967  -0.020   2.996   5.051 -0.3397  0.1955 -0.5159
  691poe     o2 3968  -0.063   2.863   5.072  0.0856  0.2119  0.5510
  691poe    c23 3969  -0.201   2.850   5.096 -0.0451  0.0453 -0.2531
  691poe    c23 3970  -0.237   2.702   5.074  0.0286 -0.0367  0.1616
  691poe     o2 3971  -0.204   2.667   4.941 -0.3674  0.0566  0.0369
  691poe    c31 3972  -0.275   2.549   4.914  0.5576 -0.4374 -0.2810
  692poe    c31 3973   0.517   5.957   0.615 -0.1251  0.1757  0.2377
  692poe     o2 3974   0.437   6.018   0.517  0.3438 -0.1987 -0.3924
  692poe    c23 3975   0.515   6.063   0.409  1.0741 -0.0276  0.1956
  692poe    c23 3976   0.446   6.182   0.341 -0.1803 -0.6918  0.2672
  692poe     o2 3977   0.317   6.143   0.300 -0.2584 -0.0295 -0.1382
  692poe    c23 3978   0.222   6.237   0.346  0.4323  0.6724 -0.1109
  692poe    c23 3979   0.094   6.218   0.263  0.3322  0.2353  0.1332
  692poe     o2 3980   0.040   6.091   0.292 -0.3653  0.6090  0.4914
  692poe    c23 3981  -0.100   6.080   0.298 -0.3438 -0.0032 -0.1433
  692poe    c23 3982  -0.148   5.935   0.276 -0.0858 -0.0546 -0.3661
  692poe     o2 3983  -0.092   5.868   0.386 -0.3742 -0.3805 -0.4162
  692poe    c31 3984  -0.122   5.731   0.399 -0.8265 -0.2615 -0.2016
  693poe    c31 3985   4.198   2.362   3.190 -0.6028 -0.1710 -0.8855
  693poe     o2 3986   4.070   2.363   3.249 -0.3507 -0.2263 -0.3277
  693poe    c23 3987   3.970   2.368   3.149 -0.1148 -0.0788 -0.5592
  693poe    c23 3988   3.829   2.350   3.209  0.2722  0.3520  0.5036
  693poe     o2 3989   3.845   2.261   3.318  0.4694  0.0541  0.2334
  693poe    c23 3990   3.740   2.248   3.411  0.2827  0.1007  0.0302
  693poe    c23 3991   3.777   2.167   3.536 -0.7480  0.2434  0.4370
  693poe     o2 3992   3.877   2.245   3.597 -0.2095  0.0868 -0.2307
  693poe    c23 3993   3.889   2.223   3.736  0.0709 -0.1313 -0.2898
  693poe    c23 3994   4.036   2.252   3.773 -0.0312  0.0010  0.0125
  693poe     o2 3995   4.083   2.384   3.773 -0.3841  0.1287 -0.1005
  693poe    c31 3996   4.064   2.465   3.887  0.0744  0.2197 -0.0837
  694poe    c31 3997   4.862   2.437   0.084  0.0008  0.1469 -0.1292
  694poe     o2 3998   4.790   2.538   0.151 -0.4485 -0.3301  0.1212
  694poe    c23 3999   4.702   2.595   0.057 -0.0252  0.0212 -0.0660
  694poe    c23 4000   4.726   2.747   0.067  0.2185 -0.0130 -0.1203
  694poe     o2 4001   4.850   2.790   0.016  0.2705 -0.4714 -0.3809
  694poe    c23 4002   4.863   2.927  -0.011  0.0776 -0.5454 -0.8644
  694poe    c23 4003   5.013   2.945  -0.041  0.1660 -0.0221 -0.1622
  694poe     o2 4004   5.079   2.904   0.076  0.0678  0.4381  0.0543
  694poe    c23 4005   5.211   2.951   0.085  0.2902 -0.1466 -0.0912
  694poe    c23 4006   5.263   2.925   0.227  0.1630  0.0435 -0.0088
  694poe     o2 4007   5.234   2.790   0.258  0.0017  0.0296 -0.2209
  694poe    c31 4008   5.332   2.751   0.351  0.2796  0.2542 -0.4155
  695poe    c31 4009   4.933   6.090   5.129  0.4201  0.0787 -0.0776
  695poe     o2 4010   4.953   6.153   5.253 -0.0786 -0.2795  0.1907
  695poe    c23 4011   4.833   6.205   5.306 -0.2289 -0.5735  0.1338
  695poe    c23 4012   4.857   6.251   5.451  0.1948  0.0117 -0.1188
  695poe     o2 4013   4.966   6.340   5.449 -0.0940  0.3696  0.0341
  695poe    c23 4014   5.005   6.383   5.578  0.3995  0.0273  0.0023
  695poe    c23 4015   5.125   6.474   5.547  0.0770  0.4960  0.1252
  695poe     o2 4016   5.214   6.398   5.470 -0.2837 -0.1823  0.3685
  695poe    c23 4017   5.344   6.433   5.512 -0.3427 -0.2110  0.5717
  695poe    c23 4018   5.458   6.354   5.446 -0.3888  0.2393 -0.0479
  695poe     o2 4019   5.474   6.233   5.516  0.1225  0.3020 -0.0489
  695poe    c31 4020   5.549   6.134   5.449  0.0005  0.3120 -0.2037
  696poe    c31 4021   4.198   6.402   2.008  0.1567  0.7740 -0.2930
  696poe     o2 4022   4.105   6.343   1.921 -0.0653  0.2833  0.2754
  696poe    c23 4023   3.998   6.428   1.888  0.0477  0.3528  0.0812
  696poe    c23 4024   3.910   6.374   1.774  0.1010  0.2745  0.0778
  696poe     o2 4025   3.904   6.238   1.813 -0.6636  0.3144  0.1063
  696poe    c23 4026   3.852   6.161   1.707  0.2106  0.0412 -0.1366
  696poe    c23 4027   3.835   6.014   1.750 -0.1916  0.2276  0.3546
  696poe     o2 4028   3.927   5.982   1.853  0.0379 -0.1558  0.0311
  696poe    c23 4029   3.912   5.847   1.891 -0.2297 -0.0845  0.1805
  696poe    c23 4030   4.004   5.824   2.012 -0.2344 -0.8732  0.0370
  696poe     o2 4031   3.962   5.898   2.124  0.3827 -0.2856 -0.1121
  696poe    c31 4032   4.010   5.841   2.244  0.0741  0.0721  0.1818
  697poe    c31 4033   2.574   3.281   2.725  0.6047  0.3090 -0.4607
  697poe     o2 4034   2.547   3.144   2.705  0.3473  0.2940 -0.0279
  697poe    c23 4035   2.427   3.098   2.763  0.3724 -0.1736 -0.3399
  697poe    c23 4036   2.404   2.948   2.790  0.2232 -0.1365 -0.2625
  697poe     o2 4037   2.393   2.870   2.673 -0.0742  0.3217 -0.5415
  697poe    c23 4038   2.381   2.733   2.704 -0.3146  0.3830 -0.3625
  697poe    c23 4039   2.379   2.633   2.587  0.0094 -0.0339 -0.0143
  697poe     o2 4040   2.494   2.641   2.507  0.3272  0.5470  0.4917
  697poe    c23 4041   2.486   2.588   2.377  0.4391  0.6689  0.4355
  697poe    c23 4042   2.618   2.605   2.298  0.3706 -0.4061  0.0723
  697poe     o2 4043   2.667   2.732   2.333 -0.1955 -0.3274  0.5948
  697poe    c31 4044   2.764   2.762   2.236 -0.7054  0.0212  0.1854
  698poe    c31 4045   0.344   6.029   4.918 -0.0584  0.1398 -0.2764
  698poe     o2 4046   0.217   6.082   4.948  0.0921  0.1513  0.3384
  698poe    c23 4047   0.158   6.138   4.833  0.2395  0.4017  0.3827
  698poe    c23 4048   0.039   6.231   4.866  0.0438  0.1040  0.5285
  698poe     o2 4049  -0.056   6.171   4.951 -0.0311  0.0185  0.3849
  698poe    c23 4050  -0.093   6.272   5.043 -0.5760  0.0523  0.1284
  698poe    c23 4051  -0.104   6.198   5.177 -0.4517 -0.1942  0.0032
  698poe     o2 4052   0.023   6.142   5.204 -0.2083 -0.0604 -0.8433
  698poe    c23 4053   0.041   6.114   5.341 -0.0944  0.3380 -0.7773
  698poe    c23 4054   0.188   6.075   5.363 -0.3090 -0.0635 -0.0236
  698poe     o2 4055   0.228   5.983   5.264 -0.0125 -0.0574  0.0883
  698poe    c31 4056   0.356   5.930   5.288  0.1149  0.4966  0.6612
  699poe    c31 4057   5.033   1.149   2.289  0.5504 -0.5445  0.0721
  699poe     o2 4058   5.139   1.228   2.242 -0.4174  0.4992 -0.4151
  699poe    c23 4059   5.237   1.248   2.342 -0.3707 -0.1140 -0.3356
  699poe    c23 4060   5.372   1.245   2.269 -0.0611  0.4346  0.2099
  699poe     o2 4061   5.373   1.351   2.176 -0.1509 -0.0277 -0.3187
  699poe    c23 4062   5.506   1.385   2.145 -0.0841 -0.2704 -0.3058
  699poe    c23 4063   5.514   1.509   2.053 -0.2118 -0.5810 -0.7386
  699poe     o2 4064   5.411   1.478   1.961 -0.5487 -0.4725 -0.4000
  699poe    c23 4065   5.427   1.574   1.860 -0.4904 -0.2565 -0.1860
  699poe    c23 4066   5.342   1.527   1.741  0.0539 -1.1570 -0.2305
  699poe     o2 4067   5.216   1.491   1.792  0.0500 -0.2660  0.4116
  699poe    c31 4068   5.114   1.463   1.698  0.1700 -0.4476  0.3352
  700poe    c31 4069   4.659   0.329   6.330  0.0035  0.0008  0.2395
  700poe     o2 4070   4.771   0.264   6.275  0.0699  0.2159  0.1221
  700poe    c23 4071   4.733   0.129   6.264  0.4655  0.0721  0.4743
  700poe    c23 4072   4.864   0.057   6.228  0.6560  0.1619  0.9831
  700poe     o2 4073   4.916   0.125   6.116 -0.1193 -0.0336  0.5013
  700poe    c23 4074   5.032   0.063   6.066  0.0412  0.0772  0.7353
  700poe    c23 4075   5.088   0.156   5.956 -0.3247 -0.0788  0.4154
  700poe     o2 4076   5.068   0.292   5.986 -0.3379  0.1378 -0.5396
  700poe    c23 4077   5.172   0.368   5.927 -0.2869  0.4694 -0.0333
  700poe    c23 4078   5.149   0.520   5.937 -0.1561  0.4730  0.2160
  700poe     o2 4079   5.114   0.574   6.063  0.2299 -0.1135  0.5836
  700poe    c31 4080   5.158   0.704   6.094  0.5341 -0.1442  0.2959
  701poe    c31 4081   5.156   6.559   3.468 -0.7648  0.3012 -0.0220
  701poe     o2 4082   5.099   6.469   3.377  0.1330  0.2645 -0.5544
  701poe    c23 4083   5.085   6.336   3.422  0.0255  0.2621 -0.5960
  701poe    c23 4084   5.067   6.236   3.306  0.0945 -0.2325 -0.1840
  701poe     o2 4085   4.948   6.254   3.232 -0.1156 -0.1935  0.1579
  701poe    c23 4086   4.833   6.195   3.287 -0.3547 -0.0340 -0.1635
  701poe    c23 4087   4.704   6.227   3.210 -0.3993  0.0981 -0.0348
  701poe     o2 4088   4.696   6.367   3.196  0.0574  0.1377  0.0982
  701poe    c23 4089   4.565   6.410   3.167 -0.1186 -0.3973  0.0927
  701poe    c23 4090   4.582   6.562   3.185 -0.4180 -0.2952 -0.4869
  701poe     o2 4091   4.689   6.608   3.106 -0.1277  0.0639  0.1078
  701poe    c31 4092   4.694   6.749   3.104  0.1351  0.0505 -0.1986
  702poe    c31 4093   1.248   1.527   2.635  0.2015  0.1912 -0.1503
  702poe     o2 4094   1.269   1.594   2.757 -0.2979  0.2855 -0.1164
  702poe    c23 4095   1.150   1.588   2.833 -0.2622  0.1749 -0.0693
  702poe    c23 4096   1.067   1.716   2.812  0.0409  0.2819 -0.6286
  702poe     o2 4097   1.149   1.824   2.849  0.1075  0.1478 -0.3823
  702poe    c23 4098   1.081   1.945   2.825 -0.2572  0.0162 -0.0210
  702poe    c23 4099   1.166   2.061   2.879 -0.0196 -0.1537 -0.0317
  702poe     o2 4100   1.297   2.048   2.829  0.0599  0.6403 -0.0450
  702poe    c23 4101   1.373   2.165   2.849  0.2408  0.5288 -0.0792
  702poe    c23 4102   1.481   2.167   2.739  0.1887  0.3260 -0.1341
  702poe     o2 4103   1.519   2.032   2.728  0.5273  0.3958  0.1604
  702poe    c31 4104   1.633   2.025   2.645  0.4274 -0.4577  0.0784
  703poe    c31 4105   3.193   1.013   0.209  0.4602  0.1186 -0.0482
  703poe     o2 4106   3.186   0.876   0.240 -0.5695  0.1965  0.0910
  703poe    c23 4107   3.162   0.791   0.130  0.0708  0.2554 -0.0987
  703poe    c23 4108   3.083   0.669   0.183  0.5976 -0.1938 -0.3340
  703poe     o2 4109   3.130   0.636   0.311 -0.0905  0.1585  0.0125
  703poe    c23 4110   3.054   0.554   0.397  0.1651 -0.3478 -0.2415
  703poe    c23 4111   3.146   0.511   0.513 -0.1528 -0.2009  0.0685
  703poe     o2 4112   3.233   0.618   0.545  0.0834 -0.5449  0.5903
  703poe    c23 4113   3.306   0.592   0.662 -0.2467 -0.7479  0.7542
  703poe    c23 4114   3.315   0.716   0.753 -0.0402  0.2680 -0.6150
  703poe     o2 4115   3.429   0.777   0.698  0.6717 -0.5725 -0.1092
  703poe    c31 4116   3.513   0.843   0.790 -0.0141  0.1613  0.0049
  704poe    c31 4117   1.982   0.851   3.330 -0.1454  0.6448 -0.0150
  704poe     o2 4118   2.053   0.729   3.320 -0.1372  0.6377  0.1370
  704poe    c23 4119   2.094   0.719   3.186 -0.1790  0.0699  0.1652
  704poe    c23 4120   2.183   0.593   3.189  0.3387  0.4134 -0.4197
  704poe     o2 4121   2.263   0.571   3.304 -0.3271  0.4437  0.0549
  704poe    c23 4122   2.326   0.446   3.298 -0.1192  0.5691 -0.4957
  704poe    c23 4123   2.422   0.466   3.417 -0.4317  0.0351 -0.1491
  704poe     o2 4124   2.360   0.541   3.520 -0.0447 -0.0731  0.1645
  704poe    c23 4125   2.441   0.550   3.635  0.0160  0.1178  0.1067
  704poe    c23 4126   2.391   0.656   3.735  0.0505 -0.0590  0.3121
  704poe     o2 4127   2.410   0.790   3.695 -0.4548 -0.0480  0.1043
  704poe    c31 4128   2.403   0.872   3.809  0.1781  0.4552 -0.2145
  705poe    c31 4129   5.041   1.105   4.417  0.5752 -0.1685  0.2337
  705poe     o2 4130   4.966   1.019   4.498 -0.0072 -0.0623 -0.1826
  705poe    c23 4131   4.828   1.045   4.489 -0.2249 -0.5263  1.3620
  705poe    c23 4132   4.769   0.907   4.523 -0.1421 -0.8489  0.2546
  705poe     o2 4133   4.845   0.887   4.641  0.5717  0.3283  0.0093
  705poe    c23 4134   4.809   0.767   4.706 -0.1211  0.4139 -0.2016
  705poe    c23 4135   4.917   0.755   4.816 -0.3488 -0.7256 -0.0951
  705poe     o2 4136   5.038   0.768   4.746 -0.3755 -0.0872 -0.0290
  705poe    c23 4137   5.149   0.706   4.808 -0.2465  0.1892  0.0178
  705poe    c23 4138   5.212   0.781   4.926 -0.3673  0.0191  0.1916
  705poe     o2 4139   5.277   0.903   4.898  0.2189 -0.3404 -0.0381
  705poe    c31 4140   5.312   0.987   5.006 -0.2992 -0.1025 -0.0535
  706poe    c31 4141   2.083   2.522   1.911 -0.2738 -0.0406  0.4875
  706poe     o2 4142   2.029   2.398   1.870 -0.1079  0.0270  0.0511
  706poe    c23 4143   2.079   2.285   1.938 -0.5603 -0.1164  0.1509
  706poe    c23 4144   2.001   2.154   1.925  0.0958 -0.4419 -0.5758
  706poe     o2 4145   1.871   2.164   1.979  0.1206  0.0708 -0.6118
  706poe    c23 4146   1.817   2.035   1.998  0.1042  0.1931  0.2302
  706poe    c23 4147   1.707   2.064   2.102 -0.0418  0.4177  0.0144
  706poe     o2 4148   1.629   2.170   2.051  0.0836  0.5496  0.0965
  706poe    c23 4149   1.493   2.140   2.074  0.0609  0.5059 -0.0943
  706poe    c23 4150   1.416   2.271   2.050 -0.1335  0.3818 -0.1532
  706poe     o2 4151   1.494   2.326   1.946  0.0693  0.1925 -0.1014
  706poe    c31 4152   1.421   2.427   1.880 -0.3289 -0.2646 -0.3654
  707poe    c31 4153   2.843   2.619   0.798 -0.0151  0.5273 -0.5237
  707poe     o2 4154   2.931   2.685   0.886 -0.1758  0.1804 -0.1000
  707poe    c23 4155   3.027   2.750   0.806  0.3745 -0.6728 -0.1561
  707poe    c23 4156   3.142   2.803   0.894 -0.2014 -0.0507  0.2297
  707poe     o2 4157   3.106   2.905   0.985  0.3847  0.5699 -0.2167
  707poe    c23 4158   3.205   2.936   1.081  0.3770 -0.2750  0.0795
  707poe    c23 4159   3.147   3.037   1.182  0.0686 -0.4809  0.1125
  707poe     o2 4160   3.028   2.989   1.238 -0.0725 -0.0464  0.1926
  707poe    c23 4161   2.981   3.075   1.340 -0.0466  0.1751  0.0179
  707poe    c23 4162   2.854   3.018   1.405  0.0280  0.0421  0.0486
  707poe     o2 4163   2.771   2.975   1.299  0.0670  0.4722 -0.1594
  707poe    c31 4164   2.638   2.952   1.340  0.2965  0.0789  0.3829
  708poe    c31 4165   0.477   0.113   0.372  0.3388 -0.0325 -0.5554
  708poe     o2 4166   0.419   0.234   0.416  0.5428  0.0014 -0.3789
  708poe    c23 4167   0.355   0.294   0.306 -0.1051 -0.1219 -0.0750
  708poe    c23 4168   0.244   0.376   0.375 -0.0111 -0.3907  0.3988
  708poe     o2 4169   0.314   0.455   0.469  0.3665 -0.4677  0.1850
  708poe    c23 4170   0.233   0.522   0.563  0.1173 -0.3534 -0.1079
  708poe    c23 4171   0.347   0.577   0.651 -0.1264  0.1100 -0.0826
  708poe     o2 4172   0.429   0.470   0.690  0.1169  0.2311 -0.2625
  708poe    c23 4173   0.557   0.517   0.727  0.1224 -0.0528  0.0904
  708poe    c23 4174   0.646   0.391   0.718  0.3935  0.1128  0.4154
  708poe     o2 4175   0.633   0.315   0.600 -0.1756 -0.0303  0.5683
  708poe    c31 4176   0.732   0.215   0.597 -0.0010  0.1538  0.0764
  709poe    c31 4177   1.869   4.125   6.145 -0.0954 -0.1170  0.0250
  709poe     o2 4178   1.873   4.266   6.143 -0.8859 -0.0825  0.5379
  709poe    c23 4179   1.923   4.328   6.260  0.1303 -0.0591  0.0969
  709poe    c23 4180   1.932   4.482   6.253  0.2852 -0.0766 -0.1339
  709poe     o2 4181   2.029   4.513   6.157  0.6394 -0.0856  0.2192
  709poe    c23 4182   2.063   4.650   6.170 -0.4714  0.2208  0.0063
  709poe    c23 4183   2.117   4.703   6.036 -0.3560  0.2903  0.0796
  709poe     o2 4184   2.041   4.655   5.927 -0.3087 -0.2412  0.2776
  709poe    c23 4185   2.106   4.683   5.805  0.0036  0.0110  0.5004
  709poe    c23 4186   2.020   4.627   5.691  0.1434  0.1623  0.3190
  709poe     o2 4187   2.010   4.487   5.709 -0.0677  0.0713 -0.4481
  709poe    c31 4188   2.018   4.416   5.588  0.6038 -0.4267 -0.1160
  710poe    c31 4189   4.120   0.816   4.643  0.2524  0.5627 -0.0980
  710poe     o2 4190   3.993   0.756   4.644  0.3888  0.2801  0.2902
  710poe    c23 4191   3.899   0.843   4.704  0.0766  0.2213 -0.1076
  710poe    c23 4192   3.779   0.762   4.756  0.1631 -0.2694 -0.6609
  710poe     o2 4193   3.705   0.704   4.651 -0.1526  0.1122 -0.6538
  710poe    c23 4194   3.573   0.675   4.689  0.1327  0.0282  0.3069
  710poe    c23 4195   3.488   0.624   4.571  0.2755 -0.1805  0.2934
  710poe     o2 4196   3.523   0.705   4.461 -0.5573 -0.5024 -0.2238
  710poe    c23 4197   3.458   0.652   4.348 -0.1320 -0.1334 -0.6477
  710poe    c23 4198   3.535   0.704   4.225  0.0486  0.1392 -0.4186
  710poe     o2 4199   3.669   0.681   4.263 -0.1436 -0.1308  0.1062
  710poe    c31 4200   3.770   0.701   4.167  0.0552  0.2899  0.4021
  711poe    c31 4201   4.864   0.218   4.194  0.0235 -0.0997  0.0689
  711poe     o2 4202   5.003   0.217   4.171 -0.0451  0.3614 -0.3839
  711poe    c23 4203   5.031   0.125   4.069  0.1049  0.0611 -0.0736
  711poe    c23 4204   5.184   0.126   4.047  0.1410  0.1997  0.1912
  711poe     o2 4205   5.215   0.244   3.976  0.7501 -0.1841 -0.1805
  711poe    c23 4206   5.356   0.255   3.975  0.6886  0.7777  0.4883
  711poe    c23 4207   5.395   0.374   3.884  0.2876  0.1011 -0.5816
  711poe     o2 4208   5.316   0.485   3.920  0.5550  0.0940  0.0359
  711poe    c23 4209   5.349   0.607   3.859  0.2803  0.0436 -0.2200
  711poe    c23 4210   5.253   0.716   3.911 -0.3487 -0.4014 -0.4392
  711poe     o2 4211   5.124   0.660   3.911 -0.3777 -0.3426  0.3967
  711poe    c31 4212   5.044   0.764   3.858 -0.0135 -0.4443 -0.3590
  712poe    c31 4213   1.843   2.335   2.761  0.5699 -0.0971  0.0934
  712poe     o2 4214   1.854   2.461   2.699 -0.1901 -0.1512 -0.1639
  712poe    c23 4215   1.983   2.518   2.712 -0.1429 -0.2601 -0.1561
  712poe    c23 4216   1.971   2.657   2.648  0.1189 -0.2135 -0.1037
  712poe     o2 4217   1.854   2.712   2.704  0.2878  0.2342 -0.1867
  712poe    c23 4218   1.840   2.841   2.648 -0.5060  0.2419  0.0194
  712poe    c23 4219   1.711   2.882   2.722 -0.4214  0.1994  0.1917
  712poe     o2 4220   1.620   2.775   2.719  0.0317 -0.1856 -0.0037
  712poe    c23 4221   1.491   2.827   2.744  0.2611  0.5827 -0.4078
  712poe    c23 4222   1.382   2.719   2.752  0.4873  0.3610 -0.2942
  712poe     o2 4223   1.417   2.620   2.845 -0.3011  0.0162 -0.3569
  712poe    c31 4224   1.316   2.522   2.855 -0.0773 -0.2084 -0.2606
  713poe    c31 4225   0.188   6.627   3.160  0.2663 -0.9359  0.1074
  713poe     o2 4226   0.309   6.629   3.087  0.3020 -0.2431  0.1791
  713poe    c23 4227   0.286   6.561   2.966  0.0050 -0.3004  0.2659
  713poe    c23 4228   0.429   6.517   2.926  0.2845  0.1387  0.7639
  713poe     o2 4229   0.516   6.624   2.954  0.2649  0.1674  0.7138
  713poe    c23 4230   0.650   6.596   2.920  0.2119  0.0360  0.6094
  713poe    c23 4231   0.732   6.715   2.975  0.3060  0.1830  0.1519
  713poe     o2 4232   0.694   6.765   3.101 -0.0822  0.2295  0.0173
  713poe    c23 4233   0.786   6.864   3.141  0.3881 -0.2477  0.1163
  713poe    c23 4234   0.759   6.909   3.285  0.0324 -0.6680  0.1831
  713poe     o2 4235   0.656   7.006   3.287  0.3524 -0.3210  0.0822
  713poe    c31 4236   0.629   7.026   3.424 -0.0791 -0.2283 -0.0133
  714poe    c31 4237   3.712   3.017   0.634 -0.4179 -0.2195  0.2546
  714poe     o2 4238   3.687   3.026   0.495  0.3346  0.0196  0.1326
  714poe    c23 4239   3.616   2.909   0.460 -0.0039  0.1323  0.4399
  714poe    c23 4240   3.557   2.924   0.319  0.4224  0.2817  0.2759
  714poe     o2 4241   3.661   2.972   0.237  0.3542 -0.3313 -0.1730
  714poe    c23 4242   3.599   3.030   0.124  0.4074  0.0442 -0.0110
  714poe    c23 4243   3.709   3.111   0.052  0.5251 -0.1674 -0.0729
  714poe     o2 4244   3.766   3.199   0.147  0.2141  0.3692 -0.3742
  714poe    c23 4245   3.896   3.226   0.102  0.2872  0.4578 -0.1127
  714poe    c23 4246   3.973   3.277   0.225 -0.0169  0.1078  0.2229
  714poe     o2 4247   3.935   3.190   0.329 -0.1322 -0.2982 -0.1568
  714poe    c31 4248   4.043   3.186   0.420 -0.6435 -0.9609  0.4430
  715poe    c31 4249   4.074   2.612   5.480  0.5211 -0.2739  0.3130
  715poe     o2 4250   4.178   2.706   5.473  0.5960 -0.4155 -0.6587
  715poe    c23 4251   4.221   2.739   5.343 -0.3699  0.4695 -0.7644
  715poe    c23 4252   4.324   2.853   5.349  0.3417 -0.1880 -0.2955
  715poe     o2 4253   4.260   2.977   5.366  0.0995 -0.3184 -0.2551
  715poe    c23 4254   4.364   3.070   5.384  0.2180 -0.5293  0.1596
  715poe    c23 4255   4.285   3.202   5.396 -0.1763 -0.6797 -0.6886
  715poe     o2 4256   4.182   3.165   5.485 -0.1713 -0.2402 -0.4975
  715poe    c23 4257   4.131   3.274   5.558 -0.0069 -0.8102  0.4952
  715poe    c23 4258   4.089   3.242   5.702  0.2761 -0.0775  0.7463
  715poe     o2 4259   4.052   3.358   5.773 -0.2373 -0.0167  0.3761
  715poe    c31 4260   4.169   3.426   5.811 -0.4925  0.6228  0.0371
  716poe    c31 4261   3.305   2.266   2.610 -0.8852  0.1817  0.5253
  716poe     o2 4262   3.408   2.342   2.671 -0.0282 -0.2612 -0.3545
  716poe    c23 4263   3.521   2.263   2.703  0.4868  0.3120 -0.7351
  716poe    c23 4264   3.611   2.335   2.805  0.1991 -0.2857 -0.0529
  716poe     o2 4265   3.681   2.429   2.727 -0.3213  0.2074  0.0613
  716poe    c23 4266   3.768   2.495   2.816 -0.2019  0.4199 -0.2106
  716poe    c23 4267   3.867   2.572   2.727  0.4975  0.0525  0.2353
  716poe     o2 4268   3.792   2.633   2.624  0.5043 -0.2416  0.0530
  716poe    c23 4269   3.879   2.706   2.540  0.0900  0.1978 -0.0018
  716poe    c23 4270   3.788   2.759   2.429 -0.0801  0.0271  0.0553
  716poe     o2 4271   3.729   2.637   2.390  0.2167 -0.2169  0.3645
  716poe    c31 4272   3.639   2.659   2.283  0.1011  0.1156  0.5268
  717poe    c31 4273   1.942   3.234   3.932 -0.0211  0.0857  0.1037
  717poe     o2 4274   1.900   3.276   3.804  0.0713  0.2719  0.1334
  717poe    c23 4275   1.767   3.235   3.779  0.1210  0.2468 -0.0915
  717poe    c23 4276   1.705   3.317   3.665 -0.2844 -0.1203 -0.1344
  717poe     o2 4277   1.810   3.324   3.572  0.1155  0.3035  0.3487
  717poe    c23 4278   1.776   3.424   3.478 -0.2204  0.0802  0.2318
  717poe    c23 4279   1.902   3.452   3.393 -0.0626 -0.5488  0.2546
  717poe     o2 4280   2.001   3.472   3.492  0.3927 -0.2996 -0.2499
  717poe    c23 4281   2.107   3.530   3.420  0.0662  0.3173 -0.2387
  717poe    c23 4282   2.244   3.543   3.490 -0.2091  0.5083  0.2628
  717poe     o2 4283   2.290   3.416   3.530 -0.5392  0.4031  0.3201
  717poe    c31 4284   2.430   3.399   3.540 -0.5468  0.4201  0.4564
  718poe    c31 4285   4.328   0.408   3.349  0.4203 -0.0057  0.4420
  718poe     o2 4286   4.409   0.442   3.239  0.2629 -0.3950  0.2073
  718poe    c23 4287   4.514   0.525   3.282  0.3867 -0.3985 -0.0877
  718poe    c23 4288   4.649   0.480   3.221  0.5955  0.4959 -0.2985
  718poe     o2 4289   4.609   0.449   3.089  0.2013 -0.8621  0.1224
  718poe    c23 4290   4.726   0.423   3.014  0.4930 -0.2917  0.3664
  718poe    c23 4291   4.668   0.402   2.873  0.4126 -0.1122  0.3725
  718poe     o2 4292   4.562   0.310   2.869  0.5194 -0.2256  0.1257
  718poe    c23 4293   4.569   0.233   2.751  0.2788 -0.3896  0.2173
  718poe    c23 4294   4.473   0.112   2.751  0.3189 -0.4227 -0.1354
  718poe     o2 4295   4.499   0.029   2.862  0.1030 -0.2746  0.0275
  718poe    c31 4296   4.427  -0.093   2.861  0.2951 -0.3871 -0.5970
  719poe    c31 4297   2.195   3.931   6.707 -0.0658  0.4248  0.4458
  719poe     o2 4298   2.285   4.037   6.685  0.3007 -0.0256 -0.2415
  719poe    c23 4299   2.415   3.983   6.697  0.1788 -0.1972  0.3108
  719poe    c23 4300   2.511   4.071   6.615 -0.2366  0.7273  0.8035
  719poe     o2 4301   2.440   4.192   6.598  0.0103  0.7913  0.2152
  719poe    c23 4302   2.498   4.275   6.500 -0.1054 -0.0071 -0.5412
  719poe    c23 4303   2.425   4.410   6.508 -0.0077 -0.0054  0.3629
  719poe     o2 4304   2.290   4.377   6.529 -0.0827  0.0980  0.0478
  719poe    c23 4305   2.212   4.475   6.596  0.4419  0.0751  0.7039
  719poe    c23 4306   2.075   4.407   6.617  0.1890  0.2415 -0.3598
  719poe     o2 4307   2.105   4.279   6.667  0.4224  0.5356  0.2531
  719poe    c31 4308   2.019   4.230   6.768  0.3519 -0.4573 -0.2779
  720poe    c31 4309   4.195   1.979   2.107 -0.5362  0.1225 -0.0120
  720poe     o2 4310   4.257   2.102   2.138 -0.1913 -0.2101  0.6537
  720poe    c23 4311   4.275   2.175   2.018 -0.0756 -0.0065  0.7948
  720poe    c23 4312   4.201   2.310   2.012 -0.0334  0.0008  0.4238
  720poe     o2 4313   4.221   2.402   2.117  0.0372  0.4749 -0.0067
  720poe    c23 4314   4.128   2.507   2.095 -0.0526  0.3705 -0.1287
  720poe    c23 4315   4.172   2.622   2.187  0.4771  0.0214  0.0612
  720poe     o2 4316   4.203   2.570   2.315  0.2084 -0.4106 -0.0468
  720poe    c23 4317   4.262   2.662   2.404 -0.2472  0.0074 -0.1739
  720poe    c23 4318   4.328   2.572   2.510 -0.2016  0.1111 -0.1143
  720poe     o2 4319   4.428   2.494   2.449 -0.1596 -0.1305  0.2557
  720poe    c31 4320   4.485   2.415   2.551  0.2201  0.2529  0.3462
  721poe    c31 4321   4.233   5.522   5.852  0.2120  0.0888  0.0847
  721poe     o2 4322   4.320   5.616   5.794  0.2935 -0.1616 -0.2018
  721poe    c23 4323   4.263   5.745   5.782 -0.2011 -0.2925  0.6663
  721poe    c23 4324   4.371   5.843   5.731 -0.2982 -0.2210  0.6005
  721poe     o2 4325   4.449   5.775   5.635  0.2603 -0.2902  1.1013
  721poe    c23 4326   4.555   5.857   5.592  0.3010 -0.7698  0.2596
  721poe    c23 4327   4.619   5.807   5.461  0.1856  0.0037 -0.1009
  721poe     o2 4328   4.541   5.855   5.355  0.0551  0.1332  0.0543
  721poe    c23 4329   4.612   5.822   5.238 -0.0933 -0.1366  0.0404
  721poe    c23 4330   4.564   5.923   5.132  0.2578 -0.3617 -0.3367
  721poe     o2 4331   4.424   5.937   5.134  0.2421 -0.5391  0.1983
  721poe    c31 4332   4.390   6.008   5.016  0.5102 -0.2466  0.2942
  722poe    c31 4333   4.073   3.553   3.453 -0.0704 -0.3214  0.1054
  722poe     o2 4334   4.083   3.687   3.410 -0.3280 -0.3550 -0.0654
  722poe    c23 4335   4.054   3.694   3.272 -1.1091 -0.0742  0.1058
  722poe    c23 4336   3.984   3.828   3.244 -0.1838  0.3949  0.0050
  722poe     o2 4337   4.055   3.933   3.305  0.4738 -0.0258 -0.0283
  722poe    c23 4338   3.987   4.057   3.303  0.2655 -0.1409 -0.0812
  722poe    c23 4339   4.072   4.130   3.409  0.0618  0.0583 -0.0568
  722poe     o2 4340   4.087   4.044   3.519  0.1213  0.3540  0.1679
  722poe    c23 4341   4.178   4.083   3.619  0.4177  0.1361 -0.0182
  722poe    c23 4342   4.199   3.960   3.709 -0.9804  0.0434  0.1949
  722poe     o2 4343   4.215   3.843   3.631 -0.0067  0.1700  0.1906
  722poe    c31 4344   4.245   3.728   3.706 -0.1394  0.0873  0.1174
  723poe    c31 4345   2.775   0.554   3.924 -0.0757  0.0340 -0.5201
  723poe     o2 4346   2.895   0.485   3.949  0.3877  0.8747 -0.3953
  723poe    c23 4347   2.994   0.581   3.981  0.3322  0.7022  0.3284
  723poe    c23 4348   3.109   0.515   4.059  0.0172  0.1781  0.3549
  723poe     o2 4349   3.135   0.401   3.979 -0.2203  0.6441 -0.3975
  723poe    c23 4350   3.216   0.308   4.048 -0.7054  0.4076 -0.1429
  723poe    c23 4351   3.196   0.175   3.973  0.0301  0.1974  0.0346
  723poe     o2 4352   3.056   0.173   3.982  0.0396 -0.5007  0.0699
  723poe    c23 4353   3.000   0.054   3.930  0.0130 -0.4982  0.0930
  723poe    c23 4354   2.848   0.067   3.957  0.1135 -0.0828  0.4741
  723poe     o2 4355   2.818   0.202   3.929 -0.3759 -0.2951 -0.0374
  723poe    c31 4356   2.678   0.205   3.921 -0.3533 -0.1044 -0.4005
  724poe    c31 4357   0.455   1.656   4.498 -0.3746  0.7408  0.3947
  724poe     o2 4358   0.445   1.637   4.637 -0.1992  0.1292  0.3234
  724poe    c23 4359   0.525   1.524   4.668 -0.0549  0.1514  0.0328
  724poe    c23 4360   0.518   1.491   4.818 -0.2529 -0.1668 -0.0460
  724poe     o2 4361   0.521   1.622   4.871  0.3463 -0.1151 -0.1971
  724poe    c23 4362   0.559   1.617   5.007  0.5245 -0.2064 -0.2494
  724poe    c23 4363   0.596   1.761   5.047 -0.1955 -0.1822  0.3505
  724poe     o2 4364   0.492   1.855   5.032  0.1440  0.1438  0.0204
  724poe    c23 4365   0.540   1.977   5.083  0.5406  0.0979 -0.2372
  724poe    c23 4366   0.489   2.100   5.006 -0.4578 -0.4761 -0.5045
  724poe     o2 4367   0.551   2.128   4.882 -0.3941 -0.4025 -0.4564
  724poe    c31 4368   0.538   2.264   4.846  0.4182 -0.1220  0.2817
  725poe    c31 4369   4.100   6.621   5.619 -0.2086  0.1062  0.6234
  725poe     o2 4370   4.237   6.642   5.646 -0.1356  0.2048  0.1728
  725poe    c23 4371   4.298   6.515   5.655 -0.0348  0.2536  0.1846
  725poe    c23 4372   4.428   6.528   5.735 -0.2326 -0.0749  0.5613
  725poe     o2 4373   4.496   6.647   5.704  0.1459 -0.3434  0.3420
  725poe    c23 4374   4.607   6.669   5.788 -0.0494 -0.4936  0.6412
  725poe    c23 4375   4.671   6.801   5.741 -0.5222 -0.3311  0.4506
  725poe     o2 4376   4.576   6.905   5.755 -0.1623  0.1966 -0.9317
  725poe    c23 4377   4.628   7.022   5.696  0.2791  0.4778  0.0007
  725poe    c23 4378   4.533   7.143   5.700  0.1185  0.3565 -0.1041
  725poe     o2 4379   4.410   7.106   5.644  0.0591  0.7274 -0.2241
  725poe    c31 4380   4.310   7.184   5.705 -0.4458  0.5037 -0.7538
  726poe    c31 4381   4.582   4.972   3.889 -0.1672 -0.0830  0.0405
  726poe     o2 4382   4.696   5.046   3.851 -0.2989  0.0604 -0.0733
  726poe    c23 4383   4.801   4.958   3.820 -0.8099 -0.5306 -0.1447
  726poe    c23 4384   4.890   5.040   3.724 -0.2717 -0.2146  0.6163
  726poe     o2 4385   4.911   5.165   3.786  0.1188 -0.1198  0.3000
  726poe    c23 4386   4.965   5.254   3.691 -0.6516 -0.1239 -0.1571
  726poe    c23 4387   4.989   5.387   3.766 -0.3177 -0.0569 -0.3797
  726poe     o2 4388   4.874   5.408   3.844 -0.0279 -0.1719  0.0799
  726poe    c23 4389   4.898   5.524   3.921  0.0019  0.3716 -0.7397
  726poe    c23 4390   4.770   5.561   3.997  0.2362 -0.2085 -0.0522
  726poe     o2 4391   4.753   5.479   4.111  0.4614  0.5547  0.5411
  726poe    c31 4392   4.657   5.530   4.201 -0.4030 -0.1567  0.0275
  727poe    c31 4393   2.681   1.168   2.690 -0.0284 -0.1636  0.0124
  727poe     o2 4394   2.684   1.031   2.656  0.0500 -0.1879  0.1156
  727poe    c23 4395   2.614   0.999   2.537  0.2845  0.1373 -0.1121
  727poe    c23 4396   2.601   0.846   2.524 -0.0558  0.1025  0.6082
  727poe     o2 4397   2.732   0.796   2.516 -0.2988 -0.4302 -0.1097
  727poe    c23 4398   2.750   0.658   2.493  0.0430 -0.5075  0.5927
  727poe    c23 4399   2.899   0.640   2.526  0.2751  0.4795  0.1175
  727poe     o2 4400   2.920   0.720   2.640 -0.8145  0.3583  0.4154
  727poe    c23 4401   3.051   0.709   2.690 -0.6643  0.3833  0.0327
  727poe    c23 4402   3.049   0.826   2.791 -0.6579  0.1395  0.3155
  727poe     o2 4403   2.972   0.935   2.745 -0.1438  0.2444 -0.3143
  727poe    c31 4404   2.947   1.024   2.851 -0.0175 -0.4343  0.2936
  728poe    c31 4405   2.753   3.344   2.071 -0.6197  0.4971 -0.2254
  728poe     o2 4406   2.728   3.229   1.995 -0.1500  0.2139  0.0433
  728poe    c23 4407   2.833   3.136   2.009 -0.2470  0.0297 -0.4123
  728poe    c23 4408   2.833   3.026   1.901 -0.2791 -0.1165 -0.2630
  728poe     o2 4409   2.697   3.002   1.871 -0.2893  0.0649 -0.3661
  728poe    c23 4410   2.660   2.907   1.774 -0.4543 -0.1516 -0.0938
  728poe    c23 4411   2.515   2.926   1.727 -0.3740  0.1121 -0.2345
  728poe     o2 4412   2.493   3.066   1.723  0.0298  0.1752 -0.2394
  728poe    c23 4413   2.362   3.110   1.699  0.1012  0.2402 -0.5095
  728poe    c23 4414   2.378   3.263   1.684 -0.2947  0.3812  0.4353
  728poe     o2 4415   2.453   3.304   1.795 -0.3736 -0.0081  0.6352
  728poe    c31 4416   2.440   3.445   1.798  0.3409  0.0684  0.3900
  729poe    c31 4417   2.663   3.865   3.650  0.3719 -0.3889  0.3372
  729poe     o2 4418   2.797   3.908   3.659  0.3517 -0.1362 -0.5334
  729poe    c23 4419   2.880   3.817   3.728  0.3448  0.3304  0.0940
  729poe    c23 4420   3.007   3.891   3.775  0.4344  0.0944  0.2265
  729poe     o2 4421   3.052   3.943   3.652 -0.6572 -0.0691 -0.2621
  729poe    c23 4422   3.164   4.028   3.667 -0.0800 -0.8629 -0.0312
  729poe    c23 4423   3.209   4.082   3.530 -0.1693 -0.1578  0.2109
  729poe     o2 4424   3.092   4.133   3.470 -0.0194  0.0069  0.0621
  729poe    c23 4425   3.109   4.181   3.338  0.1860 -0.1262  0.0393
  729poe    c23 4426   3.003   4.288   3.306  0.2090  0.0027  0.3863
  729poe     o2 4427   2.868   4.248   3.293  0.3303 -0.1912 -0.3252
  729poe    c31 4428   2.782   4.359   3.294  0.3082 -0.2092  0.3099
  730poe    c31 4429   0.440   0.920   1.330  0.1224  0.1893  0.7743
  730poe     o2 4430   0.465   0.818   1.424 -0.4372 -0.3329  0.3706
  730poe    c23 4431   0.474   0.688   1.371 -0.6130 -0.2722  0.1933
  730poe    c23 4432   0.507   0.582   1.477 -0.3966  0.2470  0.6539
  730poe     o2 4433   0.627   0.606   1.548 -0.2312  0.5865  0.2643
  730poe    c23 4434   0.648   0.501   1.640 -0.2654  0.2804 -0.0727
  730poe    c23 4435   0.793   0.505   1.692 -0.2228 -0.0528 -0.1618
  730poe     o2 4436   0.839   0.638   1.679  0.1054 -0.1652 -0.1527
  730poe    c23 4437   0.969   0.638   1.733  0.0814  0.4966 -0.0873
  730poe    c23 4438   1.026   0.781   1.723  0.4325  0.3680  0.0488
  730poe     o2 4439   1.010   0.845   1.599  0.1612 -0.4995 -0.3730
  730poe    c31 4440   1.074   0.971   1.603 -0.3036 -0.2823  0.4986
  731poe    c31 4441   5.058   2.758   1.777  0.5406  0.3900  0.5214
  731poe     o2 4442   5.145   2.651   1.805  0.1419 -0.0687  0.0200
  731poe    c23 4443   5.084   2.530   1.763 -0.0774 -0.1481  0.5623
  731poe    c23 4444   5.179   2.412   1.790  0.3788  0.0692 -0.0489
  731poe     o2 4445   5.298   2.436   1.719  0.3602  0.6757  0.1234
  731poe    c23 4446   5.396   2.342   1.754  0.1003  0.5172  0.4341
  731poe    c23 4447   5.542   2.388   1.734  0.2788 -0.2522 -0.1263
  731poe     o2 4448   5.568   2.510   1.801 -0.1675 -0.0661 -0.2898
  731poe    c23 4449   5.682   2.571   1.746 -0.0152  0.1045  0.2147
  731poe    c23 4450   5.705   2.711   1.806  0.0956 -0.1436  0.7637
  731poe     o2 4451   5.587   2.789   1.803  0.1174 -0.1244  0.1761
  731poe    c31 4452   5.610   2.926   1.822 -0.0148 -0.1426  0.4746
  732poe    c31 4453   3.848   2.198   0.752 -0.2978  0.2925 -0.2425
  732poe     o2 4454   3.720   2.141   0.736  0.0191 -0.4848 -0.0576
  732poe    c23 4455   3.699   2.011   0.787 -0.4475 -0.2090  0.4667
  732poe    c23 4456   3.596   1.926   0.711 -0.1741 -0.2417  0.1269
  732poe     o2 4457   3.501   2.014   0.655  0.2966  0.2915  0.1590
  732poe    c23 4458   3.411   1.950   0.567  0.4943 -0.0032  0.1685
  732poe    c23 4459   3.309   2.056   0.523  0.0795 -0.4069  0.1480
  732poe     o2 4460   3.377   2.174   0.486 -0.3874 -0.2861 -0.3428
  732poe    c23 4461   3.297   2.262   0.411 -0.0443  0.1010 -0.2564
  732poe    c23 4462   3.175   2.336   0.470 -0.2325 -0.1736 -0.2998
  732poe     o2 4463   3.065   2.249   0.475  0.0102 -0.4456  0.4800
  732poe    c31 4464   2.944   2.305   0.523 -0.2074 -0.3782 -0.1349
  733poe    c31 4465   6.501   1.727   1.024  0.0461 -0.0760 -0.0229
  733poe     o2 4466   6.506   1.700   1.163  0.3916 -0.3385 -0.0861
  733poe    c23 4467   6.384   1.731   1.226  0.4013 -0.5672  0.0443
  733poe    c23 4468   6.397   1.673   1.368  0.2254 -0.1077  0.2501
  733poe     o2 4469   6.455   1.545   1.355  0.0168 -0.1531 -0.2706
  733poe    c23 4470   6.476   1.490   1.483 -0.1504 -0.4274 -0.3604
  733poe    c23 4471   6.555   1.358   1.477  0.3292 -0.1637 -0.0120
  733poe     o2 4472   6.647   1.389   1.375 -0.0852  0.0316 -0.3316
  733poe    c23 4473   6.679   1.271   1.304 -0.5722 -0.2053 -0.1579
  733poe    c23 4474   6.747   1.313   1.172  0.1571  0.1259  0.3233
  733poe     o2 4475   6.672   1.419   1.117  0.3022  0.0654  0.0085
  733poe    c31 4476   6.719   1.449   0.987  0.0699 -0.0331 -0.0978
  734poe    c31 4477   5.081   5.954   2.944 -0.3403 -0.1284 -0.0968
  734poe     o2 4478   5.086   6.025   2.822  0.3477  0.3080  0.1754
  734poe    c23 4479   5.023   6.151   2.832 -0.6629 -0.1389 -0.3830
  734poe    c23 4480   5.039   6.227   2.699 -0.4223 -0.1391 -0.3552
  734poe     o2 4481   5.163   6.189   2.645  0.2220  0.8603  0.3782
  734poe    c23 4482   5.159   6.220   2.507  0.4491  0.0963  0.1924
  734poe    c23 4483   5.305   6.199   2.463  0.3631  0.0569 -0.0762
  734poe     o2 4484   5.336   6.070   2.511  0.3183  0.0353 -0.1039
  734poe    c23 4485   5.470   6.041   2.543  0.2856 -0.1095 -0.1013
  734poe    c23 4486   5.473   5.912   2.627 -0.1914 -0.3049 -0.3776
  734poe     o2 4487   5.379   5.931   2.730 -0.3912  0.1851 -0.6504
  734poe    c31 4488   5.352   5.804   2.785 -0.3442  0.5971  0.3551
  735poe    c31 4489   3.741   3.726   5.005 -0.8992  0.5791  0.0167
  735poe     o2 4490   3.870   3.784   5.005 -0.5864 -0.1117  0.2665
  735poe    c23 4491   3.889   3.872   5.114 -0.0011 -0.2346  0.2665
  735poe    c23 4492   4.037   3.916   5.111 -0.1986  0.4215 -0.0490
  735poe     o2 4493   4.068   3.981   4.991 -0.0952 -0.1152 -0.3143
  735poe    c23 4494   4.207   3.966   4.970 -0.0271  0.0145  0.0522
  735poe    c23 4495   4.227   3.943   4.819 -0.7246 -0.6946  0.0634
  735poe     o2 4496   4.144   3.834   4.789 -0.3187 -1.0068  0.0707
  735poe    c23 4497   4.154   3.781   4.658  0.7175  0.4226 -0.4455
  735poe    c23 4498   4.051   3.668   4.644  0.6262  0.4094  0.2951
  735poe     o2 4499   3.935   3.700   4.718  0.2116  0.4550 -0.3635
  735poe    c31 4500   3.823   3.641   4.658  0.5030 -0.6485  0.1526
  736poe    c31 4501   0.614   5.396   0.566 -0.1509 -0.0183  0.6304
  736poe     o2 4502   0.490   5.366   0.507  0.1942  0.0759 -0.1508
  736poe    c23 4503   0.457   5.474   0.422  0.5082 -0.0511 -0.4389
  736poe    c23 4504   0.306   5.496   0.400  0.4564  0.0157 -0.0240
  736poe     o2 4505   0.218   5.393   0.362 -0.2045  0.6634 -0.3019
  736poe    c23 4506   0.226   5.367   0.224  0.1520 -0.1449 -0.1397
  736poe    c23 4507   0.149   5.239   0.188  0.0709 -0.2804  0.5037
  736poe     o2 4508   0.150   5.149   0.296  0.2400 -0.3615  0.4350
  736poe    c23 4509   0.065   5.037   0.282  0.0055 -0.1033 -0.2223
  736poe    c23 4510   0.049   4.981   0.425  0.5322  0.4584  0.0612
  736poe     o2 4511   0.017   5.089   0.510 -0.0548 -0.0144  0.4434
  736poe    c31 4512  -0.032   5.031   0.629  0.8324 -0.0107  0.8141
  737poe    c31 4513   2.057   2.136   5.453 -0.3872 -0.1120  0.1632
  737poe     o2 4514   2.158   2.168   5.545 -0.2258 -0.1134 -0.0143
  737poe    c23 4515   2.119   2.153   5.680 -0.6638  0.6069 -0.0535
  737poe    c23 4516   2.222   2.212   5.779 -0.2768 -0.4359  0.1815
  737poe     o2 4517   2.346   2.165   5.732 -0.4125 -0.0815 -0.5519
  737poe    c23 4518   2.444   2.229   5.810 -0.6744 -0.0765 -0.2243
  737poe    c23 4519   2.569   2.157   5.757 -0.6049 -0.0101 -0.1507
  737poe     o2 4520   2.558   2.149   5.617 -0.0714  0.2995 -0.2147
  737poe    c23 4521   2.631   2.237   5.535 -0.0225 -0.0947 -0.5969
  737poe    c23 4522   2.560   2.246   5.399 -0.0878 -0.3532 -0.5802
  737poe     o2 4523   2.421   2.245   5.422 -0.0691 -0.2101 -0.4610
  737poe    c31 4524   2.362   2.318   5.317 -0.1831 -0.1102 -0.3278
  738poe    c31 4525   6.754   6.095   0.697  0.4888 -0.1662 -0.4141
  738poe     o2 4526   6.760   6.162   0.822 -0.5381 -0.1397 -0.3668
  738poe    c23 4527   6.802   6.079   0.928  0.0003  0.0914 -0.3934
  738poe    c23 4528   6.820   6.166   1.053 -0.2351 -0.0498 -0.2607
  738poe     o2 4529   6.725   6.271   1.055 -0.1178  0.0540 -0.0295
  738poe    c23 4530   6.720   6.321   1.187  0.4113  0.3601 -0.1196
  738poe    c23 4531   6.588   6.400   1.201  0.5064  0.4335  0.3784
  738poe     o2 4532   6.601   6.521   1.131 -0.2439  0.3003  0.0014
  738poe    c23 4533   6.480   6.589   1.104 -0.3651  0.1964  0.2920
  738poe    c23 4534   6.501   6.708   1.010 -0.9216  0.3719  0.3849
  738poe     o2 4535   6.554   6.681   0.882 -0.4265  0.1087  0.6446
  738poe    c31 4536   6.461   6.741   0.795  0.2199  0.1069 -0.0642
  739poe    c31 4537   1.231   1.927   1.696 -0.1392 -0.0452 -0.3557
  739poe     o2 4538   1.369   1.903   1.679  0.0144  0.4999  0.0723
  739poe    c23 4539   1.443   2.021   1.701 -0.0333  0.4489  0.5011
  739poe    c23 4540   1.581   1.967   1.742  0.2169  0.4062 -0.3957
  739poe     o2 4541   1.596   1.853   1.659  0.2654  0.3217 -0.2710
  739poe    c23 4542   1.717   1.783   1.669  0.0885  0.0485 -0.0229
  739poe    c23 4543   1.736   1.685   1.551  0.6852 -0.3328  0.3857
  739poe     o2 4544   1.639   1.583   1.561  0.1756  0.1347  0.2436
  739poe    c23 4545   1.669   1.491   1.459  0.2225 -0.0705  0.4418
  739poe    c23 4546   1.549   1.396   1.445  0.3058 -0.0419 -0.5263
  739poe     o2 4547   1.426   1.463   1.426  0.3150  0.0708 -0.1970
  739poe    c31 4548   1.326   1.381   1.371  0.4150  0.0671 -0.3757
  740poe    c31 4549   5.711   3.377   1.797 -0.5287 -0.1944 -0.1654
  740poe     o2 4550   5.596   3.406   1.873 -0.4179 -0.2029  0.0050
  740poe    c23 4551   5.581   3.545   1.889  0.1797 -0.1488  0.1096
  740poe    c23 4552   5.450   3.585   1.961 -0.1007 -0.1029 -0.4260
  740poe     o2 4553   5.439   3.494   2.068  0.6739  0.4090  0.0974
  740poe    c23 4554   5.353   3.525   2.176  0.4250 -0.2996  0.1069
  740poe    c23 4555   5.309   3.403   2.259 -0.2749 -0.1391 -0.0209
  740poe     o2 4556   5.421   3.341   2.317  0.0373  0.1327 -0.3228
  740poe    c23 4557   5.388   3.238   2.408 -0.0137  0.3921 -0.0458
  740poe    c23 4558   5.514   3.179   2.476 -0.3286 -0.3290 -0.0770
  740poe     o2 4559   5.610   3.127   2.387 -0.3385 -0.2047 -0.1607
  740poe    c31 4560   5.734   3.110   2.453 -0.7381 -0.0666  0.6415
  741poe    c31 4561   5.615   0.994   6.239  0.1382  0.4166 -0.2025
  741poe     o2 4562   5.726   1.031   6.161  0.8560 -0.1174  0.5572
  741poe    c23 4563   5.849   0.991   6.218  0.9368  0.1972  0.6036
  741poe    c23 4564   5.968   0.998   6.121  0.5901  0.4798  0.1951
  741poe     o2 4565   6.015   1.127   6.089 -0.0197  0.7683  0.4637
  741poe    c23 4566   6.142   1.123   6.028 -0.0985 -0.1772  0.3492
  741poe    c23 4567   6.197   1.267   6.021 -0.0703 -0.1916  0.2716
  741poe     o2 4568   6.094   1.353   5.977  0.4206  0.0373 -0.4480
  741poe    c23 4569   6.120   1.488   5.945  0.0291  0.1207 -0.4116
  741poe    c23 4570   5.979   1.536   5.904 -0.1134  0.2587  0.2199
  741poe     o2 4571   5.881   1.484   5.991 -0.2403  0.3233  0.1161
  741poe    c31 4572   5.763   1.561   5.994 -0.6967 -0.3710  0.3371
  742poe    c31 4573   5.718   4.339   5.602 -0.0135  0.0795 -0.3121
  742poe     o2 4574   5.826   4.266   5.654 -0.2441  0.1647  0.3022
  742poe    c23 4575   5.793   4.129   5.661  0.2452  0.0353  0.1352
  742poe    c23 4576   5.908   4.040   5.714  0.6462  0.3595 -0.1895
  742poe     o2 4577   5.917   4.085   5.847 -0.4323 -0.3846  0.1475
  742poe    c23 4578   6.007   4.010   5.927  0.2746  0.0760 -0.2046
  742poe    c23 4579   5.993   4.076   6.066  0.0405 -0.2618 -0.0683
  742poe     o2 4580   6.016   4.215   6.071 -0.1928 -0.2283  0.1238
  742poe    c23 4581   6.008   4.270   6.200 -0.2175 -0.1377  0.0835
  742poe    c23 4582   6.052   4.415   6.175  0.2826 -0.3868 -0.5179
  742poe     o2 4583   5.966   4.464   6.075  0.6217  0.6300 -0.3322
  742poe    c31 4584   5.942   4.603   6.081 -0.2770  0.4361  0.8124
  743poe    c31 4585   6.301   6.258   1.693  0.5850 -0.2438 -0.0483
  743poe     o2 4586   6.249   6.259   1.824 -0.1134 -0.5137 -0.3215
  743poe    c23 4587   6.127   6.188   1.821 -0.2483 -0.2885 -0.2489
  743poe    c23 4588   6.060   6.159   1.957 -0.1980  0.5106 -0.0471
  743poe     o2 4589   6.054   6.279   2.030 -0.2554  0.4653  0.0222
  743poe    c23 4590   6.067   6.264   2.169 -0.0417 -0.4318 -0.0881
  743poe    c23 4591   6.153   6.380   2.224 -0.1120 -0.3204 -0.2147
  743poe     o2 4592   6.273   6.365   2.152 -0.1346  0.1691 -0.3611
  743poe    c23 4593   6.362   6.472   2.177 -0.3573  0.4418 -0.7338
  743poe    c23 4594   6.492   6.469   2.094 -0.1038 -0.3373 -0.3213
  743poe     o2 4595   6.468   6.440   1.958 -0.2210  0.2928 -0.4380
  743poe    c31 4596   6.593   6.433   1.893 -0.1548 -0.5308 -0.2281
  744poe    c31 4597   5.506   5.121   5.667 -0.7642  0.3897  0.1741
  744poe     o2 4598   5.433   5.105   5.547 -0.3072  0.1802 -0.0749
  744poe    c23 4599   5.509   5.134   5.432 -0.3222  0.3128 -0.0520
  744poe    c23 4600   5.443   5.088   5.301 -0.1491  0.0235 -0.0382
  744poe     o2 4601   5.360   4.982   5.344 -0.1867  0.2022  0.3299
  744poe    c23 4602   5.269   4.957   5.240  0.4007 -0.1592 -0.1068
  744poe    c23 4603   5.159   4.863   5.294  0.2589  0.1833  0.2010
  744poe     o2 4604   5.137   4.914   5.424  0.1032  0.3331  0.1164
  744poe    c23 4605   5.062   4.831   5.509 -0.1618  0.6137  0.1583
  744poe    c23 4606   5.051   4.914   5.638  0.5197  0.1849  0.4967
  744poe     o2 4607   5.167   4.987   5.671  0.5879  0.4123 -0.2348
  744poe    c31 4608   5.153   5.045   5.799  0.2942  0.3132 -0.2205
  745poe    c31 4609   4.930   3.176   4.818 -0.7519  0.3406  0.3375
  745poe     o2 4610   4.978   3.307   4.797 -0.1216 -0.0257 -0.5283
  745poe    c23 4611   5.118   3.305   4.812 -0.2275  0.2753  0.5281
  745poe    c23 4612   5.183   3.422   4.735  0.1232 -0.0391  0.3467
  745poe     o2 4613   5.099   3.532   4.760 -0.1378 -0.1178 -0.1633
  745poe    c23 4614   5.095   3.613   4.645 -0.2137  0.0344 -0.0537
  745poe    c23 4615   4.965   3.696   4.647  0.0303  0.4233 -0.1101
  745poe     o2 4616   4.866   3.609   4.696  0.2364  0.3793  0.2291
  745poe    c23 4617   4.738   3.659   4.664  0.0163 -0.1430  0.2756
  745poe    c23 4618   4.660   3.529   4.694  0.3815 -0.4200  0.0291
  745poe     o2 4619   4.711   3.479   4.816  0.1072 -0.2982  0.1936
  745poe    c31 4620   4.603   3.451   4.903 -0.8658  0.4787 -0.7358
  746poe    c31 4621   6.456   4.755   4.604  0.5550 -0.2765  0.0464
  746poe     o2 4622   6.350   4.696   4.532  0.1068  0.2405  0.2787
  746poe    c23 4623   6.363   4.556   4.534 -0.0728  0.2145 -0.1728
  746poe    c23 4624   6.237   4.514   4.455  0.0604  0.4709 -0.5269
  746poe     o2 4625   6.127   4.594   4.490 -0.4081 -0.1745 -0.5177
  746poe    c23 4626   6.012   4.566   4.413 -0.3113 -0.7493 -0.4583
  746poe    c23 4627   5.915   4.667   4.476  0.1833 -0.1521 -0.6521
  746poe     o2 4628   5.991   4.780   4.513 -0.1225 -0.2227  0.2109
  746poe    c23 4629   5.919   4.893   4.557 -0.0194 -0.2606  0.4754
  746poe    c23 4630   5.836   4.886   4.687 -0.6710  0.2627  0.0884
  746poe     o2 4631   5.729   4.794   4.692  0.3108 -0.8904  0.3150
  746poe    c31 4632   5.677   4.796   4.823 -0.6074 -1.0119 -0.0443
  747poe    c31 4633   6.714   2.088   4.224  0.3493 -0.6063 -0.2123
  747poe     o2 4634   6.818   2.162   4.164  0.2309  0.0994  0.4285
  747poe    c23 4635   6.766   2.212   4.042  0.4414 -0.3154  0.1648
  747poe    c23 4636   6.813   2.358   4.025 -0.4445 -0.0473 -0.0186
  747poe     o2 4637   6.949   2.352   4.060 -0.2385 -0.1979 -0.8248
  747poe    c23 4638   6.997   2.475   4.110 -0.1944 -0.4512 -0.2299
  747poe    c23 4639   7.128   2.457   4.188 -0.1706 -0.6249 -0.3090
  747poe     o2 4640   7.115   2.329   4.247 -0.1751 -0.3815  0.2302
  747poe    c23 4641   7.219   2.283   4.330 -0.2829 -0.4043  0.3516
  747poe    c23 4642   7.147   2.163   4.394  0.2736 -0.8901  0.0624
  747poe     o2 4643   7.084   2.085   4.295  0.1080 -0.5362 -0.1117
  747poe    c31 4644   7.036   1.972   4.365  0.5947 -0.5188  0.2462
  748poe    c31 4645   0.364   6.425   5.725  0.7771  0.0754  0.4777
  748poe     o2 4646   0.228   6.449   5.751  0.5767 -0.2673 -0.2350
  748poe    c23 4647   0.162   6.357   5.835 -0.2365  0.1633 -0.3858
  748poe    c23 4648   0.026   6.395   5.895 -0.2614 -0.0515 -0.3050
  748poe     o2 4649  -0.064   6.415   5.789 -0.2474  0.1290 -0.2828
  748poe    c23 4650  -0.194   6.456   5.824 -0.3941 -0.5764  0.0036
  748poe    c23 4651  -0.287   6.473   5.702 -0.3694  0.2512  0.0983
  748poe     o2 4652  -0.222   6.561   5.613  0.0089  0.1014  0.2245
  748poe    c23 4653  -0.288   6.566   5.488  0.2613 -0.1787  0.0771
  748poe    c23 4654  -0.229   6.674   5.396  0.2209 -0.6991 -0.5620
  748poe     o2 4655  -0.089   6.668   5.392  0.2485 -0.4343  0.0121
  748poe    c31 4656  -0.036   6.756   5.296  0.3906 -0.0451  0.4397
  749poe    c31 4657   1.926   0.436   4.309  0.1953  0.3570  0.4236
  749poe     o2 4658   2.015   0.329   4.333  0.1338  0.1433 -0.2601
  749poe    c23 4659   2.123   0.371   4.414 -0.0333  0.4007 -0.1680
  749poe    c23 4660   2.188   0.240   4.463 -0.6520  0.1616  0.0257
  749poe     o2 4661   2.217   0.174   4.342 -0.3805  0.2195  0.0577
  749poe    c23 4662   2.312   0.071   4.348 -0.4104  0.1938  0.0940
  749poe    c23 4663   2.293   0.000   4.212 -0.2485  0.1621  0.0879
  749poe     o2 4664   2.157  -0.020   4.183 -0.2977 -0.2670  0.5996
  749poe    c23 4665   2.154  -0.123   4.086 -0.4309 -0.3283  0.6687
  749poe    c23 4666   2.009  -0.145   4.038 -0.1311 -0.2935 -0.2545
  749poe     o2 4667   1.942  -0.036   3.979 -0.1202 -0.2843 -0.2494
  749poe    c31 4668   1.813  -0.061   3.930 -0.5517  0.7540  0.3134
  750poe    c31 4669   4.487   3.762   6.589  0.1580  0.0312  0.6321
  750poe     o2 4670   4.534   3.756   6.722  0.8833 -0.5702  0.3583
  750poe    c23 4671   4.609   3.869   6.760 -0.3227  0.4206 -0.1108
  750poe    c23 4672   4.679   3.847   6.895 -0.2025  0.3611 -0.1815
  750poe     o2 4673   4.587   3.848   7.003  0.3229  0.2434  0.2708
  750poe    c23 4674   4.648   3.836   7.130  0.3644  0.2527  0.2519
  750poe    c23 4675   4.551   3.841   7.249  0.2426 -0.2144  0.1753
  750poe     o2 4676   4.437   3.771   7.205  0.2134 -0.0807  0.0376
  750poe    c23 4677   4.349   3.750   7.313  0.1116  0.3155  0.0346
  750poe    c23 4678   4.232   3.671   7.251  0.1018  0.4310 -0.0931
  750poe     o2 4679   4.192   3.755   7.145 -0.0120  0.2696 -0.1785
  750poe    c31 4680   4.085   3.701   7.072  0.0110 -0.0727  0.0398
  751poe    c31 4681   1.337   1.057   4.168 -0.2554  0.5175  0.3474
  751poe     o2 4682   1.324   1.116   4.040 -0.2290  0.3533  0.2682
  751poe    c23 4683   1.316   1.256   4.051 -0.0064  0.3407  0.6150
  751poe    c23 4684   1.287   1.313   3.910  0.2142 -0.0267  0.4216
  751poe     o2 4685   1.390   1.297   3.815  0.0785  0.3445  0.2127
  751poe    c23 4686   1.345   1.322   3.684 -0.1655 -0.1491  0.2007
  751poe    c23 4687   1.447   1.298   3.571 -0.7649 -0.5044 -0.2747
  751poe     o2 4688   1.493   1.165   3.571  0.6275 -0.0359 -0.2851
  751poe    c23 4689   1.494   1.108   3.442 -0.6338  0.1794 -0.3966
  751poe    c23 4690   1.505   0.955   3.451  0.0732  0.2674  0.3649
  751poe     o2 4691   1.545   0.926   3.583  0.1386  0.6917  0.4394
  751poe    c31 4692   1.560   0.787   3.605  0.0692  0.7433  0.8251
  752poe    c31 4693   2.288   1.911   1.996 -0.0050 -0.1152 -0.1969
  752poe     o2 4694   2.328   1.779   2.025 -0.1936 -0.0432  0.4011
  752poe    c23 4695   2.457   1.776   2.082 -0.2658  0.1066  0.5732
  752poe    c23 4696   2.510   1.632   2.090  0.0443  0.1571 -0.4342
  752poe     o2 4697   2.401   1.548   2.121  0.3814  0.0265  0.4363
  752poe    c23 4698   2.452   1.418   2.141 -0.0283 -0.1280  0.4709
  752poe    c23 4699   2.341   1.321   2.186 -0.3836  0.0716  0.0358
  752poe     o2 4700   2.230   1.362   2.109 -0.4510  0.2688  0.2380
  752poe    c23 4701   2.112   1.353   2.186 -0.6971 -0.5832 -0.2171
  752poe    c23 4702   2.004   1.445   2.127  0.0019  0.0430 -0.5362
  752poe     o2 4703   2.050   1.578   2.139  0.3778 -0.0961 -0.4162
  752poe    c31 4704   1.940   1.656   2.096  0.3208  0.2805  0.4079
  753poe    c31 4705   4.652   1.545   5.960 -0.3314  0.2901 -0.4692
  753poe     o2 4706   4.740   1.590   6.061  0.1245  0.0106 -0.7421
  753poe    c23 4707   4.868   1.586   6.002  0.3305 -0.5878 -0.2650
  753poe    c23 4708   4.973   1.614   6.111 -0.1237  0.1094 -0.0013
  753poe     o2 4709   4.963   1.724   6.198  0.3890  0.2515 -0.1170
  753poe    c23 4710   4.950   1.859   6.156 -0.3220  0.1627 -0.1995
  753poe    c23 4711   4.976   1.948   6.278  0.0588  0.4099 -0.4582
  753poe     o2 4712   4.864   1.927   6.362  0.3110  0.0714 -0.2037
  753poe    c23 4713   4.916   1.901   6.490 -0.3257 -0.8265 -0.1228
  753poe    c23 4714   4.795   1.893   6.586 -0.2854  0.2123  0.0229
  753poe     o2 4715   4.687   1.816   6.537 -0.3138  0.3636 -0.1567
  753poe    c31 4716   4.587   1.809   6.636 -0.0219 -0.2838  0.0996
  754poe    c31 4717   0.487   0.281   6.244 -0.3481  0.3357 -0.0930
  754poe     o2 4718   0.546   0.235   6.125 -0.3545 -0.2110  0.1101
  754poe    c23 4719   0.556   0.095   6.125 -0.4281 -0.2162  0.0102
  754poe    c23 4720   0.627   0.058   5.993  0.0244 -0.2189  0.2533
  754poe     o2 4721   0.543   0.095   5.886  0.2167 -0.0646  0.1544
  754poe    c23 4722   0.603   0.067   5.762  0.5599  0.3154  0.2332
  754poe    c23 4723   0.526   0.134   5.646 -0.0020  0.1882  0.5296
  754poe     o2 4724   0.541   0.273   5.662  0.2074  0.2900 -0.5047
  754poe    c23 4725   0.489   0.342   5.550  0.5291  0.0121 -0.8290
  754poe    c23 4726   0.563   0.477   5.538  0.3433  0.1821 -0.1241
  754poe     o2 4727   0.612   0.501   5.668  0.4128 -0.4108 -0.0374
  754poe    c31 4728   0.687   0.620   5.674  0.2009 -0.2734 -0.0740
  755poe    c31 4729   1.428   3.643   3.704 -0.8340  0.1041 -0.2275
  755poe     o2 4730   1.476   3.764   3.758  0.2705 -0.5966  0.4053
  755poe    c23 4731   1.547   3.769   3.880 -0.3747 -0.3812  0.7797
  755poe    c23 4732   1.558   3.911   3.938 -0.8232  0.1599 -0.4201
  755poe     o2 4733   1.642   4.007   3.877 -0.1715  0.3522  0.7361
  755poe    c23 4734   1.780   3.990   3.899 -0.0993  0.3565  0.2984
  755poe    c23 4735   1.846   4.030   3.765  0.0397  0.0690  0.2808
  755poe     o2 4736   1.789   4.145   3.707  0.1518 -0.3828 -0.7403
  755poe    c23 4737   1.839   4.174   3.578 -0.6258  0.2737 -0.9056
  755poe    c23 4738   1.750   4.286   3.523 -0.3721  0.6756 -0.5047
  755poe     o2 4739   1.618   4.238   3.535 -0.0568 -0.0929 -0.0898
  755poe    c31 4740   1.533   4.326   3.466  0.0933 -0.0022 -0.1593
  756poe    c31 4741   5.102   2.247   2.562  0.0994 -0.4984  0.2066
  756poe     o2 4742   4.964   2.222   2.554  0.0075  0.0385  0.0650
  756poe    c23 4743   4.910   2.321   2.469 -0.3054  0.2201  0.4712
  756poe    c23 4744   4.781   2.262   2.408 -0.1305  0.3568 -0.0343
  756poe     o2 4745   4.729   2.164   2.495 -0.3617  0.1376 -0.4140
  756poe    c23 4746   4.637   2.079   2.431  0.0682 -0.4531 -0.2545
  756poe    c23 4747   4.571   1.981   2.530  0.0398 -0.4188 -0.2394
  756poe     o2 4748   4.665   1.939   2.627  0.1985  0.0200 -0.1984
  756poe    c23 4749   4.615   1.844   2.720 -0.1763 -0.0591 -0.4775
  756poe    c23 4750   4.532   1.906   2.834  0.0175  0.1159 -0.4285
  756poe     o2 4751   4.603   2.008   2.899  0.0697 -0.0998 -0.1459
  756poe    c31 4752   4.524   2.072   2.997 -0.2413 -0.7149  0.0074
  757poe    c31 4753   6.363   1.943   0.510  0.5792  0.2509 -0.7600
  757poe     o2 4754   6.339   1.809   0.547  0.6013  0.4858  0.1392
  757poe    c23 4755   6.460   1.738   0.561  0.1903 -0.1906  0.3354
  757poe    c23 4756   6.442   1.585   0.555 -0.4624 -0.1255  0.5363
  757poe     o2 4757   6.411   1.531   0.681 -0.0823 -0.3699  0.5270
  757poe    c23 4758   6.382   1.393   0.677 -0.6428 -0.2292 -0.4256
  757poe    c23 4759   6.370   1.339   0.820 -0.2807  0.0625 -0.2831
  757poe     o2 4760   6.271   1.413   0.887  0.1322  0.0725  0.3248
  757poe    c23 4761   6.285   1.406   1.027  0.0982 -0.2863  0.3105
  757poe    c23 4762   6.154   1.473   1.071  0.2786  0.4933 -0.3049
  757poe     o2 4763   6.120   1.588   0.998 -0.3283  0.5105 -0.0098
  757poe    c31 4764   6.001   1.656   1.029 -0.2590  0.7949 -0.3520
  758poe    c31 4765   4.622   0.804   2.882 -0.2405 -0.6029  0.4559
  758poe     o2 4766   4.744   0.872   2.903 -0.2011 -0.5178 -0.0500
  758poe    c23 4767   4.737   1.013   2.898  0.5018 -0.4695  0.1766
  758poe    c23 4768   4.771   1.084   3.030 -0.4357 -0.2195  0.2948
  758poe     o2 4769   4.902   1.067   3.080 -0.0144  0.6019 -0.5064
  758poe    c23 4770   4.914   1.143   3.197  0.0954 -0.0727 -0.0741
  758poe    c23 4771   5.045   1.124   3.277  0.1742  0.1225 -0.1557
  758poe     o2 4772   5.152   1.107   3.187 -0.0473  0.1952 -0.4326
  758poe    c23 4773   5.258   1.038   3.249 -0.2722  0.3957  0.1786
  758poe    c23 4774   5.376   1.023   3.152 -0.0543 -0.1592  0.5272
  758poe     o2 4775   5.323   0.992   3.025 -0.4635 -0.1432  0.6923
  758poe    c31 4776   5.417   0.930   2.940 -0.2615  0.6750  0.3108
  759poe    c31 4777   4.051   4.554   4.423 -0.1388 -0.0738 -0.7279
  759poe     o2 4778   4.172   4.534   4.492 -0.5521  0.0945  0.0714
  759poe    c23 4779   4.154   4.517   4.630 -0.4444 -0.1732  0.0535
  759poe    c23 4780   4.269   4.425   4.676 -0.4442  0.0305  0.4663
  759poe     o2 4781   4.387   4.491   4.636 -0.6609 -0.0970 -0.4147
  759poe    c23 4782   4.499   4.406   4.621 -0.8592 -0.3119 -0.6749
  759poe    c23 4783   4.576   4.433   4.490 -0.3833  0.3674 -0.2646
  759poe     o2 4784   4.477   4.437   4.390 -0.9770  0.2195  0.3067
  759poe    c23 4785   4.527   4.458   4.260 -0.1654 -0.9210  0.4154
  759poe    c23 4786   4.403   4.521   4.193  0.1230 -0.0241  0.7063
  759poe     o2 4787   4.351   4.618   4.282  0.0657  0.6348 -0.0401
  759poe    c31 4788   4.271   4.703   4.203 -0.8443 -0.3245 -0.1894
  760poe    c31 4789   1.594   4.352   1.516 -0.5674  0.1640  0.2020
  760poe     o2 4790   1.622   4.216   1.541 -0.2639  0.2068  0.1021
  760poe    c23 4791   1.616   4.134   1.426 -0.4807  0.0217  0.2452
  760poe    c23 4792   1.679   3.994   1.443 -0.5202 -0.1024 -0.6074
  760poe     o2 4793   1.635   3.946   1.568  0.1514  0.1193 -0.2838
  760poe    c23 4794   1.699   3.827   1.609 -0.1812 -0.0543 -0.2632
  760poe    c23 4795   1.633   3.785   1.741  0.1237  0.2339 -0.0173
  760poe     o2 4796   1.609   3.905   1.812 -0.1330  0.1812 -0.0146
  760poe    c23 4797   1.477   3.898   1.862  0.1364 -0.2019  0.6515
  760poe    c23 4798   1.429   4.043   1.879  0.1389 -0.0912 -0.2352
  760poe     o2 4799   1.460   4.126   1.769 -0.4278 -0.3696 -0.6112
  760poe    c31 4800   1.379   4.241   1.775  0.4495  0.2008  0.6674
  761poe    c31 4801   4.849   4.820   1.977  0.2133 -0.0564 -0.1429
  761poe     o2 4802   4.866   4.924   2.070  0.1660  0.2081 -0.4316
  761poe    c23 4803   4.775   4.904   2.175  0.1010 -0.0196 -0.5321
  761poe    c23 4804   4.747   5.037   2.247  0.1002 -0.0261 -0.5211
  761poe     o2 4805   4.881   5.079   2.254  0.2333 -0.5512  0.2304
  761poe    c23 4806   4.899   5.206   2.314 -0.3082 -0.1745 -0.3848
  761poe    c23 4807   5.052   5.207   2.326 -0.3246  0.5544 -0.1975
  761poe     o2 4808   5.099   5.180   2.196  0.3003  0.0826  0.1168
  761poe    c23 4809   5.240   5.174   2.197  0.3434  0.4017 -1.3968
  761poe    c23 4810   5.290   5.094   2.076  0.3292 -0.3196 -0.9307
  761poe     o2 4811   5.201   4.984   2.081 -0.0492  0.0157 -0.1810
  761poe    c31 4812   5.231   4.870   2.003  0.7839 -0.1504  0.3678
  762poe    c31 4813   6.046   2.056   5.398  0.0479 -0.0596  0.1709
  762poe     o2 4814   6.068   2.100   5.530  0.1948 -0.0616  0.1474
  762poe    c23 4815   6.141   2.219   5.549  0.4750 -0.2081 -0.0015
  762poe    c23 4816   6.181   2.249   5.694  0.0360  0.4039 -0.0029
  762poe     o2 4817   6.245   2.139   5.756 -0.2880  0.0917 -0.2171
  762poe    c23 4818   6.226   2.153   5.895 -0.1639  0.1242 -0.2033
  762poe    c23 4819   6.353   2.094   5.957 -0.0471  0.4304 -0.1483
  762poe     o2 4820   6.347   1.965   5.900  0.2410  0.3205  0.0664
  762poe    c23 4821   6.443   1.875   5.951 -0.2388 -0.4213 -0.3327
  762poe    c23 4822   6.441   1.749   5.862 -0.0515 -0.3777 -0.3986
  762poe     o2 4823   6.431   1.809   5.735 -0.0052  0.1785 -0.1430
  762poe    c31 4824   6.395   1.717   5.634 -0.1691  0.9194 -0.7656
  763poe    c31 4825   0.666   3.757   4.954  0.1545 -0.2243  0.7082
  763poe     o2 4826   0.541   3.702   4.918  0.1846 -0.0205  0.2813
  763poe    c23 4827   0.461   3.672   5.030  0.3962 -0.7838  0.2299
  763poe    c23 4828   0.343   3.579   4.998 -0.2917  0.1466  0.0214
  763poe     o2 4829   0.245   3.645   4.922 -0.2468 -0.0404 -0.2005
  763poe    c23 4830   0.157   3.557   4.856 -0.2851  0.0067 -0.2131
  763poe    c23 4831   0.036   3.626   4.790 -0.2113  0.5829  0.2570
  763poe     o2 4832   0.094   3.729   4.713 -0.2069 -0.2053 -0.8182
  763poe    c23 4833   0.001   3.833   4.691  0.1677  0.1529 -0.7341
  763poe    c23 4834   0.080   3.922   4.594  0.1746  0.1577 -0.7236
  763poe     o2 4835   0.212   3.937   4.642 -0.2815  0.4413  0.4580
  763poe    c31 4836   0.289   4.019   4.557 -0.0307 -0.1209  0.1398
  764poe    c31 4837   2.810   2.310   0.133  0.0602  0.3348  0.8142
  764poe     o2 4838   2.708   2.280   0.227 -0.1858 -0.0627  0.4252
  764poe    c23 4839   2.715   2.148   0.277 -0.2851 -0.2267  0.0131
  764poe    c23 4840   2.618   2.133   0.396  0.1813 -0.8258  0.3207
  764poe     o2 4841   2.482   2.130   0.362  0.3056 -0.5184 -0.2175
  764poe    c23 4842   2.394   2.113   0.471  0.2486  0.3650 -0.1180
  764poe    c23 4843   2.256   2.059   0.432  0.4396  0.0335 -0.3443
  764poe     o2 4844   2.203   2.136   0.327 -0.2051  0.4619  0.2781
  764poe    c23 4845   2.075   2.097   0.284 -0.1902  0.4298  0.2634
  764poe    c23 4846   2.042   2.193   0.168  0.1643  0.2678  0.0259
  764poe     o2 4847   2.154   2.190   0.082 -0.4206 -1.0127 -0.7170
  764poe    c31 4848   2.142   2.280  -0.025  0.2024  0.1103  0.1387
  765poe    c31 4849   1.377   3.279   6.286  0.5255  0.3726  0.7193
  765poe     o2 4850   1.410   3.216   6.407  0.4356  0.1186  0.6107
  765poe    c23 4851   1.306   3.229   6.502 -0.4187 -0.4684 -0.2241
  765poe    c23 4852   1.297   3.128   6.617 -0.3366  0.0532  0.2453
  765poe     o2 4853   1.393   3.165   6.713  0.0204  0.1898 -0.1598
  765poe    c23 4854   1.384   3.079   6.825 -0.2607  0.2965 -0.0997
  765poe    c23 4855   1.473   3.142   6.934 -0.1905  0.1675 -0.0817
  765poe     o2 4856   1.595   3.189   6.881 -0.2064  0.3155  0.0122
  765poe    c23 4857   1.682   3.215   6.989  0.2879  0.0235 -0.3089
  765poe    c23 4858   1.827   3.240   6.946  0.2397 -0.0044 -0.4898
  765poe     o2 4859   1.841   3.341   6.849 -0.1786  0.0034 -0.5410
  765poe    c31 4860   1.972   3.380   6.817 -0.3806  0.4204 -0.8805
  766poe    c31 4861   1.508   4.006   0.857 -0.9039 -0.5744  0.4108
  766poe     o2 4862   1.482   3.935   0.738 -0.2082  0.0583 -0.1251
  766poe    c23 4863   1.356   3.967   0.683 -0.0437  0.5091 -0.2527
  766poe    c23 4864   1.319   3.848   0.593 -0.1736  0.4146 -0.0760
  766poe     o2 4865   1.444   3.836   0.529  0.1639 -0.3508  0.7045
  766poe    c23 4866   1.428   3.780   0.401 -0.2393  0.8461  0.2159
  766poe    c23 4867   1.566   3.750   0.340 -0.2727  0.3823  0.3653
  766poe     o2 4868   1.651   3.862   0.342  0.0235  0.1618  0.1445
  766poe    c23 4869   1.651   3.925   0.215  0.1431  0.1909  0.1583
  766poe    c23 4870   1.750   4.043   0.221  0.9503 -0.5072  0.7590
  766poe     o2 4871   1.701   4.151   0.297  0.1802 -0.6439  0.4641
  766poe    c31 4872   1.781   4.267   0.289 -0.3004 -0.3162  0.3360
  767poe    c31 4873   2.672   5.539   0.624  0.0911 -0.1505 -0.1205
  767poe     o2 4874   2.686   5.679   0.626  0.1460 -0.1629  0.3630
  767poe    c23 4875   2.818   5.710   0.667  0.2881 -0.3579  0.0563
  767poe    c23 4876   2.840   5.862   0.664 -0.4368 -0.2636 -0.6218
  767poe     o2 4877   2.737   5.924   0.737  0.1416  0.2571 -0.2444
  767poe    c23 4878   2.701   6.057   0.707  0.0708  0.2049 -0.3911
  767poe    c23 4879   2.558   6.067   0.765  0.0857 -0.1415 -0.2905
  767poe     o2 4880   2.496   5.954   0.710 -0.1110 -0.0986 -0.1562
  767poe    c23 4881   2.366   5.942   0.765 -0.2041 -0.1605 -0.3876
  767poe    c23 4882   2.306   5.818   0.696 -0.1019 -0.0471 -0.6849
  767poe     o2 4883   2.396   5.710   0.682  0.1722 -0.0575  0.9357
  767poe    c31 4884   2.341   5.602   0.610  0.1213  0.4799  0.1597
  768poe    c31 4885   4.592   2.020   0.268  0.5186  0.1742  0.6024
  768poe     o2 4886   4.485   2.089   0.329 -0.1548 -0.0890 -0.2566
  768poe    c23 4887   4.414   2.001   0.413 -0.3514  0.1792 -0.1402
  768poe    c23 4888   4.285   2.068   0.464 -0.5419 -0.1095 -0.2356
  768poe     o2 4889   4.306   2.187   0.537 -0.5828  0.0186 -0.4337
  768poe    c23 4890   4.185   2.259   0.551 -0.6445 -0.1424 -0.1362
  768poe    c23 4891   4.220   2.387   0.629  0.2191 -0.6042  0.2503
  768poe     o2 4892   4.314   2.464   0.557 -0.1245 -0.6574 -0.2566
  768poe    c23 4893   4.318   2.587   0.627 -0.0479 -0.5542 -0.4434
  768poe    c23 4894   4.399   2.684   0.539  0.3836 -0.2021  0.3396
  768poe     o2 4895   4.519   2.620   0.504  0.2050 -0.1591 -0.3631
  768poe    c31 4896   4.610   2.708   0.442 -0.0358  0.2774 -0.1020
  769poe    c31 4897   1.886   2.121   4.159 -0.9728 -0.1899 -0.2441
  769poe     o2 4898   1.808   2.004   4.177 -0.0189 -0.8084 -0.0521
  769poe    c23 4899   1.800   1.967   4.312  0.0353 -0.3040  0.0929
  769poe    c23 4900   1.674   1.878   4.321 -0.0746 -0.1847 -0.2847
  769poe     o2 4901   1.699   1.758   4.250  0.1574 -0.0465 -0.4367
  769poe    c23 4902   1.585   1.676   4.254  0.0162  0.1878  0.6169
  769poe    c23 4903   1.606   1.543   4.178  0.4129  0.4619  0.2428
  769poe     o2 4904   1.657   1.563   4.048  0.1440 -0.6428 -0.0446
  769poe    c23 4905   1.707   1.444   3.992  0.0198 -0.6452 -0.1486
  769poe    c23 4906   1.677   1.481   3.845 -0.2361 -0.1438  0.0259
  769poe     o2 4907   1.720   1.614   3.829 -0.6033  0.0002  0.2103
  769poe    c31 4908   1.706   1.650   3.693  0.1768  0.0917  0.1449
  770poe    c31 4909   0.608   0.578   2.326 -0.1187  0.2109 -0.4096
  770poe     o2 4910   0.696   0.683   2.359  0.2707 -0.0581 -0.5756
  770poe    c23 4911   0.826   0.642   2.323  0.2632 -0.3113 -0.3183
  770poe    c23 4912   0.918   0.765   2.310 -0.7487  0.4003 -0.8970
  770poe     o2 4913   0.879   0.847   2.418  0.6853  0.1941 -0.1956
  770poe    c23 4914   0.962   0.957   2.448  1.3147 -0.5232  0.7323
  770poe    c23 4915   0.884   1.025   2.563  0.4978  0.1394 -0.1985
  770poe     o2 4916   0.748   1.005   2.533  0.3623  0.5781  0.1101
  770poe    c23 4917   0.674   1.122   2.509 -0.0256  0.2300 -0.4157
  770poe    c23 4918   0.528   1.081   2.479 -0.1607  0.3456  0.0720
  770poe     o2 4919   0.537   0.956   2.414 -0.2341  0.1797  0.3829
  770poe    c31 4920   0.414   0.914   2.361  0.0956 -0.7630  0.3347
  771poe    c31 4921   5.771   0.273   4.214 -0.0345  0.3133 -0.5373
  771poe     o2 4922   5.851   0.160   4.241 -0.3062  0.1453 -0.4187
  771poe    c23 4923   5.983   0.209   4.250 -0.3396  0.0974  0.4093
  771poe    c23 4924   6.076   0.085   4.247  0.0944  0.4298 -0.0508
  771poe     o2 4925   6.010  -0.023   4.309  0.0760  0.3928 -0.1345
  771poe    c23 4926   6.104  -0.122   4.344 -0.0065  0.2378 -0.3527
  771poe    c23 4927   6.053  -0.184   4.475  0.1279  0.3683 -0.2388
  771poe     o2 4928   5.917  -0.210   4.452  0.1096  0.2396  0.0134
  771poe    c23 4929   5.823  -0.205   4.558  0.0082 -0.4066 -0.0410
  771poe    c23 4930   5.757  -0.066   4.568 -0.1288 -0.4638 -0.1477
  771poe     o2 4931   5.698  -0.018   4.449 -0.2903 -0.0211  0.1078
  771poe    c31 4932   5.596   0.075   4.475  0.0074  0.2905  0.1636
  772poe    c31 4933   3.779   1.708   2.291  0.2599  1.0901  0.1578
  772poe     o2 4934   3.670   1.733   2.205  0.2769  0.9677  0.0993
  772poe    c23 4935   3.713   1.698   2.076 -0.0071  0.3042  0.1803
  772poe    c23 4936   3.579   1.655   2.015 -0.0909  0.1221  0.4936
  772poe     o2 4937   3.493   1.764   2.038 -0.1436  0.1305  0.2632
  772poe    c23 4938   3.366   1.730   1.989  0.0507 -0.0123 -0.1420
  772poe    c23 4939   3.266   1.805   2.079 -0.1663 -0.3520 -0.0989
  772poe     o2 4940   3.306   1.785   2.212  0.6625  0.2123 -0.2551
  772poe    c23 4941   3.257   1.889   2.294  0.3505 -0.2139  0.1042
  772poe    c23 4942   3.337   1.855   2.422  0.4060 -0.0560  0.1118
  772poe     o2 4943   3.472   1.823   2.397  0.4666  0.3267 -0.0514
  772poe    c31 4944   3.527   1.807   2.526 -0.2870 -0.3770  0.1907
  773poe    c31 4945   0.269   3.791   2.483  0.2130  0.0249 -0.0716
  773poe     o2 4946   0.305   3.920   2.527 -0.4500  0.0732  0.3431
  773poe    c23 4947   0.378   3.900   2.646  0.5407 -0.0211 -0.2700
  773poe    c23 4948   0.384   4.041   2.708 -0.0171  0.1444 -0.5870
  773poe     o2 4949   0.250   4.085   2.701 -0.1642 -0.1881  0.0838
  773poe    c23 4950   0.226   4.205   2.772  0.3185 -0.0902  0.0850
  773poe    c23 4951   0.079   4.247   2.753  0.3781  0.2536  0.3869
  773poe     o2 4952   0.070   4.269   2.614 -0.1768  0.2162  0.4146
  773poe    c23 4953  -0.063   4.293   2.574  0.0418  0.0878 -0.4080
  773poe    c23 4954  -0.085   4.346   2.431 -0.4378  0.0645 -0.3453
  773poe     o2 4955  -0.001   4.272   2.345 -0.3409 -0.2912  0.0489
  773poe    c31 4956  -0.047   4.294   2.213 -0.1042  0.5470  0.0981
  774poe    c31 4957   1.296   3.574   1.342  0.6891 -0.0396  0.3385
  774poe     o2 4958   1.328   3.497   1.228  0.3293  0.1463  0.1087
  774poe    c23 4959   1.233   3.394   1.220  0.1041  0.3460  0.2047
  774poe    c23 4960   1.250   3.329   1.082 -0.1063  1.1898 -0.2212
  774poe     o2 4961   1.390   3.342   1.068  0.0282  0.4359  0.3524
  774poe    c23 4962   1.431   3.297   0.941 -0.2092  0.2290  0.3481
  774poe    c23 4963   1.585   3.290   0.941 -0.2165  0.0664  0.3422
  774poe     o2 4964   1.631   3.405   1.008 -0.6979  0.5841 -0.2069
  774poe    c23 4965   1.682   3.502   0.919 -0.3321  0.1114 -0.5185
  774poe    c23 4966   1.683   3.625   1.012  0.1586 -0.6759  0.5315
  774poe     o2 4967   1.579   3.620   1.107 -0.3217  0.1568  0.0550
  774poe    c31 4968   1.614   3.701   1.218 -0.2016  0.1808 -0.0003
  775poe    c31 4969   2.259   1.303   1.431 -0.0208  0.1228  0.1466
  775poe     o2 4970   2.388   1.248   1.419 -0.1149 -0.0687  0.0190
  775poe    c23 4971   2.395   1.115   1.372 -0.0350  0.1333 -0.5475
  775poe    c23 4972   2.530   1.057   1.420 -0.3637  0.2056  0.4809
  775poe     o2 4973   2.544   1.057   1.560 -0.1335 -0.0690  0.4572
  775poe    c23 4974   2.668   0.994   1.588  0.2248  0.4112 -0.0194
  775poe    c23 4975   2.699   0.983   1.738 -0.0198 -0.1940 -0.0107
  775poe     o2 4976   2.597   0.913   1.806 -0.2744  0.1505 -0.0366
  775poe    c23 4977   2.615   0.926   1.945  0.6236  0.0617 -0.1365
  775poe    c23 4978   2.507   0.842   2.015  0.3813 -0.0281 -0.6207
  775poe     o2 4979   2.396   0.905   1.954  0.0105 -0.5953 -0.5470
  775poe    c31 4980   2.283   0.866   2.028  0.0522  0.2948  0.0060
  776poe    c31 4981   1.328   4.878   4.053 -0.1425  0.3864 -0.5621
  776poe     o2 4982   1.270   4.805   4.159  0.6257  0.1252 -0.3153
  776poe    c23 4983   1.356   4.819   4.269 -0.2187  0.2775  0.3328
  776poe    c23 4984   1.405   4.680   4.315 -0.5070  0.1093  0.1364
  776poe     o2 4985   1.282   4.612   4.319 -0.3978 -0.0918  0.0811
  776poe    c23 4986   1.278   4.500   4.405  0.0939  0.0146  0.2476
  776poe    c23 4987   1.169   4.402   4.357  0.2301  0.2187 -0.4911
  776poe     o2 4988   1.056   4.486   4.353  0.5477  0.6597 -0.2739
  776poe    c23 4989   0.938   4.411   4.333  0.6804  0.3423  0.1118
  776poe    c23 4990   0.819   4.506   4.362  0.2834 -0.1444  0.0903
  776poe     o2 4991   0.810   4.624   4.287  0.3234 -0.0738  0.1961
  776poe    c31 4992   0.699   4.706   4.318  0.2332 -0.0778 -0.1117
  777poe    c31 4993   1.172   1.281   2.133 -0.5915  0.4836  0.3418
  777poe     o2 4994   1.058   1.318   2.059 -0.4328  0.0497 -0.1285
  777poe    c23 4995   1.106   1.410   1.963  0.5283 -0.0430  0.2507
  777poe    c23 4996   1.007   1.528   1.968 -0.3262 -0.7415  0.0798
  777poe     o2 4997   0.890   1.491   1.898 -0.5051 -0.1541  0.0632
  777poe    c23 4998   0.821   1.611   1.870 -0.7492 -0.1981  0.4735
  777poe    c23 4999   0.682   1.569   1.819 -0.2994 -0.5083 -0.5356
  777poe     o2 5000   0.631   1.488   1.923  0.1853 -0.1334  0.0028
  777poe    c23 5001   0.496   1.457   1.895  0.0178  0.4253  0.1688
  777poe    c23 5002   0.420   1.395   2.014 -0.2911  0.0126 -0.2416
  777poe     o2 5003   0.523   1.325   2.081 -0.1894  0.3210 -0.0746
  777poe    c31 5004   0.461   1.216   2.146 -0.0877  0.1789 -0.2166
  778poe    c31 5005   4.520   4.918   6.008 -0.2592  0.2109  0.2777
  778poe     o2 5006   4.606   4.920   6.120 -0.0947  0.2274  0.1519
  778poe    c23 5007   4.735   4.943   6.067  0.1437 -0.1989  0.5362
  778poe    c23 5008   4.830   4.948   6.188  0.5097  0.5024  0.2245
  778poe     o2 5009   4.811   5.053   6.280  0.4828  1.0510 -0.3961
  778poe    c23 5010   4.916   5.061   6.374  0.4887 -0.1789 -0.2773
  778poe    c23 5011   4.902   5.192   6.454 -0.0209 -0.3605 -0.0644
  778poe     o2 5012   4.765   5.207   6.484 -0.0266 -0.3458 -0.0994
  778poe    c23 5013   4.729   5.343   6.473 -0.0092 -0.3565 -0.3063
  778poe    c23 5014   4.578   5.351   6.445 -0.0773  0.4786  0.2654
  778poe     o2 5015   4.561   5.247   6.351 -0.5392  0.3816  0.4504
  778poe    c31 5016   4.430   5.253   6.301 -0.5428 -0.3081  0.3618
  779poe    c31 5017   3.181   2.925   4.941 -0.1284 -0.1612 -0.3215
  779poe     o2 5018   3.297   2.867   4.883  0.5146  0.8122 -0.0205
  779poe    c23 5019   3.309   2.896   4.746  0.2202 -0.2822 -0.2862
  779poe    c23 5020   3.453   2.869   4.701  0.0142 -0.3152 -0.9315
  779poe     o2 5021   3.446   2.729   4.687 -0.4771 -0.4083  0.1706
  779poe    c23 5022   3.555   2.655   4.636 -0.1604  0.0245  0.2178
  779poe    c23 5023   3.495   2.516   4.611 -0.2067  0.1272 -0.2591
  779poe     o2 5024   3.420   2.480   4.726  0.1925  0.1553  0.0114
  779poe    c23 5025   3.419   2.340   4.737  0.1141  0.1868  0.4005
  779poe    c23 5026   3.340   2.288   4.859  0.1143  0.0204  0.3316
  779poe     o2 5027   3.207   2.332   4.844  0.2539  0.5406  0.5573
  779poe    c31 5028   3.137   2.308   4.963 -0.0180  0.4940  0.3895
  780poe    c31 5029   4.490   4.113   1.506 -0.7136  0.0477 -0.2399
  780poe     o2 5030   4.580   4.090   1.612 -0.6085 -0.7068 -0.4901
  780poe    c23 5031   4.514   4.038   1.726 -0.1806  0.8337  0.4846
  780poe    c23 5032   4.612   3.954   1.809 -0.1159  0.5237  0.0977
  780poe     o2 5033   4.734   4.023   1.817  0.4329 -0.3540 -0.5292
  780poe    c23 5034   4.822   3.959   1.907  0.0693 -0.0129  0.0716
  780poe    c23 5035   4.943   4.053   1.891 -0.0810  0.2801  0.6220
  780poe     o2 5036   4.958   4.087   1.755  0.4472 -0.3969  0.5087
  780poe    c23 5037   5.090   4.129   1.728  0.2346  0.2292  0.4251
  780poe    c23 5038   5.104   4.198   1.591  0.2823 -0.6157 -0.0037
  780poe     o2 5039   5.098   4.100   1.490  0.4761 -0.4924 -0.1352
  780poe    c31 5040   5.192   4.131   1.389  0.0789  0.4198 -0.2418
  781poe    c31 5041   2.748   6.527   0.105  0.1814 -0.1166 -0.1847
  781poe     o2 5042   2.805   6.629   0.027 -0.1168  0.1673 -0.0303
  781poe    c23 5043   2.716   6.673  -0.074  0.2196 -0.3924 -0.5784
  781poe    c23 5044   2.791   6.779  -0.157 -0.4591  0.4728 -0.1036
  781poe     o2 5045   2.926   6.740  -0.164 -0.4458  0.3454  0.7347
  781poe    c23 5046   3.013   6.841  -0.210 -0.0318 -0.3065  0.0469
  781poe    c23 5047   3.151   6.786  -0.170  0.2249  0.2403 -0.0857
  781poe     o2 5048   3.139   6.726  -0.044  0.3020  0.4008 -0.0016
  781poe    c23 5049   3.256   6.664   0.005 -0.0934 -0.6088 -0.3050
  781poe    c23 5050   3.223   6.588   0.135 -0.0379  0.0144  0.0813
  781poe     o2 5051   3.085   6.557   0.130 -0.0123 -0.1123  0.1484
  781poe    c31 5052   3.060   6.471   0.239 -0.6204 -0.3157 -0.1508
  782poe    c31 5053   0.255   1.726   2.848 -0.0229 -0.4641  0.0252
  782poe     o2 5054   0.186   1.824   2.773 -0.0206 -0.6471 -0.2173
  782poe    c23 5055   0.074   1.871   2.844  0.6394  0.4322  0.1422
  782poe    c23 5056  -0.007   1.972   2.760  0.0102 -0.4973 -0.4029
  782poe     o2 5057  -0.060   1.917   2.643 -0.5252 -0.2693 -0.2697
  782poe    c23 5058  -0.158   2.004   2.591  0.1496  0.5930 -0.1213
  782poe    c23 5059  -0.236   1.927   2.482  0.2547  0.3787 -0.0454
  782poe     o2 5060  -0.130   1.877   2.403  0.1229  0.3652 -0.2150
  782poe    c23 5061  -0.181   1.795   2.301  0.0062 -0.0656  0.1837
  782poe    c23 5062  -0.068   1.711   2.238  0.0774  0.1346  0.0442
  782poe     o2 5063   0.011   1.677   2.350 -0.1447  0.3433  0.2683
  782poe    c31 5064   0.123   1.597   2.319 -0.3092  0.1599  0.1339
  783poe    c31 5065   1.072   2.742   2.313 -0.8290 -0.0403 -0.2074
  783poe     o2 5066   1.126   2.731   2.183  0.0526  0.4363  0.1107
  783poe    c23 5067   1.112   2.601   2.130  0.3696  0.5522 -0.2623
  783poe    c23 5068   1.063   2.620   1.986 -0.2123  0.7646 -0.0406
  783poe     o2 5069   1.166   2.685   1.914  0.3082 -0.3077 -0.2781
  783poe    c23 5070   1.131   2.703   1.778 -0.4427 -0.1633 -0.0666
  783poe    c23 5071   1.203   2.822   1.714  0.1392 -0.4499  0.0538
  783poe     o2 5072   1.168   2.942   1.780 -0.2886 -0.2073 -0.6066
  783poe    c23 5073   1.223   3.062   1.730 -0.0564  0.1028  0.3689
  783poe    c23 5074   1.143   3.183   1.781 -0.6222  0.1689 -0.6313
  783poe     o2 5075   1.125   3.167   1.920 -0.8551  0.2482 -0.6527
  783poe    c31 5076   1.117   3.292   1.985  0.1853  0.0912 -0.2077
  784poe    c31 5077   1.378   1.290   6.127 -0.3669  0.2600  0.1006
  784poe     o2 5078   1.356   1.429   6.115  0.0793  0.3235  0.0040
  784poe    c23 5079   1.407   1.521   6.210  0.2361  0.0155  0.2193
  784poe    c23 5080   1.314   1.543   6.331  0.1709 -0.3299  0.2333
  784poe     o2 5081   1.183   1.573   6.290  0.3804  0.3335  0.0538
  784poe    c23 5082   1.105   1.563   6.407 -0.0723 -0.1438 -0.2831
  784poe    c23 5083   0.977   1.648   6.393 -0.0926 -0.2012 -0.4478
  784poe     o2 5084   0.930   1.608   6.266 -0.1131 -1.1517 -0.1466
  784poe    c23 5085   0.805   1.668   6.244  0.5367  0.1202 -0.4876
  784poe    c23 5086   0.770   1.645   6.096 -0.4646 -0.0045 -0.2455
  784poe     o2 5087   0.878   1.669   6.009 -0.2553 -0.0260  0.0057
  784poe    c31 5088   0.841   1.655   5.873  0.3149  0.5159 -0.2147
  785poe    c31 5089   5.760   4.383   1.851 -0.4560 -1.0571 -0.2601
  785poe     o2 5090   5.786   4.334   1.980  0.7008 -0.2096 -0.1565
  785poe    c23 5091   5.813   4.441   2.068  0.0576 -0.3464  0.2120
  785poe    c23 5092   5.753   4.411   2.207 -0.5828 -0.7444 -0.1467
  785poe     o2 5093   5.815   4.293   2.251  0.2406 -0.3675 -0.2793
  785poe    c23 5094   5.744   4.222   2.350  0.0091  0.5453  0.2198
  785poe    c23 5095   5.814   4.085   2.353  0.3663  0.7192 -0.1415
  785poe     o2 5096   5.847   4.036   2.225 -0.1749 -0.0979  0.0279
  785poe    c23 5097   5.920   3.917   2.245  0.1990  0.0269 -0.5598
  785poe    c23 5098   5.949   3.819   2.130 -0.0461 -0.2400 -0.3975
  785poe     o2 5099   6.055   3.868   2.051  0.0469 -0.0887 -0.1815
  785poe    c31 5100   6.115   3.766   1.974  0.7217  0.4729 -0.4070
  786poe    c31 5101   3.302   5.045   4.121 -0.3079  0.5847 -0.4362
  786poe     o2 5102   3.198   4.951   4.107  0.5260 -0.4080 -0.1231
  786poe    c23 5103   3.152   4.948   3.974  0.2178 -0.0780 -0.0267
  786poe    c23 5104   3.008   4.898   3.992  0.2658 -0.3529 -0.3871
  786poe     o2 5105   3.025   4.786   4.076  0.6921  0.2343  0.3215
  786poe    c23 5106   2.899   4.732   4.112  0.5855  0.2224 -0.0700
  786poe    c23 5107   2.917   4.613   4.207 -0.1693 -0.1010 -0.3238
  786poe     o2 5108   3.004   4.652   4.311 -0.6907  0.0050  0.0797
  786poe    c23 5109   3.025   4.539   4.393  0.5781 -0.0492 -0.2854
  786poe    c23 5110   3.155   4.562   4.472  0.4118 -0.6043  0.1620
  786poe     o2 5111   3.272   4.580   4.396  0.3448 -0.4112  0.1015
  786poe    c31 5112   3.390   4.559   4.470  0.2944  0.1013  0.3323
  787poe    c31 5113   5.390   5.029   6.542 -0.3834  0.0831 -0.1241
  787poe     o2 5114   5.519   4.983   6.511 -0.2266  0.0423  0.5798
  787poe    c23 5115   5.616   5.082   6.534 -0.1432  0.4107 -1.1828
  787poe    c23 5116   5.757   5.052   6.479  0.1141 -0.4230 -0.1146
  787poe     o2 5117   5.773   4.913   6.498  0.2218 -0.3353  0.4432
  787poe    c23 5118   5.894   4.877   6.435  0.2668  0.2939  0.1529
  787poe    c23 5119   5.881   4.724   6.416 -0.3532  0.3771 -0.1119
  787poe     o2 5120   5.749   4.685   6.385 -0.2980  0.2353 -0.1605
  787poe    c23 5121   5.718   4.561   6.445 -0.3502 -0.0218 -0.7120
  787poe    c23 5122   5.565   4.568   6.454 -0.3339 -0.6975  0.2253
  787poe     o2 5123   5.523   4.692   6.507  0.6729 -0.3132  0.1300
  787poe    c31 5124   5.404   4.662   6.576  0.2064 -0.0399 -0.5384
  788poe    c31 5125   0.806   6.027   5.584 -0.0581  0.0984  0.5116
  788poe     o2 5126   0.801   6.087   5.456  0.0564 -0.1388  0.3943
  788poe    c23 5127   0.689   6.173   5.448 -0.0120 -0.2764 -0.1865
  788poe    c23 5128   0.719   6.261   5.325  0.2861 -0.1207 -0.0047
  788poe     o2 5129   0.763   6.170   5.227  0.7087  0.1198 -0.0416
  788poe    c23 5130   0.762   6.229   5.099 -0.3527  0.3204  0.0491
  788poe    c23 5131   0.810   6.118   5.004  0.0403  0.2318  0.3503
  788poe     o2 5132   0.881   6.031   5.089  0.4914  0.1706 -0.0852
  788poe    c23 5133   0.850   5.896   5.064  0.1686  0.2998 -0.3881
  788poe    c23 5134   0.921   5.809   5.169 -0.1893  0.1935 -0.2329
  788poe     o2 5135   0.880   5.850   5.298  0.0787  0.3038 -0.1808
  788poe    c31 5136   0.938   5.770   5.398  0.5577  0.2631 -0.4873
  789poe    c31 5137   3.471   6.359   5.342 -0.4248  0.0690  0.3178
  789poe     o2 5138   3.401   6.441   5.251  0.0054  0.2119  0.1179
  789poe    c23 5139   3.480   6.555   5.225 -0.1484  0.4164  0.5492
  789poe    c23 5140   3.390   6.642   5.136 -0.1797  0.0010  0.1694
  789poe     o2 5141   3.330   6.555   5.042 -0.2076  0.6174 -0.3845
  789poe    c23 5142   3.274   6.623   4.932  0.2349  0.4034 -0.7469
  789poe    c23 5143   3.222   6.508   4.845  0.6304  0.0796 -0.5563
  789poe     o2 5144   3.159   6.418   4.933  0.5124  0.6514 -0.0483
  789poe    c23 5145   3.193   6.285   4.900  0.8641  0.6429  0.3522
  789poe    c23 5146   3.157   6.191   5.017  0.2166  0.2547 -0.1535
  789poe     o2 5147   3.215   6.236   5.137  0.1775 -0.5157  0.1615
  789poe    c31 5148   3.202   6.152   5.249 -0.2581 -0.4947  0.1277
  790poe    c31 5149   4.225   6.314   4.203 -0.2197  0.2034 -0.7352
  790poe     o2 5150   4.256   6.183   4.163 -0.2547  0.0034 -0.1271
  790poe    c23 5151   4.204   6.168   4.032  0.2180  0.2616 -0.3498
  790poe    c23 5152   4.232   6.037   3.955  0.2883 -0.0980  0.2722
  790poe     o2 5153   4.186   5.925   4.026 -0.5392  0.3226  0.4197
  790poe    c23 5154   4.212   5.808   3.951 -0.5801  0.4055  0.2776
  790poe    c23 5155   4.172   5.675   4.017  0.1387 -0.1096 -0.3093
  790poe     o2 5156   4.244   5.656   4.138 -0.3972 -0.5616 -0.0588
  790poe    c23 5157   4.232   5.522   4.181 -0.3031 -0.5145  0.1121
  790poe    c23 5158   4.306   5.519   4.316 -0.2155  0.3305  0.0922
  790poe     o2 5159   4.309   5.650   4.366 -0.6712  0.4414 -0.1704
  790poe    c31 5160   4.341   5.647   4.503 -0.2075 -0.0648 -0.2895
  791poe    c31 5161   3.775   1.932   3.009  0.1869 -0.0774  1.3380
  791poe     o2 5162   3.809   1.809   2.949 -0.1578  0.5404 -0.1754
  791poe    c23 5163   3.685   1.748   2.921  0.1199  0.1265 -0.5194
  791poe    c23 5164   3.708   1.621   2.837 -0.0590  0.0577 -0.4650
  791poe     o2 5165   3.827   1.570   2.893 -0.3474 -0.1437 -0.0383
  791poe    c23 5166   3.892   1.466   2.824 -0.1332 -0.1171  0.1216
  791poe    c23 5167   4.022   1.458   2.907 -0.0589  0.3448  0.0540
  791poe     o2 5168   4.062   1.589   2.941 -0.3238  0.3105  0.5057
  791poe    c23 5169   4.171   1.586   3.030 -0.1675 -0.2128  0.3013
  791poe    c23 5170   4.201   1.735   3.052 -0.1354 -0.1662 -0.0588
  791poe     o2 5171   4.079   1.806   3.055 -0.2092 -0.2594 -0.6684
  791poe    c31 5172   4.088   1.923   3.134  0.3278 -0.7429  0.0007
  792poe    c31 5173   5.481   4.595   0.223  0.3951  0.0189  0.4888
  792poe     o2 5174   5.578   4.631   0.127 -0.0824 -0.4095 -0.1585
  792poe    c23 5175   5.708   4.589   0.161  0.0820  0.1846 -0.0423
  792poe    c23 5176   5.824   4.641   0.074 -0.0179  0.4564 -0.0153
  792poe     o2 5177   5.851   4.779   0.064 -0.5419  0.5874  0.3309
  792poe    c23 5178   5.967   4.799  -0.015 -0.4133  0.6697  0.5412
  792poe    c23 5179   6.028   4.933   0.030  0.0719  0.7563 -0.3566
  792poe     o2 5180   5.916   5.014   0.055 -0.1693  0.1518  0.5636
  792poe    c23 5181   5.944   5.126   0.136 -0.0379  0.4813  0.0678
  792poe    c23 5182   5.825   5.223   0.121 -0.3346  0.0285 -0.5502
  792poe     o2 5183   5.719   5.134   0.147 -0.4767  0.1343 -0.7665
  792poe    c31 5184   5.590   5.190   0.153 -0.5403 -0.0472 -0.3979
  793poe    c31 5185   3.352   6.700   3.174  0.4304  0.0982  0.4518
  793poe     o2 5186   3.312   6.828   3.129 -0.1992 -0.3622 -0.3269
  793poe    c23 5187   3.423   6.913   3.113 -0.1150 -0.3975  0.0659
  793poe    c23 5188   3.363   7.051   3.081 -0.0626 -0.3108  0.3368
  793poe     o2 5189   3.262   7.085   3.174  0.3640  0.4132  0.5426
  793poe    c23 5190   3.188   7.197   3.132  0.0271 -0.2828 -0.7793
  793poe    c23 5191   3.095   7.168   3.013  0.2085  0.1682 -1.0384
  793poe     o2 5192   3.051   7.037   3.044 -0.6677  0.6525 -0.1757
  793poe    c23 5193   2.965   6.976   2.950  0.5643 -0.1541 -0.8112
  793poe    c23 5194   2.928   6.843   3.019  0.2490  0.1172 -0.4519
  793poe     o2 5195   3.037   6.786   3.088  0.1871  0.2643 -0.2283
  793poe    c31 5196   3.003   6.653   3.120  0.5464  0.1425 -0.3418
  794poe    c31 5197   0.482   1.014   0.007 -0.0920 -0.3315  0.0589
  794poe     o2 5198   0.397   0.993   0.117  0.1899  1.1000  0.5727
  794poe    c23 5199   0.469   0.899   0.193 -0.8467 -0.1393  0.0542
  794poe    c23 5200   0.383   0.876   0.319 -0.1179 -0.1410  0.5533
  794poe     o2 5201   0.324   0.994   0.368  0.1892  0.3113 -0.1498
  794poe    c23 5202   0.249   0.979   0.486 -0.5660 -0.0690 -0.6718
  794poe    c23 5203   0.244   1.124   0.539  0.5740 -0.0218 -0.6850
  794poe     o2 5204   0.163   1.201   0.454 -0.1837  0.3481  0.3446
  794poe    c23 5205   0.116   1.324   0.505 -0.9235 -0.1707  0.9374
  794poe    c23 5206   0.041   1.398   0.393 -0.0391 -0.1636  0.3380
  794poe     o2 5207   0.121   1.436   0.283  0.1888  0.4544  0.7107
  794poe    c31 5208   0.051   1.527   0.200 -0.3202 -0.0701  0.5612
  795poe    c31 5209   2.545   6.034   3.830 -0.2845  0.2043  0.1921
  795poe     o2 5210   2.599   6.123   3.735 -0.2225  0.6678  0.6532
  795poe    c23 5211   2.517   6.148   3.623  0.0090 -0.2369  0.2715
  795poe    c23 5212   2.549   6.289   3.569  0.1609 -0.3357  0.1004
  795poe     o2 5213   2.688   6.282   3.551  0.2187 -0.2617  0.5174
  795poe    c23 5214   2.747   6.389   3.480 -0.5741 -0.0437  0.1845
  795poe    c23 5215   2.892   6.346   3.451 -0.6224  0.0252 -0.1669
  795poe     o2 5216   2.927   6.273   3.566  0.1258 -0.0863 -0.4595
  795poe    c23 5217   3.003   6.158   3.533 -0.2617 -0.4932  0.0427
  795poe    c23 5218   3.015   6.079   3.664  0.1804 -0.2897  0.1266
  795poe     o2 5219   2.885   6.052   3.712 -0.0213  0.3425 -0.0647
  795poe    c31 5220   2.889   5.939   3.795  0.4652 -0.2278 -0.8466
  796poe    c31 5221   1.934   0.695   5.173  0.1785 -0.0975 -0.1010
  796poe     o2 5222   2.006   0.619   5.079 -0.1441 -0.1031 -0.3459
  796poe    c23 5223   1.970   0.483   5.071 -0.3536 -0.0967  0.4429
  796poe    c23 5224   2.102   0.419   5.027 -0.2857  0.1726  0.2527
  796poe     o2 5225   2.152   0.511   4.933 -0.0298  0.0941  0.3102
  796poe    c23 5226   2.286   0.493   4.891  0.0385  0.9546  0.1462
  796poe    c23 5227   2.290   0.567   4.756  0.0075  0.5336 -0.0848
  796poe     o2 5228   2.248   0.697   4.789 -0.5671  0.2228  0.4288
  796poe    c23 5229   2.264   0.784   4.679  0.1427  0.2654  0.5568
  796poe    c23 5230   2.148   0.785   4.578  0.4101  0.9901  0.2491
  796poe     o2 5231   2.029   0.829   4.639 -0.3388 -0.5598 -0.0357
  796poe    c31 5232   1.943   0.860   4.531  0.2008  0.5086 -0.1734
  797poe    c31 5233   3.900   4.764   2.454  0.4374  0.3675 -0.1279
  797poe     o2 5234   3.851   4.842   2.561  0.6100 -0.3306  0.4749
  797poe    c23 5235   3.954   4.928   2.603  0.3434  0.1608  0.1370
  797poe    c23 5236   3.940   4.957   2.753 -0.1207  0.5301  0.0247
  797poe     o2 5237   3.802   4.976   2.774 -0.1541  0.1329  0.1664
  797poe    c23 5238   3.775   4.978   2.912  0.2308 -0.1763  0.2489
  797poe    c23 5239   3.622   4.959   2.913  0.2034  0.0185 -0.0985
  797poe     o2 5240   3.586   4.868   2.811 -0.0727  0.2509 -0.2114
  797poe    c23 5241   3.449   4.874   2.782 -0.0548  0.7495 -0.1920
  797poe    c23 5242   3.430   4.779   2.662  0.2920 -0.1899  0.4927
  797poe     o2 5243   3.535   4.805   2.571 -0.0440  0.1366  0.1974
  797poe    c31 5244   3.523   4.715   2.463 -0.1723  0.2057  0.1543
  798poe    c31 5245   5.899   3.224   1.211  0.0301  0.1280 -0.0482
  798poe     o2 5246   5.989   3.178   1.309  0.0302  0.7337  0.2355
  798poe    c23 5247   5.914   3.117   1.411  0.4101 -0.3619 -0.1319
  798poe    c23 5248   6.013   3.084   1.525  0.1402 -0.4577  0.0753
  798poe     o2 5249   6.103   2.980   1.493  0.4695 -0.0242 -0.4158
  798poe    c23 5250   6.192   2.944   1.596 -0.0634 -0.4042 -0.0841
  798poe    c23 5251   6.251   2.804   1.568  0.2719 -0.2877  0.0429
  798poe     o2 5252   6.319   2.808   1.444  0.0870  0.1421 -0.0476
  798poe    c23 5253   6.373   2.683   1.409 -1.1964 -0.4732  0.1089
  798poe    c23 5254   6.410   2.703   1.261 -0.4800 -0.0036  0.3472
  798poe     o2 5255   6.306   2.766   1.190  0.0250  0.2071 -0.2176
  798poe    c31 5256   6.322   2.750   1.051 -0.1839 -0.5283 -0.1588
  799poe    c31 5257   2.452   3.757   0.642 -0.1916 -0.0653 -0.2820
  799poe     o2 5258   2.453   3.870   0.727  0.7723 -0.4518  0.2357
  799poe    c23 5259   2.385   3.840   0.846 -0.2225 -0.1168 -0.2355
  799poe    c23 5260   2.362   3.957   0.943 -0.2842 -0.4970  0.2151
  799poe     o2 5261   2.252   4.044   0.929  0.0309 -0.0765  0.3206
  799poe    c23 5262   2.123   3.989   0.924  0.0397 -0.0427 -0.5411
  799poe    c23 5263   2.026   4.106   0.903 -0.2014 -0.1840 -0.2331
  799poe     o2 5264   2.068   4.176   0.788  0.1923  0.9096  0.5582
  799poe    c23 5265   1.976   4.277   0.753 -0.0225  0.6965  0.4981
  799poe    c23 5266   2.052   4.354   0.643 -0.0216 -0.0183 -0.0089
  799poe     o2 5267   2.184   4.363   0.692 -0.2409 -0.0612  0.6054
  799poe    c31 5268   2.254   4.470   0.633 -0.3535 -0.4654 -0.2811
  800poe    c31 5269   4.842   3.793   6.383 -0.3141 -0.3387 -1.2249
  800poe     o2 5270   4.913   3.708   6.297  0.4261 -0.1805 -0.7800
  800poe    c23 5271   4.828   3.678   6.188 -0.3554 -0.2253 -0.1624
  800poe    c23 5272   4.886   3.569   6.096  0.1827 -0.1637  0.0985
  800poe     o2 5273   4.963   3.632   5.996  0.0548  0.0316  0.1213
  800poe    c23 5274   4.980   3.555   5.879 -0.0596  0.9404 -0.5005
  800poe    c23 5275   5.080   3.615   5.778  0.1841  0.3036 -0.6391
  800poe     o2 5276   5.200   3.657   5.839  0.1822  0.0571 -0.4654
  800poe    c23 5277   5.274   3.744   5.757  0.1865  0.7235  0.2369
  800poe    c23 5278   5.421   3.741   5.804  0.2659  0.1947 -0.0421
  800poe     o2 5279   5.427   3.743   5.945 -0.3508  0.2653 -0.0140
  800poe    c31 5280   5.555   3.772   5.996 -0.1236 -0.5965 -0.0665
  801poe    c31 5281   6.773   0.015   1.390  0.1800 -0.2196 -0.0924
  801poe     o2 5282   6.868   0.087   1.315  0.1872  0.1862  0.3011
  801poe    c23 5283   6.897   0.199   1.397  0.2921  0.1896  0.2594
  801poe    c23 5284   7.014   0.277   1.334 -0.2124  0.9257  0.2333
  801poe     o2 5285   6.964   0.348   1.223 -0.3516 -0.3702 -0.5579
  801poe    c23 5286   7.072   0.393   1.145 -0.4265  0.3490 -0.2579
  801poe    c23 5287   7.034   0.498   1.039 -0.0206 -0.0667 -0.8271
  801poe     o2 5288   6.913   0.446   0.989 -0.1336 -0.2274 -0.3877
  801poe    c23 5289   6.837   0.544   0.923  0.1769  0.2940  0.0263
  801poe    c23 5290   6.701   0.481   0.887  0.3867  0.0415 -0.3247
  801poe     o2 5291   6.666   0.388   0.987  0.2901  0.0949 -0.3087
  801poe    c31 5292   6.541   0.340   0.942  0.2035  0.8317 -0.8659
  802poe    c31 5293   3.647   4.238   0.714 -0.7466 -0.2881 -0.3246
  802poe     o2 5294   3.582   4.363   0.709  0.3314  0.2967 -0.0444
  802poe    c23 5295   3.570   4.415   0.579 -0.2704 -0.0582 -0.1339
  802poe    c23 5296   3.543   4.567   0.572 -0.9102 -0.1323  0.5991
  802poe     o2 5297   3.643   4.629   0.650 -0.2457 -0.4031 -0.0270
  802poe    c23 5298   3.662   4.766   0.623 -0.0566 -0.4719 -0.2462
  802poe    c23 5299   3.734   4.847   0.731 -0.7489  0.0362 -0.1571
  802poe     o2 5300   3.703   4.820   0.866  0.0493  0.3998  0.1062
  802poe    c23 5301   3.797   4.887   0.948  0.2241  0.1266  0.1298
  802poe    c23 5302   3.795   4.851   1.098  0.0047  0.4362  0.2007
  802poe     o2 5303   3.834   4.716   1.103  0.5547  0.6021  0.4207
  802poe    c31 5304   3.836   4.675   1.238  0.4510 -0.5193  0.0914
  803poe    c31 5305   0.411   5.541   3.542 -0.1858 -0.1326  0.4350
  803poe     o2 5306   0.548   5.531   3.510 -0.2145 -0.2317  0.3408
  803poe    c23 5307   0.607   5.443   3.603 -0.2542  0.1828  0.7641
  803poe    c23 5308   0.758   5.427   3.576 -0.4922 -0.7669 -0.0793
  803poe     o2 5309   0.774   5.394   3.440 -0.5134 -0.1113 -0.2489
  803poe    c23 5310   0.909   5.359   3.418 -0.3761 -0.1113  0.5641
  803poe    c23 5311   0.911   5.284   3.284 -0.1193  0.3254  0.3218
  803poe     o2 5312   0.869   5.362   3.174 -0.0190 -0.3540 -0.2017
  803poe    c23 5313   0.915   5.317   3.048  0.1275  0.0575 -0.2973
  803poe    c23 5314   0.861   5.427   2.955  0.3821  0.5110  0.0850
  803poe     o2 5315   0.727   5.450   2.991  0.0615 -0.1535 -0.6296
  803poe    c31 5316   0.687   5.561   2.914  0.0266 -0.2900 -0.8078
  804poe    c31 5317   5.724   2.662   3.434  0.7372 -0.3842  0.1208
  804poe     o2 5318   5.844   2.618   3.493  0.7761 -0.3254  0.0849
  804poe    c23 5319   5.943   2.714   3.464  0.1840  0.0641 -0.6785
  804poe    c23 5320   6.075   2.634   3.461  0.2179  0.0945 -0.1096
  804poe     o2 5321   6.069   2.549   3.574  0.0458 -0.3324 -0.4404
  804poe    c23 5322   6.190   2.485   3.606  0.1062  0.0782  0.1532
  804poe    c23 5323   6.155   2.376   3.709  0.0085  0.0921  0.1344
  804poe     o2 5324   6.044   2.303   3.661  0.0745 -0.2162  0.4469
  804poe    c23 5325   6.058   2.172   3.711  0.5301 -0.3052  0.0913
  804poe    c23 5326   5.994   2.066   3.621 -0.0276  0.7758 -0.8101
  804poe     o2 5327   5.856   2.086   3.597 -0.1833  0.1169 -0.4994
  804poe    c31 5328   5.814   1.982   3.511  0.2889 -0.3354 -0.1940
  805poe    c31 5329   6.334   4.658   1.390  0.2863 -0.0440  0.3352
  805poe     o2 5330   6.449   4.596   1.442  0.1009 -0.3894  0.3371
  805poe    c23 5331   6.519   4.669   1.540  0.1161 -0.1486  0.1479
  805poe    c23 5332   6.633   4.582   1.596  0.3678  0.0607 -0.0347
  805poe     o2 5333   6.692   4.539   1.476  0.2083 -0.3711  0.0382
  805poe    c23 5334   6.801   4.452   1.494  0.5534  0.0894  0.2002
  805poe    c23 5335   6.878   4.446   1.361  0.5370  0.1255  0.1892
  805poe     o2 5336   6.782   4.430   1.258  0.9113 -0.1057 -0.1266
  805poe    c23 5337   6.834   4.358   1.149  0.2647 -0.2109 -0.3697
  805poe    c23 5338   6.725   4.341   1.041  0.3478  0.0489 -0.4962
  805poe     o2 5339   6.626   4.256   1.095  0.5032 -0.0464 -0.3576
  805poe    c31 5340   6.574   4.170   0.996 -0.4232  0.3839 -0.2577
  806poe    c31 5341   0.810   5.967   5.940 -0.0238  0.4848  0.5611
  806poe     o2 5342   0.776   5.979   6.076 -0.9055 -0.3113  0.4187
  806poe    c23 5343   0.819   5.860   6.138  0.3615 -0.0731  0.0346
  806poe    c23 5344   0.714   5.815   6.241  0.4657  0.3361  0.3248
  806poe     o2 5345   0.662   5.930   6.304 -0.6286  0.0571 -0.0423
  806poe    c23 5346   0.552   5.895   6.385  0.1116 -0.8768  0.5790
  806poe    c23 5347   0.529   6.022   6.469 -0.6037 -0.4184 -0.2936
  806poe     o2 5348   0.499   6.134   6.388 -0.2910 -0.1236 -0.0040
  806poe    c23 5349   0.489   6.251   6.465 -1.5087 -0.0973 -0.1864
  806poe    c23 5350   0.460   6.375   6.378 -0.1459 -0.3227 -0.9983
  806poe     o2 5351   0.572   6.387   6.294  0.5347 -0.0390 -0.0673
  806poe    c31 5352   0.562   6.513   6.230  0.5125 -0.0738 -0.1325
  807poe    c31 5353   5.761   5.108   3.468  0.2061 -0.5785 -0.0556
  807poe     o2 5354   5.764   5.100   3.328 -0.0290 -0.4273 -0.0694
  807poe    c23 5355   5.807   4.969   3.298 -0.1894 -0.4987  0.0141
  807poe    c23 5356   5.870   4.956   3.158  0.0935  0.7526  0.0086
  807poe     o2 5357   5.792   5.003   3.050  0.0207  0.5139 -0.0444
  807poe    c23 5358   5.865   5.001   2.930  0.2000 -1.0276  0.0775
  807poe    c23 5359   5.756   5.010   2.821  0.4902  0.2259 -0.1152
  807poe     o2 5360   5.676   5.120   2.858 -0.1172 -0.2431 -0.0219
  807poe    c23 5361   5.575   5.135   2.761 -0.1843 -0.1980  0.0547
  807poe    c23 5362   5.463   5.225   2.816 -0.3191 -0.4872  0.2558
  807poe     o2 5363   5.526   5.319   2.899  0.3973 -0.4603 -0.3110
  807poe    c31 5364   5.429   5.405   2.956  0.3388 -0.5073 -0.3394
  808poe    c31 5365   5.690   4.101   3.836 -0.1618 -0.0434 -0.4428
  808poe     o2 5366   5.763   3.988   3.792 -0.3111 -0.2821 -0.0736
  808poe    c23 5367   5.808   3.913   3.902 -0.3746 -0.0826  0.0908
  808poe    c23 5368   5.931   3.823   3.877 -0.3333 -0.0087  0.0286
  808poe     o2 5369   6.055   3.890   3.886 -0.3685 -0.0238  0.6607
  808poe    c23 5370   6.160   3.803   3.849 -0.1767  0.2362  0.5926
  808poe    c23 5371   6.293   3.879   3.860  0.1472 -0.2950  0.3778
  808poe     o2 5372   6.265   4.002   3.797 -0.3058 -0.4670  0.2409
  808poe    c23 5373   6.381   4.080   3.780 -0.3233 -0.4637  0.1355
  808poe    c23 5374   6.350   4.227   3.745 -0.1201 -0.3626  0.3793
  808poe     o2 5375   6.228   4.253   3.810 -0.5622 -0.9564 -0.1997
  808poe    c31 5376   6.216   4.392   3.829  0.5971 -0.8880  0.0906
  809poe    c31 5377   0.030   5.356   5.104  0.0015  0.1695 -0.7681
  809poe     o2 5378   0.144   5.285   5.064  0.4038  0.2010  0.2873
  809poe    c23 5379   0.234   5.362   4.987  0.2161  0.2755  0.1429
  809poe    c23 5380   0.318   5.272   4.895  0.4156  0.4143  0.1885
  809poe     o2 5381   0.415   5.193   4.960 -0.4241 -0.2043  0.7171
  809poe    c23 5382   0.474   5.097   4.875  0.1448  0.7435  0.0114
  809poe    c23 5383   0.607   5.038   4.927 -0.0447  0.1515 -0.1772
  809poe     o2 5384   0.594   5.047   5.067  0.3034  0.2864 -0.1541
  809poe    c23 5385   0.707   5.004   5.139  0.4620  0.0312 -0.5501
  809poe    c23 5386   0.662   5.011   5.286  0.3564  0.2223 -0.5911
  809poe     o2 5387   0.586   5.130   5.286 -0.2705 -0.1674  0.0520
  809poe    c31 5388   0.558   5.177   5.416  0.7238 -0.2559  0.3102
  810poe    c31 5389   2.498   2.055   3.479 -0.0453 -0.1831  0.4021
  810poe     o2 5390   2.540   2.188   3.501 -0.1044 -0.1865  0.5397
  810poe    c23 5391   2.671   2.174   3.553  0.2822  0.3168 -0.2771
  810poe    c23 5392   2.722   2.298   3.628 -0.1547  0.1299  0.3310
  810poe     o2 5393   2.709   2.406   3.538  0.4961  0.0390  0.1275
  810poe    c23 5394   2.771   2.524   3.582  0.7133 -0.0558  0.0797
  810poe    c23 5395   2.744   2.637   3.481 -0.0796 -0.3344 -0.0228
  810poe     o2 5396   2.607   2.671   3.480  0.0470  0.1878 -0.1006
  810poe    c23 5397   2.582   2.764   3.377  0.7037  0.1983 -0.2519
  810poe    c23 5398   2.429   2.782   3.379  0.6348 -0.3911 -0.1352
  810poe     o2 5399   2.369   2.655   3.393  0.2361 -0.2031 -0.1407
  810poe    c31 5400   2.231   2.677   3.414  0.2157 -0.4248 -0.0435
  811poe    c31 5401   2.034   5.113   4.957  0.1412 -0.4645  0.0860
  811poe     o2 5402   2.142   5.103   5.047  0.5444 -0.1470 -0.3568
  811poe    c23 5403   2.264   5.048   5.002  0.6495 -0.0047 -0.2483
  811poe    c23 5404   2.342   5.050   5.134 -0.2213 -0.0832  0.2786
  811poe     o2 5405   2.366   5.178   5.189  0.5835 -0.0115 -0.2129
  811poe    c23 5406   2.372   5.174   5.330  0.2615  0.3173 -0.1874
  811poe    c23 5407   2.304   5.299   5.389  0.2496  0.0533  0.3629
  811poe     o2 5408   2.171   5.291   5.345  0.2957  0.0130  0.2293
  811poe    c23 5409   2.077   5.385   5.393  0.4685  0.4515 -0.2918
  811poe    c23 5410   1.933   5.347   5.354  0.6155 -0.0543 -0.3374
  811poe     o2 5411   1.921   5.288   5.226 -0.0212 -0.4517 -0.0965
  811poe    c31 5412   1.797   5.338   5.180  0.0260  0.0830  0.3471
  812poe    c31 5413   6.403   0.205   2.795 -0.1127 -0.1757 -0.2151
  812poe     o2 5414   6.521   0.272   2.756 -0.1323 -0.3980 -0.6631
  812poe    c23 5415   6.489   0.403   2.713  0.2329 -0.1694 -0.2505
  812poe    c23 5416   6.612   0.443   2.630  0.1926  0.2150 -0.1279
  812poe     o2 5417   6.727   0.446   2.710 -0.0547  0.8909  0.2051
  812poe    c23 5418   6.849   0.465   2.641  0.1065 -0.1432  0.1872
  812poe    c23 5419   6.941   0.372   2.722  0.5513  0.0024 -0.1519
  812poe     o2 5420   6.881   0.246   2.742  0.3469  0.0915 -0.2011
  812poe    c23 5421   6.958   0.164   2.827  0.0798 -0.5679 -0.5934
  812poe    c23 5422   6.870   0.038   2.842  0.2200 -0.6006 -0.0054
  812poe     o2 5423   6.737   0.081   2.865  0.2449 -0.5834  0.1071
  812poe    c31 5424   6.664  -0.032   2.907 -0.4336 -0.0399  0.3990
  813poe    c31 5425   2.387   1.801   5.984 -0.1512  0.2945 -0.4047
  813poe     o2 5426   2.379   1.810   6.124 -0.3728  0.2821 -0.4169
  813poe    c23 5427   2.292   1.708   6.170 -0.0142  0.0956 -0.1500
  813poe    c23 5428   2.265   1.685   6.320 -0.0105  0.7592 -0.0433
  813poe     o2 5429   2.390   1.642   6.370 -0.5859 -0.5008  0.3609
  813poe    c23 5430   2.383   1.623   6.510  0.0086  0.1986  0.4940
  813poe    c23 5431   2.532   1.598   6.538  0.0023 -0.0594  0.2998
  813poe     o2 5432   2.611   1.701   6.481 -0.1065 -0.2405 -0.1875
  813poe    c23 5433   2.746   1.670   6.510  0.1073  0.3590 -0.5304
  813poe    c23 5434   2.845   1.750   6.424 -0.0500  0.6781 -0.4141
  813poe     o2 5435   2.853   1.713   6.288 -0.0914 -0.0978 -0.2048
  813poe    c31 5436   2.956   1.791   6.234  0.1988 -0.2336  0.1492
  814poe    c31 5437   6.464   4.150   6.428  0.1617 -0.0457  0.0668
  814poe     o2 5438   6.540   4.262   6.389 -0.0927  0.1028 -0.0057
  814poe    c23 5439   6.604   4.237   6.265 -0.6738 -0.1859 -0.2540
  814poe    c23 5440   6.662   4.367   6.206 -0.4633 -0.0111  0.3306
  814poe     o2 5441   6.774   4.416   6.276 -0.1042  0.0285 -0.2709
  814poe    c23 5442   6.873   4.480   6.198 -0.4143  0.5881 -0.2124
  814poe    c23 5443   6.985   4.528   6.292  0.0739  0.4096 -0.6954
  814poe     o2 5444   6.938   4.613   6.394 -0.0853 -0.1414 -0.3093
  814poe    c23 5445   7.035   4.650   6.489 -0.6972  0.2039  0.1898
  814poe    c23 5446   6.955   4.735   6.590 -0.2937  0.6105  0.1694
  814poe     o2 5447   6.843   4.657   6.624  0.0928  0.0368  0.1451
  814poe    c31 5448   6.815   4.669   6.761  0.0225  0.4186  0.0967
  815poe    c31 5449   5.041   1.905   2.910 -0.4402  0.7309  0.2605
  815poe     o2 5450   5.066   1.817   3.017 -0.1196  0.1803 -0.2593
  815poe    c23 5451   5.198   1.769   3.006 -0.0780  0.3095 -0.3318
  815poe    c23 5452   5.198   1.634   3.080  0.4704  0.5131  0.0529
  815poe     o2 5453   5.147   1.658   3.209 -0.2803 -0.2767 -0.0831
  815poe    c23 5454   5.093   1.549   3.280 -0.6399 -0.0256  0.0329
  815poe    c23 5455   5.016   1.610   3.399 -0.0799  0.4655  0.1441
  815poe     o2 5456   4.944   1.723   3.354 -0.1721  0.3309 -0.0445
  815poe    c23 5457   4.911   1.816   3.454  0.4825  0.3110  0.1911
  815poe    c23 5458   4.871   1.941   3.374  1.1555  0.3864 -0.0335
  815poe     o2 5459   4.922   1.934   3.242 -0.0815  0.0705 -0.5120
  815poe    c31 5460   4.842   2.027   3.174  0.0640  0.6825  0.1341
  816poe    c31 5461   6.583   2.713   6.687 -0.0053  0.7654  0.0900
  816poe     o2 5462   6.454   2.665   6.655  0.0201  0.3713  0.5777
  816poe    c23 5463   6.443   2.526   6.673  0.2112  0.2627 -0.1315
  816poe    c23 5464   6.301   2.482   6.712  0.2060  0.8729  0.5535
  816poe     o2 5465   6.207   2.523   6.615  0.3289  0.4442  0.2500
  816poe    c23 5466   6.079   2.487   6.663  0.0578  0.4957 -0.4341
  816poe    c23 5467   5.974   2.543   6.565 -0.2806 -0.0326 -0.3747
  816poe     o2 5468   6.007   2.669   6.512  0.1455 -0.1168 -0.3104
  816poe    c23 5469   5.898   2.735   6.451  0.1871  0.2910  0.0510
  816poe    c23 5470   5.942   2.875   6.404  0.4157  0.0683 -0.4057
  816poe     o2 5471   6.066   2.867   6.338  0.6217 -0.0944 -0.0046
  816poe    c31 5472   6.108   2.981   6.265  0.3716 -0.0568 -0.0896
  817poe    c31 5473   5.170   2.508   3.677 -0.0437 -0.0687 -0.0295
  817poe     o2 5474   5.165   2.642   3.720  0.0256 -0.1361  0.1851
  817poe    c23 5475   5.196   2.725   3.611  0.1337 -0.0102  0.3112
  817poe    c23 5476   5.176   2.874   3.646  0.5356  0.0229  0.4082
  817poe     o2 5477   5.266   2.886   3.754  0.3924 -0.1084  0.5438
  817poe    c23 5478   5.298   3.013   3.806 -0.4611  0.2831  0.1274
  817poe    c23 5479   5.238   3.017   3.948 -0.0164  0.4039  0.3119
  817poe     o2 5480   5.254   2.890   4.008 -0.3306  0.2590  0.0920
  817poe    c23 5481   5.172   2.857   4.118 -0.1736  0.1273  0.1718
  817poe    c23 5482   5.188   2.706   4.142  0.4252  0.1434 -0.0982
  817poe     o2 5483   5.178   2.643   4.016  0.2768  0.0398 -0.0347
  817poe    c31 5484   5.205   2.505   4.031 -0.5925 -0.1321  0.0474
  818poe    c31 5485   5.207   3.975   2.745  0.5781  0.0584 -0.2587
  818poe     o2 5486   5.194   4.008   2.882  0.1947 -0.1201 -0.2515
  818poe    c23 5487   5.067   3.963   2.924  0.4999 -0.6402  0.1191
  818poe    c23 5488   5.059   3.994   3.075  0.1971 -0.2123  0.0174
  818poe     o2 5489   5.165   3.919   3.131  0.4929  0.2955  0.1461
  818poe    c23 5490   5.173   3.923   3.272  0.5810 -0.0102  0.1521
  818poe    c23 5491   5.269   3.820   3.332  0.4763 -0.0749  0.2092
  818poe     o2 5492   5.376   3.807   3.241 -0.0136 -0.2773 -0.3406
  818poe    c23 5493   5.485   3.733   3.290  0.0492  0.1338  0.1434
  818poe    c23 5494   5.579   3.810   3.385 -0.3749  0.0810  0.6120
  818poe     o2 5495   5.622   3.921   3.309  0.5022 -0.3793  0.4143
  818poe    c31 5496   5.741   3.971   3.364  0.2218  0.4584  0.2677
  819poe    c31 5497   6.339   0.787   4.680 -0.0878 -0.5347 -0.1487
  819poe     o2 5498   6.225   0.705   4.686 -0.4128 -0.0680  0.0685
  819poe    c23 5499   6.240   0.604   4.589 -0.1854  0.2694 -0.2491
  819poe    c23 5500   6.145   0.633   4.471 -0.3700  0.6864  0.0002
  819poe     o2 5501   6.012   0.642   4.518 -0.3242 -0.2706  0.3299
  819poe    c23 5502   5.927   0.629   4.407  0.6271 -0.1160 -0.4363
  819poe    c23 5503   5.778   0.639   4.445  0.7466 -0.0047  0.0027
  819poe     o2 5504   5.763   0.579   4.572  0.1740  0.4490  0.1529
  819poe    c23 5505   5.629   0.577   4.616  0.1381  0.7203  0.0564
  819poe    c23 5506   5.646   0.520   4.757  0.1006  0.3339 -0.0950
  819poe     o2 5507   5.734   0.606   4.825  0.2336  0.0868  0.0497
  819poe    c31 5508   5.719   0.594   4.965 -0.8844  0.5436 -0.0201
  820poe    c31 5509   3.468   1.096   3.680  0.2406 -0.0823  0.6141
  820poe     o2 5510   3.355   1.176   3.708 -0.0082 -0.1644 -0.1315
  820poe    c23 5511   3.314   1.244   3.591 -0.6700 -0.0208  0.1802
  820poe    c23 5512   3.190   1.324   3.635 -0.5153  0.1974  0.2215
  820poe     o2 5513   3.221   1.389   3.756  0.4547  0.2381 -0.0447
  820poe    c23 5514   3.124   1.486   3.788  0.4450  0.3245 -0.3342
  820poe    c23 5515   3.159   1.571   3.911  0.2388 -0.1719  0.0711
  820poe     o2 5516   3.177   1.474   4.012 -0.4478  0.2093  0.5639
  820poe    c23 5517   3.210   1.523   4.140  0.1929  0.3235  0.3558
  820poe    c23 5518   3.315   1.437   4.213  0.2686 -0.0920 -0.2282
  820poe     o2 5519   3.448   1.423   4.167  0.3748  0.4490 -0.0998
  820poe    c31 5520   3.512   1.338   4.259 -0.1458  0.6708  0.4775
  821poe    c31 5521   1.381   2.417   3.218  0.5803 -0.0151  0.2214
  821poe     o2 5522   1.377   2.277   3.203 -0.1649  0.0225 -0.0014
  821poe    c23 5523   1.429   2.211   3.316  0.0829 -0.5979 -0.4706
  821poe    c23 5524   1.426   2.060   3.288  0.3585 -0.6163 -0.4047
  821poe     o2 5525   1.296   2.005   3.290  0.0255  0.1896  0.3986
  821poe    c23 5526   1.300   1.882   3.222 -0.0731  0.5358 -0.2366
  821poe    c23 5527   1.171   1.808   3.260  0.2838 -0.1632 -0.3673
  821poe     o2 5528   1.067   1.903   3.266  0.1192 -0.3361 -0.4864
  821poe    c23 5529   0.948   1.846   3.317  0.3104 -0.0405  0.3095
  821poe    c23 5530   0.849   1.963   3.303  0.3929  0.0167  0.1926
  821poe     o2 5531   0.905   2.076   3.366  0.2572  0.0194  0.3100
  821poe    c31 5532   0.808   2.179   3.364 -0.3931 -0.5872  0.1797
  822poe    c31 5533   1.286   6.488   6.328  0.2500 -0.4449  0.3269
  822poe     o2 5534   1.348   6.486   6.202  0.2274  0.0132  0.3073
  822poe    c23 5535   1.428   6.601   6.186  0.0078  0.1098 -0.1008
  822poe    c23 5536   1.522   6.583   6.066  0.2679  0.5463  0.0364
  822poe     o2 5537   1.450   6.500   5.978  0.2454  0.3601  0.2292
  822poe    c23 5538   1.499   6.483   5.847 -0.4342  0.3501 -0.0283
  822poe    c23 5539   1.375   6.426   5.776 -0.9439  0.7578  0.5264
  822poe     o2 5540   1.332   6.326   5.865 -0.5221  0.1991  0.1147
  822poe    c23 5541   1.235   6.235   5.819 -0.4381  0.0616  0.2074
  822poe    c23 5542   1.223   6.148   5.945  0.4385  0.0582  0.2950
  822poe     o2 5543   1.215   6.223   6.065 -0.3997  0.0446  0.2551
  822poe    c31 5544   1.149   6.147   6.164 -0.7001  0.0384  0.0528
  823poe    c31 5545   1.954   4.279   5.169 -0.5463  0.3381 -0.3336
  823poe     o2 5546   1.823   4.256   5.218 -0.2425 -0.0223  0.3162
  823poe    c23 5547   1.773   4.379   5.263 -0.3055  0.2491 -0.4756
  823poe    c23 5548   1.673   4.358   5.379  0.1922 -0.0016 -0.0858
  823poe     o2 5549   1.580   4.277   5.311  0.2669 -0.1777  0.0224
  823poe    c23 5550   1.483   4.230   5.402 -0.0916  0.1477 -0.1889
  823poe    c23 5551   1.407   4.109   5.347 -0.1583  0.1626 -0.1298
  823poe     o2 5552   1.493   4.001   5.317 -0.0332  0.2818 -0.1990
  823poe    c23 5553   1.427   3.894   5.253 -0.3953 -0.0671  0.7500
  823poe    c23 5554   1.517   3.789   5.184 -0.2899  0.4598  0.0799
  823poe     o2 5555   1.583   3.841   5.071  0.6494  0.3539  0.5667
  823poe    c31 5556   1.651   3.738   5.002 -0.2081 -0.3545  0.7602
  824poe    c31 5557   5.616   0.296   6.644 -0.6440  0.4211  0.4697
  824poe     o2 5558   5.650   0.206   6.541  0.0537  0.0842  0.9833
  824poe    c23 5559   5.788   0.179   6.545 -0.0244 -0.5461 -0.0167
  824poe    c23 5560   5.837   0.140   6.405  0.1146 -0.3194 -0.0329
  824poe     o2 5561   5.786   0.016   6.360  0.2044 -0.3777  0.0261
  824poe    c23 5562   5.844  -0.028   6.239  0.5834 -0.5610  0.2725
  824poe    c23 5563   5.809  -0.178   6.231 -0.0949 -0.3480 -0.9767
  824poe     o2 5564   5.668  -0.183   6.240 -0.0577 -0.0144 -0.1110
  824poe    c23 5565   5.617  -0.310   6.210 -0.0040 -0.0605 -0.0075
  824poe    c23 5566   5.468  -0.287   6.182  0.0511 -0.0977 -0.3388
  824poe     o2 5567   5.414  -0.179   6.256  0.3521  0.1191 -0.4349
  824poe    c31 5568   5.278  -0.198   6.288  0.3068  0.6510 -0.3056
  825poe    c31 5569   5.043   3.730   1.582 -0.5886 -0.1839  0.2871
  825poe     o2 5570   4.963   3.663   1.487  0.1349  0.0196 -0.4795
  825poe    c23 5571   4.964   3.731   1.363 -0.2661  0.4849 -0.2363
  825poe    c23 5572   4.862   3.662   1.271 -0.2040 -0.1425  0.1583
  825poe     o2 5573   4.877   3.522   1.266 -0.1619 -0.1283 -0.0796
  825poe    c23 5574   4.799   3.448   1.174 -0.4436  0.3735 -0.2463
  825poe    c23 5575   4.850   3.303   1.168  0.2159  0.5928 -0.0006
  825poe     o2 5576   4.877   3.251   1.296  0.0771  0.2907 -0.0929
  825poe    c23 5577   4.801   3.134   1.316  0.1229  0.3574  0.5032
  825poe    c23 5578   4.832   3.061   1.448 -0.8311 -0.5866  0.2202
  825poe     o2 5579   4.797   3.142   1.558  0.1418  0.2761 -0.0851
  825poe    c31 5580   4.796   3.069   1.679  0.6825 -0.2782 -0.4108
  826poe    c31 5581   0.028   3.871   0.936  0.2637  0.2130  0.2256
  826poe     o2 5582  -0.010   3.888   0.802 -0.0083  0.1398  0.2915
  826poe    c23 5583  -0.128   3.812   0.788  0.3587 -0.2794 -0.6606
  826poe    c23 5584  -0.151   3.796   0.637 -0.0985  0.0454 -0.6275
  826poe     o2 5585  -0.026   3.779   0.575  0.2750  0.3099  0.0433
  826poe    c23 5586  -0.025   3.755   0.436  0.3200  0.4536  0.0186
  826poe    c23 5587   0.121   3.762   0.387  0.2689  0.1980 -0.1775
  826poe     o2 5588   0.205   3.840   0.469  0.4930  0.0406 -0.2581
  826poe    c23 5589   0.323   3.868   0.398  0.7310 -0.1784  0.0482
  826poe    c23 5590   0.453   3.889   0.479  0.5561  0.1283  0.2485
  826poe     o2 5591   0.465   4.013   0.545 -0.0798  0.2342  0.1756
  826poe    c31 5592   0.593   4.035   0.601  0.0462 -0.1486  0.0431
  827poe    c31 5593   5.629   2.803   2.152 -0.1326  0.5027  0.8245
  827poe     o2 5594   5.493   2.765   2.148  0.0739 -0.1982  0.2535
  827poe    c23 5595   5.426   2.869   2.215  0.3439 -0.2586  0.6247
  827poe    c23 5596   5.274   2.855   2.191  0.4686 -0.2743 -0.1964
  827poe     o2 5597   5.255   2.716   2.196 -0.2022 -0.1778  0.0785
  827poe    c23 5598   5.121   2.673   2.191 -0.2653  0.0390 -0.1049
  827poe    c23 5599   5.112   2.523   2.225  0.0954  0.0852  0.1961
  827poe     o2 5600   5.209   2.460   2.145  0.3140  0.6817 -0.0169
  827poe    c23 5601   5.268   2.344   2.199 -0.4490  0.2138 -0.1695
  827poe    c23 5602   5.406   2.320   2.135 -0.2614 -0.2853  0.4094
  827poe     o2 5603   5.480   2.440   2.131 -0.3658 -0.2317  0.1033
  827poe    c31 5604   5.618   2.414   2.136 -0.4037 -0.5512 -0.4733
  828poe    c31 5605   0.968   3.512   5.462  0.5685 -0.0015 -0.4945
  828poe     o2 5606   1.022   3.634   5.506  0.2339 -0.2074  0.5260
  828poe    c23 5607   1.129   3.679   5.425 -0.5622  0.1543 -0.3400
  828poe    c23 5608   1.183   3.813   5.479  0.0499 -0.1527 -0.1891
  828poe     o2 5609   1.213   3.806   5.616 -0.1073  0.1923 -0.1356
  828poe    c23 5610   1.321   3.724   5.656 -0.0655  0.4027  0.1902
  828poe    c23 5611   1.354   3.754   5.803 -0.1442  0.4961  0.1886
  828poe     o2 5612   1.225   3.765   5.858 -0.2684 -0.5424  0.1321
  828poe    c23 5613   1.246   3.817   5.988  0.5535 -0.2428 -0.1186
  828poe    c23 5614   1.103   3.843   6.037  0.6140  0.2484 -0.2009
  828poe     o2 5615   1.026   3.897   5.932  0.2105 -0.1268 -0.1011
  828poe    c31 5616   0.898   3.940   5.973  0.3253 -0.2870  0.4314
  829poe    c31 5617   0.487   2.761   1.659  0.1847  0.4732 -0.2692
  829poe     o2 5618   0.519   2.632   1.707 -0.8066  0.2847 -0.0903
  829poe    c23 5619   0.482   2.625   1.842  0.4541 -0.2575  0.2378
  829poe    c23 5620   0.489   2.475   1.880  0.4413 -0.2164  0.4057
  829poe     o2 5621   0.615   2.426   1.840  0.4509  0.2066 -0.1033
  829poe    c23 5622   0.628   2.286   1.851 -0.1860  0.1678  0.2199
  829poe    c23 5623   0.770   2.252   1.803 -0.2280  0.2144  0.0608
  829poe     o2 5624   0.792   2.319   1.681  0.2253  0.4690  0.2774
  829poe    c23 5625   0.898   2.263   1.607  0.0659  0.2481  0.2153
  829poe    c23 5626   0.918   2.327   1.468 -0.8305 -0.1237 -0.0952
  829poe     o2 5627   0.947   2.464   1.477  0.3498 -0.3518 -0.1888
  829poe    c31 5628   0.996   2.514   1.355 -0.1988 -0.2993 -0.3937
  830poe    c31 5629   3.419   5.716   3.841 -0.2186  0.4703 -0.4347
  830poe     o2 5630   3.352   5.661   3.729 -0.3754 -0.0695 -0.0793
  830poe    c23 5631   3.400   5.715   3.608  0.3604 -0.4572  0.0303
  830poe    c23 5632   3.395   5.627   3.481 -0.0989 -0.4696  0.0528
  830poe     o2 5633   3.268   5.568   3.494 -0.1740 -0.3981 -0.3610
  830poe    c23 5634   3.225   5.474   3.398 -0.0778 -0.9852  0.1641
  830poe    c23 5635   3.074   5.456   3.423 -0.2573 -0.1829 -0.3048
  830poe     o2 5636   3.061   5.438   3.562  0.3945 -0.3540 -0.2608
  830poe    c23 5637   2.935   5.472   3.616  0.4408 -0.2241 -0.2343
  830poe    c23 5638   2.959   5.471   3.768 -0.1556 -0.4123 -0.1395
  830poe     o2 5639   3.082   5.535   3.795 -0.0215 -0.6397 -0.2150
  830poe    c31 5640   3.098   5.558   3.933 -0.2627  0.4540 -0.3612
  831poe    c31 5641   3.986   6.418   6.698  0.0635 -0.0606 -0.2651
  831poe     o2 5642   4.066   6.315   6.646  0.5028  0.0166  0.2427
  831poe    c23 5643   4.156   6.273   6.746  0.6176  0.0536  0.1552
  831poe    c23 5644   4.209   6.133   6.713  0.3146  0.0158 -0.1767
  831poe     o2 5645   4.233   6.154   6.575 -0.7699 -0.0548 -0.3847
  831poe    c23 5646   4.305   6.050   6.513 -0.3095  0.1427 -0.1906
  831poe    c23 5647   4.345   6.089   6.369  0.3993  0.0669 -0.0178
  831poe     o2 5648   4.229   6.132   6.301  0.2753 -0.3097 -0.0515
  831poe    c23 5649   4.262   6.142   6.164 -0.5379 -0.2462 -0.2471
  831poe    c23 5650   4.169   6.234   6.083 -0.5389  0.1754  0.2238
  831poe     o2 5651   4.197   6.366   6.125  0.0435 -0.0983  0.7002
  831poe    c31 5652   4.315   6.431   6.083 -0.1665 -0.1461  0.0313
  832poe    c31 5653   1.950   1.224   5.851  0.3146 -0.4481  0.3762
  832poe     o2 5654   1.848   1.319   5.827  0.3893 -0.2719  0.7371
  832poe    c23 5655   1.715   1.273   5.838  0.3208 -0.4229 -0.5467
  832poe    c23 5656   1.618   1.373   5.771 -0.2138  0.0815  0.9365
  832poe     o2 5657   1.678   1.493   5.815  0.9387  0.0319 -0.3993
  832poe    c23 5658   1.626   1.609   5.754  0.7211 -0.0153 -0.3050
  832poe    c23 5659   1.675   1.729   5.837  0.1213  0.2444 -0.3242
  832poe     o2 5660   1.810   1.713   5.873  0.1056 -0.3359 -0.5136
  832poe    c23 5661   1.870   1.834   5.916 -0.1095 -0.3371 -0.2061
  832poe    c23 5662   1.833   1.890   6.054 -0.3956  0.1912 -0.4962
  832poe     o2 5663   1.858   1.796   6.156 -0.1449  0.6562 -0.1188
  832poe    c31 5664   1.826   1.849   6.282 -0.1094  0.1888  0.0906
  833poe    c31 5665   3.411   4.237   6.601  0.1301  0.3487 -0.3519
  833poe     o2 5666   3.360   4.241   6.470 -0.0750 -0.1948 -0.2906
  833poe    c23 5667   3.414   4.143   6.385  0.3789 -0.2048  0.0102
  833poe    c23 5668   3.389   4.155   6.234 -0.3184  0.4691  0.1758
  833poe     o2 5669   3.277   4.081   6.191  0.2389 -0.2320 -0.0912
  833poe    c23 5670   3.304   3.975   6.102 -0.0453 -0.3180 -0.0772
  833poe    c23 5671   3.174   3.894   6.083 -0.0484 -0.3978  0.2814
  833poe     o2 5672   3.069   3.980   6.044 -0.0506 -0.5036  0.0549
  833poe    c23 5673   2.962   3.895   6.009 -0.6001 -0.1020  0.7315
  833poe    c23 5674   2.854   3.995   5.962  0.1121  0.2138 -0.2667
  833poe     o2 5675   2.850   4.098   6.059 -0.0040  0.4006 -0.4712
  833poe    c31 5676   2.722   4.152   6.080 -0.3293 -0.4881 -0.1443
  834poe    c31 5677   4.802   1.847   1.570 -0.3984  0.3237 -0.1049
  834poe     o2 5678   4.739   1.973   1.559 -0.0152  0.5159 -0.0963
  834poe    c23 5679   4.841   2.069   1.550  0.1900  0.3305  0.2070
  834poe    c23 5680   4.784   2.200   1.607 -0.4514 -0.0359  0.4146
  834poe     o2 5681   4.664   2.220   1.536  0.1363  0.6341 -0.4064
  834poe    c23 5682   4.576   2.318   1.586 -0.2627  0.4292 -0.7001
  834poe    c23 5683   4.450   2.308   1.499 -0.6948 -0.0565 -0.0329
  834poe     o2 5684   4.413   2.173   1.510  0.4047 -0.4005 -0.4615
  834poe    c23 5685   4.306   2.139   1.425  0.0792 -0.2242 -0.1253
  834poe    c23 5686   4.317   1.986   1.421 -0.0472 -0.2307 -0.2321
  834poe     o2 5687   4.452   1.944   1.413 -0.0288 -0.2408  0.1458
  834poe    c31 5688   4.459   1.803   1.406  0.6432 -0.2250  0.4088
  835poe    c31 5689   1.419   6.765   3.612  0.0597  0.4324 -0.5052
  835poe     o2 5690   1.410   6.638   3.552 -0.1670 -0.1998  0.8298
  835poe    c23 5691   1.354   6.658   3.424 -0.0099 -0.8256  0.6554
  835poe    c23 5692   1.330   6.526   3.350  0.0732 -0.1995 -0.5109
  835poe     o2 5693   1.442   6.446   3.315  0.2697 -0.2783  0.2746
  835poe    c23 5694   1.527   6.497   3.214  0.1462 -0.2856  0.1657
  835poe    c23 5695   1.659   6.419   3.222  0.0115 -0.5221  0.0684
  835poe     o2 5696   1.621   6.283   3.225 -0.3799 -0.4275 -0.3633
  835poe    c23 5697   1.732   6.198   3.245  0.4684  0.6453 -0.3832
  835poe    c23 5698   1.662   6.062   3.268 -0.1515  1.0177 -0.0288
  835poe     o2 5699   1.558   6.069   3.362 -0.0683  0.0768  0.1409
  835poe    c31 5700   1.504   5.940   3.379 -0.1142  0.1088  0.2387
  836poe    c31 5701   0.328   0.419   5.223 -0.0741  0.2924 -0.0444
  836poe     o2 5702   0.199   0.448   5.176 -0.1632 -0.4286 -0.2648
  836poe    c23 5703   0.199   0.576   5.117 -0.2868 -0.0564  0.5334
  836poe    c23 5704   0.063   0.647   5.121 -0.3794 -0.1852 -0.3197
  836poe     o2 5705  -0.025   0.577   5.035  0.0171 -0.3087 -0.6263
  836poe    c23 5706  -0.152   0.638   5.039  0.3635  0.3779  0.2257
  836poe    c23 5707  -0.247   0.562   4.945  0.1268  0.4647  0.3945
  836poe     o2 5708  -0.244   0.425   4.978 -0.0600  0.3292 -0.1395
  836poe    c23 5709  -0.339   0.364   4.893  0.1020 -0.2845  0.1121
  836poe    c23 5710  -0.309   0.213   4.888 -0.1082 -0.3357  0.3695
  836poe     o2 5711  -0.170   0.212   4.911 -0.1295 -0.0771  0.5117
  836poe    c31 5712  -0.133   0.076   4.919  0.4364  0.0407 -0.0442
  837poe    c31 5713   1.989   0.933   6.511  0.2289  0.7990  0.2130
  837poe     o2 5714   2.085   0.927   6.408 -0.1074 -0.4001 -0.0475
  837poe    c23 5715   2.213   0.881   6.443 -0.1741 -0.5174  0.0458
  837poe    c23 5716   2.299   0.889   6.315 -0.2639 -0.1278  0.0074
  837poe     o2 5717   2.213   0.837   6.215 -0.3506 -0.2848  0.1622
  837poe    c23 5718   2.266   0.834   6.084 -0.1182  0.1648  0.2449
  837poe    c23 5719   2.169   0.749   6.001  0.5573 -0.0004 -0.3838
  837poe     o2 5720   2.046   0.815   5.982  0.5689  0.1207 -0.0410
  837poe    c23 5721   1.953   0.728   5.922  0.0234  0.2905  0.5440
  837poe    c23 5722   1.821   0.807   5.908 -0.2122 -0.1993 -0.0878
  837poe     o2 5723   1.768   0.863   6.026 -0.1286 -0.0817 -0.1057
  837poe    c31 5724   1.640   0.916   5.997 -0.0136  0.1167 -0.2519
  838poe    c31 5725   0.923   6.681   0.122  0.2251  0.1780 -0.2205
  838poe     o2 5726   0.889   6.818   0.111 -0.4648  0.0557  0.3582
  838poe    c23 5727   0.841   6.878   0.228 -0.1667  0.1054  0.4546
  838poe    c23 5728   0.875   7.028   0.223 -0.6184  0.1984  0.1321
  838poe     o2 5729   0.844   7.051   0.087  0.1343  0.6575  0.0327
  838poe    c23 5730   0.836   7.188   0.054 -0.4407  0.7558  0.5619
  838poe    c23 5731   0.782   7.193  -0.090  0.0328  0.1447  0.3585
  838poe     o2 5732   0.876   7.111  -0.155 -0.3396 -0.4386  0.5492
  838poe    c23 5733   0.845   7.095  -0.292  0.4988  0.5080  0.2380
  838poe    c23 5734   0.902   6.960  -0.338 -0.3055  0.4320 -0.5655
  838poe     o2 5735   0.860   6.864  -0.244  1.0167  0.4132  0.0274
  838poe    c31 5736   0.898   6.734  -0.284  0.7597  0.2978  0.1547
  839poe    c31 5737   2.541   0.272   0.859  0.4516  0.0749  0.0576
  839poe     o2 5738   2.675   0.236   0.835  0.5596  0.4026  0.1554
  839poe    c23 5739   2.722   0.334   0.746 -0.1716  0.4118 -0.2249
  839poe    c23 5740   2.867   0.297   0.711 -0.0523  0.4278  0.2530
  839poe     o2 5741   2.944   0.265   0.825  0.2465  0.1683 -0.0219
  839poe    c23 5742   2.990   0.373   0.903  0.5865  0.0317 -0.0327
  839poe    c23 5743   3.004   0.309   1.042 -0.5109 -0.1049  0.0169
  839poe     o2 5744   2.878   0.248   1.060 -0.4880 -0.3135 -0.5133
  839poe    c23 5745   2.880   0.152   1.163  0.2393 -0.3027 -0.5177
  839poe    c23 5746   2.745   0.081   1.187 -0.1463  0.5346 -0.2048
  839poe     o2 5747   2.702   0.021   1.067  0.3757 -0.2914  0.0168
  839poe    c31 5748   2.627  -0.097   1.088 -0.5588  0.4699  1.0565
  840poe    c31 5749   4.575   0.479   4.562 -0.1803  1.0209  0.3674
  840poe     o2 5750   4.469   0.467   4.471 -0.3618 -0.4881  0.7427
  840poe    c23 5751   4.351   0.529   4.516 -0.0302  0.5310  0.2413
  840poe    c23 5752   4.234   0.489   4.424  0.3082  0.0031  0.0403
  840poe     o2 5753   4.270   0.505   4.288  0.0189 -0.2793 -0.0719
  840poe    c23 5754   4.155   0.551   4.220  0.1024  0.4507  0.2682
  840poe    c23 5755   4.179   0.592   4.074 -0.3707 -0.1665  0.0118
  840poe     o2 5756   4.251   0.481   4.027 -0.3295 -0.2368  0.2385
  840poe    c23 5757   4.270   0.458   3.889  0.4933  0.2289  0.2692
  840poe    c23 5758   4.359   0.333   3.875  0.4992  0.3480 -0.8548
  840poe     o2 5759   4.460   0.358   3.970 -0.2003  0.1860 -0.0603
  840poe    c31 5760   4.590   0.321   3.930 -0.1773  0.2258 -0.0230
  841poe    c31 5761   4.847   4.227   4.830  0.1665  0.6881 -0.5255
  841poe     o2 5762   4.888   4.160   4.947 -0.0992  0.1826 -0.7214
  841poe    c23 5763   5.000   4.077   4.926  0.1129  0.2724  0.0205
  841poe    c23 5764   5.024   4.005   5.060 -0.1027  0.1256 -0.0189
  841poe     o2 5765   5.034   4.121   5.140  0.2681 -0.0090  0.1302
  841poe    c23 5766   5.096   4.088   5.262  0.2475 -0.3710  0.0454
  841poe    c23 5767   5.087   4.209   5.357 -0.0079 -0.3508 -0.0039
  841poe     o2 5768   4.962   4.273   5.339  0.2241  0.1277  0.0672
  841poe    c23 5769   4.966   4.380   5.431  0.4293  0.2301 -0.0600
  841poe    c23 5770   4.836   4.460   5.449  0.1338 -0.1796 -0.3668
  841poe     o2 5771   4.804   4.540   5.337 -0.2892  0.3026  0.0969
  841poe    c31 5772   4.696   4.627   5.362 -0.1000  0.7480 -0.6255
  842poe    c31 5773   5.664   1.322   1.239 -0.6622  0.7487 -0.0502
  842poe     o2 5774   5.575   1.252   1.322  0.1850 -0.2693  0.0136
  842poe    c23 5775   5.441   1.278   1.286  0.0249 -0.6668  0.3029
  842poe    c23 5776   5.349   1.165   1.336 -0.1942 -0.5621  0.1382
  842poe     o2 5777   5.381   1.170   1.473  0.2746 -0.7318  0.0367
  842poe    c23 5778   5.318   1.066   1.545 -0.2428 -0.3217  0.1795
  842poe    c23 5779   5.350   1.085   1.694 -0.0094  0.0574  0.0851
  842poe     o2 5780   5.487   1.111   1.713  0.0283  0.3832 -0.6215
  842poe    c23 5781   5.520   1.091   1.849  0.1088  0.0144 -0.6958
  842poe    c23 5782   5.672   1.105   1.871  0.1333 -0.6342 -0.4382
  842poe     o2 5783   5.721   1.232   1.836 -0.5016 -0.0110  0.8835
  842poe    c31 5784   5.858   1.233   1.867 -0.2123 -0.1651 -0.3327
  843poe    c31 5785   3.569   3.110   5.541  0.0594  0.2477 -0.4912
  843poe     o2 5786   3.685   3.191   5.551 -0.2705  0.6863 -0.1695
  843poe    c23 5787   3.677   3.284   5.445 -0.3225  0.8029 -0.0626
  843poe    c23 5788   3.781   3.398   5.436  0.1215  0.3603 -0.6375
  843poe     o2 5789   3.812   3.465   5.556  0.4360 -0.7960 -0.0600
  843poe    c23 5790   3.884   3.586   5.542 -0.4521 -0.3030 -0.3959
  843poe    c23 5791   3.851   3.680   5.659  0.2098 -0.2243 -0.2721
  843poe     o2 5792   3.882   3.604   5.773 -0.2133  0.0458  0.0251
  843poe    c23 5793   3.850   3.675   5.890 -0.1282 -0.2356  0.2206
  843poe    c23 5794   3.904   3.580   5.999  0.1068 -0.5989 -0.2114
  843poe     o2 5795   3.861   3.449   5.970  0.2407 -0.6623 -0.1215
  843poe    c31 5796   3.888   3.361   6.077  0.4250 -0.1773  0.2327
  844poe    c31 5797   4.265   2.157   5.239 -0.3495  0.0522 -0.0102
  844poe     o2 5798   4.310   2.271   5.308 -0.1528 -0.0747  0.0736
  844poe    c23 5799   4.416   2.319   5.229 -0.5076  0.2096 -0.2321
  844poe    c23 5800   4.471   2.439   5.307  0.4210 -0.2042 -0.2356
  844poe     o2 5801   4.491   2.407   5.442  0.2721  0.2098 -0.1145
  844poe    c23 5802   4.488   2.527   5.517 -0.8456  0.2685 -0.2370
  844poe    c23 5803   4.439   2.478   5.654  0.3355 -0.5214 -0.0793
  844poe     o2 5804   4.319   2.409   5.623  0.1997 -0.2339 -0.2005
  844poe    c23 5805   4.257   2.349   5.735 -0.2364 -0.0215 -0.3267
  844poe    c23 5806   4.129   2.289   5.676 -0.1780  0.1874 -0.6684
  844poe     o2 5807   4.177   2.218   5.564  0.6769 -0.3590  0.0294
  844poe    c31 5808   4.089   2.113   5.532 -0.2469  0.2388  0.5669
  845poe    c31 5809   0.116   3.908   5.555 -0.0556 -0.4544  0.2230
  845poe     o2 5810   0.249   3.899   5.601  0.1319  0.6888 -0.0598
  845poe    c23 5811   0.320   4.020   5.589 -0.0556  0.8348  0.2973
  845poe    c23 5812   0.458   3.986   5.647 -0.1563  0.0952  0.1077
  845poe     o2 5813   0.510   3.883   5.566 -0.0047  0.3674 -0.1392
  845poe    c23 5814   0.639   3.834   5.594 -0.3054 -0.3794 -0.0380
  845poe    c23 5815   0.676   3.745   5.473  0.6083 -0.2210  0.1180
  845poe     o2 5816   0.581   3.644   5.448 -0.1024  0.4931 -0.1120
  845poe    c23 5817   0.616   3.572   5.332  0.1769  0.3422  0.0639
  845poe    c23 5818   0.539   3.439   5.334 -0.0435  0.4743  0.4302
  845poe     o2 5819   0.400   3.462   5.326 -0.0665  0.1800 -0.0696
  845poe    c31 5820   0.343   3.336   5.297 -0.0267  0.1619 -0.0696
  846poe    c31 5821   5.471   0.184   4.825  0.8062 -0.3943  0.4249
  846poe     o2 5822   5.375   0.153   4.924  0.3235 -0.4030 -0.0418
  846poe    c23 5823   5.356   0.014   4.933  0.2769 -0.3845  0.1510
  846poe    c23 5824   5.291  -0.024   5.068  0.1081  0.1172  0.2135
  846poe     o2 5825   5.345   0.051   5.174  0.7875 -0.2786  0.1598
  846poe    c23 5826   5.264   0.057   5.290  0.6919  0.2377  0.0720
  846poe    c23 5827   5.340   0.108   5.414 -0.0084  0.0323  0.5927
  846poe     o2 5828   5.402   0.226   5.367 -0.3032  0.0058  0.1260
  846poe    c23 5829   5.473   0.295   5.467 -0.5745  0.2355  0.1616
  846poe    c23 5830   5.563   0.395   5.392 -0.3843  0.1807  0.3147
  846poe     o2 5831   5.668   0.322   5.331 -0.2394  0.4003  0.3003
  846poe    c31 5832   5.786   0.398   5.324 -0.2959  0.4354 -0.3832
  847poe    c31 5833   6.072   2.740   0.663 -0.4731  0.4294  0.0942
  847poe     o2 5834   6.095   2.646   0.560 -0.4642  0.3978  0.1249
  847poe    c23 5835   6.086   2.705   0.432  0.3541  0.2594 -0.0020
  847poe    c23 5836   6.167   2.610   0.342 -0.0136  0.2446 -0.3196
  847poe     o2 5837   6.136   2.478   0.378 -0.3446  0.4949  0.3208
  847poe    c23 5838   6.170   2.386   0.276 -0.6602  0.2164  0.4636
  847poe    c23 5839   6.101   2.258   0.326  0.3117 -0.6003 -0.2624
  847poe     o2 5840   6.098   2.269   0.466 -0.4904 -0.0608 -0.3204
  847poe    c23 5841   5.996   2.194   0.529 -0.4416  0.0859 -0.0643
  847poe    c23 5842   5.979   2.234   0.677 -0.2223  0.3799 -0.1160
  847poe     o2 5843   6.004   2.372   0.688 -0.2834  0.4050 -0.2848
  847poe    c31 5844   6.005   2.401   0.826 -0.2811  0.6633 -0.3390
  848poe    c31 5845   1.965   5.935   2.893  0.6489 -0.0548  0.4658
  848poe     o2 5846   2.027   6.004   2.787  0.4444  0.2367  0.5329
  848poe    c23 5847   1.986   5.942   2.667  0.3282  1.0200  0.1611
  848poe    c23 5848   2.063   5.985   2.541 -0.1413  0.2203 -0.4100
  848poe     o2 5849   2.073   6.124   2.560  0.0381  0.0811  0.5584
  848poe    c23 5850   2.149   6.179   2.454 -0.9595 -0.1668 -0.3027
  848poe    c23 5851   2.195   6.321   2.489  0.3306 -0.6363 -0.0130
  848poe     o2 5852   2.217   6.315   2.629  0.0668  0.2228  0.0733
  848poe    c23 5853   2.212   6.434   2.704  0.1091  0.2352  0.0559
  848poe    c23 5854   2.187   6.402   2.852  0.1961  0.1833  0.0594
  848poe     o2 5855   2.101   6.291   2.859  0.4204  0.0076  0.0600
  848poe    c31 5856   2.034   6.271   2.982 -0.6402 -0.2098 -0.5359
  849poe    c31 5857   0.665   3.423   4.256 -0.3530  0.3836  0.1113
  849poe     o2 5858   0.797   3.406   4.302 -0.4435  0.0423  0.2473
  849poe    c23 5859   0.802   3.372   4.439 -0.0473 -0.1344  0.1905
  849poe    c23 5860   0.943   3.319   4.470  0.1584  0.4675  0.2953
  849poe     o2 5861   1.035   3.401   4.402  0.1552 -0.2437 -0.5909
  849poe    c23 5862   1.166   3.351   4.384  0.1852 -0.3281 -0.1511
  849poe    c23 5863   1.220   3.440   4.271 -0.1173 -0.5018 -0.4350
  849poe     o2 5864   1.124   3.475   4.175 -0.4333  0.3649  0.1856
  849poe    c23 5865   1.175   3.532   4.056 -0.7120  0.0439 -0.0905
  849poe    c23 5866   1.218   3.677   4.082 -0.3805 -0.0284 -0.2265
  849poe     o2 5867   1.105   3.762   4.087 -0.2992  0.0577  0.1633
  849poe    c31 5868   1.145   3.897   4.096 -0.0955 -0.0039  0.1755
  850poe    c31 5869   2.283   3.193   0.472  0.3295  0.2193  0.1491
  850poe     o2 5870   2.275   3.054   0.452 -0.1378  0.2514  0.0890
  850poe    c23 5871   2.139   3.024   0.428  0.0013 -0.0918 -0.3000
  850poe    c23 5872   2.123   2.879   0.476 -0.1896 -0.0148 -0.1294
  850poe     o2 5873   2.226   2.804   0.416  0.0333  0.0851  0.1286
  850poe    c23 5874   2.210   2.670   0.459  0.3358  0.2617  0.8032
  850poe    c23 5875   2.307   2.581   0.379 -0.6335  0.2933 -0.4452
  850poe     o2 5876   2.431   2.642   0.408 -0.4609 -0.3276  0.1708
  850poe    c23 5877   2.522   2.545   0.363 -0.1620  0.1341 -0.2239
  850poe    c23 5878   2.666   2.595   0.387 -0.1478 -0.0560  0.0867
  850poe     o2 5879   2.682   2.725   0.335 -0.2144  0.0514  0.3315
  850poe    c31 5880   2.819   2.755   0.343 -0.2326  0.0705  0.5855
  851poe    c31 5881   1.008   3.428   2.506 -0.4186 -0.2550  0.0265
  851poe     o2 5882   1.125   3.484   2.562 -0.6289  0.1570  0.0560
  851poe    c23 5883   1.118   3.625   2.561 -0.2390  0.1778 -0.0316
  851poe    c23 5884   1.259   3.676   2.596 -0.0963 -0.1475 -0.1238
  851poe     o2 5885   1.304   3.592   2.700  0.2365  0.3038  0.1003
  851poe    c23 5886   1.407   3.653   2.774  0.1484  0.2954  0.2290
  851poe    c23 5887   1.439   3.569   2.899 -0.1907 -0.0632  0.0767
  851poe     o2 5888   1.469   3.435   2.867  0.2850  0.0282  0.1248
  851poe    c23 5889   1.488   3.355   2.982  1.0711 -0.1217 -0.1003
  851poe    c23 5890   1.475   3.204   2.954 -0.0988  0.0112 -0.3495
  851poe     o2 5891   1.358   3.143   2.904 -0.1777  0.0262 -0.1832
  851poe    c31 5892   1.277   3.088   3.006 -0.0222  0.3011  0.0911
  852poe    c31 5893   3.130   4.975   1.829 -0.1214  0.3889  0.8124
  852poe     o2 5894   3.181   4.848   1.865 -0.4518  0.1228  0.3552
  852poe    c23 5895   3.286   4.883   1.953 -0.3190  0.2592  0.1435
  852poe    c23 5896   3.341   4.764   2.033 -0.0772 -0.1570 -0.6306
  852poe     o2 5897   3.225   4.697   2.076  0.2414  0.1828  0.8041
  852poe    c23 5898   3.262   4.581   2.148 -0.1503 -0.4911 -0.0544
  852poe    c23 5899   3.150   4.476   2.142  0.1343 -0.7954 -0.0710
  852poe     o2 5900   3.104   4.473   2.009  0.1793 -0.4111 -0.0960
  852poe    c23 5901   3.149   4.373   1.920 -0.6363 -0.5857 -0.3254
  852poe    c23 5902   3.129   4.418   1.774  0.2111 -0.0375 -0.2828
  852poe     o2 5903   3.155   4.556   1.770 -0.3079  0.0769  0.1223
  852poe    c31 5904   3.168   4.610   1.641  0.3415 -0.1378  0.0901
  853poe    c31 5905   4.689   1.126   0.342 -0.3248 -0.0111  0.6217
  853poe     o2 5906   4.780   1.233   0.326 -0.1963 -0.1283  0.5712
  853poe    c23 5907   4.905   1.186   0.374 -0.0235 -0.1717  0.0904
  853poe    c23 5908   4.947   1.261   0.502 -0.2210 -0.0852  0.1054
  853poe     o2 5909   4.931   1.398   0.468  0.8997 -0.0783 -0.4238
  853poe    c23 5910   4.967   1.476   0.580 -0.3871 -0.1455  0.0498
  853poe    c23 5911   4.907   1.616   0.601  0.3148  0.1588  0.0318
  853poe     o2 5912   4.771   1.599   0.633  0.2520  0.3100 -0.1523
  853poe    c23 5913   4.716   1.724   0.667 -0.1366  0.3181 -0.8006
  853poe    c23 5914   4.562   1.715   0.659 -0.1926  0.4369  0.0546
  853poe     o2 5915   4.524   1.689   0.525  0.0802 -0.5369  0.1531
  853poe    c31 5916   4.383   1.678   0.518 -0.0260  0.5971  0.1691
  854poe    c31 5917   0.663   4.091   2.474  0.2205 -0.7865 -0.2925
  854poe     o2 5918   0.639   4.028   2.350  0.0112  0.0797 -0.6992
  854poe    c23 5919   0.708   3.905   2.346  0.0344  0.0782 -0.2250
  854poe    c23 5920   0.648   3.817   2.234  0.0563  0.1950 -0.3281
  854poe     o2 5921   0.683   3.855   2.103  0.4701  0.3613 -0.1702
  854poe    c23 5922   0.652   3.743   2.024  0.7698  0.1432  0.0184
  854poe    c23 5923   0.708   3.774   1.884  0.2317 -0.3268 -0.3063
  854poe     o2 5924   0.683   3.910   1.858  0.0252 -0.3811 -0.3942
  854poe    c23 5925   0.715   3.946   1.725 -0.6794 -0.2364 -0.5251
  854poe    c23 5926   0.665   4.091   1.711  0.0971  0.0873 -0.0326
  854poe     o2 5927   0.708   4.162   1.825 -0.0571 -0.1457  0.1709
  854poe    c31 5928   0.702   4.300   1.800 -0.2568 -0.2411 -0.3092
  855poe    c31 5929   6.413   1.266   3.789  0.0499  0.2761  0.2369
  855poe     o2 5930   6.294   1.192   3.804  0.0470  0.2664  0.1656
  855poe    c23 5931   6.340   1.067   3.850 -0.3873  0.0951  0.1414
  855poe    c23 5932   6.229   0.965   3.820 -0.1940 -0.0727 -0.0083
  855poe     o2 5933   6.207   0.947   3.682 -0.0150  0.2892 -0.0850
  855poe    c23 5934   6.099   0.857   3.667  0.0088  0.2961 -0.3073
  855poe    c23 5935   6.039   0.886   3.528  0.3825 -0.3773 -0.6112
  855poe     o2 5936   6.003   1.020   3.508  0.1075 -0.3239  0.1729
  855poe    c23 5937   5.930   1.028   3.387  0.4152  0.3417  0.0204
  855poe    c23 5938   5.883   1.173   3.371 -0.0279  0.1998  0.0073
  855poe     o2 5939   5.853   1.215   3.502  0.2218 -0.0935  0.1605
  855poe    c31 5940   5.772   1.330   3.495  0.1037 -0.1789  0.1126
  856poe    c31 5941   1.101   0.465   4.460  0.1896  0.2250 -0.4625
  856poe     o2 5942   1.207   0.464   4.367  0.1454 -0.1887 -0.5112
  856poe    c23 5943   1.325   0.457   4.443  0.0435  0.4039 -0.2952
  856poe    c23 5944   1.450   0.428   4.357  0.2403  0.2431  0.0439
  856poe     o2 5945   1.439   0.305   4.289 -0.3912  0.1182  0.3607
  856poe    c23 5946   1.557   0.264   4.223 -0.1746 -0.2193  0.9414
  856poe    c23 5947   1.541   0.113   4.196  0.1195 -0.0898 -0.0099
  856poe     o2 5948   1.423   0.098   4.120  0.3032 -0.2128 -0.2718
  856poe    c23 5949   1.399  -0.038   4.093  0.5708 -0.2887 -0.1408
  856poe    c23 5950   1.264  -0.042   4.019  0.3253  0.2406  0.2748
  856poe     o2 5951   1.176   0.058   4.065 -0.2039 -0.0103 -0.1733
  856poe    c31 5952   1.049   0.034   4.009 -0.1152 -0.2617 -0.2642
  857poe    c31 5953   4.593   0.174   0.721  0.6568 -0.4753  0.4409
  857poe     o2 5954   4.468   0.169   0.785  0.2015  0.0915 -0.3917
  857poe    c23 5955   4.449   0.259   0.892 -0.3686 -0.2966 -0.1583
  857poe    c23 5956   4.313   0.226   0.956 -0.3503 -0.4710 -0.2071
  857poe     o2 5957   4.227   0.169   0.860 -0.6935 -0.0386 -0.1582
  857poe    c23 5958   4.116   0.110   0.924 -0.4029  0.0237  0.4050
  857poe    c23 5959   4.029   0.022   0.833  0.4066  0.0922 -0.4558
  857poe     o2 5960   4.109  -0.057   0.749  0.2635 -0.7884  0.2141
  857poe    c23 5961   4.033  -0.121   0.650 -0.6358 -0.0398  0.4116
  857poe    c23 5962   4.117  -0.220   0.568 -0.1311  0.3754  0.4235
  857poe     o2 5963   4.210  -0.148   0.491 -0.1277  0.0618  0.1317
  857poe    c31 5964   4.286  -0.233   0.408  0.0713 -0.4060  0.7921
  858poe    c31 5965   1.468   6.499   5.375 -0.7264  0.6807 -0.2120
  858poe     o2 5966   1.565   6.589   5.326 -0.1912  0.0363 -0.3524
  858poe    c23 5967   1.544   6.609   5.188 -0.8404  0.5006 -0.1892
  858poe    c23 5968   1.656   6.697   5.129  0.0151 -0.3341  0.1857
  858poe     o2 5969   1.778   6.637   5.167  0.2124  0.0298  0.1278
  858poe    c23 5970   1.893   6.681   5.097 -0.0159 -0.1522 -0.3627
  858poe    c23 5971   2.021   6.618   5.154 -0.1668  0.1876  0.3617
  858poe     o2 5972   2.010   6.627   5.294 -0.2573 -0.4683  0.3986
  858poe    c23 5973   2.135   6.600   5.355 -0.1735  0.0648  0.4681
  858poe    c23 5974   2.130   6.583   5.508  0.1494 -0.3083  0.4391
  858poe     o2 5975   2.042   6.477   5.534 -0.3402  0.0572  0.2968
  858poe    c31 5976   2.005   6.460   5.669  0.0439  0.6412  0.4777
  859poe    c31 5977   5.365   2.533   1.219 -0.1320  0.7324 -0.4387
  859poe     o2 5978   5.383   2.629   1.322  0.1224  0.5016 -0.2647
  859poe    c23 5979   5.348   2.575   1.447 -0.4370  0.4434 -0.4422
  859poe    c23 5980   5.368   2.694   1.543  0.6529  0.1882 -0.3456
  859poe     o2 5981   5.321   2.811   1.481  0.3291  0.5888  0.6278
  859poe    c23 5982   5.317   2.927   1.561 -0.8915  0.3402  0.9371
  859poe    c23 5983   5.265   3.032   1.461 -0.0315 -0.4125 -0.3165
  859poe     o2 5984   5.325   3.004   1.336 -0.1718 -0.3011 -0.4093
  859poe    c23 5985   5.334   3.127   1.269  0.4935  0.0520  0.3049
  859poe    c23 5986   5.253   3.113   1.138  0.2418  0.2355  0.4401
  859poe     o2 5987   5.118   3.076   1.154  0.1495  0.2824 -0.2186
  859poe    c31 5988   5.063   3.060   1.025  0.6675  0.2711 -0.4388
  860poe    c31 5989   5.503   2.220   0.895  0.4510  0.3435 -0.3011
  860poe     o2 5990   5.483   2.333   0.812 -0.0254  0.1690 -0.4263
  860poe    c23 5991   5.589   2.423   0.831  0.0579 -0.0117 -0.0155
  860poe    c23 5992   5.555   2.549   0.749 -0.5230 -0.0426  0.1735
  860poe     o2 5993   5.423   2.590   0.774 -0.7302 -0.5206 -0.1251
  860poe    c23 5994   5.403   2.722   0.728 -0.3639 -0.6678 -0.7271
  860poe    c23 5995   5.260   2.775   0.751  0.0524  0.0894  0.1941
  860poe     o2 5996   5.166   2.678   0.708  0.1226 -0.0867  0.4331
  860poe    c23 5997   5.038   2.737   0.712  0.2348  0.2152 -0.3002
  860poe    c23 5998   4.927   2.632   0.731  0.1685  0.3856  0.2787
  860poe     o2 5999   4.946   2.550   0.844  0.1944 -0.0950 -0.0715
  860poe    c31 6000   4.830   2.471   0.851 -0.0717  0.2783 -0.2236
  861poe    c31 6001   5.572   6.652   0.032  0.1952  0.0032 -0.2331
  861poe     o2 6002   5.650   6.571   0.116  0.0320  0.4352  0.3398
  861poe    c23 6003   5.776   6.629   0.141  0.2668  0.0022  0.1700
  861poe    c23 6004   5.867   6.527   0.214  0.5765  0.2742  0.1658
  861poe     o2 6005   5.783   6.479   0.317  0.1936  0.2255 -0.1653
  861poe    c23 6006   5.861   6.396   0.400  0.0062  0.5869  0.3774
  861poe    c23 6007   5.763   6.313   0.485  0.0283  0.1290 -0.0383
  861poe     o2 6008   5.673   6.259   0.392  0.0527 -0.1750  0.1136
  861poe    c23 6009   5.586   6.170   0.459 -0.2210 -0.0995 -0.1370
  861poe    c23 6010   5.509   6.076   0.364 -0.2994 -0.1411 -0.0325
  861poe     o2 6011   5.425   6.148   0.278  0.0198 -0.1689 -0.3726
  861poe    c31 6012   5.339   6.062   0.206  0.4799 -0.6369 -0.3659
  862poe    c31 6013   0.048   6.590   0.274  0.1980  0.1613 -0.3545
  862poe     o2 6014  -0.051   6.670   0.212  0.1746  0.3113 -0.1247
  862poe    c23 6015  -0.101   6.751   0.316 -0.3745  0.4965 -0.5289
  862poe    c23 6016  -0.213   6.849   0.276 -0.5367  0.7135  0.4179
  862poe     o2 6017  -0.174   6.944   0.179 -0.0030  0.2358  0.1576
  862poe    c23 6018  -0.283   7.017   0.128 -0.1142  0.2028  0.3460
  862poe    c23 6019  -0.237   7.131   0.035  0.6617 -0.3009  0.0975
  862poe     o2 6020  -0.165   7.080  -0.075  0.5254 -0.7215  0.2015
  862poe    c23 6021  -0.130   7.187  -0.160  0.0506 -0.4508  0.3374
  862poe    c23 6022  -0.067   7.113  -0.280  0.3262 -0.0410  0.2264
  862poe     o2 6023   0.006   7.001  -0.232  0.1377 -0.2776 -0.0335
  862poe    c31 6024   0.114   6.969  -0.316 -0.1118 -0.6229 -0.2245
  863poe    c31 6025   4.713   0.932   5.383 -0.4389  0.8040 -0.6923
  863poe     o2 6026   4.588   0.896   5.437 -0.1354 -0.3170 -0.7195
  863poe    c23 6027   4.574   0.756   5.433 -0.1578 -0.3324 -0.1597
  863poe    c23 6028   4.477   0.706   5.542 -0.0727  0.4795  0.2922
  863poe     o2 6029   4.368   0.795   5.537 -0.0076  0.5329 -0.1817
  863poe    c23 6030   4.276   0.797   5.644  0.1972 -0.0908  0.0048
  863poe    c23 6031   4.186   0.915   5.607 -0.1711 -0.3196  0.1715
  863poe     o2 6032   4.271   1.023   5.576  0.0061 -0.7157 -0.7415
  863poe    c23 6033   4.215   1.141   5.522 -0.0193 -0.3389  0.0839
  863poe    c23 6034   4.336   1.232   5.497 -0.1712 -0.2480 -0.3425
  863poe     o2 6035   4.439   1.162   5.430 -0.2111 -0.2123 -0.4403
  863poe    c31 6036   4.487   1.250   5.330  0.1549 -0.1134 -0.1789
  864poe    c31 6037   2.856   4.172   1.905 -0.0770 -0.0311 -0.5623
  864poe     o2 6038   2.752   4.089   1.953  0.3508 -0.4626 -0.3706
  864poe    c23 6039   2.802   3.960   1.982 -0.4428 -0.5594  0.5940
  864poe    c23 6040   2.709   3.890   2.083 -0.5294 -0.3771  0.6413
  864poe     o2 6041   2.685   3.960   2.204  0.0632  0.3464  0.3513
  864poe    c23 6042   2.611   3.876   2.290  0.0736  0.1724  0.1929
  864poe    c23 6043   2.637   3.922   2.435 -0.1915 -0.3624  0.4120
  864poe     o2 6044   2.619   4.061   2.426 -0.4208 -0.4009  0.2701
  864poe    c23 6045   2.554   4.131   2.529 -0.1408  0.0923  0.1166
  864poe    c23 6046   2.587   4.281   2.520 -0.0225  0.0372 -0.4070
  864poe     o2 6047   2.590   4.309   2.382 -0.1155  0.6740 -0.2876
  864poe    c31 6048   2.592   4.446   2.353 -0.1111  0.6527 -0.3893
  865poe    c31 6049   0.018   1.485   3.891 -0.1145 -0.3086 -0.1124
  865poe     o2 6050   0.148   1.462   3.938 -0.0700 -0.0739 -0.1222
  865poe    c23 6051   0.156   1.503   4.073  0.1555  0.0352 -0.1667
  865poe    c23 6052   0.292   1.567   4.105  0.2470 -0.2911  0.1015
  865poe     o2 6053   0.398   1.481   4.071 -0.1298 -0.5839 -0.3466
  865poe    c23 6054   0.520   1.550   4.091 -0.2874 -0.3292 -0.2611
  865poe    c23 6055   0.615   1.486   3.988  0.0840 -0.0014 -0.1251
  865poe     o2 6056   0.595   1.347   3.991 -0.1793  0.0381 -0.0199
  865poe    c23 6057   0.683   1.273   3.909 -0.0862 -0.1342  0.2343
  865poe    c23 6058   0.662   1.123   3.931 -0.1875 -0.1398  0.1038
  865poe     o2 6059   0.528   1.092   3.903 -0.4440  0.0498  1.0760
  865poe    c31 6060   0.512   0.953   3.888 -0.2558  0.1863 -0.5524
  866poe    c31 6061   3.555   0.020   0.767  0.3148  0.0777  0.6190
  866poe     o2 6062   3.558   0.100   0.651 -0.2744 -0.1309  0.4564
  866poe    c23 6063   3.433   0.162   0.629 -0.0287  0.2155  0.0185
  866poe    c23 6064   3.432   0.230   0.491  0.2066 -0.2848 -0.2340
  866poe     o2 6065   3.541   0.318   0.469  0.0974  0.0281  0.4428
  866poe    c23 6066   3.535   0.361   0.334  0.3079 -0.3091  0.3244
  866poe    c23 6067   3.649   0.461   0.307  0.2601 -0.3471 -0.0240
  866poe     o2 6068   3.767   0.399   0.354  0.2208 -0.4165 -0.0162
  866poe    c23 6069   3.880   0.475   0.320  0.2701 -0.3888  0.2130
  866poe    c23 6070   3.990   0.433   0.420  0.1255 -0.0704  0.5107
  866poe     o2 6071   3.940   0.428   0.551  0.0857  0.8022  0.5371
  866poe    c31 6072   4.040   0.372   0.633 -0.0539  0.2785  0.3535
  867poe    c31 6073   2.985   0.129   5.341 -0.0814 -0.6477 -0.1957
  867poe     o2 6074   3.039   0.148   5.212 -0.0374  0.4352 -0.0284
  867poe    c23 6075   2.959   0.081   5.117  0.4708 -0.7277  0.3465
  867poe    c23 6076   3.023   0.097   4.978  0.3985 -0.2531  0.3637
  867poe     o2 6077   3.078   0.226   4.971 -0.3349  0.0216 -0.3952
  867poe    c23 6078   3.137   0.252   4.846  0.2616 -0.6368 -0.2546
  867poe    c23 6079   3.262   0.337   4.873 -0.1068 -0.2441  0.2294
  867poe     o2 6080   3.242   0.428   4.979 -0.1590  0.3073 -0.2526
  867poe    c23 6081   3.357   0.510   4.986  0.0860 -0.0691  0.1390
  867poe    c23 6082   3.347   0.596   5.113 -0.2754 -0.0955  0.1275
  867poe     o2 6083   3.370   0.501   5.215  0.0266  0.1159  0.2572
  867poe    c31 6084   3.333   0.568   5.333 -0.5574  0.4833 -0.1324
  868poe    c31 6085   2.637   5.495   1.469 -0.0026  0.0278 -0.0645
  868poe     o2 6086   2.613   5.358   1.445 -0.4488  0.1718 -0.4401
  868poe    c23 6087   2.566   5.333   1.314  0.7752 -0.3137 -0.7986
  868poe    c23 6088   2.514   5.192   1.284 -0.0083 -0.2051  0.0247
  868poe     o2 6089   2.419   5.147   1.378 -0.7338  0.0797 -0.5607
  868poe    c23 6090   2.413   5.006   1.365 -0.4036 -0.0263  0.3763
  868poe    c23 6091   2.289   4.950   1.436 -0.3866 -0.0264  0.4060
  868poe     o2 6092   2.306   4.996   1.568 -0.3007  0.4311  0.2354
  868poe    c23 6093   2.268   4.909   1.672  0.0848 -0.4227 -0.3359
  868poe    c23 6094   2.305   4.976   1.805  0.7351  0.1986 -0.8200
  868poe     o2 6095   2.312   5.114   1.781 -0.3886  0.3830 -0.1689
  868poe    c31 6096   2.360   5.184   1.893 -0.0512 -0.0640 -0.0341
  869poe    c31 6097   1.869   2.806   6.102 -0.3278  0.2724  0.2181
  869poe     o2 6098   1.934   2.682   6.116 -0.3669  0.1921 -0.3020
  869poe    c23 6099   2.022   2.659   6.008  0.1064 -0.0954  0.1395
  869poe    c23 6100   2.103   2.534   6.048  0.0484 -0.3580 -0.5485
  869poe     o2 6101   2.014   2.440   6.105 -0.4457  0.4104 -0.0293
  869poe    c23 6102   2.083   2.324   6.147 -0.0936  0.6592  0.0859
  869poe    c23 6103   1.982   2.231   6.216  0.1778  0.0927 -0.2795
  869poe     o2 6104   1.895   2.311   6.293  0.8387 -0.1282  0.7146
  869poe    c23 6105   1.820   2.224   6.375 -0.8210  0.1217 -0.4895
  869poe    c23 6106   1.815   2.252   6.526  0.1724 -0.0727 -0.4128
  869poe     o2 6107   1.770   2.383   6.553  0.1473 -0.1470 -0.0757
  869poe    c31 6108   1.756   2.414   6.689  0.8877  0.6967 -0.1774
  870poe    c31 6109   0.196   6.599   1.144  0.0760 -0.3958  0.0107
  870poe     o2 6110   0.294   6.631   1.240 -0.0057 -0.6569  0.1797
  870poe    c23 6111   0.423   6.653   1.187 -0.0280 -0.2122  0.3113
  870poe    c23 6112   0.523   6.665   1.304  1.0921 -0.2543 -0.6320
  870poe     o2 6113   0.501   6.570   1.406  0.0648  0.0740 -0.5333
  870poe    c23 6114   0.605   6.597   1.498  0.1540 -0.1965 -0.5542
  870poe    c23 6115   0.589   6.491   1.608 -0.1456  0.0847 -0.3267
  870poe     o2 6116   0.457   6.480   1.657  0.0953 -0.1690  0.2819
  870poe    c23 6117   0.424   6.369   1.737 -0.2525 -0.2244  0.0647
  870poe    c23 6118   0.270   6.365   1.750 -0.3310  0.5989 -0.5401
  870poe     o2 6119   0.235   6.385   1.615  0.3375 -0.1343 -0.8290
  870poe    c31 6120   0.095   6.371   1.605  0.2195  0.4291 -0.0510
  871poe    c31 6121   6.661   1.214   3.087  0.1280  0.2373 -0.0120
  871poe     o2 6122   6.696   1.091   3.145  0.5351  0.2874 -0.1505
  871poe    c23 6123   6.810   1.036   3.084 -0.0294 -0.2167 -0.7621
  871poe    c23 6124   6.842   0.907   3.162  0.2156  0.0181 -0.4701
  871poe     o2 6125   6.849   0.939   3.299  0.1584 -0.7779 -0.2744
  871poe    c23 6126   6.825   0.829   3.382  0.0077 -0.2437  0.3952
  871poe    c23 6127   6.675   0.798   3.401 -0.0995  0.2135  0.2915
  871poe     o2 6128   6.624   0.928   3.422 -0.1036  0.3108 -0.2930
  871poe    c23 6129   6.486   0.934   3.451 -0.0313 -0.4135  0.2283
  871poe    c23 6130   6.466   1.085   3.473 -0.4024 -0.3841 -0.2968
  871poe     o2 6131   6.533   1.156   3.372  0.0742  0.0666  0.3329
  871poe    c31 6132   6.487   1.289   3.376  0.4308  0.2112 -0.1758
  872poe    c31 6133   4.901   1.922   1.090  0.0790 -0.1437  0.5649
  872poe     o2 6134   4.982   1.929   0.974 -0.3353  0.2814  0.2947
  872poe    c23 6135   4.924   1.995   0.864  0.3904  0.0983 -0.2069
  872poe    c23 6136   5.044   2.027   0.773  0.4881  0.2250 -0.0336
  872poe     o2 6137   5.114   1.906   0.757 -0.3805 -0.2533 -0.2658
  872poe    c23 6138   5.225   1.920   0.672 -0.7900  0.0009 -0.7657
  872poe    c23 6139   5.266   1.780   0.623  0.3501  0.1308 -0.2215
  872poe     o2 6140   5.292   1.709   0.742  0.0413  0.2796 -0.0630
  872poe    c23 6141   5.338   1.583   0.696  0.3610  0.4469 -0.2069
  872poe    c23 6142   5.328   1.479   0.809 -0.1749  0.4543 -0.2450
  872poe     o2 6143   5.194   1.436   0.826  0.0886 -0.4049 -0.2844
  872poe    c31 6144   5.200   1.314   0.896  0.0208 -0.3815 -0.2377
  873poe    c31 6145   1.151   5.270   4.531 -0.3380  0.0075  0.2907
  873poe     o2 6146   1.161   5.188   4.646  0.0906 -0.0615  0.2049
  873poe    c23 6147   1.054   5.099   4.667  0.0188  0.0651  0.3734
  873poe    c23 6148   1.104   5.018   4.788  0.1824 -0.2390  0.1041
  873poe     o2 6149   1.226   4.953   4.760  0.4784  0.2767  0.1786
  873poe    c23 6150   1.253   4.862   4.864  0.3794  0.4677  0.3718
  873poe    c23 6151   1.388   4.796   4.832 -0.0290 -0.1546 -0.0633
  873poe     o2 6152   1.483   4.891   4.790  0.0164 -0.2282 -0.1302
  873poe    c23 6153   1.606   4.826   4.767 -0.0041 -0.1857 -0.3614
  873poe    c23 6154   1.714   4.917   4.705  0.1465 -0.3941 -0.4066
  873poe     o2 6155   1.666   4.991   4.594 -0.2764 -0.4301 -0.2509
  873poe    c31 6156   1.775   5.063   4.541 -0.4122  0.4105  0.5803
  874poe    c31 6157   4.835   5.335   0.240 -0.3148  0.2564  0.3231
  874poe     o2 6158   4.700   5.327   0.278 -0.4953 -0.0189 -0.3783
  874poe    c23 6159   4.656   5.193   0.291 -0.4002 -0.0312 -0.1954
  874poe    c23 6160   4.525   5.204   0.371 -0.2360 -0.1136  0.0901
  874poe     o2 6161   4.537   5.238   0.507 -0.1289 -0.0131  0.0551
  874poe    c23 6162   4.417   5.285   0.564  0.1420  0.5611  0.1629
  874poe    c23 6163   4.422   5.328   0.712 -0.2317 -0.0193  0.3479
  874poe     o2 6164   4.541   5.398   0.740 -0.3795  0.1832  0.4674
  874poe    c23 6165   4.535   5.464   0.864 -0.5346  0.4381  0.3259
  874poe    c23 6166   4.642   5.574   0.854 -0.0490 -0.0141  0.4951
  874poe     o2 6167   4.755   5.504   0.808 -0.3459  0.1063 -0.4514
  874poe    c31 6168   4.862   5.597   0.800  0.1874 -0.4594 -0.0047
  875poe    c31 6169   1.780   2.676   5.513 -0.3630 -0.2290 -0.7934
  875poe     o2 6170   1.743   2.810   5.491 -0.4495 -0.2008 -0.4703
  875poe    c23 6171   1.603   2.823   5.481 -0.4608  0.1358  0.0539
  875poe    c23 6172   1.580   2.974   5.457 -0.5225  0.1673  0.3084
  875poe     o2 6173   1.687   3.007   5.371 -0.4131 -0.0894  0.3440
  875poe    c23 6174   1.663   3.134   5.313 -0.2510 -0.2371 -0.0474
  875poe    c23 6175   1.796   3.202   5.275 -0.3833 -0.0445 -0.1625
  875poe     o2 6176   1.887   3.193   5.383 -0.2282 -0.2693 -0.3116
  875poe    c23 6177   2.025   3.198   5.357 -0.3110  0.3720 -0.6519
  875poe    c23 6178   2.066   3.053   5.327 -0.1619  0.1869  0.4111
  875poe     o2 6179   2.006   2.950   5.402 -0.0027 -0.1328  0.0975
  875poe    c31 6180   2.084   2.836   5.373 -0.0822 -0.2598  0.3784
  876poe    c31 6181   6.240   5.354   1.400  0.4624 -0.0170 -0.0236
  876poe     o2 6182   6.170   5.355   1.523 -0.2118 -0.2434 -0.4020
  876poe    c23 6183   6.231   5.267   1.615 -0.2083  0.1495 -0.0242
  876poe    c23 6184   6.152   5.262   1.746  0.0530  0.1844  0.1353
  876poe     o2 6185   6.023   5.205   1.743  0.2927 -0.3581  0.0807
  876poe    c23 6186   5.971   5.156   1.865  0.1348 -0.0708  0.1293
  876poe    c23 6187   5.826   5.111   1.839  0.3072 -0.0362 -0.9167
  876poe     o2 6188   5.757   5.231   1.811  0.5053  0.3124  0.0595
  876poe    c23 6189   5.622   5.199   1.784  0.4532  0.4875  0.1142
  876poe    c23 6190   5.540   5.322   1.741  0.0372  0.2073  0.0963
  876poe     o2 6191   5.612   5.375   1.632 -0.1658 -0.0366 -0.1543
  876poe    c31 6192   5.530   5.424   1.528  0.3559  0.9544 -0.1083
  877poe    c31 6193   3.839   4.958   4.319  0.2060 -0.8270 -0.0168
  877poe     o2 6194   3.765   4.908   4.210 -0.3155 -0.0021 -0.0454
  877poe    c23 6195   3.665   4.817   4.252 -0.1216 -0.1849  0.0217
  877poe    c23 6196   3.614   4.730   4.136  0.3582 -0.1151 -0.2443
  877poe     o2 6197   3.593   4.825   4.033 -0.7842  0.1150  0.1837
  877poe    c23 6198   3.571   4.764   3.908 -0.4759  0.1117  0.1294
  877poe    c23 6199   3.608   4.879   3.813 -0.1978 -0.2948 -0.2550
  877poe     o2 6200   3.738   4.912   3.858 -0.4090  0.0265  0.1237
  877poe    c23 6201   3.803   4.996   3.765 -0.3312 -0.4007 -0.2108
  877poe    c23 6202   3.933   5.020   3.844 -0.5020 -0.0639 -0.0335
  877poe     o2 6203   3.891   5.036   3.978 -0.0632  0.3413  0.0591
  877poe    c31 6204   3.943   5.154   4.034 -0.0751  0.2308  0.3010
  878poe    c31 6205   5.415   4.485   2.415  0.1320  0.1230 -0.0950
  878poe     o2 6206   5.302   4.401   2.411 -0.0697  0.4050 -0.3329
  878poe    c23 6207   5.264   4.357   2.539 -0.5622 -0.1202 -0.6537
  878poe    c23 6208   5.158   4.246   2.527 -1.0562  0.2110  0.4649
  878poe     o2 6209   5.099   4.268   2.400 -0.4836 -0.1342  0.1334
  878poe    c23 6210   4.976   4.199   2.384 -0.5167 -0.2472  0.8238
  878poe    c23 6211   4.911   4.272   2.265  0.3686  0.2784  0.6489
  878poe     o2 6212   5.023   4.294   2.182  0.0669 -0.3469  0.0698
  878poe    c23 6213   4.996   4.384   2.077  0.2058  0.5459  0.7969
  878poe    c23 6214   5.130   4.413   2.009 -0.0982 -0.1744 -0.1229
  878poe     o2 6215   5.224   4.455   2.106 -0.8193  0.6826  0.2236
  878poe    c31 6216   5.314   4.552   2.059  0.0285 -0.4062 -0.4804
  879poe    c31 6217   2.345   4.674   5.271 -0.0865 -0.6603  0.2902
  879poe     o2 6218   2.347   4.608   5.146  0.0575 -0.4516  0.1808
  879poe    c23 6219   2.219   4.581   5.093  0.1356 -0.6894  0.1117
  879poe    c23 6220   2.230   4.523   4.951 -0.3580  0.1442 -0.2743
  879poe     o2 6221   2.320   4.415   4.949 -0.4338  0.0754 -0.0328
  879poe    c23 6222   2.317   4.320   4.844  0.1183  0.1478 -0.1172
  879poe    c23 6223   2.447   4.237   4.844 -0.1401 -0.2599 -0.6908
  879poe     o2 6224   2.554   4.320   4.804  0.0962 -0.6430 -0.8578
  879poe    c23 6225   2.674   4.248   4.801  0.3434 -0.2697 -0.0454
  879poe    c23 6226   2.784   4.352   4.773  0.1017 -0.0315 -0.0998
  879poe     o2 6227   2.757   4.474   4.840 -0.0736 -0.1463  0.0377
  879poe    c31 6228   2.864   4.562   4.815 -0.2721 -0.0553 -0.5043
  880poe    c31 6229   4.472   4.962   1.843 -0.2265  0.1399 -0.0923
  880poe     o2 6230   4.503   5.059   1.745 -0.4640  0.1614 -0.1470
  880poe    c23 6231   4.525   4.990   1.625  0.2428  0.3253 -0.1136
  880poe    c23 6232   4.533   5.094   1.512 -0.3617  0.3316 -0.1521
  880poe     o2 6233   4.603   5.206   1.562 -0.0935  0.1584 -0.1391
  880poe    c23 6234   4.593   5.323   1.484 -0.5527  0.2579  0.0649
  880poe    c23 6235   4.548   5.441   1.572 -1.0355  0.7703 -0.8606
  880poe     o2 6236   4.468   5.385   1.673  0.2127 -0.1442 -0.3647
  880poe    c23 6237   4.418   5.486   1.758 -0.0357 -0.5141 -0.0623
  880poe    c23 6238   4.337   5.396   1.853 -0.1906 -0.3519 -0.0414
  880poe     o2 6239   4.432   5.297   1.886  0.1385 -0.1743 -0.4439
  880poe    c31 6240   4.436   5.284   2.026  0.2850  0.1681 -0.4160
  881poe    c31 6241   0.306   1.032   5.594  0.2807 -0.4781 -0.2276
  881poe     o2 6242   0.341   1.166   5.569 -0.5794 -0.0880  0.5880
  881poe    c23 6243   0.255   1.261   5.627 -0.3293  0.4425  0.0992
  881poe    c23 6244   0.291   1.391   5.554 -0.2396  0.3251 -0.0644
  881poe     o2 6245   0.431   1.409   5.557 -0.1843 -0.1860  0.4366
  881poe    c23 6246   0.479   1.526   5.496 -0.5480 -0.1979  0.1271
  881poe    c23 6247   0.629   1.506   5.521 -0.4535  0.1879 -0.1175
  881poe     o2 6248   0.657   1.379   5.466 -0.1637  0.2386 -0.0897
  881poe    c23 6249   0.792   1.357   5.501 -0.2591  0.3797  0.3634
  881poe    c23 6250   0.789   1.208   5.542 -0.1606  0.2226 -0.1961
  881poe     o2 6251   0.670   1.173   5.609  0.1323 -0.1760  0.1214
  881poe    c31 6252   0.665   1.034   5.631  0.2119 -0.1731  0.1562
  882poe    c31 6253   2.945   6.287   3.000  0.0292 -0.0415 -0.0988
  882poe     o2 6254   2.882   6.413   3.001 -0.3288 -0.2185  0.0441
  882poe    c23 6255   2.744   6.395   3.019 -0.4676  0.4641 -0.2877
  882poe    c23 6256   2.667   6.527   3.040 -0.1048  0.5797  0.3377
  882poe     o2 6257   2.653   6.610   2.927  0.3301 -0.2419 -0.3289
  882poe    c23 6258   2.524   6.661   2.904  0.3121 -0.0443  0.2168
  882poe    c23 6259   2.546   6.776   2.804  0.0385 -0.2317 -0.0601
  882poe     o2 6260   2.632   6.730   2.701  0.2556 -0.1181  0.0689
  882poe    c23 6261   2.655   6.841   2.616 -0.1982  0.1564  0.2983
  882poe    c23 6262   2.721   6.790   2.486 -0.7912 -0.1870  0.1276
  882poe     o2 6263   2.789   6.677   2.535 -0.1734  0.1045 -0.0533
  882poe    c31 6264   2.895   6.638   2.451 -0.3783 -0.5409 -0.0190
  883poe    c31 6265   4.020   2.836   6.495  0.2652  0.6419  0.8144
  883poe     o2 6266   3.949   2.744   6.575  0.1687  0.0233  0.0351
  883poe    c23 6267   3.816   2.781   6.601  0.2558  0.5572 -0.2688
  883poe    c23 6268   3.765   2.687   6.712  0.4209  0.1364 -0.5463
  883poe     o2 6269   3.805   2.559   6.669  0.1448 -0.1246 -0.0398
  883poe    c23 6270   3.756   2.452   6.745 -0.0421 -0.1701 -0.2233
  883poe    c23 6271   3.840   2.332   6.699  0.0337 -0.1066 -0.2481
  883poe     o2 6272   3.972   2.381   6.690  0.1057 -0.3013 -0.2614
  883poe    c23 6273   4.052   2.265   6.677  0.3580 -0.0996 -0.5384
  883poe    c23 6274   4.200   2.280   6.639  0.5948 -0.1269  0.3672
  883poe     o2 6275   4.227   2.299   6.502 -0.1964 -0.2528  0.1896
  883poe    c31 6276   4.361   2.282   6.460 -0.0275 -0.2054  0.6999
  884poe    c31 6277   1.683   0.259   6.714  0.0573 -0.5259 -0.3318
  884poe     o2 6278   1.750   0.169   6.799  0.4728  0.1602  0.0792
  884poe    c23 6279   1.759   0.219   6.930  0.2684 -0.0201  0.1625
  884poe    c23 6280   1.776   0.109   7.037  0.1049 -0.2411 -0.0389
  884poe     o2 6281   1.860   0.013   6.978 -0.0983 -0.3798 -0.1023
  884poe    c23 6282   1.852  -0.114   7.040 -0.5032 -0.3222 -0.0348
  884poe    c23 6283   1.797  -0.210   6.933 -0.5761 -0.2410 -0.0709
  884poe     o2 6284   1.860  -0.181   6.810 -0.4900 -0.0994  0.0065
  884poe    c23 6285   1.793  -0.231   6.696  0.1272 -0.1059 -0.3613
  884poe    c23 6286   1.865  -0.166   6.577 -0.1040  0.1552 -0.3589
  884poe     o2 6287   1.847  -0.029   6.603  0.1569  0.1631 -0.2207
  884poe    c31 6288   1.849   0.041   6.481 -0.1385  0.0676 -0.2810
  885poe    c31 6289   6.385   4.677   4.041  0.2656 -0.2098  0.2701
  885poe     o2 6290   6.429   4.811   4.046  0.0255 -0.0827 -0.6882
  885poe    c23 6291   6.531   4.834   4.141 -0.5713 -0.1117 -0.0281
  885poe    c23 6292   6.515   4.985   4.171 -0.5498 -0.1971  0.4200
  885poe     o2 6293   6.513   5.048   4.045  0.7100  0.2382  0.5996
  885poe    c23 6294   6.474   5.183   4.038  0.7677  0.2384  0.2283
  885poe    c23 6295   6.472   5.217   3.888  0.0049  0.1892  0.2203
  885poe     o2 6296   6.382   5.121   3.838  0.4078  0.0501 -0.2410
  885poe    c23 6297   6.355   5.147   3.701 -0.4635 -0.3120 -0.1429
  885poe    c23 6298   6.291   5.039   3.612  0.0783 -0.5874 -0.2042
  885poe     o2 6299   6.342   4.908   3.608  0.5678 -0.3962 -0.2945
  885poe    c31 6300   6.254   4.831   3.530 -0.2572 -0.1271  0.3648
  886poe    c31 6301   4.500   1.335   4.734  0.7721  0.2410 -0.4417
  886poe     o2 6302   4.373   1.275   4.728  0.7887  0.1407  0.1798
  886poe    c23 6303   4.361   1.239   4.592  0.0209 -0.3678  0.3763
  886poe    c23 6304   4.236   1.150   4.571  0.2900 -0.5279 -0.5729
  886poe     o2 6305   4.123   1.234   4.564  0.1930 -0.5739  0.3661
  886poe    c23 6306   3.999   1.171   4.590 -0.0471 -0.3791 -0.2953
  886poe    c23 6307   3.902   1.279   4.641  0.3019 -0.2296  0.0561
  886poe     o2 6308   3.919   1.329   4.772  0.2421 -0.5473  0.1845
  886poe    c23 6309   3.792   1.364   4.822  0.1698 -0.4519 -0.0645
  886poe    c23 6310   3.821   1.388   4.971  0.2231 -0.0245 -0.1437
  886poe     o2 6311   3.938   1.467   4.977  0.4924 -0.3903 -0.4776
  886poe    c31 6312   3.949   1.511   5.110  0.1876  0.2608 -0.6622
  887poe    c31 6313   4.506   4.344   0.804 -0.0254  0.4476 -0.3070
  887poe     o2 6314   4.399   4.426   0.765 -0.6695 -0.1145  0.2518
  887poe    c23 6315   4.308   4.334   0.707 -0.5932 -0.6053  0.9014
  887poe    c23 6316   4.185   4.403   0.645 -0.0272 -0.0918  0.3352
  887poe     o2 6317   4.211   4.485   0.533 -0.1683  0.1499  0.4780
  887poe    c23 6318   4.084   4.526   0.489  0.0670 -0.5162 -0.8613
  887poe    c23 6319   4.091   4.581   0.345 -0.2927  0.6041 -0.4581
  887poe     o2 6320   4.191   4.680   0.354  0.1600  0.1044  0.1509
  887poe    c23 6321   4.227   4.722   0.224 -0.1618 -0.3606 -0.0899
  887poe    c23 6322   4.356   4.805   0.230 -0.3122 -0.1177 -0.1922
  887poe     o2 6323   4.441   4.723   0.308  0.1212  0.2685 -0.2516
  887poe    c31 6324   4.575   4.748   0.274  0.0759  0.0625 -0.5958
  888poe    c31 6325   0.581   2.441   5.405 -0.0877  0.1127  0.0572
  888poe     o2 6326   0.561   2.336   5.498  0.1103 -0.2910 -0.3497
  888poe    c23 6327   0.449   2.260   5.458 -0.3228  0.2317 -0.1465
  888poe    c23 6328   0.461   2.129   5.539  0.0061  0.1009 -0.4062
  888poe     o2 6329   0.594   2.082   5.529 -0.0691 -0.1289 -0.3366
  888poe    c23 6330   0.615   1.951   5.576 -0.4958 -0.1355 -0.1614
  888poe    c23 6331   0.760   1.956   5.627 -0.4230  0.1084 -0.3907
  888poe     o2 6332   0.775   2.056   5.725  0.2624  0.0285 -0.4076
  888poe    c23 6333   0.898   2.047   5.794 -0.1831  0.0649  0.4072
  888poe    c23 6334   0.876   2.092   5.939 -0.4925 -0.2937  0.4737
  888poe     o2 6335   0.805   2.213   5.951 -0.4790 -0.2466  0.0750
  888poe    c31 6336   0.808   2.274   6.078  0.1207 -0.3171  0.0994
  889poe    c31 6337   6.115   3.089   3.838  0.1355  0.5036 -0.1136
  889poe     o2 6338   6.154   3.045   3.966 -0.0956  0.2622 -0.1255
  889poe    c23 6339   6.123   2.909   3.985  0.3299  0.1560 -0.1672
  889poe    c23 6340   6.223   2.849   4.085  0.0496  0.0235  0.0373
  889poe     o2 6341   6.253   2.950   4.179 -0.1548  0.2279 -0.1182
  889poe    c23 6342   6.371   2.935   4.254 -0.2246 -0.4436 -0.1373
  889poe    c23 6343   6.484   3.021   4.194 -0.0437 -0.1384  0.6339
  889poe     o2 6344   6.426   3.143   4.155 -0.0360 -0.2571  0.2549
  889poe    c23 6345   6.529   3.234   4.123 -0.5042 -0.0110 -0.5903
  889poe    c23 6346   6.438   3.347   4.070  0.0079  0.4228 -0.5558
  889poe     o2 6347   6.335   3.303   3.985 -0.3671 -0.2844  0.2455
  889poe    c31 6348   6.280   3.412   3.915  0.3461 -0.3102 -0.3769
  890poe    c31 6349   6.729   3.534   1.625  0.1357  0.0260  0.0585
  890poe     o2 6350   6.630   3.624   1.669  0.6506  0.7891 -0.3240
  890poe    c23 6351   6.556   3.568   1.775 -0.1022  0.4579 -1.0122
  890poe    c23 6352   6.432   3.659   1.792 -0.1708  0.2159 -0.1832
  890poe     o2 6353   6.480   3.787   1.760 -0.0438  0.2672  0.2083
  890poe    c23 6354   6.377   3.884   1.767  0.1224  0.4669 -0.0981
  890poe    c23 6355   6.444   4.022   1.765  0.3791  0.3397 -0.3481
  890poe     o2 6356   6.517   4.044   1.646 -0.1647  0.4450 -0.6649
  890poe    c23 6357   6.641   4.107   1.671  0.0438 -0.0770 -0.3616
  890poe    c23 6358   6.757   4.046   1.590  0.4853  0.0591  0.1617
  890poe     o2 6359   6.776   3.912   1.627 -0.0256 -0.1296 -0.2380
  890poe    c31 6360   6.888   3.858   1.560  0.4240 -0.0469  0.4334
  891poe    c31 6361   1.034   5.064   4.264 -0.1769  0.6475 -0.0737
  891poe     o2 6362   0.951   5.003   4.168  0.3308  0.1177 -0.1806
  891poe    c23 6363   0.843   5.080   4.120  0.0226  0.0721  0.4275
  891poe    c23 6364   0.755   5.020   4.009  0.1086  0.0414  0.3759
  891poe     o2 6365   0.679   4.912   4.057  0.1493 -0.0032  0.3389
  891poe    c23 6366   0.611   4.861   3.944  0.1321 -0.1006  0.3938
  891poe    c23 6367   0.513   4.746   3.975  0.0514 -0.0630  0.2763
  891poe     o2 6368   0.587   4.627   3.990 -0.1228 -0.2001  0.0642
  891poe    c23 6369   0.505   4.523   4.038 -0.2593 -0.4673 -0.7304
  891poe    c23 6370   0.600   4.406   4.066  0.3124  0.2025  0.2113
  891poe     o2 6371   0.638   4.340   3.947  0.6701  0.3691  0.2314
  891poe    c31 6372   0.696   4.214   3.974  0.3183  0.1611  0.0301
  892poe    c31 6373   4.772   4.879   5.020  0.0809  0.3696 -0.2658
  892poe     o2 6374   4.658   4.860   4.939  0.2518 -0.4285 -0.3300
  892poe    c23 6375   4.599   4.733   4.956 -0.2158 -0.1158  0.4313
  892poe    c23 6376   4.478   4.709   4.864  0.1462  0.2732 -0.1532
  892poe     o2 6377   4.387   4.815   4.886 -0.2221 -0.0472 -0.1243
  892poe    c23 6378   4.253   4.790   4.848 -0.2728  0.0702 -0.0207
  892poe    c23 6379   4.167   4.914   4.880 -0.2103  0.0994  0.0341
  892poe     o2 6380   4.212   5.030   4.813  0.0294  0.1575  0.2928
  892poe    c23 6381   4.118   5.135   4.823 -0.2130 -0.0774  0.4901
  892poe    c23 6382   4.184   5.256   4.754  0.2144 -0.5012  0.1421
  892poe     o2 6383   4.319   5.259   4.792  0.2924 -0.1893 -0.1567
  892poe    c31 6384   4.365   5.391   4.777  0.1819 -0.0931  0.3525
  893poe    c31 6385   0.313   2.888   1.028 -0.0596 -0.7812 -0.3144
  893poe     o2 6386   0.193   2.827   0.984 -0.0067 -0.2540 -1.2237
  893poe    c23 6387   0.208   2.699   0.926  0.3010 -0.7294 -0.1192
  893poe    c23 6388   0.083   2.609   0.921 -0.4818  0.2990  0.3598
  893poe     o2 6389  -0.014   2.677   0.845 -0.1143  0.3082 -0.1059
  893poe    c23 6390  -0.132   2.602   0.831 -0.2050  0.4209  0.0584
  893poe    c23 6391  -0.238   2.672   0.745 -0.1128  0.2836 -0.1670
  893poe     o2 6392  -0.270   2.804   0.782  0.3488  0.4532 -0.3627
  893poe    c23 6393  -0.366   2.874   0.706 -0.3810 -0.1436 -0.0137
  893poe    c23 6394  -0.387   3.008   0.780  0.2131  0.2674 -0.5708
  893poe     o2 6395  -0.259   3.067   0.781  0.2249  0.2531  0.7676
  893poe    c31 6396  -0.261   3.198   0.833  0.3234  0.4482  0.2848
  894poe    c31 6397   3.648   0.341   3.411  0.3154 -0.1567 -0.3363
  894poe     o2 6398   3.558   0.404   3.499  0.2838 -0.4419 -0.1661
  894poe    c23 6399   3.424   0.360   3.506  0.1604 -0.0462 -0.0197
  894poe    c23 6400   3.351   0.434   3.619  0.1964  0.1296 -0.1108
  894poe     o2 6401   3.391   0.569   3.608 -0.6269  0.3330 -0.6721
  894poe    c23 6402   3.379   0.641   3.728  0.1226  0.4166 -0.6417
  894poe    c23 6403   3.493   0.744   3.741  0.1587  0.2884  0.1305
  894poe     o2 6404   3.610   0.680   3.694  0.0230  0.4528 -0.4475
  894poe    c23 6405   3.715   0.774   3.697  0.0473  0.4155  0.0559
  894poe    c23 6406   3.840   0.693   3.660  0.1055  0.8258 -0.6841
  894poe     o2 6407   3.817   0.606   3.552  0.1638  0.1397 -0.1491
  894poe    c31 6408   3.940   0.561   3.502  0.0935 -0.0814 -0.1292
  895poe    c31 6409   1.250   5.474   2.788 -0.5835 -0.4008  0.2451
  895poe     o2 6410   1.215   5.567   2.687 -0.5638 -0.4040  0.2346
  895poe    c23 6411   1.194   5.696   2.741  0.4280 -0.0108 -0.2830
  895poe    c23 6412   1.222   5.808   2.640  0.1735  0.0089 -0.3317
  895poe     o2 6413   1.124   5.813   2.538 -0.4221  0.4069  0.2474
  895poe    c23 6414   1.167   5.904   2.440 -0.0337 -0.0697 -0.0289
  895poe    c23 6415   1.085   5.910   2.309  0.2897 -0.0990 -0.2336
  895poe     o2 6416   1.044   5.781   2.271 -0.0971 -0.1406  0.3113
  895poe    c23 6417   0.948   5.791   2.168  0.4976  0.5774 -0.1833
  895poe    c23 6418   0.915   5.646   2.130  0.6420  0.5156 -0.0700
  895poe     o2 6419   0.914   5.568   2.248  0.5964 -0.1657 -0.5128
  895poe    c31 6420   0.876   5.434   2.230 -1.0237  0.2660 -0.5237
  896poe    c31 6421   3.648   3.149   1.978 -0.2211  0.0409  0.6201
  896poe     o2 6422   3.688   3.282   1.955  0.4181 -0.3061 -0.3379
  896poe    c23 6423   3.595   3.338   1.864  0.1345 -0.5484 -0.2006
  896poe    c23 6424   3.639   3.483   1.833  0.0259 -0.3938  0.3481
  896poe     o2 6425   3.626   3.561   1.949 -0.6716  0.1580 -0.0950
  896poe    c23 6426   3.638   3.698   1.915 -0.6141  0.0604 -0.4680
  896poe    c23 6427   3.604   3.785   2.037  0.1125  0.1869 -0.3530
  896poe     o2 6428   3.695   3.752   2.140  0.0286  0.3368 -0.2301
  896poe    c23 6429   3.672   3.798   2.271 -0.3205 -0.2349 -0.0827
  896poe    c23 6430   3.807   3.795   2.346 -0.4234  0.5187  0.1474
  896poe     o2 6431   3.864   3.668   2.324  0.3806  0.9191 -0.1199
  896poe    c31 6432   3.980   3.640   2.399  0.2862 -1.0741 -0.6474
  897poe    c31 6433   5.696   6.186   3.894 -0.3433  0.2467  0.5454
  897poe     o2 6434   5.690   6.190   3.754  0.4623  0.1284  0.5035
  897poe    c23 6435   5.737   6.312   3.702 -0.7461  0.1884 -0.5098
  897poe    c23 6436   5.651   6.330   3.575 -0.3395  0.3113 -0.7683
  897poe     o2 6437   5.654   6.208   3.505  0.1719  0.1271 -0.4344
  897poe    c23 6438   5.546   6.202   3.414 -0.2443  0.5671  0.0252
  897poe    c23 6439   5.508   6.054   3.400 -0.2823  0.5831 -0.0406
  897poe     o2 6440   5.528   5.998   3.528  0.1262  0.1650 -0.2861
  897poe    c23 6441   5.487   5.864   3.548 -0.3485  0.3580  0.0384
  897poe    c23 6442   5.530   5.819   3.689 -0.1394  0.7040  0.0873
  897poe     o2 6443   5.660   5.872   3.701  0.2097 -0.1788  0.3416
  897poe    c31 6444   5.734   5.817   3.807  0.2140  0.2296  0.5513
  898poe    c31 6445   3.910   0.700   5.276  0.4231 -0.5471 -0.2424
  898poe     o2 6446   3.889   0.649   5.406  0.5500 -0.0857 -0.0396
  898poe    c23 6447   3.753   0.624   5.432  0.5827  0.0266  0.2462
  898poe    c23 6448   3.738   0.548   5.565  0.8619  0.1307  0.3389
  898poe     o2 6449   3.767   0.598   5.694  0.4533 -0.3681  0.6298
  898poe    c23 6450   3.900   0.639   5.716  0.5054 -0.2347  0.0888
  898poe    c23 6451   3.905   0.711   5.852  1.1094  0.1935 -0.1576
  898poe     o2 6452   3.811   0.644   5.933  0.5213  0.2655 -0.7654
  898poe    c23 6453   3.757   0.752   6.006  0.1920 -0.1473 -0.3993
  898poe    c23 6454   3.637   0.700   6.089  0.3612 -0.1637 -0.1632
  898poe     o2 6455   3.568   0.608   6.007  0.1519  0.3505 -0.5720
  898poe    c31 6456   3.470   0.535   6.077  0.6729 -0.1390 -0.3420
  899poe    c31 6457   5.854   2.052   2.987 -0.5270  0.2099  0.0491
  899poe     o2 6458   5.748   2.086   2.900 -0.3167  0.1609 -0.2280
  899poe    c23 6459   5.629   2.066   2.972  0.0512 -0.2665  0.2642
  899poe    c23 6460   5.508   2.063   2.878  0.1264  0.2466  0.1499
  899poe     o2 6461   5.533   1.968   2.776  0.6926  0.0357  0.4841
  899poe    c23 6462   5.442   1.991   2.671  0.6375 -0.0193  0.5201
  899poe    c23 6463   5.518   1.986   2.537  0.0288 -0.4640  0.1893
  899poe     o2 6464   5.635   2.057   2.568  0.0242 -0.1497 -0.4977
  899poe    c23 6465   5.725   2.065   2.460  0.5151 -0.6984 -0.1350
  899poe    c23 6466   5.834   2.164   2.506  0.0162 -0.1474 -0.1241
  899poe     o2 6467   5.865   2.124   2.637  0.4353 -0.1985 -0.2343
  899poe    c31 6468   5.970   2.202   2.688 -0.1287  0.3209  0.1572
  900poe    c31 6469   6.025   1.835   1.733  0.3451  0.0863 -0.0681
  900poe     o2 6470   5.915   1.836   1.645 -0.0371 -0.2957  0.4003
  900poe    c23 6471   5.825   1.734   1.681 -0.4279 -0.0738  0.0595
  900poe    c23 6472   5.700   1.734   1.591 -0.0227  0.2202 -0.5120
  900poe     o2 6473   5.674   1.870   1.564  0.1120  0.3718  0.0896
  900poe    c23 6474   5.552   1.894   1.498  0.0521  0.0631  0.0867
  900poe    c23 6475   5.505   2.041   1.499 -0.0772  0.0211  0.2141
  900poe     o2 6476   5.601   2.142   1.481 -0.6139  0.4777 -0.1475
  900poe    c23 6477   5.670   2.131   1.359  0.2683 -0.0024  0.3832
  900poe    c23 6478   5.821   2.148   1.387  0.4041 -0.2813 -0.1497
  900poe     o2 6479   5.882   2.044   1.460  0.3328 -0.3565 -0.1963
  900poe    c31 6480   6.021   2.032   1.439  0.5218  0.8160  0.2827
  901poe    c31 6481   2.570   1.404   5.622 -0.2017 -0.5440 -0.3871
  901poe     o2 6482   2.625   1.291   5.559  0.3335 -0.1838 -0.5705
  901poe    c23 6483   2.666   1.188   5.647  0.2286  0.3877  0.1576
  901poe    c23 6484   2.717   1.061   5.577  0.1784  0.3944  0.1091
  901poe     o2 6485   2.846   1.079   5.525 -0.0063  0.7348 -0.2349
  901poe    c23 6486   2.888   0.980   5.434 -0.0560  0.8450 -0.3792
  901poe    c23 6487   3.024   1.026   5.379 -0.0007  0.3269 -0.6827
  901poe     o2 6488   3.018   1.153   5.320 -0.0206  0.2564 -0.8327
  901poe    c23 6489   3.142   1.167   5.254  0.3474 -0.1953 -0.2355
  901poe    c23 6490   3.140   1.299   5.175  0.0685 -0.1656 -0.1798
  901poe     o2 6491   3.065   1.391   5.251  0.3141  0.0610 -0.2112
  901poe    c31 6492   3.051   1.511   5.178 -0.3648  0.1207  0.0120
  902poe    c31 6493   4.594   1.084   1.420 -0.0323  0.4409 -0.7524
  902poe     o2 6494   4.707   1.013   1.373  0.4172  0.3584  0.4171
  902poe    c23 6495   4.804   1.100   1.320  0.5868  0.0538  0.2239
  902poe    c23 6496   4.917   1.018   1.256  0.5093 -0.0939  0.2773
  902poe     o2 6497   4.962   0.913   1.339 -0.0247 -0.3726  0.2272
  902poe    c23 6498   5.057   0.840   1.264 -0.2194 -0.2801 -0.1115
  902poe    c23 6499   5.125   0.727   1.343 -0.2334 -0.3501 -0.2007
  902poe     o2 6500   5.221   0.783   1.429 -0.0103 -0.3667 -0.4378
  902poe    c23 6501   5.279   0.684   1.510  0.3302  0.1657 -0.0253
  902poe    c23 6502   5.209   0.668   1.646  0.0400  0.3059 -0.1571
  902poe     o2 6503   5.194   0.789   1.717  0.5508  0.0869  0.3433
  902poe    c31 6504   5.189   0.758   1.854  0.4416 -0.5067  0.2064
  903poe    c31 6505   0.703   5.813   4.685 -0.1306 -0.0200 -0.5913
  903poe     o2 6506   0.581   5.758   4.642 -0.4446  0.1513  0.0654
  903poe    c23 6507   0.564   5.819   4.516  0.2262  0.2334  0.0148
  903poe    c23 6508   0.427   5.787   4.455 -0.0080  0.0194  0.6483
  903poe     o2 6509   0.429   5.651   4.417  0.3076  0.1824  0.0759
  903poe    c23 6510   0.307   5.615   4.356 -0.0141  0.6559  0.4328
  903poe    c23 6511   0.326   5.485   4.275  0.1677  0.6014  0.5632
  903poe     o2 6512   0.397   5.389   4.350 -0.1509 -0.0354  0.0554
  903poe    c23 6513   0.431   5.274   4.276 -0.1078  0.0827 -0.1092
  903poe    c23 6514   0.507   5.170   4.359  0.6895  0.4791 -0.3372
  903poe     o2 6515   0.587   5.244   4.449  0.0748  0.6082  0.1112
  903poe    c31 6516   0.694   5.161   4.489 -0.2910  0.1356  0.1215
  904poe    c31 6517   5.680   6.078   4.280  0.2068  0.1808  0.0275
  904poe     o2 6518   5.549   6.026   4.271  0.1820  0.1554  0.5262
  904poe    c23 6519   5.452   6.126   4.250 -0.0053 -0.1538 -0.1054
  904poe    c23 6520   5.329   6.060   4.184  0.2521 -0.3236 -0.4139
  904poe     o2 6521   5.308   5.929   4.233  0.1043 -0.1868 -0.1138
  904poe    c23 6522   5.185   5.869   4.197  0.0150  0.1263 -0.3350
  904poe    c23 6523   5.189   5.800   4.060 -0.0310  0.0248 -0.2849
  904poe     o2 6524   5.298   5.711   4.070 -0.3020 -0.2832 -0.0556
  904poe    c23 6525   5.312   5.642   3.948 -0.0857 -0.4289  0.0514
  904poe    c23 6526   5.406   5.523   3.969  0.7827  0.1618 -0.4347
  904poe     o2 6527   5.537   5.570   3.992  0.7394  0.2338 -0.3336
  904poe    c31 6528   5.617   5.461   4.034  0.5306 -0.1109 -0.8238
  905poe    c31 6529   1.070   0.869   6.449 -0.7034 -0.3196  0.0507
  905poe     o2 6530   1.152   0.755   6.460  0.2033  0.3690  0.5932
  905poe    c23 6531   1.072   0.663   6.531  0.0548 -0.2047 -0.3044
  905poe    c23 6532   1.158   0.540   6.567 -0.2303 -0.3246 -0.0305
  905poe     o2 6533   1.225   0.511   6.447 -0.0495 -0.0670  0.0071
  905poe    c23 6534   1.287   0.384   6.449 -1.1981 -0.6454 -0.4033
  905poe    c23 6535   1.310   0.356   6.300 -0.2456  0.3512 -0.4575
  905poe     o2 6536   1.342   0.481   6.243  0.0940  0.4265 -0.1000
  905poe    c23 6537   1.322   0.473   6.104 -0.1252  0.1013 -0.0506
  905poe    c23 6538   1.331   0.622   6.065  0.1431  0.1259  0.1054
  905poe     o2 6539   1.249   0.697   6.150  0.1978  0.0628  0.2148
  905poe    c31 6540   1.212   0.821   6.094  0.0837 -0.0670  0.0033
  906poe    c31 6541   3.398   3.904   2.577  0.1907  0.6294  0.3249
  906poe     o2 6542   3.262   3.911   2.616 -0.0523 -0.7103 -0.2163
  906poe    c23 6543   3.190   4.010   2.545  0.2290 -0.6220 -0.3823
  906poe    c23 6544   3.051   4.024   2.610  0.3599  0.1652 -0.2610
  906poe     o2 6545   3.065   4.001   2.749  0.2972 -0.1511 -0.3060
  906poe    c23 6546   2.939   3.998   2.811  0.5051 -0.4619  0.1106
  906poe    c23 6547   2.939   4.001   2.965 -0.1206  0.8001  0.1035
  906poe     o2 6548   3.006   3.884   3.006 -0.4650  0.4145 -0.4097
  906poe    c23 6549   3.002   3.884   3.147 -0.8461 -0.5642 -0.4168
  906poe    c23 6550   3.112   3.790   3.199 -0.2688  0.0748 -0.4843
  906poe     o2 6551   3.240   3.849   3.205 -0.2356 -0.0581  0.2081
  906poe    c31 6552   3.343   3.758   3.239 -0.5003 -0.5016 -0.1756
  907poe    c31 6553   3.193   2.506   3.994 -0.3806 -0.1799  0.3280
  907poe     o2 6554   3.138   2.636   3.994  0.1260  0.0390 -0.1578
  907poe    c23 6555   3.028   2.643   3.906  0.3291  0.1666 -0.4023
  907poe    c23 6556   2.974   2.787   3.894  0.2165  0.2015  0.4921
  907poe     o2 6557   2.989   2.850   4.019 -0.4154  0.4338  0.4557
  907poe    c23 6558   2.964   2.989   4.020 -0.9406  0.3435 -0.0113
  907poe    c23 6559   3.001   3.024   4.165  0.1338 -0.3695 -0.0990
  907poe     o2 6560   3.129   2.967   4.178  0.4409  0.3474  0.0811
  907poe    c23 6561   3.191   2.975   4.304 -0.1739  0.2833  0.3945
  907poe    c23 6562   3.329   2.911   4.278 -0.1996 -0.0808  1.1173
  907poe     o2 6563   3.309   2.795   4.199  0.2173  0.6013 -0.0202
  907poe    c31 6564   3.435   2.748   4.160 -0.0609 -0.3348  0.1930
  908poe    c31 6565   3.702   4.112   1.727 -0.0928 -0.3760  0.0194
  908poe     o2 6566   3.641   4.079   1.604 -0.1338 -0.0856 -0.0386
  908poe    c23 6567   3.613   3.941   1.612  0.4419 -0.1745  0.5246
  908poe    c23 6568   3.654   3.880   1.476 -0.2088 -0.1453  0.3099
  908poe     o2 6569   3.612   3.976   1.382 -0.3925 -0.3313  0.2036
  908poe    c23 6570   3.620   3.938   1.246  0.4876  0.3159  0.0682
  908poe    c23 6571   3.541   4.041   1.163  0.4274 -0.0607 -0.3454
  908poe     o2 6572   3.577   4.166   1.218 -0.3511  0.0391 -0.0498
  908poe    c23 6573   3.469   4.255   1.203  0.0668  0.4682 -0.5523
  908poe    c23 6574   3.478   4.360   1.315  0.2287  0.3414 -0.4465
  908poe     o2 6575   3.507   4.289   1.433  0.5884  1.0435 -0.1103
  908poe    c31 6576   3.464   4.340   1.558 -0.2492  0.7475 -0.2705
  909poe    c31 6577   3.791   4.928   0.035  0.3554  0.1132 -0.1653
  909poe     o2 6578   3.790   5.048  -0.039  0.2549  0.5462  0.5304
  909poe    c23 6579   3.665   5.107  -0.063 -0.0772  0.0069  0.9114
  909poe    c23 6580   3.669   5.238  -0.145 -0.2143 -0.0529  0.8091
  909poe     o2 6581   3.729   5.347  -0.079 -0.0027  0.2790  0.0751
  909poe    c23 6582   3.784   5.436  -0.174  0.1138 -0.0743 -0.1915
  909poe    c23 6583   3.858   5.555  -0.110  0.1862 -0.2270  0.0070
  909poe     o2 6584   3.983   5.515  -0.058 -0.0095 -0.0373  0.6295
  909poe    c23 6585   4.035   5.622   0.019  0.4815  0.0804  0.1338
  909poe    c23 6586   4.171   5.575   0.075  0.2233 -0.4855  0.2936
  909poe     o2 6587   4.148   5.440   0.110 -0.8146 -0.4286 -0.1275
  909poe    c31 6588   4.231   5.398   0.215 -0.1296 -0.3799 -0.6405
  910poe    c31 6589   1.942   5.125   3.028  0.0716  0.5295 -0.5804
  910poe     o2 6590   1.865   5.192   3.126  0.7882  0.2268  0.2022
  910poe    c23 6591   1.814   5.093   3.213  0.1966  0.3145 -0.0387
  910poe    c23 6592   1.668   5.117   3.256 -0.0620 -0.0967 -0.6838
  910poe     o2 6593   1.646   5.256   3.241 -0.1664 -0.0191  0.1430
  910poe    c23 6594   1.511   5.297   3.241 -0.1846 -0.0739 -0.1401
  910poe    c23 6595   1.496   5.449   3.217  0.1548 -0.0407 -0.1547
  910poe     o2 6596   1.563   5.482   3.098  0.0708 -0.1072 -0.2212
  910poe    c23 6597   1.561   5.620   3.070 -0.1719  0.0085  0.3426
  910poe    c23 6598   1.575   5.674   2.926 -0.2437 -0.3837  0.1878
  910poe     o2 6599   1.703   5.641   2.876 -0.1423  0.0359  0.1682
  910poe    c31 6600   1.723   5.682   2.742  1.0095  0.1051  0.3508
  911poe    c31 6601   1.683   3.611   5.718 -0.1386 -0.3246 -0.2997
  911poe     o2 6602   1.812   3.558   5.738  0.3332  0.8021 -0.2569
  911poe    c23 6603   1.832   3.469   5.630 -0.1910  0.0221  0.2807
  911poe    c23 6604   1.945   3.372   5.669 -0.2616  0.2319  1.0200
  911poe     o2 6605   2.037   3.458   5.732  0.2310  0.5193 -0.0753
  911poe    c23 6606   2.129   3.394   5.817 -0.5593 -0.6572 -0.0860
  911poe    c23 6607   2.080   3.398   5.963 -0.3126 -0.1996 -0.0150
  911poe     o2 6608   2.019   3.525   5.976  0.4744  0.1470  0.3593
  911poe    c23 6609   1.981   3.544   6.111  0.0736 -0.0442  0.2766
  911poe    c23 6610   1.930   3.689   6.106 -0.6713 -0.3004  0.3415
  911poe     o2 6611   1.875   3.701   5.977 -0.5009 -0.2922  0.2680
  911poe    c31 6612   1.765   3.787   5.999 -0.0110  0.3792  0.0992
  912poe    c31 6613   3.752   6.150   3.512 -0.3629  0.3884  0.2927
  912poe     o2 6614   3.727   6.289   3.507  0.5030  0.5492  0.2728
  912poe    c23 6615   3.801   6.351   3.404  0.0048  0.1844 -0.3115
  912poe    c23 6616   3.819   6.501   3.433 -0.0305  0.1059  0.1249
  912poe     o2 6617   3.691   6.547   3.470  0.0926  0.7678 -0.2595
  912poe    c23 6618   3.699   6.682   3.512  0.2297  0.4557  0.7471
  912poe    c23 6619   3.552   6.726   3.523 -0.0174 -0.0374 -0.3409
  912poe     o2 6620   3.472   6.621   3.571 -0.0124  0.2548  0.3232
  912poe    c23 6621   3.375   6.680   3.655 -0.0882  0.2705  0.2252
  912poe    c23 6622   3.272   6.580   3.710 -0.1178  0.1346 -0.0752
  912poe     o2 6623   3.337   6.487   3.794  0.0753 -0.1767 -0.5662
  912poe    c31 6624   3.250   6.415   3.879  0.1875  0.6291  0.2405
  913poe    c31 6625   6.239   3.782   2.486  0.5637 -0.9782 -0.0032
  913poe     o2 6626   6.147   3.676   2.475 -0.4132 -0.1705  0.2475
  913poe    c23 6627   6.178   3.599   2.361 -0.3633  0.2428 -0.0244
  913poe    c23 6628   6.059   3.503   2.345 -0.1350 -0.1018  0.3116
  913poe     o2 6629   5.937   3.571   2.325 -0.4499 -0.7008  0.1322
  913poe    c23 6630   5.832   3.482   2.295 -0.2835 -0.9903  0.3980
  913poe    c23 6631   5.696   3.552   2.315  0.0822 -0.1872  0.1545
  913poe     o2 6632   5.667   3.591   2.448  0.7589  0.2604  0.1736
  913poe    c23 6633   5.550   3.669   2.451  0.6705  0.1267  0.2128
  913poe    c23 6634   5.528   3.711   2.597 -0.2372  0.1260  0.0806
  913poe     o2 6635   5.650   3.746   2.659 -0.1679  0.1901 -0.0916
  913poe    c31 6636   5.628   3.758   2.798  0.1384 -0.0130 -0.0253
  914poe    c31 6637   3.888   5.060   1.926  0.5574  0.7043  0.2752
  914poe     o2 6638   3.962   4.942   1.909  0.0368  0.4267 -0.0810
  914poe    c23 6639   4.096   4.941   1.953 -0.0778  0.0267  0.2642
  914poe    c23 6640   4.148   4.798   1.928  0.2697  0.2161 -0.0943
  914poe     o2 6641   4.057   4.704   1.980  0.6397  0.1179  0.3741
  914poe    c23 6642   4.058   4.574   1.927  0.4632  0.2874 -0.0433
  914poe    c23 6643   3.980   4.567   1.794 -0.3057 -0.8515  0.4490
  914poe     o2 6644   3.859   4.638   1.805 -0.2730 -0.6580 -0.3590
  914poe    c23 6645   3.809   4.654   1.674 -0.0258  0.7309 -0.2954
  914poe    c23 6646   3.671   4.721   1.687 -0.4015 -0.0668 -0.0865
  914poe     o2 6647   3.695   4.842   1.756 -0.3583 -0.2102  0.1527
  914poe    c31 6648   3.580   4.923   1.746 -0.3316 -0.2828 -0.8445
  915poe    c31 6649   6.462   3.721   4.477  0.2526 -0.2948  0.1922
  915poe     o2 6650   6.381   3.835   4.494  0.4788 -0.0962 -0.0473
  915poe    c23 6651   6.278   3.834   4.397  0.4104 -0.1712  0.0257
  915poe    c23 6652   6.218   3.976   4.394  0.8592  0.0266  0.2449
  915poe     o2 6653   6.223   4.029   4.524  0.1653  0.0686  0.2603
  915poe    c23 6654   6.145   4.144   4.543  0.0984  0.1126 -0.2853
  915poe    c23 6655   6.178   4.213   4.676  0.4291  0.3403 -0.4834
  915poe     o2 6656   6.311   4.258   4.670  0.3394  0.6082 -0.4760
  915poe    c23 6657   6.352   4.317   4.791 -0.2170 -0.3154  0.1717
  915poe    c23 6658   6.499   4.364   4.782 -0.2684 -0.0579  0.6402
  915poe     o2 6659   6.587   4.255   4.772  0.0042  0.2256 -0.1432
  915poe    c31 6660   6.714   4.311   4.749 -0.0455  0.2842 -0.2749
  916poe    c31 6661   0.151   4.566   0.803 -0.0036 -0.3968  0.4228
  916poe     o2 6662   0.262   4.518   0.730  0.0466 -0.3540  0.4703
  916poe    c23 6663   0.237   4.383   0.698 -0.0857 -0.3314  0.4781
  916poe    c23 6664   0.368   4.323   0.644 -0.0938  0.1921 -0.1234
  916poe     o2 6665   0.445   4.439   0.621  0.0939  0.0973  0.0282
  916poe    c23 6666   0.575   4.425   0.675  0.4738  0.4160 -0.7903
  916poe    c23 6667   0.638   4.563   0.649  0.3510  0.5463 -0.4026
  916poe     o2 6668   0.549   4.668   0.678 -0.0043 -0.0145  0.5743
  916poe    c23 6669   0.611   4.793   0.699 -0.1964  0.2872 -0.5532
  916poe    c23 6670   0.507   4.899   0.738  0.1456  0.3221  0.2912
  916poe     o2 6671   0.430   4.857   0.849 -0.2193  0.1401 -0.0318
  916poe    c31 6672   0.328   4.945   0.894 -0.0574  0.2374  0.1420
  917poe    c31 6673   6.335   1.901   4.181  0.1247  0.3638 -0.1190
  917poe     o2 6674   6.220   1.823   4.161  0.2559 -0.0010  0.5048
  917poe    c23 6675   6.105   1.904   4.158 -0.0124 -0.3890  0.0437
  917poe    c23 6676   5.988   1.811   4.195 -0.5648  0.1233 -0.3896
  917poe     o2 6677   6.024   1.690   4.134  0.1535  0.1059  0.0611
  917poe    c23 6678   5.915   1.601   4.130  0.0862  0.2113 -0.5467
  917poe    c23 6679   5.974   1.459   4.130 -0.3829  0.0060  0.5454
  917poe     o2 6680   6.085   1.462   4.217 -0.3319 -0.0838  0.4835
  917poe    c23 6681   6.181   1.367   4.180 -0.3429  0.2126 -0.3166
  917poe    c23 6682   6.308   1.416   4.251 -0.2896 -0.0607 -0.2199
  917poe     o2 6683   6.339   1.546   4.204  0.1845 -0.1226 -0.0917
  917poe    c31 6684   6.474   1.578   4.228  0.2650 -0.3627 -0.2084
  918poe    c31 6685   5.821   2.998   4.243  0.0827 -0.2042 -0.0518
  918poe     o2 6686   5.685   3.030   4.220  0.0069 -0.3708  0.1581
  918poe    c23 6687   5.645   3.033   4.085 -0.2535  0.1341  0.2414
  918poe    c23 6688   5.716   3.132   3.991  0.0902 -0.4383 -0.1147
  918poe     o2 6689   5.700   3.267   4.029  0.1733 -0.3439 -0.4137
  918poe    c23 6690   5.777   3.354   3.949  0.2438 -0.0868 -0.0674
  918poe    c23 6691   5.692   3.479   3.916 -0.0507 -0.3538 -0.3236
  918poe     o2 6692   5.634   3.524   4.036  0.2005 -0.3450 -0.2044
  918poe    c23 6693   5.590   3.658   4.039  0.2406 -0.3377  0.1945
  918poe    c23 6694   5.489   3.667   4.154 -0.5019 -0.1047 -0.4629
  918poe     o2 6695   5.542   3.586   4.257 -0.7104  0.2541 -0.0695
  918poe    c31 6696   5.455   3.583   4.367  0.2292  0.0532  0.6820
  919poe    c31 6697   1.538   0.300   1.822  0.3515 -0.0528  0.1274
  919poe     o2 6698   1.463   0.386   1.739  0.0884 -0.5360 -0.1392
  919poe    c23 6699   1.556   0.457   1.660 -0.0952  0.1108  0.2149
  919poe    c23 6700   1.473   0.551   1.570  0.1270  0.2046  0.1069
  919poe     o2 6701   1.368   0.471   1.522  0.4769 -0.1781 -0.0301
  919poe    c23 6702   1.284   0.546   1.436 -0.5376 -0.3311  0.8046
  919poe    c23 6703   1.182   0.462   1.356 -0.0609  0.0424 -0.2159
  919poe     o2 6704   1.130   0.367   1.446  0.1333  0.0458 -0.1001
  919poe    c23 6705   1.056   0.262   1.388 -0.2705  0.0417  0.4142
  919poe    c23 6706   0.999   0.169   1.496  0.0581 -0.3722  0.2335
  919poe     o2 6707   1.088   0.065   1.531  0.4963 -0.0727  0.0082
  919poe    c31 6708   1.017  -0.045   1.582  0.3040 -0.0573 -0.2215
  920poe    c31 6709   5.444   0.281   1.802  0.3913 -0.5652 -0.0972
  920poe     o2 6710   5.333   0.238   1.877  0.2918  0.3724  0.2943
  920poe    c23 6711   5.304   0.108   1.831  0.0912  0.7567 -0.6833
  920poe    c23 6712   5.172   0.049   1.882  0.6370  0.5322  0.5132
  920poe     o2 6713   5.156  -0.008   2.010  0.2862 -0.1815  0.1603
  920poe    c23 6714   5.030  -0.068   2.029  0.1593 -0.0283 -0.1862
  920poe    c23 6715   4.971  -0.028   2.165 -0.3596 -0.6242 -0.2306
  920poe     o2 6716   5.071  -0.059   2.260 -0.0748  0.7893 -0.0441
  920poe    c23 6717   5.043  -0.033   2.396  0.0175 -0.2368  0.1791
  920poe    c23 6718   5.177  -0.064   2.465  0.0053  0.0528  0.3347
  920poe     o2 6719   5.274   0.001   2.385 -0.1624 -0.1900 -0.0701
  920poe    c31 6720   5.402  -0.010   2.443 -0.0990 -0.8688 -0.3294
  921poe    c31 6721   1.596   6.094   2.881  0.3102  0.4403  0.3988
  921poe     o2 6722   1.476   6.051   2.941  0.0792 -0.1784 -0.4800
  921poe    c23 6723   1.389   6.161   2.951  0.2399 -0.1066  0.2121
  921poe    c23 6724   1.260   6.140   3.033  0.0894 -0.0092  0.0017
  921poe     o2 6725   1.300   6.124   3.167  0.3948 -0.6822 -0.1665
  921poe    c23 6726   1.190   6.167   3.244  0.2856 -0.0060 -0.6920
  921poe    c23 6727   1.210   6.160   3.396  0.2017 -0.1409 -0.6865
  921poe     o2 6728   1.325   6.226   3.444 -0.0215 -0.4008  0.2215
  921poe    c23 6729   1.348   6.195   3.580 -0.1771 -0.3079  0.2695
  921poe    c23 6730   1.464   6.281   3.635 -0.1584  0.1261 -0.4372
  921poe     o2 6731   1.570   6.267   3.543  0.2978 -0.2732  0.1474
  921poe    c31 6732   1.666   6.361   3.587 -0.1512  0.1804  0.1671
  922poe    c31 6733   2.139   0.059   4.821 -0.1458 -0.2813 -0.1394
  922poe     o2 6734   2.263   0.044   4.756 -0.0826 -0.4588  0.0211
  922poe    c23 6735   2.379   0.071   4.832 -0.0024 -0.6113 -0.0460
  922poe    c23 6736   2.502   0.121   4.754 -0.2170  0.1820  0.1122
  922poe     o2 6737   2.513   0.051   4.632  0.2789  0.0107  0.2525
  922poe    c23 6738   2.647   0.051   4.587  0.1897  0.0697 -0.0126
  922poe    c23 6739   2.650  -0.015   4.448 -0.8568  0.4291 -0.2160
  922poe     o2 6740   2.595  -0.144   4.445 -0.0053  0.0562 -0.0441
  922poe    c23 6741   2.599  -0.221   4.327  0.2234 -0.4257  0.2725
  922poe    c23 6742   2.570  -0.364   4.377  0.0260 -0.4984 -0.0496
  922poe     o2 6743   2.469  -0.351   4.475  0.2976 -0.0852  0.1783
  922poe    c31 6744   2.420  -0.482   4.494 -0.0911  0.0184 -0.1023
  923poe    c31 6745   2.981   6.199   1.921  0.3323  0.3640 -0.2193
  923poe     o2 6746   2.965   6.338   1.937  0.5488  0.2652  0.8951
  923poe    c23 6747   2.884   6.364   2.050 -0.6687  0.2543  0.0429
  923poe    c23 6748   2.867   6.516   2.068  0.1151  0.3179  0.3294
  923poe     o2 6749   2.983   6.584   2.110  0.5333 -0.3664  0.2830
  923poe    c23 6750   2.997   6.712   2.053  0.2181 -0.3797  0.1769
  923poe    c23 6751   3.117   6.795   2.100  0.0202  0.4430 -0.7293
  923poe     o2 6752   3.239   6.727   2.081 -0.0076  0.1607  0.0357
  923poe    c23 6753   3.350   6.796   2.136  0.0640 -0.1499  0.2822
  923poe    c23 6754   3.469   6.726   2.068 -0.6404 -0.2305 -0.9011
  923poe     o2 6755   3.448   6.587   2.074 -0.2327 -0.2493  0.3604
  923poe    c31 6756   3.546   6.514   2.004 -0.2548  0.0886 -0.0302
  924poe    c31 6757   1.393   2.807   3.839 -0.0804 -0.2931 -0.0943
  924poe     o2 6758   1.517   2.744   3.818  0.1478  0.2787 -0.4980
  924poe    c23 6759   1.580   2.738   3.944 -0.0413 -0.2009 -0.4242
  924poe    c23 6760   1.732   2.754   3.925 -0.0438  0.6385  0.2093
  924poe     o2 6761   1.762   2.679   3.809 -0.2436 -0.1955  0.6878
  924poe    c23 6762   1.893   2.693   3.759 -0.4372  0.0103  0.2355
  924poe    c23 6763   1.894   2.602   3.635  0.3617  0.2228  0.0802
  924poe     o2 6764   1.768   2.623   3.575  0.4372 -0.0335 -0.1686
  924poe    c23 6765   1.777   2.710   3.464  0.0830  0.3446  0.0971
  924poe    c23 6766   1.636   2.737   3.409 -0.1241  0.1345  0.5216
  924poe     o2 6767   1.553   2.763   3.520 -0.6465 -0.0975  0.1878
  924poe    c31 6768   1.428   2.811   3.475 -0.2796  0.2708 -0.4358
  925poe    c31 6769   6.105   4.859   5.426  0.0645  0.3708 -0.6854
  925poe     o2 6770   6.240   4.895   5.443  0.0428  0.0839  0.1800
  925poe    c23 6771   6.327   4.787   5.469  0.0799  0.0906  0.0828
  925poe    c23 6772   6.461   4.850   5.510 -0.0910  0.3526  0.2378
  925poe     o2 6773   6.495   4.946   5.412 -0.2632 -0.0492 -0.2196
  925poe    c23 6774   6.619   5.005   5.441 -0.2098 -0.0160 -0.5181
  925poe    c23 6775   6.643   5.108   5.329  0.1897  0.5094  0.0411
  925poe     o2 6776   6.528   5.189   5.316 -0.1117  0.0930  0.0850
  925poe    c23 6777   6.515   5.243   5.186 -0.0051  0.0122  0.0402
  925poe    c23 6778   6.364   5.263   5.160  0.0283  0.1182 -0.0718
  925poe     o2 6779   6.291   5.148   5.197  0.2877  0.0453  0.2208
  925poe    c31 6780   6.156   5.172   5.164  0.1184 -0.6100  0.4270
  926poe    c31 6781   4.434   6.110   0.848  0.1924  0.3708  0.6448
  926poe     o2 6782   4.307   6.052   0.829  0.0846  0.7546  0.1466
  926poe    c23 6783   4.221   6.107   0.732 -0.1016  0.0543 -0.0969
  926poe    c23 6784   4.089   6.029   0.724 -0.2349  0.1454  1.0921
  926poe     o2 6785   4.130   5.897   0.749 -0.3509  0.0253  0.6511
  926poe    c23 6786   4.028   5.804   0.720 -0.1729 -0.0498  0.2651
  926poe    c23 6787   4.051   5.657   0.761 -0.6974 -0.2646 -0.2067
  926poe     o2 6788   4.096   5.658   0.894 -0.0976 -0.2462 -0.4089
  926poe    c23 6789   4.081   5.529   0.950 -0.3082  0.1335  0.4290
  926poe    c23 6790   4.120   5.523   1.098 -0.1896 -0.7868  0.3659
  926poe     o2 6791   4.253   5.567   1.118 -0.3705 -0.3348  0.6044
  926poe    c31 6792   4.287   5.587   1.253 -0.3325  0.7909  0.4390
  927poe    c31 6793   2.085   5.407   4.229  0.7068  0.1718 -0.2861
  927poe     o2 6794   2.192   5.327   4.183  0.3081 -0.3355 -0.3362
  927poe    c23 6795   2.230   5.252   4.296 -0.5074 -0.3137 -0.0364
  927poe    c23 6796   2.326   5.144   4.241  0.1060  0.3560 -0.2870
  927poe     o2 6797   2.397   5.195   4.130  0.1502 -0.0474 -0.4438
  927poe    c23 6798   2.537   5.193   4.145  0.0973  1.3993  0.3609
  927poe    c23 6799   2.590   5.236   4.007 -0.0027 -0.0096 -0.1275
  927poe     o2 6800   2.532   5.357   3.963  0.1790  0.1169 -0.0201
  927poe    c23 6801   2.576   5.396   3.835  0.1615  0.0522 -0.0460
  927poe    c23 6802   2.525   5.533   3.789 -0.1631  0.0345  0.2557
  927poe     o2 6803   2.387   5.554   3.769 -0.0741  0.1065 -0.3067
  927poe    c31 6804   2.351   5.664   3.688 -0.2603  0.3073  0.0488
  928poe    c31 6805   1.162   4.363   3.469 -0.2762 -0.3264 -0.4180
  928poe     o2 6806   1.215   4.232   3.475 -0.0671 -0.2194  0.1359
  928poe    c23 6807   1.203   4.173   3.603  0.3224  0.4345  0.4804
  928poe    c23 6808   1.095   4.064   3.617  0.7253  0.0180  0.3386
  928poe     o2 6809   1.105   3.973   3.509  0.5366  0.2083  0.1607
  928poe    c23 6810   1.030   3.855   3.529  0.2817  0.3449  0.0149
  928poe    c23 6811   1.063   3.748   3.424  0.0503  0.1589  0.1333
  928poe     o2 6812   1.054   3.803   3.295 -0.3800 -0.5793 -0.1591
  928poe    c23 6813   1.125   3.716   3.210 -0.2577 -0.2021 -0.4498
  928poe    c23 6814   1.122   3.780   3.070 -0.0543  0.2164 -0.2642
  928poe     o2 6815   1.184   3.906   3.081  0.9390 -0.3203  0.5120
  928poe    c31 6816   1.151   3.996   2.977  0.3437 -0.5776  0.4710
  929poe    c31 6817   0.095   4.307   5.634 -0.0268 -0.1799  0.0280
  929poe     o2 6818   0.219   4.289   5.700 -0.2390 -1.0575  0.2086
  929poe    c23 6819   0.224   4.378   5.809 -0.0719 -0.7566 -0.0421
  929poe    c23 6820   0.350   4.363   5.896 -0.0526 -0.1297  0.0449
  929poe     o2 6821   0.464   4.399   5.821 -0.2187  0.3291  0.0104
  929poe    c23 6822   0.581   4.363   5.891  0.0682  0.2621 -0.5005
  929poe    c23 6823   0.703   4.450   5.855 -0.1193  0.5677 -0.4097
  929poe     o2 6824   0.717   4.437   5.716  0.7280  0.0727 -0.2869
  929poe    c23 6825   0.835   4.480   5.651  0.8795  0.0388 -0.0338
  929poe    c23 6826   0.811   4.481   5.499 -0.0087  0.9969  0.1028
  929poe     o2 6827   0.672   4.491   5.483 -0.0158  0.2259 -0.3633
  929poe    c31 6828   0.633   4.492   5.348 -0.0226  0.4523 -0.3607
  930poe    c31 6829   3.466   3.725   0.892  0.4686  0.0324  0.0371
  930poe     o2 6830   3.571   3.759   0.804  0.3226 -0.1052 -0.1917
  930poe    c23 6831   3.523   3.813   0.683  0.3571  0.6755  0.1351
  930poe    c23 6832   3.646   3.822   0.590  0.2023  0.0199 -0.1406
  930poe     o2 6833   3.759   3.864   0.664 -0.0437  0.3763  0.0363
  930poe    c23 6834   3.874   3.859   0.582 -0.4258  0.4796 -0.5148
  930poe    c23 6835   3.994   3.871   0.677 -0.3206 -0.1821 -0.5632
  930poe     o2 6836   3.981   3.781   0.785  0.4138  0.3352 -0.0279
  930poe    c23 6837   4.095   3.756   0.864 -0.0166  0.7637  0.7428
  930poe    c23 6838   4.082   3.631   0.953  0.4129  0.2014  0.0305
  930poe     o2 6839   3.995   3.644   1.064 -0.1493 -0.1522 -0.3631
  930poe    c31 6840   3.965   3.530   1.141 -0.0537 -0.1395 -0.3072
  931poe    c31 6841   4.500   4.671   6.298  0.0602  0.4901  0.2570
  931poe     o2 6842   4.598   4.575   6.332  0.0197  0.2847 -0.1945
  931poe    c23 6843   4.554   4.452   6.280  0.1212 -0.0102  0.4079
  931poe    c23 6844   4.543   4.349   6.394 -0.0147 -0.2831  0.1501
  931poe     o2 6845   4.664   4.337   6.466  0.0286 -0.1454  0.1021
  931poe    c23 6846   4.683   4.203   6.506  0.1082 -0.1146  0.1667
  931poe    c23 6847   4.801   4.199   6.605 -0.2167  0.2297  0.5719
  931poe     o2 6848   4.782   4.307   6.694  0.1673  0.3631  0.4941
  931poe    c23 6849   4.890   4.316   6.785  0.0946  0.0609  0.6143
  931poe    c23 6850   4.868   4.448   6.862  0.0599  0.1350  0.4804
  931poe     o2 6851   4.836   4.551   6.773  0.2912  0.1991  0.4712
  931poe    c31 6852   4.858   4.678   6.832  0.0447  0.4127  0.1131
  932poe    c31 6853   6.330   5.548   4.821  0.1629  0.1558  0.3431
  932poe     o2 6854   6.406   5.563   4.704  0.1830  0.5173  0.4026
  932poe    c23 6855   6.378   5.694   4.661  0.1866  0.2923 -0.3100
  932poe    c23 6856   6.421   5.721   4.516 -0.1552  0.1492 -0.4390
  932poe     o2 6857   6.549   5.662   4.524 -0.3025 -0.0586  0.4564
  932poe    c23 6858   6.594   5.636   4.393 -0.5051  0.4158  0.2922
  932poe    c23 6859   6.708   5.533   4.401 -0.6219  0.1889 -0.7996
  932poe     o2 6860   6.658   5.433   4.487  0.1860  0.0345 -0.5070
  932poe    c23 6861   6.766   5.349   4.524  0.1084  0.4046  0.5852
  932poe    c23 6862   6.704   5.235   4.607 -0.0287 -0.1505 -0.2690
  932poe     o2 6863   6.590   5.295   4.665  0.2820  0.1871 -0.0065
  932poe    c31 6864   6.548   5.211   4.770  0.2148  0.0718 -0.1255
  933poe    c31 6865   0.658   2.687   5.107 -0.3918 -0.1421 -0.1151
  933poe     o2 6866   0.643   2.740   5.237  0.4113  0.2083 -0.1628
  933poe    c23 6867   0.557   2.851   5.243  0.0871 -0.0269 -0.4193
  933poe    c23 6868   0.552   2.930   5.375  0.3050 -0.3308 -0.2281
  933poe     o2 6869   0.680   2.981   5.404  0.0786 -0.1739  0.5111
  933poe    c23 6870   0.681   3.065   5.518  0.1553  0.6782 -0.1033
  933poe    c23 6871   0.819   3.129   5.537  0.3789  0.1248  0.1524
  933poe     o2 6872   0.918   3.029   5.550  0.2449 -0.1027 -0.5306
  933poe    c23 6873   1.047   3.083   5.569  0.4853 -0.7104 -0.3978
  933poe    c23 6874   1.152   2.973   5.547  1.0511 -0.2157 -0.1985
  933poe     o2 6875   1.098   2.887   5.449  0.0474  0.0788  0.0870
  933poe    c31 6876   1.194   2.842   5.357  0.0095  0.1471  0.0132
  934poe    c31 6877   3.939   5.025   3.378  0.5939  0.1656 -0.2409
  934poe     o2 6878   3.929   5.148   3.308 -0.1682  0.4572  0.3551
  934poe    c23 6879   3.792   5.163   3.280 -0.0877 -0.1906 -0.4262
  934poe    c23 6880   3.752   5.284   3.194  0.2639  0.1508 -0.1129
  934poe     o2 6881   3.807   5.403   3.246  0.6667 -0.1196  0.0827
  934poe    c23 6882   3.716   5.504   3.209  0.2209 -0.4198  0.3568
  934poe    c23 6883   3.787   5.640   3.210 -0.8939  0.1696  0.2971
  934poe     o2 6884   3.845   5.642   3.338  0.6059 -0.3775 -0.3591
  934poe    c23 6885   3.931   5.754   3.348 -0.4672  0.4296 -0.0388
  934poe    c23 6886   3.997   5.741   3.486 -0.3197  0.0157 -0.1469
  934poe     o2 6887   4.028   5.606   3.513  0.5666  0.1889 -0.2759
  934poe    c31 6888   4.118   5.599   3.621 -0.0308 -0.1049  0.2087
  935poe    c31 6889   2.293   4.293   2.866 -0.2449  0.9450  0.0861
  935poe     o2 6890   2.319   4.281   3.004 -0.0222 -0.1277 -0.0360
  935poe    c23 6891   2.426   4.366   3.036 -0.0323 -0.1128 -0.0413
  935poe    c23 6892   2.417   4.365   3.190  0.0134  0.2127 -0.0345
  935poe     o2 6893   2.398   4.235   3.244 -0.2237  0.2932  0.0802
  935poe    c23 6894   2.415   4.216   3.382  0.0234  0.5733  0.0911
  935poe    c23 6895   2.270   4.182   3.421  0.2632 -0.0187  0.4997
  935poe     o2 6896   2.207   4.104   3.322 -0.6777  0.9498  0.3134
  935poe    c23 6897   2.068   4.112   3.344 -0.7140  0.0258  0.4794
  935poe    c23 6898   2.011   4.062   3.210 -0.0905 -0.3102  0.3365
  935poe     o2 6899   2.102   4.108   3.111 -0.3632 -0.8552 -0.1711
  935poe    c31 6900   2.037   4.085   2.988 -0.4456  0.3297 -0.3554
  936poe    c31 6901   1.696   2.434   0.732 -0.1597 -0.3051  0.2106
  936poe     o2 6902   1.745   2.397   0.859 -0.0659 -0.2284  0.1972
  936poe    c23 6903   1.879   2.353   0.854  0.0709  0.2209 -0.1111
  936poe    c23 6904   1.948   2.320   0.987 -0.2275 -0.4605 -0.1208
  936poe     o2 6905   1.887   2.207   1.046  0.2035 -0.4399  0.3822
  936poe    c23 6906   1.939   2.179   1.174 -0.0359  0.2452  0.6378
  936poe    c23 6907   1.887   2.041   1.219  0.2753 -0.0282  0.1691
  936poe     o2 6908   1.748   2.043   1.201  0.3163  0.4695 -0.0949
  936poe    c23 6909   1.675   1.946   1.273 -0.0456  0.4398 -0.4966
  936poe    c23 6910   1.527   1.986   1.261 -0.2665 -0.1708  0.1186
  936poe     o2 6911   1.514   2.022   1.125  0.0162  0.1664  0.1794
  936poe    c31 6912   1.380   2.055   1.097  0.1366  0.5468  0.0556
  937poe    c31 6913   0.368   5.315   6.599  0.4771 -0.1396 -0.1488
  937poe     o2 6914   0.389   5.230   6.489 -0.2907 -0.1474 -0.2986
  937poe    c23 6915   0.414   5.100   6.539  0.1715  0.1153  0.1740
  937poe    c23 6916   0.422   4.996   6.425  0.1903 -0.0841  0.3578
  937poe     o2 6917   0.492   5.060   6.320 -0.2479 -0.0614  0.0793
  937poe    c23 6918   0.521   4.985   6.205 -0.3980  0.2304 -0.1494
  937poe    c23 6919   0.609   5.089   6.132  0.0219  0.0068  0.0381
  937poe     o2 6920   0.533   5.206   6.147  0.1893  0.1076  0.1149
  937poe    c23 6921   0.597   5.328   6.117 -0.2328  0.2897 -0.0730
  937poe    c23 6922   0.485   5.429   6.146 -0.4768  0.0336 -0.1189
  937poe     o2 6923   0.421   5.421   6.271  0.1942 -0.0896  0.2200
  937poe    c31 6924   0.364   5.549   6.283 -0.0595 -0.1683 -0.1290
  938poe    c31 6925   4.236   0.797   6.155  0.2667 -0.1635  0.5420
  938poe     o2 6926   4.335   0.802   6.255  0.3564 -0.7378  0.4854
  938poe    c23 6927   4.464   0.790   6.200  0.1362 -0.4136 -0.1034
  938poe    c23 6928   4.571   0.754   6.305 -0.0632 -0.1291  0.1976
  938poe     o2 6929   4.630   0.863   6.371 -0.0609  0.4522 -0.7476
  938poe    c23 6930   4.709   0.940   6.283  0.8198  0.2063 -0.1954
  938poe    c23 6931   4.744   1.080   6.336  0.2720  0.4021 -0.3424
  938poe     o2 6932   4.624   1.153   6.353  0.1081  0.0082  0.2138
  938poe    c23 6933   4.642   1.292   6.338  0.2028 -0.0175  0.0887
  938poe    c23 6934   4.504   1.357   6.313  0.1374 -0.0469  0.3775
  938poe     o2 6935   4.402   1.304   6.395  0.1182  0.3639  0.6204
  938poe    c31 6936   4.291   1.389   6.374  0.2739  0.4038 -0.0552
  939poe    c31 6937   3.848   5.915   2.881 -0.5837 -0.1495  0.1703
  939poe     o2 6938   3.912   6.036   2.916 -0.3290 -0.1734 -0.2191
  939poe    c23 6939   4.051   6.011   2.917 -0.2765  0.1314  0.0797
  939poe    c23 6940   4.130   6.126   2.984  0.0531  0.1157 -0.2737
  939poe     o2 6941   4.086   6.245   2.924  0.0120  0.1832 -0.1102
  939poe    c23 6942   4.121   6.360   3.000  0.0365  0.2281 -0.1894
  939poe    c23 6943   4.012   6.462   2.961 -0.1072  0.2848  0.3540
  939poe     o2 6944   3.897   6.381   2.944 -0.0205  0.2454 -0.0630
  939poe    c23 6945   3.785   6.448   2.891 -0.1366  0.3729  0.3372
  939poe    c23 6946   3.672   6.343   2.887 -0.1070  0.3037  1.1438
  939poe     o2 6947   3.707   6.240   2.797 -0.1173  1.1590  0.1394
  939poe    c31 6948   3.590   6.176   2.753  0.1607  0.7377  0.0138
  940poe    c31 6949   2.478   6.682   0.355 -0.4625  0.1143 -0.1063
  940poe     o2 6950   2.394   6.795   0.340  0.1022  0.4872 -0.5102
  940poe    c23 6951   2.305   6.800   0.449  0.5564  0.6080 -0.1365
  940poe    c23 6952   2.177   6.869   0.398  0.1755  0.0465  0.0512
  940poe     o2 6953   2.227   6.971   0.315  0.5224 -0.2357 -0.0878
  940poe    c23 6954   2.121   7.053   0.271  0.5800 -0.0349  0.1447
  940poe    c23 6955   2.182   7.169   0.191  0.0066  0.0628 -0.1521
  940poe     o2 6956   2.245   7.124   0.073  0.0909  0.3818 -0.2309
  940poe    c23 6957   2.316   7.225   0.005  0.7744  0.1647  0.1522
  940poe    c23 6958   2.387   7.184  -0.126 -0.1936 -0.5494 -0.1684
  940poe     o2 6959   2.476   7.078  -0.100 -0.1346 -0.5225 -0.2625
  940poe    c31 6960   2.518   7.017  -0.220  0.0923 -0.1353 -0.3808
  941poe    c31 6961   0.353   5.608   3.084  0.2210  0.2654 -0.1064
  941poe     o2 6962   0.369   5.573   2.948  0.3926  0.5223 -0.1528
  941poe    c23 6963   0.293   5.463   2.902 -0.1890  0.7559  0.2426
  941poe    c23 6964   0.304   5.435   2.751 -0.1629 -0.0968  0.3974
  941poe     o2 6965   0.238   5.533   2.674  0.1898 -0.0729  0.1230
  941poe    c23 6966   0.249   5.496   2.539 -0.1881 -0.1270  0.1056
  941poe    c23 6967   0.179   5.605   2.456 -0.1918 -0.1582  0.0668
  941poe     o2 6968   0.223   5.735   2.491 -0.4498 -0.1918  0.5307
  941poe    c23 6969   0.133   5.824   2.429  0.7105  0.4194 -0.3122
  941poe    c23 6970   0.153   5.954   2.509  0.1661  0.4960 -0.2960
  941poe     o2 6971   0.164   5.920   2.646  0.0405  0.5985 -0.2603
  941poe    c31 6972   0.169   6.041   2.718  0.1093  0.2879  0.2592
  942poe    c31 6973   0.504   5.537   2.117  0.2588 -0.0138  0.6533
  942poe     o2 6974   0.475   5.617   2.005  0.5507 -0.1743  0.4627
  942poe    c23 6975   0.561   5.574   1.903  0.0876 -0.4784  0.1966
  942poe    c23 6976   0.572   5.684   1.796  0.2513 -0.3435  0.3519
  942poe     o2 6977   0.442   5.737   1.782  0.3701  0.0033  0.5428
  942poe    c23 6978   0.427   5.809   1.662 -0.2605 -0.7479  0.1611
  942poe    c23 6979   0.288   5.870   1.686 -0.1833 -0.6264  0.2992
  942poe     o2 6980   0.182   5.778   1.702 -0.3793 -0.4319  0.1319
  942poe    c23 6981   0.067   5.845   1.747  0.1134  0.1362  0.5641
  942poe    c23 6982  -0.063   5.763   1.738  0.3323 -0.1332 -0.1755
  942poe     o2 6983  -0.052   5.654   1.827  0.3718  0.0299  0.0196
  942poe    c31 6984  -0.176   5.587   1.834  0.3771  0.0184  0.0028
  943poe    c31 6985   0.049   5.138   2.610  0.3880  0.5126  0.1461
  943poe     o2 6986  -0.063   5.207   2.662  0.2609  0.2084  0.2768
  943poe    c23 6987  -0.100   5.141   2.781  0.3440 -0.2567  0.0491
  943poe    c23 6988  -0.222   5.212   2.843  0.3600 -0.1026 -0.0959
  943poe     o2 6989  -0.329   5.203   2.752 -0.0663  0.1055  0.3753
  943poe    c23 6990  -0.437   5.275   2.806 -0.2453 -0.0031  0.1638
  943poe    c23 6991  -0.521   5.307   2.681  0.1097  0.2588 -0.0099
  943poe     o2 6992  -0.438   5.326   2.569  0.3565 -0.2474  0.0877
  943poe    c23 6993  -0.513   5.382   2.464  0.0788  0.0547  0.4467
  943poe    c23 6994  -0.484   5.533   2.471 -0.1176  0.1446 -0.5003
  943poe     o2 6995  -0.350   5.567   2.443  0.0360 -0.4421 -0.4781
  943poe    c31 6996  -0.331   5.706   2.453 -0.2855 -0.4644  0.5866
  944poe    c31 6997   1.553   6.747   1.206 -0.0769  0.0385 -0.8590
  944poe     o2 6998   1.592   6.852   1.121  0.2720  0.6647  0.0546
  944poe    c23 6999   1.482   6.888   1.040  0.1742  0.7846  0.2384
  944poe    c23 7000   1.519   7.025   0.981  0.6519  0.3726 -0.4318
  944poe     o2 7001   1.597   7.095   1.075  0.4354 -0.1295  0.1262
  944poe    c23 7002   1.645   7.213   1.016 -0.6970  0.3515  0.1256
  944poe    c23 7003   1.678   7.302   1.138 -0.3088  0.1030  0.2033
  944poe     o2 7004   1.779   7.245   1.218 -0.0933  0.7614  0.4035
  944poe    c23 7005   1.841   7.334   1.307  0.1036  0.6191  0.4112
  944poe    c23 7006   1.938   7.261   1.402 -0.0405 -0.6815 -0.4314
  944poe     o2 7007   1.885   7.147   1.467 -0.5820  0.2494  0.7896
  944poe    c31 7008   1.996   7.110   1.545  0.2653  0.2868 -0.3714
  945poe    c31 7009   0.204   2.777   2.666 -0.0451 -0.4605 -0.4952
  945poe     o2 7010   0.321   2.826   2.603  0.2578  0.0981  0.4841
  945poe    c23 7011   0.300   2.836   2.464  0.8209 -0.9420  0.3129
  945poe    c23 7012   0.438   2.851   2.398  0.6235  1.0220  0.2973
  945poe     o2 7013   0.532   2.774   2.470  0.1595 -0.0860 -0.2673
  945poe    c23 7014   0.661   2.792   2.417  0.1530  0.2243 -0.1810
  945poe    c23 7015   0.757   2.697   2.491  0.1142  0.2810 -0.0577
  945poe     o2 7016   0.744   2.731   2.627 -0.9955 -0.3321 -0.0009
  945poe    c23 7017   0.850   2.685   2.707 -0.5182  0.1212 -0.3719
  945poe    c23 7018   0.967   2.777   2.747 -0.6340  0.1554 -0.1097
  945poe     o2 7019   1.046   2.804   2.633 -0.3248  0.1861  0.1111
  945poe    c31 7020   1.054   2.942   2.609  0.1098  0.1255 -0.1046
  946poe    c31 7021   1.084   6.679   0.981 -0.4466  0.0635 -0.5373
  946poe     o2 7022   1.005   6.571   0.937 -0.4095 -0.2854  0.2292
  946poe    c23 7023   1.075   6.450   0.950  0.0145 -0.0554  0.0940
  946poe    c23 7024   0.992   6.332   0.896 -0.4964 -0.0305  0.8172
  946poe     o2 7025   0.931   6.380   0.778  0.1943 -0.0223  0.4611
  946poe    c23 7026   0.856   6.275   0.721  0.2374  0.4708 -0.5221
  946poe    c23 7027   0.803   6.328   0.586 -0.0601  0.2587 -0.4890
  946poe     o2 7028   0.737   6.450   0.609 -0.7594 -0.1818 -0.1118
  946poe    c23 7029   0.748   6.536   0.497  0.0527 -0.2534 -0.0899
  946poe    c23 7030   0.880   6.615   0.496  0.2675 -0.6001  0.2815
  946poe     o2 7031   0.929   6.648   0.624  0.0123 -0.0564  0.2402
  946poe    c31 7032   1.036   6.738   0.608  0.0085 -0.0828  0.0662
  947poe    c31 7033   3.111   1.418   0.080  0.0864  0.4168 -0.5234
  947poe     o2 7034   3.208   1.514   0.114  0.3104 -0.3049  0.9693
  947poe    c23 7035   3.335   1.453   0.127  0.4101 -0.3420 -0.0640
  947poe    c23 7036   3.436   1.546   0.197  0.1967 -0.0521 -0.1404
  947poe     o2 7037   3.402   1.676   0.154 -0.2059 -0.1557 -0.1461
  947poe    c23 7038   3.493   1.777   0.195 -0.0264 -0.3146 -0.1522
  947poe    c23 7039   3.440   1.907   0.132 -0.0844 -0.0713  0.3986
  947poe     o2 7040   3.300   1.904   0.147 -0.1428  0.1849 -0.0934
  947poe    c23 7041   3.241   1.990   0.052 -0.0928  0.1587 -0.1484
  947poe    c23 7042   3.089   1.968   0.054 -0.0469 -0.1402  0.0591
  947poe     o2 7043   3.072   1.828   0.063 -0.1327 -0.0937  0.6300
  947poe    c31 7044   2.937   1.797   0.034  0.0831  0.0961 -0.6113
  948poe    c31 7045   1.228   5.048   2.570 -0.1327 -0.4328 -0.1725
  948poe     o2 7046   1.154   4.928   2.575 -0.3551 -0.2839  0.2595
  948poe    c23 7047   1.211   4.830   2.490 -0.3340 -0.1969  0.1726
  948poe    c23 7048   1.102   4.768   2.400 -0.0474 -0.3946 -0.0374
  948poe     o2 7049   0.997   4.742   2.490 -0.1215  0.1546  0.0372
  948poe    c23 7050   0.887   4.675   2.434  0.3529 -0.3625 -0.2865
  948poe    c23 7051   0.826   4.623   2.565 -0.0369  0.4151 -0.1558
  948poe     o2 7052   0.820   4.726   2.662 -0.8939  0.5128 -0.3015
  948poe    c23 7053   0.704   4.717   2.741 -0.4020 -0.7616  0.2897
  948poe    c23 7054   0.725   4.819   2.855 -0.4239  0.0383 -0.4189
  948poe     o2 7055   0.829   4.800   2.947 -0.4250 -0.0735 -0.4407
  948poe    c31 7056   0.796   4.871   3.064  0.5088 -0.3562  0.0046
  949poe    c31 7057   1.122   0.578   2.863  0.2328 -0.0344 -0.3606
  949poe     o2 7058   1.240   0.603   2.790  0.4944 -0.2897 -0.0227
  949poe    c23 7059   1.202   0.604   2.655  0.0580 -0.1652  0.1004
  949poe    c23 7060   1.292   0.699   2.573  0.0397  0.1669  0.4649
  949poe     o2 7061   1.420   0.647   2.602 -0.0226 -0.0130  0.4175
  949poe    c23 7062   1.514   0.745   2.564 -0.0156 -0.3438 -0.4260
  949poe    c23 7063   1.654   0.690   2.596 -0.1468 -0.5617 -0.2216
  949poe     o2 7064   1.660   0.663   2.734 -0.2885  0.3447 -0.0271
  949poe    c23 7065   1.789   0.617   2.768 -0.3657  0.0219 -0.1632
  949poe    c23 7066   1.786   0.577   2.917 -0.3716  0.6462  0.0092
  949poe     o2 7067   1.728   0.450   2.938  0.1098  0.4950  0.4557
  949poe    c31 7068   1.770   0.401   3.063  0.0865 -0.4432  0.1048
  950poe    c31 7069   4.774   3.732   3.754 -0.2546 -0.5729  0.2144
  950poe     o2 7070   4.830   3.609   3.712  0.3703 -0.4039  0.5403
  950poe    c23 7071   4.840   3.620   3.572 -0.0004 -0.1933  0.5293
  950poe    c23 7072   4.927   3.502   3.526 -0.1698 -0.0735 -0.1035
  950poe     o2 7073   4.897   3.387   3.602 -0.0867 -0.1047 -0.1170
  950poe    c23 7074   4.962   3.266   3.572 -0.0530 -0.0509 -0.2625
  950poe    c23 7075   4.919   3.161   3.676 -0.3471  0.4301  0.1010
  950poe     o2 7076   4.891   3.239   3.790 -0.0230  0.2397  0.3130
  950poe    c23 7077   4.840   3.162   3.897 -0.2601  0.1851  0.1604
  950poe    c23 7078   4.814   3.270   4.004 -0.4297  0.1808  0.1240
  950poe     o2 7079   4.758   3.385   3.944 -1.1439 -0.2226 -0.0034
  950poe    c31 7080   4.736   3.498   4.026 -0.3911  0.0489 -0.1633
  951poe    c31 7081   4.281   1.592   2.441  0.0811  0.0747 -0.5919
  951poe     o2 7082   4.391   1.528   2.381 -0.0345 -0.1171 -0.5994
  951poe    c23 7083   4.357   1.402   2.328  0.0347 -0.1511 -0.5640
  951poe    c23 7084   4.461   1.361   2.221  0.3620 -0.3519 -0.1694
  951poe     o2 7085   4.558   1.460   2.197  0.0769 -0.0359 -0.0319
  951poe    c23 7086   4.656   1.421   2.103 -0.1704 -0.5810 -0.0664
  951poe    c23 7087   4.771   1.522   2.090 -0.6839  0.0640  0.3249
  951poe     o2 7088   4.727   1.640   2.026 -0.3794  0.1001  0.1776
  951poe    c23 7089   4.828   1.738   2.020 -0.2829 -0.0342 -0.4294
  951poe    c23 7090   4.770   1.874   1.977  0.3305  0.2661 -0.3184
  951poe     o2 7091   4.690   1.935   2.075  0.4962 -0.4142  0.2449
  951poe    c31 7092   4.655   2.065   2.034 -0.1466 -0.6683 -0.0277
  952poe    c31 7093   5.558   0.710   5.957  0.7137 -0.3012 -0.7686
  952poe     o2 7094   5.603   0.824   5.888  0.2590  0.4759  0.1973
  952poe    c23 7095   5.722   0.803   5.816  0.3586 -0.1200  0.5292
  952poe    c23 7096   5.790   0.937   5.781 -0.1593 -0.0399 -0.1814
  952poe     o2 7097   5.720   1.016   5.687 -0.0035  0.3430  0.0236
  952poe    c23 7098   5.765   1.147   5.716 -0.0491  0.2571  0.4973
  952poe    c23 7099   5.708   1.237   5.605 -0.0724  0.2021  0.4636
  952poe     o2 7100   5.569   1.217   5.591  0.1286 -0.6919 -0.3060
  952poe    c23 7101   5.521   1.267   5.468  0.3856  0.0606 -0.1030
  952poe    c23 7102   5.370   1.241   5.466  0.5044 -0.6619 -0.0329
  952poe     o2 7103   5.342   1.127   5.544  0.0289 -0.3837  0.2158
  952poe    c31 7104   5.211   1.076   5.532 -0.1714  0.2246 -0.2405
  953poe    c31 7105   1.481   0.914   4.669 -0.2856  0.2157 -0.1309
  953poe     o2 7106   1.360   0.910   4.742 -0.1640  0.4421  0.0868
  953poe    c23 7107   1.259   0.838   4.674  0.5600 -0.3204 -0.1943
  953poe    c23 7108   1.131   0.819   4.757  0.4073  0.3281 -0.2800
  953poe     o2 7109   1.069   0.940   4.795  0.2462 -0.0017  0.5359
  953poe    c23 7110   0.984   0.918   4.905 -0.3736 -0.1669  0.0296
  953poe    c23 7111   0.909   1.045   4.951  0.0636  0.1683 -0.1680
  953poe     o2 7112   1.009   1.132   4.999  0.2822  0.0409 -0.3926
  953poe    c23 7113   0.947   1.243   5.061  0.2258 -0.1002 -0.1956
  953poe    c23 7114   1.052   1.321   5.143  0.0984 -0.1300 -0.0048
  953poe     o2 7115   1.157   1.349   5.053  0.2266 -0.0987  0.1548
  953poe    c31 7116   1.225   1.470   5.074  0.0671  0.2187 -1.0588
  954poe    c31 7117   1.098   5.470   5.419  0.2208 -0.5762 -0.3828
  954poe     o2 7118   1.141   5.350   5.359 -0.0218 -0.6283 -0.4525
  954poe    c23 7119   1.033   5.260   5.343 -0.0139 -0.7257  0.0128
  954poe    c23 7120   1.091   5.151   5.251 -0.3719 -0.8693 -0.0423
  954poe     o2 7121   1.224   5.140   5.295 -0.2536  0.1452 -0.1243
  954poe    c23 7122   1.299   5.065   5.202 -0.0570 -0.3366  0.4176
  954poe    c23 7123   1.442   5.045   5.257  0.0893 -0.4649 -0.0101
  954poe     o2 7124   1.470   5.163   5.327  0.2384 -0.4248 -0.1356
  954poe    c23 7125   1.552   5.140   5.440  0.0376  0.1826  0.1406
  954poe    c23 7126   1.542   5.267   5.526 -0.3117  0.0979  0.2275
  954poe     o2 7127   1.411   5.319   5.526 -0.0513  0.7784 -0.3242
  954poe    c31 7128   1.401   5.441   5.596 -0.2147  0.4259  0.2761
  955poe    c31 7129   1.340   2.529   5.702 -0.0039 -0.3343 -0.3542
  955poe     o2 7130   1.291   2.500   5.831 -0.1728  0.0345 -0.3332
  955poe    c23 7131   1.216   2.381   5.820  0.3884 -0.3396 -0.1477
  955poe    c23 7132   1.182   2.342   5.965 -0.8486 -0.2198 -0.3958
  955poe     o2 7133   1.158   2.457   6.043  0.7026  0.0052 -0.2139
  955poe    c23 7134   1.160   2.441   6.183 -0.1439 -0.0534 -0.2031
  955poe    c23 7135   1.148   2.583   6.242 -0.1750 -0.0526 -0.2113
  955poe     o2 7136   1.258   2.646   6.181 -0.2043  0.3508  0.1446
  955poe    c23 7137   1.283   2.782   6.209 -0.2747  0.4302 -0.1710
  955poe    c23 7138   1.400   2.824   6.119 -0.1612  0.4115 -0.0326
  955poe     o2 7139   1.396   2.769   5.989 -0.3966  0.3204  0.0135
  955poe    c31 7140   1.500   2.816   5.906 -0.0107 -0.4611  0.0439
  956poe    c31 7141   6.182   6.610   4.942  0.0250 -0.3126 -0.3229
  956poe     o2 7142   6.138   6.650   5.070  0.4357  0.0768 -0.3048
  956poe    c23 7143   6.254   6.687   5.142  0.2576 -0.2519  0.1523
  956poe    c23 7144   6.224   6.791   5.251 -0.1944 -0.3600  0.1332
  956poe     o2 7145   6.091   6.763   5.289 -0.2727 -0.2870 -0.0897
  956poe    c23 7146   6.052   6.865   5.378  0.5058 -0.1350  0.0799
  956poe    c23 7147   5.917   6.809   5.427  0.3849  0.0278 -0.0649
  956poe     o2 7148   5.851   6.764   5.311  0.1932  0.0914  0.0191
  956poe    c23 7149   5.729   6.700   5.341 -0.0289  0.5697  0.1395
  956poe    c23 7150   5.676   6.628   5.216  0.1619 -0.4377  0.6349
  956poe     o2 7151   5.792   6.603   5.140 -0.0462  0.0972  0.1330
  956poe    c31 7152   5.744   6.522   5.035 -0.0663 -0.1567  0.3388
  957poe    c31 7153   1.257   5.701   4.569  0.0572 -0.3996  0.1082
  957poe     o2 7154   1.356   5.791   4.523 -0.3238 -0.3220 -0.5706
  957poe    c23 7155   1.470   5.721   4.478 -0.1140 -0.2619 -0.1292
  957poe    c23 7156   1.581   5.823   4.449 -0.4554  0.1171 -0.1060
  957poe     o2 7157   1.615   5.897   4.564 -0.5233  0.3478 -0.2323
  957poe    c23 7158   1.728   5.977   4.538  0.2082 -0.6677 -0.2254
  957poe    c23 7159   1.732   6.082   4.651 -0.6716 -0.8353 -0.0345
  957poe     o2 7160   1.739   6.026   4.780 -0.2469 -0.0224  0.3003
  957poe    c23 7161   1.741   6.126   4.879 -0.3051  0.6035 -0.3233
  957poe    c23 7162   1.769   6.052   5.011 -0.2051  0.2438 -0.5428
  957poe     o2 7163   1.678   5.945   5.020  0.2115 -0.0872 -0.2658
  957poe    c31 7164   1.652   5.903   5.152 -0.5169 -0.0883 -0.4049
  958poe    c31 7165   0.551   1.837   1.238 -0.5185  0.0311 -0.4424
  958poe     o2 7166   0.600   1.706   1.216 -0.2281  0.1470 -0.4897
  958poe    c23 7167   0.692   1.717   1.109  0.2569  0.1355 -0.0764
  958poe    c23 7168   0.717   1.574   1.057  0.4186  0.1454 -0.0253
  958poe     o2 7169   0.742   1.512   1.181  0.5277  0.3455  0.0528
  958poe    c23 7170   0.765   1.377   1.147 -0.2136  0.2327 -0.0005
  958poe    c23 7171   0.738   1.294   1.273  0.3854  0.2429  0.1326
  958poe     o2 7172   0.612   1.344   1.312  0.1957 -0.0550 -0.0998
  958poe    c23 7173   0.532   1.294   1.416  0.0569  0.7106  0.1653
  958poe    c23 7174   0.407   1.383   1.420 -0.5019 -0.0428 -0.1907
  958poe     o2 7175   0.451   1.516   1.403  0.1418 -0.3019 -0.5804
  958poe    c31 7176   0.349   1.602   1.449  0.2729 -0.4950  0.0877
  959poe    c31 7177   5.423   3.328   5.796 -0.3393  0.1151 -0.1077
  959poe     o2 7178   5.360   3.405   5.896 -0.1950  0.1622 -0.0542
  959poe    c23 7179   5.415   3.392   6.026  0.0671  0.1523 -0.1654
  959poe    c23 7180   5.308   3.436   6.127 -0.3804 -0.1846 -0.4885
  959poe     o2 7181   5.287   3.576   6.130 -0.1618 -0.1623  0.1565
  959poe    c23 7182   5.276   3.612   6.266  0.5990 -0.3905  0.2840
  959poe    c23 7183   5.281   3.765   6.278  0.2681 -0.4011  0.5563
  959poe     o2 7184   5.224   3.810   6.157  0.0278 -0.3370  0.6922
  959poe    c23 7185   5.193   3.947   6.170 -0.7347 -0.4074 -0.2803
  959poe    c23 7186   5.111   4.013   6.058 -0.2613  0.3915 -0.1616
  959poe     o2 7187   5.170   3.995   5.931 -0.4456 -0.2846 -0.1558
  959poe    c31 7188   5.110   4.079   5.836 -0.0815  0.1345 -0.0158
  960poe    c31 7189   2.699   5.524   6.594 -0.2818  0.0590 -0.3384
  960poe     o2 7190   2.706   5.456   6.471  0.2566  0.5657 -0.5937
  960poe    c23 7191   2.807   5.358   6.472 -0.3525 -0.0716  0.2595
  960poe    c23 7192   2.789   5.271   6.347 -0.5321 -0.1200  0.3187
  960poe     o2 7193   2.752   5.362   6.246  0.4559 -0.4528 -0.3662
  960poe    c23 7194   2.757   5.314   6.113 -0.7571 -0.0413 -0.5716
  960poe    c23 7195   2.727   5.427   6.013  0.2781  0.6443 -0.1193
  960poe     o2 7196   2.611   5.480   6.073  0.4351  0.8448  0.0093
  960poe    c23 7197   2.519   5.506   5.969  0.1609 -0.0876  0.0139
  960poe    c23 7198   2.382   5.560   6.015 -0.2788 -0.9021 -0.3054
  960poe     o2 7199   2.320   5.468   6.102 -0.3106 -0.2828  0.3396
  960poe    c31 7200   2.188   5.506   6.134 -0.2097 -0.1574  0.6144
  961poe    c31 7201   4.018   3.207   1.816 -0.1457  0.4809 -0.4955
  961poe     o2 7202   4.141   3.239   1.754  0.4779  0.2829  0.6213
  961poe    c23 7203   4.236   3.150   1.810  0.2491 -0.2658  0.1478
  961poe    c23 7204   4.362   3.144   1.723  0.1237 -0.1088 -0.0459
  961poe     o2 7205   4.379   3.274   1.672 -0.3422 -0.0989 -0.1811
  961poe    c23 7206   4.490   3.290   1.587 -0.0701  0.0631  0.1991
  961poe    c23 7207   4.526   3.437   1.559  0.4206 -0.1663 -0.4150
  961poe     o2 7208   4.412   3.513   1.523  0.4294  0.0550  0.0153
  961poe    c23 7209   4.448   3.648   1.503  0.2376  0.1117  0.0500
  961poe    c23 7210   4.343   3.726   1.424 -0.0033 -0.2174  0.0416
  961poe     o2 7211   4.210   3.712   1.469 -0.1196 -0.6615 -0.4303
  961poe    c31 7212   4.122   3.809   1.417 -0.0198 -0.4199 -0.1504
  962poe    c31 7213   4.229   1.526   4.079 -0.4133  0.0543 -0.8794
  962poe     o2 7214   4.110   1.585   4.128 -0.2216  0.1459 -0.5214
  962poe    c23 7215   4.064   1.520   4.244 -0.4089  0.0999 -0.6218
  962poe    c23 7216   3.910   1.525   4.252 -0.4343 -0.3181 -0.8120
  962poe     o2 7217   3.871   1.650   4.200 -0.2778  0.1601  0.2001
  962poe    c23 7218   3.739   1.651   4.150 -0.1645 -0.0411 -0.1022
  962poe    c23 7219   3.732   1.757   4.038  0.0751 -0.3653 -0.4284
  962poe     o2 7220   3.860   1.749   3.980  0.4002  0.2557  0.1859
  962poe    c23 7221   3.868   1.801   3.849  0.3653  0.1482  0.1413
  962poe    c23 7222   4.004   1.778   3.780  0.2700  0.5285 -0.1826
  962poe     o2 7223   4.095   1.790   3.887 -0.2857  0.1434  0.3433
  962poe    c31 7224   4.221   1.827   3.837 -0.2758 -0.4200 -0.0426
  963poe    c31 7225   6.413   2.693   1.967  0.6565 -0.6727  0.2948
  963poe     o2 7226   6.311   2.646   2.051 -0.0326 -0.0703 -0.1943
  963poe    c23 7227   6.198   2.728   2.032 -0.1568 -0.2725 -0.3343
  963poe    c23 7228   6.076   2.656   2.092 -0.0087 -0.4209 -0.2096
  963poe     o2 7229   6.134   2.612   2.212 -0.0317  0.1777  0.0265
  963poe    c23 7230   6.034   2.559   2.297  0.1697 -0.5418 -0.1842
  963poe    c23 7231   6.117   2.519   2.420  0.0375  0.1744  0.1407
  963poe     o2 7232   6.238   2.457   2.382 -0.1638  0.0081 -0.2392
  963poe    c23 7233   6.295   2.381   2.487 -0.3048  0.1127 -0.0858
  963poe    c23 7234   6.437   2.327   2.459 -0.4036 -0.0302 -0.3172
  963poe     o2 7235   6.530   2.432   2.450 -0.2852 -0.0690  0.4084
  963poe    c31 7236   6.650   2.393   2.388 -0.4028 -0.2260  0.2800
  964poe    c31 7237   5.432   0.030   3.416 -0.2409  0.0958 -0.7462
  964poe     o2 7238   5.551   0.036   3.342  0.2075  0.2255 -0.0195
  964poe    c23 7239   5.573  -0.071   3.253 -0.0540 -0.2911  0.5389
  964poe    c23 7240   5.710  -0.058   3.185 -0.0920 -0.2023  0.4803
  964poe     o2 7241   5.707   0.061   3.109  0.2585 -0.2125  0.4486
  964poe    c23 7242   5.824   0.073   3.030 -0.0801 -0.0075 -0.0270
  964poe    c23 7243   5.841   0.217   2.979  0.0931 -0.2753 -0.7280
  964poe     o2 7244   5.718   0.258   2.923  0.0047 -0.0430 -0.3673
  964poe    c23 7245   5.722   0.397   2.898 -0.4814  0.1209  0.4178
  964poe    c23 7246   5.590   0.429   2.825 -0.4353  0.4142  0.4626
  964poe     o2 7247   5.494   0.349   2.889 -0.3235 -0.1350 -0.0396
  964poe    c31 7248   5.361   0.386   2.860 -0.2284  0.3942  0.1894
  965poe    c31 7249   1.392   5.490   0.297 -0.5331  0.4443  0.1055
  965poe     o2 7250   1.278   5.408   0.283 -0.3027  0.1436 -0.0131
  965poe    c23 7251   1.163   5.457   0.347 -0.2168  0.5546 -0.1645
  965poe    c23 7252   1.047   5.357   0.369  0.3938 -0.0988  0.1047
  965poe     o2 7253   0.969   5.340   0.253  0.7778 -0.3539 -0.1218
  965poe    c23 7254   0.845   5.278   0.284  0.5349 -0.2837 -0.9451
  965poe    c23 7255   0.745   5.286   0.167 -0.5365 -0.0437 -0.0244
  965poe     o2 7256   0.735   5.420   0.124  0.2166 -0.0905 -0.3548
  965poe    c23 7257   0.625   5.438   0.038  0.2482  0.1920 -0.3386
  965poe    c23 7258   0.609   5.591   0.035 -0.4222  0.1276 -0.2856
  965poe     o2 7259   0.737   5.643   0.009 -0.3355 -0.2261 -0.5688
  965poe    c31 7260   0.728   5.783  -0.001 -0.8975 -0.1591  0.6867
  966poe    c31 7261   3.544   1.290   5.697 -0.6385 -0.0664  0.1747
  966poe     o2 7262   3.662   1.361   5.667 -0.7967  0.0422 -0.2017
  966poe    c23 7263   3.723   1.288   5.564 -0.6641  0.0978 -0.1622
  966poe    c23 7264   3.826   1.394   5.522 -0.2284 -0.2966 -0.0980
  966poe     o2 7265   3.901   1.455   5.625  0.1168 -0.0075 -0.5185
  966poe    c23 7266   4.004   1.549   5.602  0.2556 -0.0092  0.0945
  966poe    c23 7267   4.054   1.584   5.744  0.3633  0.1312  0.0229
  966poe     o2 7268   3.940   1.606   5.825  0.2515 -0.1421 -0.0568
  966poe    c23 7269   3.959   1.708   5.921  0.0095 -0.1819  0.0324
  966poe    c23 7270   3.829   1.720   6.003 -0.2466 -0.1881 -0.3668
  966poe     o2 7271   3.818   1.598   6.073 -0.0402 -0.2057 -0.3631
  966poe    c31 7272   3.791   1.629   6.208 -0.3931 -0.2204 -0.4299
  967poe    c31 7273   3.333   5.699   1.926 -0.0642 -0.0600 -0.0107
  967poe     o2 7274   3.379   5.805   2.006 -0.3047 -0.3003  0.4496
  967poe    c23 7275   3.390   5.916   1.920  0.0573 -0.4506  0.2973
  967poe    c23 7276   3.431   6.038   2.003  0.4969 -0.1538 -0.3478
  967poe     o2 7277   3.547   5.994   2.070  0.2039 -0.1201  0.1896
  967poe    c23 7278   3.570   6.082   2.177  0.2128  0.1286 -0.0171
  967poe    c23 7279   3.673   6.016   2.270 -0.1002 -0.0780  0.1840
  967poe     o2 7280   3.620   5.894   2.318 -0.4025  0.0627  0.2120
  967poe    c23 7281   3.695   5.841   2.426  0.2456  0.1797 -0.1706
  967poe    c23 7282   3.659   5.698   2.471 -0.2586  0.3942  0.1191
  967poe     o2 7283   3.675   5.614   2.359 -0.7631  0.1942  0.1936
  967poe    c31 7284   3.636   5.484   2.394 -0.1981 -0.0100  0.0749
  968poe    c31 7285   6.274   2.074   4.563  0.9404 -0.1772 -0.5477
  968poe     o2 7286   6.146   2.056   4.506  0.4734  0.1317  0.3750
  968poe    c23 7287   6.062   1.998   4.603 -0.0074 -0.0086 -0.1223
  968poe    c23 7288   5.912   2.029   4.588  0.0831  0.4721 -0.0342
  968poe     o2 7289   5.881   2.165   4.566 -0.2767  0.3899 -0.0366
  968poe    c23 7290   5.756   2.182   4.503 -0.0127 -0.3164 -0.7801
  968poe    c23 7291   5.726   2.333   4.510  0.3194 -0.2714 -0.2844
  968poe     o2 7292   5.842   2.399   4.464  0.4210  0.0532  0.4262
  968poe    c23 7293   5.804   2.528   4.422  0.4746 -0.3652 -0.9472
  968poe    c23 7294   5.926   2.613   4.386 -0.0160  0.4284 -0.7505
  968poe     o2 7295   6.015   2.643   4.491  0.1114 -0.6861 -0.5374
  968poe    c31 7296   6.127   2.724   4.462  0.0043 -0.4772 -0.3709
  969poe    c31 7297   5.616   3.821   6.650  0.0631 -0.6042 -0.1286
  969poe     o2 7298   5.569   3.818   6.783 -0.6484 -0.0191 -0.3582
  969poe    c23 7299   5.561   3.681   6.815 -0.3714  0.0604  0.0569
  969poe    c23 7300   5.490   3.645   6.947 -0.0734 -0.3757  0.1008
  969poe     o2 7301   5.562   3.725   7.039 -0.1853 -0.1373 -0.0178
  969poe    c23 7302   5.492   3.735   7.161 -0.4227  0.5141 -0.2024
  969poe    c23 7303   5.516   3.872   7.226  0.4049 -0.0114  0.6371
  969poe     o2 7304   5.524   3.956   7.112 -0.0464 -0.2391  0.4384
  969poe    c23 7305   5.557   4.090   7.139 -0.0047 -0.0420 -0.5666
  969poe    c23 7306   5.550   4.183   7.016  0.8930  0.1130 -0.5078
  969poe     o2 7307   5.581   4.102   6.905 -0.2743 -0.6148 -0.3160
  969poe    c31 7308   5.579   4.180   6.787 -0.2845  0.1294  0.1732
  970poe    c31 7309   0.729   3.673   6.120  0.0377  0.2787  0.3225
  970poe     o2 7310   0.712   3.579   6.223  0.1296 -0.1970 -0.0942
  970poe    c23 7311   0.643   3.651   6.323  0.6038  0.1456 -0.0126
  970poe    c23 7312   0.594   3.565   6.440  0.3733  0.3172  0.0170
  970poe     o2 7313   0.693   3.466   6.449 -0.1509 -0.2077  0.0978
  970poe    c23 7314   0.645   3.350   6.513 -0.0417 -0.0426  0.4797
  970poe    c23 7315   0.755   3.244   6.496 -0.3836 -0.2503 -0.5277
  970poe     o2 7316   0.805   3.265   6.366  0.0297 -0.2436 -0.3677
  970poe    c23 7317   0.942   3.234   6.350  0.1579  0.1550 -0.0684
  970poe    c23 7318   0.994   3.274   6.210  0.0404  0.5939  0.0108
  970poe     o2 7319   0.944   3.405   6.193  0.0884  0.5810 -0.2338
  970poe    c31 7320   0.973   3.445   6.062 -0.1069 -0.0624 -0.4783
  971poe    c31 7321   4.676   4.866   0.603  0.4805  0.6767  0.2627
  971poe     o2 7322   4.567   4.823   0.680  0.3670  0.6172  0.0690
  971poe    c23 7323   4.546   4.910   0.790  0.1201  0.3762  0.2149
  971poe    c23 7324   4.400   4.910   0.838  0.0756 -0.3652  0.0932
  971poe     o2 7325   4.384   4.800   0.924  0.2882 -0.3057  0.2110
  971poe    c23 7326   4.250   4.756   0.924  0.4337 -0.7502 -0.4986
  971poe    c23 7327   4.219   4.625   0.999 -0.6996 -0.2280 -0.0265
  971poe     o2 7328   4.264   4.650   1.131 -0.1936  0.3798 -0.3107
  971poe    c23 7329   4.243   4.545   1.222  0.9975  0.3261 -0.0868
  971poe    c23 7330   4.261   4.601   1.364 -0.2532  0.3184  0.0846
  971poe     o2 7331   4.376   4.682   1.375 -0.1545  0.1557  0.2709
  971poe    c31 7332   4.458   4.675   1.489  0.0157 -0.4975  0.1128
  972poe    c31 7333   5.054   4.892   1.488 -0.2761 -0.5066 -0.0998
  972poe     o2 7334   5.118   4.892   1.363 -0.2799 -0.2713 -0.1026
  972poe    c23 7335   5.212   4.788   1.350 -0.6259 -0.6241  0.2079
  972poe    c23 7336   5.335   4.843   1.275 -0.6189 -0.9161  0.0032
  972poe     o2 7337   5.290   4.937   1.181  0.2331  0.3103  0.7957
  972poe    c23 7338   5.389   4.953   1.082 -0.2931  0.4285  0.2819
  972poe    c23 7339   5.357   5.061   0.977 -0.5043 -0.0104 -0.1126
  972poe     o2 7340   5.339   5.188   1.035  0.4981  0.1544 -0.1317
  972poe    c23 7341   5.271   5.287   0.961  0.0332  0.1102  0.2319
  972poe    c23 7342   5.267   5.413   1.050  0.3636  0.2623  0.0312
  972poe     o2 7343   5.196   5.406   1.172 -0.3483  0.4142 -0.3655
  972poe    c31 7344   5.206   5.533   1.231 -0.5003  0.1044  0.3392
  973poe    c31 7345   0.994   3.593   4.694 -0.1188  0.3452 -0.4803
  973poe     o2 7346   1.075   3.704   4.660 -0.1611  0.4123 -0.3599
  973poe    c23 7347   1.146   3.670   4.543  0.3713  0.5082 -0.0650
  973poe    c23 7348   1.205   3.799   4.482  0.7032  0.2111 -0.3770
  973poe     o2 7349   1.264   3.860   4.595 -0.1536 -0.1547  0.2810
  973poe    c23 7350   1.355   3.966   4.578 -0.5326  0.1905  0.3914
  973poe    c23 7351   1.392   4.020   4.717  0.3789  0.8525 -0.0995
  973poe     o2 7352   1.272   4.049   4.784  0.1004  0.1252 -0.2737
  973poe    c23 7353   1.314   4.109   4.904 -0.0654  0.2255 -0.2644
  973poe    c23 7354   1.203   4.147   5.003  0.0727 -0.1882  0.0533
  973poe     o2 7355   1.146   4.025   5.046  0.1516 -0.1862  0.1627
  973poe    c31 7356   1.027   4.051   5.117  0.1211  0.4233 -0.1053
  974poe    c31 7357   4.597   0.283   5.061 -0.3846  0.0658 -0.4874
  974poe     o2 7358   4.475   0.304   5.129 -0.1107 -0.0540  0.0465
  974poe    c23 7359   4.507   0.389   5.237 -0.3719 -0.1999  0.2384
  974poe    c23 7360   4.384   0.439   5.316  0.0313  0.1485  0.6467
  974poe     o2 7361   4.318   0.333   5.381  0.1300 -0.7679 -0.6987
  974poe    c23 7362   4.185   0.320   5.336 -0.3309 -0.0047  0.4046
  974poe    c23 7363   4.154   0.174   5.300  0.2626  0.0673 -0.4163
  974poe     o2 7364   4.227   0.132   5.187  0.0241  0.1631 -0.6074
  974poe    c23 7365   4.198  -0.001   5.152 -0.2387  0.1483 -0.3332
  974poe    c23 7366   4.304  -0.028   5.044  0.4863 -0.2302  0.4598
  974poe     o2 7367   4.328   0.080   4.956 -0.5887  0.0622  0.5174
  974poe    c31 7368   4.266   0.075   4.829 -0.0855  0.5801  0.2484
  975poe    c31 7369   2.071   3.986   4.247  0.2532  0.0333 -0.2439
  975poe     o2 7370   1.989   4.093   4.206  0.3457  0.1429 -0.1421
  975poe    c23 7371   1.882   4.118   4.294  0.9626  0.4940  0.5206
  975poe    c23 7372   1.781   4.220   4.238  0.3485 -0.2967  0.1606
  975poe     o2 7373   1.855   4.339   4.216 -0.0712  0.0758  0.7365
  975poe    c23 7374   1.778   4.456   4.198  0.0498  0.0184 -0.1980
  975poe    c23 7375   1.854   4.582   4.242  0.0001  0.0046 -0.0731
  975poe     o2 7376   1.980   4.589   4.179 -0.1374  0.5800 -0.2961
  975poe    c23 7377   2.036   4.718   4.182  0.2317  0.4238 -0.2809
  975poe    c23 7378   2.174   4.740   4.118  0.2726  0.3184 -0.2283
  975poe     o2 7379   2.249   4.631   4.167 -0.2701 -0.0843 -0.2803
  975poe    c31 7380   2.385   4.668   4.166 -0.3270  0.1331 -0.0739
  976poe    c31 7381   5.818   4.127   1.196 -0.1824 -0.3545 -0.0512
  976poe     o2 7382   5.847   4.096   1.330  0.3365  0.1655 -0.0366
  976poe    c23 7383   5.744   4.143   1.415  0.4990  0.3476  0.0611
  976poe    c23 7384   5.796   4.109   1.556 -0.0017 -0.1508  0.1269
  976poe     o2 7385   5.847   3.977   1.559 -0.1401 -0.2099 -0.0734
  976poe    c23 7386   5.867   3.935   1.692  0.3452 -0.6103 -0.2718
  976poe    c23 7387   5.886   3.783   1.693  0.7433 -0.5660  0.7113
  976poe     o2 7388   5.986   3.745   1.600  0.2464  0.0035 -0.0680
  976poe    c23 7389   5.981   3.604   1.591  0.0800  0.0319 -0.4346
  976poe    c23 7390   6.060   3.559   1.466  0.2446 -0.5141 -0.1389
  976poe     o2 7391   6.014   3.611   1.343  0.0403  0.0024  0.1516
  976poe    c31 7392   6.089   3.556   1.237 -0.1462  0.2936 -0.1340
  977poe    c31 7393   2.282   5.276   1.009 -0.1900  0.6445  0.0812
  977poe     o2 7394   2.187   5.349   0.936 -0.9118 -0.4424 -0.0927
  977poe    c23 7395   2.169   5.475   0.997 -0.4858 -0.6903  0.5608
  977poe    c23 7396   2.041   5.549   0.954  0.1009  0.5009  0.8166
  977poe     o2 7397   1.954   5.448   0.907  0.4178  0.1979  0.8780
  977poe    c23 7398   1.846   5.516   0.847  0.5117 -0.1514  0.3078
  977poe    c23 7399   1.723   5.427   0.875  0.1177  0.4145  0.3853
  977poe     o2 7400   1.751   5.310   0.802  0.3086  0.4003  0.4804
  977poe    c23 7401   1.650   5.215   0.830  0.3678  0.3173  0.4125
  977poe    c23 7402   1.672   5.080   0.758 -0.3556  0.1827  0.4339
  977poe     o2 7403   1.789   5.013   0.800 -0.1211  0.2011 -0.1770
  977poe    c31 7404   1.796   4.878   0.759  0.1072  0.1567  0.0066
  978poe    c31 7405   3.792   5.418   0.281  0.1355 -0.3803 -0.5919
  978poe     o2 7406   3.671   5.491   0.267  0.3391  0.1472  0.3223
  978poe    c23 7407   3.691   5.625   0.230 -0.2301  0.2930  0.5348
  978poe    c23 7408   3.557   5.698   0.247 -0.4999 -0.0784 -0.0046
  978poe     o2 7409   3.460   5.651   0.155 -0.5807  0.5886 -0.2677
  978poe    c23 7410   3.484   5.703   0.026 -0.3745  0.5587 -0.2424
  978poe    c23 7411   3.361   5.683  -0.065 -0.7162  0.3858  0.2485
  978poe     o2 7412   3.345   5.543  -0.068 -0.2323  0.3262  0.4074
  978poe    c23 7413   3.249   5.508  -0.165  0.4169 -0.1136 -0.0909
  978poe    c23 7414   3.259   5.355  -0.170  0.2440 -0.1214 -0.2216
  978poe     o2 7415   3.277   5.304  -0.039 -0.2818  0.0169 -0.0936
  978poe    c31 7416   3.231   5.171  -0.026  0.7976 -0.3660 -0.1099
  979poe    c31 7417   1.580   2.189   0.274  0.6126 -0.5497  0.3493
  979poe     o2 7418   1.473   2.174   0.183  0.9400  0.0332 -0.1361
  979poe    c23 7419   1.426   2.302   0.148  0.0144 -0.3985 -0.5060
  979poe    c23 7420   1.306   2.273   0.055 -0.2010 -0.8921 -0.0756
  979poe     o2 7421   1.186   2.233   0.116 -0.3146 -0.3328  0.0706
  979poe    c23 7422   1.100   2.190   0.013  0.1989 -0.0906 -0.4598
  979poe    c23 7423   0.982   2.107   0.066  0.0655  0.0913 -0.4707
  979poe     o2 7424   1.040   1.987   0.112  0.7547  0.7306  0.3546
  979poe    c23 7425   1.026   1.873   0.030 -0.1453  0.7549  0.4660
  979poe    c23 7426   1.025   1.755   0.129 -0.2740  0.4867  0.1461
  979poe     o2 7427   1.131   1.772   0.221 -0.2644  0.0781  0.2125
  979poe    c31 7428   1.159   1.657   0.298  0.1713  0.3902  0.5230
  980poe    c31 7429   4.923   0.447   2.511  0.4482 -0.5340 -0.5766
  980poe     o2 7430   4.900   0.439   2.372 -0.3024  0.3531 -0.5146
  980poe    c23 7431   5.012   0.378   2.312 -0.6600 -0.3110 -0.5112
  980poe    c23 7432   5.022   0.404   2.160  0.0053  0.7196 -0.3007
  980poe     o2 7433   4.919   0.334   2.096  0.1925 -0.1582  0.3330
  980poe    c23 7434   4.942   0.328   1.957 -0.1535  0.1569  0.2592
  980poe    c23 7435   4.846   0.415   1.875 -0.2090 -0.1798 -0.0395
  980poe     o2 7436   4.712   0.377   1.898 -0.1851 -0.1090  0.2173
  980poe    c23 7437   4.607   0.425   1.816 -0.0668 -0.6404 -0.2496
  980poe    c23 7438   4.466   0.392   1.869 -0.0894 -0.2594 -0.0689
  980poe     o2 7439   4.456   0.428   2.005 -0.1781  0.2679 -0.2144
  980poe    c31 7440   4.320   0.417   2.041 -0.1398  0.2994 -0.0569
  981poe    c31 7441   5.452   1.645   3.583 -0.0622  0.1706  0.3063
  981poe     o2 7442   5.370   1.735   3.654 -0.0616  0.2696  0.1829
  981poe    c23 7443   5.252   1.659   3.669 -0.1076  0.3021 -0.0105
  981poe    c23 7444   5.147   1.728   3.757 -0.2344  0.3900 -0.2283
  981poe     o2 7445   5.149   1.859   3.706  0.1814  0.5509  0.1916
  981poe    c23 7446   5.087   1.946   3.797 -0.5849  0.2066  0.0042
  981poe    c23 7447   5.145   2.087   3.773 -0.0562  0.0432  0.3058
  981poe     o2 7448   5.283   2.074   3.750 -0.0317  0.0480  0.4452
  981poe    c23 7449   5.369   2.124   3.850  0.7418  0.7441 -0.5511
  981poe    c23 7450   5.515   2.079   3.829  0.6369 -0.2244  0.6798
  981poe     o2 7451   5.511   1.952   3.767  0.0416  0.1718 -0.1067
  981poe    c31 7452   5.634   1.886   3.787 -0.0916 -0.1611 -0.3850
  982poe    c31 7453   6.416   3.871   0.268 -0.0203 -0.1336  0.0477
  982poe     o2 7454   6.412   4.009   0.241 -0.3846 -0.2291 -0.3892
  982poe    c23 7455   6.503   4.032   0.135 -0.3139 -0.1358 -0.3076
  982poe    c23 7456   6.481   4.174   0.081  0.9239  0.0415 -0.3801
  982poe     o2 7457   6.449   4.261   0.187  0.4515  0.1887 -0.6378
  982poe    c23 7458   6.395   4.383   0.141  0.1984  0.2745 -0.1216
  982poe    c23 7459   6.360   4.449   0.276 -0.0901 -0.5327  0.2046
  982poe     o2 7460   6.310   4.351   0.364 -0.0466 -0.0607  0.7595
  982poe    c23 7461   6.302   4.395   0.497  0.1235  0.2685  0.6620
  982poe    c23 7462   6.277   4.275   0.590  0.0028 -0.0459  0.2252
  982poe     o2 7463   6.348   4.166   0.535 -0.1962 -0.1558  0.1815
  982poe    c31 7464   6.304   4.056   0.611  0.5024  0.2050  1.1308
  983poe    c31 7465   4.182   3.184   2.910 -0.0933 -0.7590 -0.4873
  983poe     o2 7466   4.312   3.166   2.858  0.1288  0.5419 -0.4266
  983poe    c23 7467   4.403   3.180   2.965 -0.3594  0.3600  0.0157
  983poe    c23 7468   4.548   3.150   2.923 -0.5850 -0.3092 -0.2975
  983poe     o2 7469   4.608   3.244   2.837  0.0727 -0.3138  0.1493
  983poe    c23 7470   4.733   3.188   2.805 -0.0197 -0.3417 -0.1735
  983poe    c23 7471   4.791   3.258   2.681 -0.1010  0.4071  0.2090
  983poe     o2 7472   4.724   3.241   2.558 -0.2463  0.3718  0.2916
  983poe    c23 7473   4.798   3.296   2.450 -0.1280  0.2140  0.2929
  983poe    c23 7474   4.715   3.246   2.330 -0.0402 -0.0599  0.3445
  983poe     o2 7475   4.578   3.236   2.357 -0.2150 -0.2485 -0.5779
  983poe    c31 7476   4.499   3.216   2.242 -0.4059  0.4487 -0.5690
  984poe    c31 7477   0.762   1.790   0.405  0.1916  0.1638  0.2868
  984poe     o2 7478   0.685   1.686   0.459  0.3295 -0.0703  0.0374
  984poe    c23 7479   0.660   1.701   0.597  0.1308  0.4586 -0.0538
  984poe    c23 7480   0.574   1.579   0.635  0.1794  0.1842 -0.8190
  984poe     o2 7481   0.645   1.457   0.636 -0.0565  0.0518 -0.0410
  984poe    c23 7482   0.581   1.357   0.713 -0.3434  0.2132 -0.0654
  984poe    c23 7483   0.652   1.227   0.673 -0.0315  0.3178  0.1395
  984poe     o2 7484   0.655   1.224   0.532  0.2193 -0.1834  0.1527
  984poe    c23 7485   0.752   1.124   0.507  0.2302 -0.0779 -0.2359
  984poe    c23 7486   0.792   1.144   0.360 -0.0097 -0.0647 -0.3009
  984poe     o2 7487   0.795   1.283   0.336 -0.1589 -0.0483 -0.2243
  984poe    c31 7488   0.861   1.306   0.213 -0.6925 -0.2686 -0.5547
  985poe    c31 7489   4.412   0.204   1.520 -0.2803 -0.7811  0.1510
  985poe     o2 7490   4.283   0.208   1.463 -0.0802 -0.0453 -0.2678
  985poe    c23 7491   4.264   0.099   1.375  0.0030 -0.4525  0.2123
  985poe    c23 7492   4.131   0.111   1.299  0.2524  0.7542 -0.0574
  985poe     o2 7493   4.086   0.244   1.314 -0.1748  0.4985  0.9697
  985poe    c23 7494   3.947   0.260   1.294 -0.1330  0.3216  0.5297
  985poe    c23 7495   3.903   0.400   1.339  0.3258  0.6377  0.0039
  985poe     o2 7496   3.988   0.416   1.451  0.2542 -0.1068  0.1732
  985poe    c23 7497   3.943   0.523   1.531  0.5237 -0.0141  0.2011
  985poe    c23 7498   4.047   0.574   1.633  1.0208  0.0732 -0.3382
  985poe     o2 7499   4.076   0.499   1.749  0.0352  0.5177  0.2062
  985poe    c31 7500   3.967   0.466   1.832 -0.1463  0.1146 -0.1911
  986poe    c31 7501   4.247   4.737   5.260 -0.3652  0.0925 -0.1652
  986poe     o2 7502   4.279   4.868   5.300  0.0109  0.2424 -0.9348
  986poe    c23 7503   4.418   4.893   5.304  0.0786 -0.2493  0.1153
  986poe    c23 7504   4.444   5.036   5.354 -0.3650 -0.1985  0.2032
  986poe     o2 7505   4.376   5.048   5.477 -0.3041  0.5518  0.1707
  986poe    c23 7506   4.414   5.167   5.543  0.5606  0.4019 -0.0357
  986poe    c23 7507   4.324   5.200   5.664 -0.2551  0.5441 -0.6677
  986poe     o2 7508   4.195   5.151   5.635 -0.1846 -0.3085  0.3890
  986poe    c23 7509   4.113   5.240   5.563  0.5322 -0.1384 -0.2248
  986poe    c23 7510   3.995   5.155   5.513  0.1754  0.3006 -0.1256
  986poe     o2 7511   4.046   5.035   5.460  0.4032  0.2471  0.2111
  986poe    c31 7512   3.946   4.967   5.388  0.6565 -0.0189  0.1115
  987poe    c31 7513   6.291   3.116   3.156  0.5727  0.4531 -0.3012
  987poe     o2 7514   6.366   2.999   3.133 -0.1055  0.0110 -0.3067
  987poe    c23 7515   6.355   2.911   3.243 -0.0175  0.2367 -0.1140
  987poe    c23 7516   6.473   2.813   3.234  0.1362  0.4472 -0.4240
  987poe     o2 7517   6.481   2.746   3.110  0.2968 -0.3797  0.0297
  987poe    c23 7518   6.606   2.681   3.109  0.2651 -0.4349 -0.2437
  987poe    c23 7519   6.592   2.581   2.992  0.3135 -0.6540 -0.0635
  987poe     o2 7520   6.556   2.664   2.883 -0.0196 -0.3502  0.2701
  987poe    c23 7521   6.526   2.577   2.776 -0.2759 -0.1549  0.1828
  987poe    c23 7522   6.489   2.680   2.668  0.2780  0.4531  0.5597
  987poe     o2 7523   6.370   2.745   2.707  0.0588  0.1151  0.4570
  987poe    c31 7524   6.316   2.816   2.598  0.4325 -0.1794  0.0760
  988poe    c31 7525   2.764   0.067   6.009  0.3879 -0.0451 -0.0716
  988poe     o2 7526   2.705   0.133   5.899  0.1245 -0.4028 -0.1451
  988poe    c23 7527   2.760   0.106   5.772 -0.4294 -0.3267 -0.4075
  988poe    c23 7528   2.683   0.202   5.679  0.1917  0.4635 -0.1285
  988poe     o2 7529   2.545   0.189   5.707  0.3221  0.2224  0.4138
  988poe    c23 7530   2.461   0.281   5.643  0.0501 -0.0930  0.3169
  988poe    c23 7531   2.317   0.265   5.695 -0.2446  0.5088 -0.2884
  988poe     o2 7532   2.314   0.276   5.836 -0.2296 -0.1234 -0.2341
  988poe    c23 7533   2.180   0.269   5.879 -0.2475  0.3054 -0.2119
  988poe    c23 7534   2.160   0.301   6.028 -0.1046  0.5715 -0.2510
  988poe     o2 7535   2.238   0.208   6.100 -0.1214  0.5790 -0.2232
  988poe    c31 7536   2.205   0.205   6.237  0.0378  0.6520 -0.1831
  989poe    c31 7537   1.769   3.326   2.654  0.3498  0.1170  0.5154
  989poe     o2 7538   1.897   3.339   2.712  0.6007  0.6862 -0.1551
  989poe    c23 7539   1.990   3.247   2.660  0.1780 -0.0223  0.3176
  989poe    c23 7540   2.086   3.227   2.779  0.5581  0.1857  0.0486
  989poe     o2 7541   2.097   3.348   2.851 -0.4607  0.0602  0.4319
  989poe    c23 7542   2.130   3.342   2.988  0.3305 -0.1484  0.2400
  989poe    c23 7543   2.124   3.489   3.033  0.3769 -0.1562  0.2695
  989poe     o2 7544   1.994   3.536   3.004  0.4222 -0.3604 -0.2702
  989poe    c23 7545   1.984   3.676   3.014  0.0951 -0.3771 -0.3563
  989poe    c23 7546   1.874   3.726   2.918  0.1828 -0.1337 -0.3313
  989poe     o2 7547   1.890   3.658   2.796  0.0708 -0.2732 -0.2697
  989poe    c31 7548   1.781   3.682   2.710  0.3356  0.3403 -0.4477
  990poe    c31 7549   3.361   0.008   6.107  0.7699  0.4417 -0.0208
  990poe     o2 7550   3.439  -0.029   6.218 -0.1134 -0.0938  0.4315
  990poe    c23 7551   3.379  -0.134   6.290 -0.3861  0.3083  0.8002
  990poe    c23 7552   3.483  -0.222   6.362 -0.1496 -0.2052 -0.1558
  990poe     o2 7553   3.574  -0.304   6.292  0.3562  0.4667 -0.2947
  990poe    c23 7554   3.667  -0.360   6.382 -0.4192  0.7116  0.6776
  990poe    c23 7555   3.703  -0.505   6.345  0.2030  0.8545  0.7112
  990poe     o2 7556   3.735  -0.504   6.208 -0.1847  0.0717  0.6079
  990poe    c23 7557   3.757  -0.638   6.169 -0.5583  0.1351  0.1775
  990poe    c23 7558   3.765  -0.645   6.015  0.2102  0.3160  0.2045
  990poe     o2 7559   3.670  -0.552   5.969 -0.0808  0.0127  0.1895
  990poe    c31 7560   3.615  -0.612   5.854  0.7474 -0.5877  0.0955
  991poe    c31 7561   2.815   1.523   1.860 -0.3773 -0.0822 -0.2728
  991poe     o2 7562   2.679   1.548   1.836 -0.3482  0.3580  0.0209
  991poe    c23 7563   2.603   1.451   1.767  0.1690  0.2291 -0.3768
  991poe    c23 7564   2.634   1.402   1.625 -0.1401 -0.1410 -0.3203
  991poe     o2 7565   2.630   1.502   1.525 -0.3035 -0.2326 -0.4049
  991poe    c23 7566   2.620   1.436   1.401 -0.7655 -0.2417 -0.3652
  991poe    c23 7567   2.619   1.550   1.297 -0.6492  0.2064  0.1197
  991poe     o2 7568   2.730   1.633   1.322 -0.3109 -0.1636 -0.1192
  991poe    c23 7569   2.759   1.722   1.216 -0.2925  0.0795  0.0872
  991poe    c23 7570   2.872   1.807   1.278 -0.0580 -0.5008  0.4644
  991poe     o2 7571   2.832   1.852   1.405  0.1921 -0.3263  0.4810
  991poe    c31 7572   2.930   1.940   1.454  0.0705 -0.1790  0.4626
  992poe    c31 7573   2.921   3.901   4.430  0.1482  0.4142  0.2192
  992poe     o2 7574   2.831   3.800   4.469  0.0472  0.4853  0.1710
  992poe    c23 7575   2.896   3.676   4.483 -0.5193  0.2244  0.5479
  992poe    c23 7576   2.800   3.556   4.496  0.2938 -0.4676  0.3287
  992poe     o2 7577   2.696   3.616   4.571 -0.1545  0.0386 -0.6748
  992poe    c23 7578   2.607   3.521   4.623  0.6004 -0.1022  0.4051
  992poe    c23 7579   2.501   3.575   4.721  0.3397 -0.1390  0.1430
  992poe     o2 7580   2.398   3.656   4.667  0.4464 -0.2374 -0.2119
  992poe    c23 7581   2.344   3.741   4.766 -0.1998 -0.4736 -0.3632
  992poe    c23 7582   2.259   3.852   4.700 -0.0101 -0.2209 -0.1824
  992poe     o2 7583   2.334   3.947   4.627 -0.1223  0.2070  0.2534
  992poe    c31 7584   2.252   4.035   4.552  0.0253  0.1619  0.0371
  993poe    c31 7585   1.240   2.931   1.310  0.5318  0.2116 -0.6072
  993poe     o2 7586   1.250   2.868   1.184  0.5542 -0.3048 -0.3493
  993poe    c23 7587   1.330   2.965   1.120  0.3742 -0.0229 -0.1535
  993poe    c23 7588   1.365   2.903   0.983 -0.7584 -0.2553 -0.3417
  993poe     o2 7589   1.353   2.763   0.994  0.0124 -0.2740  0.3168
  993poe    c23 7590   1.393   2.709   0.870 -0.3357  0.1300  0.0252
  993poe    c23 7591   1.380   2.557   0.887 -0.0296  0.0655 -0.3076
  993poe     o2 7592   1.245   2.522   0.866 -0.1441  0.1448  0.2939
  993poe    c23 7593   1.224   2.401   0.936  0.0685 -0.2290 -0.2782
  993poe    c23 7594   1.078   2.354   0.922 -0.2602  0.8693 -0.6843
  993poe     o2 7595   0.990   2.445   0.983 -0.1637  0.4649  0.0640
  993poe    c31 7596   0.857   2.425   0.939 -0.0554  0.6600 -0.3561
  994poe    c31 7597   0.081   3.449   3.776 -0.0108 -0.0575 -0.4235
  994poe     o2 7598   0.125   3.558   3.698  0.3570 -0.0991 -0.2763
  994poe    c23 7599   0.033   3.664   3.711  0.3254 -0.1014 -0.4699
  994poe    c23 7600   0.032   3.763   3.593 -0.7663  0.3791 -0.0688
  994poe     o2 7601   0.144   3.846   3.576 -0.7261  0.2548 -0.3995
  994poe    c23 7602   0.139   3.922   3.457  0.3253  0.4946 -0.3001
  994poe    c23 7603   0.270   4.003   3.450  0.7168 -0.1009  0.0043
  994poe     o2 7604   0.274   4.076   3.571  0.2713 -0.7618  0.4219
  994poe    c23 7605   0.400   4.133   3.595  0.2044 -0.5165  0.2010
  994poe    c23 7606   0.413   4.182   3.740  0.6347 -0.2024  0.0593
  994poe     o2 7607   0.304   4.123   3.807  0.3621  0.0810 -0.1372
  994poe    c31 7608   0.299   4.159   3.943  0.9650  0.4008 -0.1968
  995poe    c31 7609   5.675   0.098   0.929 -0.3475 -0.3996  0.0198
  995poe     o2 7610   5.571   0.193   0.938  0.1142  0.1148 -0.0479
  995poe    c23 7611   5.594   0.282   1.045  0.1072  0.5741 -0.4214
  995poe    c23 7612   5.488   0.391   1.023 -0.4874 -0.0377 -0.5977
  995poe     o2 7613   5.354   0.360   1.058 -0.4150  0.0300 -0.2566
  995poe    c23 7614   5.274   0.462   1.004 -0.2874  0.1856 -0.1551
  995poe    c23 7615   5.126   0.421   1.012 -0.1934 -0.3365 -0.9691
  995poe     o2 7616   5.095   0.286   0.981  0.3509 -0.5716 -0.4957
  995poe    c23 7617   4.960   0.251   0.998  0.2638 -0.0929 -0.1437
  995poe    c23 7618   4.946   0.105   0.949 -0.6242  0.0091 -0.2075
  995poe     o2 7619   5.054   0.045   1.016 -0.8208 -0.0431  0.0635
  995poe    c31 7620   5.068  -0.095   1.010  0.0280  0.0157  0.5330
  996poe    c31 7621   5.145   5.458   5.856 -0.1718  0.5431  0.1421
  996poe     o2 7622   5.198   5.537   5.960 -0.2216  0.0642  0.5389
  996poe    c23 7623   5.102   5.536   6.063 -0.4818 -0.3428  0.2960
  996poe    c23 7624   5.155   5.614   6.185  0.2089 -0.2875 -0.0349
  996poe     o2 7625   5.166   5.752   6.158 -0.0014 -0.3256 -0.3234
  996poe    c23 7626   5.214   5.821   6.271 -0.3945 -0.1169 -0.2833
  996poe    c23 7627   5.239   5.968   6.231  1.1134 -0.1822  0.3521
  996poe     o2 7628   5.316   5.974   6.113 -0.0344  0.1238 -0.4001
  996poe    c23 7629   5.338   6.110   6.081  0.2444  0.0710 -0.4276
  996poe    c23 7630   5.347   6.109   5.927  0.0696  0.0570 -0.4377
  996poe     o2 7631   5.238   6.034   5.879 -0.2782  0.1777  0.1502
  996poe    c31 7632   5.200   6.057   5.745  0.3585 -0.5181 -0.1599
  997poe    c31 7633   4.943   1.729   4.455 -0.8739 -0.4804 -0.0110
  997poe     o2 7634   4.897   1.642   4.355 -0.2958 -0.1428 -0.5821
  997poe    c23 7635   4.921   1.506   4.385 -0.4384  0.1753  1.0693
  997poe    c23 7636   4.812   1.419   4.319  0.1147  0.2857 -0.0201
  997poe     o2 7637   4.777   1.480   4.197  0.3845 -0.4944 -0.4923
  997poe    c23 7638   4.650   1.437   4.154 -0.1813  0.7353 -0.1099
  997poe    c23 7639   4.624   1.545   4.047  0.2206  0.3165 -0.6376
  997poe     o2 7640   4.636   1.662   4.125  0.3964 -0.2384  0.1858
  997poe    c23 7641   4.609   1.776   4.047 -0.3975 -0.2091  0.4910
  997poe    c23 7642   4.665   1.893   4.131 -0.2532  0.0857 -0.0064
  997poe     o2 7643   4.794   1.852   4.169 -0.1887  0.1052 -0.2060
  997poe    c31 7644   4.881   1.963   4.177  0.2573 -0.2267 -0.3887
  998poe    c31 7645   0.877   0.052   3.652 -0.1811  0.1200 -0.7259
  998poe     o2 7646   0.975   0.154   3.653 -0.1419  0.0789 -0.3594
  998poe    c23 7647   1.020   0.210   3.532  0.4202  0.5124  0.0453
  998poe    c23 7648   1.151   0.286   3.558  0.5781  0.2131  0.1315
  998poe     o2 7649   1.127   0.417   3.603 -0.3154  0.0954  0.0065
  998poe    c23 7650   1.238   0.503   3.584 -0.1223 -0.1206  0.1686
  998poe    c23 7651   1.288   0.552   3.721 -0.0364  0.4208 -0.0552
  998poe     o2 7652   1.187   0.628   3.784  0.1734  0.2101  0.5500
  998poe    c23 7653   1.175   0.595   3.920 -0.7931 -0.4366  0.3161
  998poe    c23 7654   1.073   0.695   3.979 -0.2954 -0.0625  0.5443
  998poe     o2 7655   0.965   0.699   3.889  0.2997  0.0096 -0.1819
  998poe    c31 7656   0.859   0.779   3.938  0.2519 -0.5538  0.6663
  999poe    c31 7657   3.887   5.488   1.694  0.8038  0.8226  0.3147
  999poe     o2 7658   3.813   5.564   1.600  0.1146 -0.1085  0.0827
  999poe    c23 7659   3.681   5.574   1.648  0.2400  0.1226  0.3852
  999poe    c23 7660   3.591   5.645   1.545  0.0398 -0.2974  0.2713
  999poe     o2 7661   3.639   5.771   1.505  0.5082 -0.5894 -0.0906
  999poe    c23 7662   3.577   5.825   1.390 -0.1491 -0.6843  0.2162
  999poe    c23 7663   3.619   5.968   1.349 -0.2535 -0.5926  0.4217
  999poe     o2 7664   3.759   5.961   1.331 -0.2198  0.2841  0.3158
  999poe    c23 7665   3.802   6.064   1.245 -0.2086 -0.5642 -0.7188
  999poe    c23 7666   3.955   6.070   1.235 -0.2031  0.8730 -0.1039
  999poe     o2 7667   3.987   5.937   1.201 -0.5126  0.6179  0.5873
  999poe    c31 7668   4.120   5.923   1.155 -0.8913  0.4374 -0.4934
 1000poe    c31 7669   4.775   1.828   5.056 -0.6784 -0.4078 -0.3460
 1000poe     o2 7670   4.845   1.750   5.150  0.2416  0.4309 -0.3211
 1000poe    c23 7671   4.757   1.645   5.185  0.4609  0.3729  0.0709
 1000poe    c23 7672   4.841   1.538   5.257  0.1882  0.0676 -0.0632
 1000poe     o2 7673   4.905   1.615   5.356  0.0689  0.3288 -0.1869
 1000poe    c23 7674   4.995   1.534   5.429 -0.2923  0.1771  0.0934
 1000poe    c23 7675   5.097   1.630   5.494  0.1602 -0.2000 -0.0510
 1000poe     o2 7676   5.131   1.700   5.377  0.1332 -0.5285 -0.2544
 1000poe    c23 7677   5.224   1.805   5.395 -0.2472 -0.2544  0.1237
 1000poe    c23 7678   5.232   1.871   5.256  0.1232 -0.3216  0.1123
 1000poe     o2 7679   5.100   1.895   5.212  0.0973 -0.5146  0.0803
 1000poe    c31 7680   5.102   1.994   5.112  0.2812 -0.5338  0.0642
 1001poe    c31 7681   2.703   4.865   2.993  0.1757  0.1737  0.7062
 1001poe     o2 7682   2.648   4.947   3.094  0.2893  0.4020  0.5822
 1001poe    c23 7683   2.508   4.959   3.088  0.3276  0.6468  0.0953
 1001poe    c23 7684   2.474   5.086   3.167 -0.5795  0.7448 -0.4411
 1001poe     o2 7685   2.580   5.108   3.257 -0.5613  0.0998 -0.2991
 1001poe    c23 7686   2.559   5.225   3.334  0.0049 -0.0581  0.0953
 1001poe    c23 7687   2.670   5.222   3.442 -0.0247  0.4038  0.1396
 1001poe     o2 7688   2.781   5.163   3.378 -0.3028  0.2333 -0.1959
 1001poe    c23 7689   2.855   5.084   3.469 -0.4410  0.3105 -0.0146
 1001poe    c23 7690   2.958   5.017   3.376 -0.2844 -0.0296  0.4031
 1001poe     o2 7691   2.891   4.946   3.275 -0.0376  0.1396  0.1177
 1001poe    c31 7692   2.983   4.868   3.201  0.1326 -0.0171  0.4909
 1002poe    c31 7693   0.460   2.163   0.177 -0.1331 -0.3713  0.1315
 1002poe     o2 7694   0.532   2.229   0.075 -0.3650 -0.0476  0.1776
 1002poe    c23 7695   0.637   2.297   0.140 -0.1713  0.0054 -0.1841
 1002poe    c23 7696   0.699   2.393   0.037  0.2166 -0.0652 -0.0178
 1002poe     o2 7697   0.717   2.301  -0.068  0.1554  0.3847 -0.4233
 1002poe    c23 7698   0.746   2.367  -0.189 -0.2975  0.5113 -0.4658
 1002poe    c23 7699   0.742   2.266  -0.305 -0.4848  0.3350 -0.3055
 1002poe     o2 7700   0.630   2.187  -0.269  0.3429 -0.6537  0.1485
 1002poe    c23 7701   0.640   2.059  -0.327  0.2436 -0.7537  0.3536
 1002poe    c23 7702   0.516   1.984  -0.274  0.0701 -0.5974  0.1678
 1002poe     o2 7703   0.473   2.041  -0.152  0.1343 -0.1052 -0.0359
 1002poe    c31 7704   0.367   1.964  -0.099 -0.2991  0.1629 -0.4980
 1003poe    c31 7705   0.100   4.062   6.571 -0.1296  0.3975 -0.0753
 1003poe     o2 7706   0.140   4.093   6.703 -0.7492 -0.2701  0.2798
 1003poe    c23 7707   0.074   4.211   6.744  0.3226  0.5178 -0.2023
 1003poe    c23 7708   0.110   4.247   6.890 -0.0763  0.6288 -0.1304
 1003poe     o2 7709   0.250   4.239   6.889 -0.1355 -0.6371 -0.0903
 1003poe    c23 7710   0.300   4.257   7.020 -0.7362 -0.4739  0.1166
 1003poe    c23 7711   0.451   4.229   7.020 -0.6841 -0.2033 -0.0339
 1003poe     o2 7712   0.481   4.102   6.965 -0.0052 -0.0001 -0.1443
 1003poe    c23 7713   0.613   4.055   6.981 -0.1563 -0.3716  0.0053
 1003poe    c23 7714   0.655   3.952   6.874  0.3763 -0.3545  0.1982
 1003poe     o2 7715   0.566   3.845   6.895 -0.6972  0.3316 -0.7747
 1003poe    c31 7716   0.604   3.732   6.819  0.9086  0.0005  0.4814
 1004poe    c31 7717   3.000   0.434   4.567  0.6389 -0.3415  0.8371
 1004poe     o2 7718   2.939   0.528   4.653 -0.0472  0.1959 -0.2178
 1004poe    c23 7719   2.853   0.470   4.748  0.0983 -0.0082 -0.2090
 1004poe    c23 7720   2.768   0.584   4.809 -0.2264 -0.1720 -0.3524
 1004poe     o2 7721   2.730   0.674   4.707 -0.4593 -0.0487 -0.1580
 1004poe    c23 7722   2.656   0.776   4.769 -0.2516 -0.0852  0.1497
 1004poe    c23 7723   2.634   0.877   4.655  0.0343 -0.2376 -0.0416
 1004poe     o2 7724   2.749   0.923   4.588 -0.1057 -0.1697 -0.2368
 1004poe    c23 7725   2.723   1.043   4.519  0.1742  0.0123 -0.0285
 1004poe    c23 7726   2.848   1.118   4.471  0.5379 -0.6491 -0.1114
 1004poe     o2 7727   2.938   1.143   4.576 -0.2199 -0.3186  0.4659
 1004poe    c31 7728   3.055   1.205   4.527 -0.2012 -0.8969 -0.2380
 1005poe    c31 7729   6.761   3.667   5.838 -0.3246 -0.2891  0.3588
 1005poe     o2 7730   6.662   3.601   5.914 -1.0353  0.2235 -0.1061
 1005poe    c23 7731   6.613   3.495   5.835  0.1122 -0.2330 -0.2180
 1005poe    c23 7732   6.468   3.473   5.881  0.0670  0.4107 -0.0405
 1005poe     o2 7733   6.467   3.481   6.022 -0.1909 -0.1698 -0.0049
 1005poe    c23 7734   6.339   3.509   6.074 -0.0728  0.0279  0.1796
 1005poe    c23 7735   6.365   3.558   6.218 -0.3546 -0.0602  0.2611
 1005poe     o2 7736   6.462   3.659   6.207 -0.4488  0.0208  0.1706
 1005poe    c23 7737   6.523   3.686   6.331  0.1250 -0.2610 -0.0439
 1005poe    c23 7738   6.650   3.769   6.306 -0.2958  0.2591 -0.5031
 1005poe     o2 7739   6.708   3.689   6.206 -0.0007 -0.3310  0.1287
 1005poe    c31 7740   6.842   3.719   6.174 -0.2623  0.1630 -0.5373
 1006poe    c31 7741   0.432   2.161   0.899  0.6466 -0.3128  0.0473
 1006poe     o2 7742   0.302   2.137   0.851  0.5870  0.5403 -0.2388
 1006poe    c23 7743   0.215   2.239   0.896  0.2462  0.2188 -0.1621
 1006poe    c23 7744   0.073   2.202   0.849  0.3431  0.2268 -0.4609
 1006poe     o2 7745   0.095   2.180   0.711  0.3900  0.2080 -0.4505
 1006poe    c23 7746  -0.017   2.209   0.631  0.0479  0.0519 -0.0317
 1006poe    c23 7747   0.019   2.170   0.487  0.6091  0.1204  0.0876
 1006poe     o2 7748   0.040   2.030   0.483 -0.5498 -0.0642 -0.1958
 1006poe    c23 7749   0.058   1.978   0.354  0.0020 -0.2852 -0.0366
 1006poe    c23 7750   0.163   1.866   0.347 -0.0451 -0.2985 -0.6066
 1006poe     o2 7751   0.296   1.912   0.336 -0.1915  0.2191 -0.2390
 1006poe    c31 7752   0.370   1.794   0.318 -0.0562  0.3057 -0.2506
 1007poe    c31 7753   1.135   2.393   0.473  0.7297 -0.2778 -0.9208
 1007poe     o2 7754   1.164   2.529   0.449  0.0105  0.1463  0.5021
 1007poe    c23 7755   1.303   2.552   0.436  0.0903 -0.4934  0.1618
 1007poe    c23 7756   1.314   2.705   0.423 -0.4463 -0.4173  0.5301
 1007poe     o2 7757   1.221   2.754   0.516 -0.4488 -0.1000  0.3616
 1007poe    c23 7758   1.241   2.891   0.541 -0.0433 -0.1775  0.4616
 1007poe    c23 7759   1.125   2.979   0.590 -0.1046 -0.0521  0.0913
 1007poe     o2 7760   1.067   2.921   0.705  0.3321 -0.0190  0.3295
 1007poe    c23 7761   0.983   3.003   0.783 -0.0196  0.1501 -0.2213
 1007poe    c23 7762   0.908   2.908   0.878 -0.2199  0.3765 -0.1523
 1007poe     o2 7763   0.861   2.786   0.824 -0.0464  0.1923  0.1133
 1007poe    c31 7764   0.728   2.773   0.867 -0.0383 -0.3482 -0.0210
 1008poe    c31 7765   0.081   3.003   1.732 -0.2843  0.2137 -0.1133
 1008poe     o2 7766   0.189   3.077   1.680 -0.1071  0.0468  0.0142
 1008poe    c23 7767   0.209   3.055   1.543  0.1195 -0.1289  0.0751
 1008poe    c23 7768   0.356   3.095   1.518  0.2508 -0.3142  0.5360
 1008poe     o2 7769   0.379   3.202   1.607  0.0192  0.3501 -0.1893
 1008poe    c23 7770   0.517   3.212   1.633 -0.0301  0.0010  0.2073
 1008poe    c23 7771   0.535   3.337   1.720  0.2664  0.3024 -0.2844
 1008poe     o2 7772   0.430   3.319   1.813  0.6472 -0.3232  0.0262
 1008poe    c23 7773   0.360   3.431   1.860  0.2231 -0.6577  0.1962
 1008poe    c23 7774   0.223   3.395   1.920  0.2788 -0.6257  0.3419
 1008poe     o2 7775   0.158   3.298   1.842  0.0018  0.0012 -0.2210
 1008poe    c31 7776   0.024   3.283   1.885  0.2305 -0.9143  0.2027
 1009poe    c31 7777   4.218   4.484   2.661  0.0448  0.3073  0.6225
 1009poe     o2 7778   4.242   4.353   2.613 -0.6186  0.2542  0.4304
 1009poe    c23 7779   4.160   4.266   2.688 -0.2322 -0.0167  0.5422
 1009poe    c23 7780   4.187   4.119   2.652  0.3753  0.2227  0.0056
 1009poe     o2 7781   4.186   4.121   2.511 -0.1281  0.1572  0.0035
 1009poe    c23 7782   4.182   3.990   2.459 -0.5939  0.2291 -0.1469
 1009poe    c23 7783   4.192   4.014   2.307  0.1591 -0.4713 -0.2169
 1009poe     o2 7784   4.272   4.128   2.286 -0.7713  0.1898 -0.2229
 1009poe    c23 7785   4.392   4.099   2.219 -0.2863  0.2047  0.6149
 1009poe    c23 7786   4.485   4.221   2.235  0.3170 -0.2193  0.4071
 1009poe     o2 7787   4.467   4.271   2.366 -0.3812  0.2745  0.1292
 1009poe    c31 7788   4.555   4.378   2.391  0.0017 -0.0213  0.0469
 1010poe    c31 7789   5.638   4.670   0.899 -0.0540 -0.0343 -0.0432
 1010poe     o2 7790   5.709   4.650   1.019 -0.0652 -0.4319 -0.1020
 1010poe    c23 7791   5.627   4.638   1.133 -0.3307 -0.3657 -0.2857
 1010poe    c23 7792   5.730   4.625   1.247 -0.4654  0.2950 -0.0832
 1010poe     o2 7793   5.830   4.536   1.205 -0.9295 -0.4652  0.4106
 1010poe    c23 7794   5.910   4.495   1.314 -0.4690 -0.5094  0.0609
 1010poe    c23 7795   6.009   4.397   1.248 -0.6641 -0.5826 -0.1245
 1010poe     o2 7796   6.081   4.471   1.153 -0.2644 -0.3064  0.3890
 1010poe    c23 7797   6.180   4.393   1.088 -0.1142  0.2467 -0.0497
 1010poe    c23 7798   6.277   4.479   1.005  0.1548 -0.1031 -0.0979
 1010poe     o2 7799   6.221   4.546   0.894  0.0672  0.0242  0.0227
 1010poe    c31 7800   6.329   4.564   0.805  0.1979 -0.1185  0.1498
 1011poe    c31 7801   2.186   6.222   6.298 -0.3449 -0.4179  0.1605
 1011poe     o2 7802   2.249   6.269   6.181  0.3546 -0.2115  0.6117
 1011poe    c23 7803   2.363   6.189   6.159  0.1397 -0.4654  0.4081
 1011poe    c23 7804   2.433   6.231   6.028 -0.1405 -0.0571  0.3866
 1011poe     o2 7805   2.432   6.372   6.026  0.6725 -0.0506  0.2271
 1011poe    c23 7806   2.449   6.432   5.900  1.5002  0.2554  0.4758
 1011poe    c23 7807   2.369   6.564   5.896  0.2462 -0.5155 -0.7830
 1011poe     o2 7808   2.244   6.537   5.955  0.3934 -0.0796 -0.2631
 1011poe    c23 7809   2.168   6.655   5.971  0.0825 -0.2596 -0.3972
 1011poe    c23 7810   2.039   6.600   6.036  0.2008 -0.0278  0.0397
 1011poe     o2 7811   2.079   6.507   6.134  0.4060 -0.1401 -0.1495
 1011poe    c31 7812   1.962   6.496   6.212  0.0386  0.4717 -0.6044
 1012poe    c31 7813   4.324   2.476   4.883  0.2702  0.5273 -0.1727
 1012poe     o2 7814   4.326   2.510   4.746  0.2898  0.3328 -0.2201
 1012poe    c23 7815   4.196   2.543   4.702  0.0988 -0.5054 -0.3009
 1012poe    c23 7816   4.213   2.559   4.549  0.2484  0.2189 -0.2118
 1012poe     o2 7817   4.335   2.627   4.526  0.2770  0.0985 -0.4204
 1012poe    c23 7818   4.351   2.645   4.387  0.0693  0.1088 -0.4444
 1012poe    c23 7819   4.489   2.712   4.379  0.3309 -0.3194  0.3501
 1012poe     o2 7820   4.583   2.676   4.478  0.2398 -0.1829  0.4865
 1012poe    c23 7821   4.705   2.743   4.453 -0.1817  0.5084  0.2666
 1012poe    c23 7822   4.827   2.680   4.521 -0.7487 -0.4072  0.4492
 1012poe     o2 7823   4.825   2.676   4.662 -0.3109 -0.3891  0.4567
 1012poe    c31 7824   4.954   2.648   4.714  0.0394 -0.4395 -0.4231
 1013poe    c31 7825   2.685   1.481   0.904 -0.2725  0.3820 -0.0842
 1013poe     o2 7826   2.821   1.517   0.918 -0.2719  0.3604 -0.0303
 1013poe    c23 7827   2.847   1.632   0.840  0.1450 -0.0171 -0.4559
 1013poe    c23 7828   2.985   1.696   0.860 -0.0719  0.3130  0.0133
 1013poe     o2 7829   3.084   1.600   0.829  0.2076  0.6993 -0.2952
 1013poe    c23 7830   3.205   1.624   0.899  0.2510 -0.5682  0.0847
 1013poe    c23 7831   3.317   1.582   0.802 -0.0295 -0.2366 -0.3892
 1013poe     o2 7832   3.296   1.443   0.787 -0.1003 -0.3192  0.4451
 1013poe    c23 7833   3.379   1.390   0.687 -0.4291 -0.2882  0.1534
 1013poe    c23 7834   3.367   1.236   0.696  0.1554 -0.3136  0.5843
 1013poe     o2 7835   3.227   1.219   0.703  0.0317  0.2422 -0.3580
 1013poe    c31 7836   3.199   1.090   0.752  0.1808  0.2528 -0.2423
 1014poe    c31 7837   2.873   4.576   6.244 -0.4125 -0.6669  0.1158
 1014poe     o2 7838   2.983   4.631   6.312 -0.7682 -0.2015  0.3251
 1014poe    c23 7839   3.037   4.741   6.243 -0.2898 -0.0214  0.9759
 1014poe    c23 7840   3.121   4.830   6.338  0.0596  0.5841  0.1116
 1014poe     o2 7841   3.189   4.733   6.414 -0.5264 -0.0571 -0.1683
 1014poe    c23 7842   3.264   4.786   6.521 -0.8354 -0.2129  0.1320
 1014poe    c23 7843   3.323   4.661   6.587  0.0039 -0.1360 -0.4579
 1014poe     o2 7844   3.223   4.562   6.602 -0.2237  0.1223 -0.2854
 1014poe    c23 7845   3.159   4.565   6.728  0.1606 -0.1013 -0.0800
 1014poe    c23 7846   3.030   4.483   6.711  0.6451 -0.8773 -0.0546
 1014poe     o2 7847   2.987   4.501   6.578  0.0264 -0.0309  0.2525
 1014poe    c31 7848   2.862   4.437   6.566  0.3564 -0.6451  0.0644
 1015poe    c31 7849   2.109   1.311   6.627  0.3619 -0.4089 -0.4140
 1015poe     o2 7850   2.153   1.254   6.749  0.0660 -0.2507 -0.2334
 1015poe    c23 7851   2.044   1.192   6.813  0.0631 -0.0837 -0.0748
 1015poe    c23 7852   2.097   1.122   6.940 -0.2553 -0.3384 -0.0815
 1015poe     o2 7853   2.161   1.211   7.028 -0.2176 -0.3014 -0.1462
 1015poe    c23 7854   2.171   1.161   7.160  0.8798 -0.0118 -0.1118
 1015poe    c23 7855   2.199   1.279   7.255  0.0581 -0.6077  0.8885
 1015poe     o2 7856   2.319   1.330   7.202 -0.4070 -0.5279 -0.1258
 1015poe    c23 7857   2.346   1.452   7.268  0.1570 -0.6228 -0.1765
 1015poe    c23 7858   2.426   1.536   7.166  0.3058 -0.0345  0.4206
 1015poe     o2 7859   2.365   1.551   7.040  0.4829  0.4656  0.3903
 1015poe    c31 7860   2.439   1.633   6.953  0.2253  0.2471 -0.0391
 1016poe    c31 7861   4.478   6.225   1.184  0.2978 -0.3676 -0.0701
 1016poe     o2 7862   4.430   6.322   1.274  0.2584 -0.1787 -0.2923
 1016poe    c23 7863   4.307   6.272   1.322 -0.2270  0.6394 -0.6635
 1016poe    c23 7864   4.254   6.374   1.424  0.2034  0.4328 -0.2263
 1016poe     o2 7865   4.365   6.433   1.489  0.1819  0.1849  0.0348
 1016poe    c23 7866   4.341   6.546   1.569  0.3052 -0.0127  0.3532
 1016poe    c23 7867   4.470   6.576   1.647  0.2844  0.3097  0.2639
 1016poe     o2 7868   4.577   6.593   1.557  0.2502 -0.1160  0.1422
 1016poe    c23 7869   4.695   6.627   1.626  0.0085 -0.0895  0.5457
 1016poe    c23 7870   4.815   6.644   1.531 -0.3631  0.2689  0.1376
 1016poe     o2 7871   4.853   6.524   1.466  0.2545  0.3446  0.3536
 1016poe    c31 7872   4.931   6.552   1.352  0.2237  0.1222  0.2773
 1017poe    c31 7873   0.764   1.180   6.525  0.3034 -0.3939 -0.7996
 1017poe     o2 7874   0.667   1.078   6.516 -0.2734  0.0488  0.2681
 1017poe    c23 7875   0.708   0.947   6.484 -0.0867  0.2485 -0.3230
 1017poe    c23 7876   0.592   0.855   6.441  0.2233 -0.2053 -0.2017
 1017poe     o2 7877   0.526   0.890   6.322 -0.5275  0.3149  0.3600
 1017poe    c23 7878   0.465   0.774   6.270  0.0167  0.0371  0.3390
 1017poe    c23 7879   0.421   0.809   6.127  0.7035 -0.4002  0.0133
 1017poe     o2 7880   0.358   0.935   6.139  0.5716 -0.3859 -0.7526
 1017poe    c23 7881   0.289   0.989   6.029 -0.0131 -0.0556 -0.2266
 1017poe    c23 7882   0.217   1.113   6.087  0.6845  0.1718  0.1720
 1017poe     o2 7883   0.308   1.198   6.152  0.6460  0.3332  0.0180
 1017poe    c31 7884   0.243   1.320   6.176  0.3236  0.0969  0.3518
 1018poe    c31 7885   4.818   0.103   0.104  0.2730  0.1468 -0.1104
 1018poe     o2 7886   4.816   0.022   0.219  0.5159  0.4072  0.0821
 1018poe    c23 7887   4.698   0.037   0.294  0.3774 -0.4844  0.0596
 1018poe    c23 7888   4.722  -0.033   0.429 -0.4507 -0.1351  0.3985
 1018poe     o2 7889   4.800  -0.146   0.396  0.2307  0.3659  0.2700
 1018poe    c23 7890   4.817  -0.228   0.510 -0.1471  0.0306  0.0904
 1018poe    c23 7891   4.884  -0.361   0.473 -0.0028  0.2238 -0.3449
 1018poe     o2 7892   5.003  -0.333   0.402  0.2775 -0.2658 -0.0753
 1018poe    c23 7893   5.076  -0.446   0.360 -0.8615 -0.8074 -0.6585
 1018poe    c23 7894   5.178  -0.410   0.250 -0.4855 -0.2604 -0.1392
 1018poe     o2 7895   5.124  -0.394   0.121 -0.1142  0.6773 -0.1827
 1018poe    c31 7896   5.215  -0.362   0.018 -0.3525  0.3490 -0.4976
 1019poe    c31 7897   3.249   0.978   1.319 -0.3421 -0.1476 -0.3580
 1019poe     o2 7898   3.234   1.036   1.446 -0.1683 -0.4720 -0.1887
 1019poe    c23 7899   3.161   0.946   1.527  0.1139 -0.3303  0.2272
 1019poe    c23 7900   3.139   1.017   1.662 -0.2201  0.0041  0.0024
 1019poe     o2 7901   3.267   1.052   1.710 -0.1452  0.4337 -0.5030
 1019poe    c23 7902   3.258   1.124   1.831  0.2187 -0.8820  0.3250
 1019poe    c23 7903   3.402   1.160   1.870  0.0286  0.0082  0.2203
 1019poe     o2 7904   3.477   1.199   1.757 -0.1987 -0.2337 -0.0141
 1019poe    c23 7905   3.591   1.264   1.809 -0.1048 -0.1685 -0.3043
 1019poe    c23 7906   3.705   1.283   1.707  0.7141  0.2393  0.6760
 1019poe     o2 7907   3.657   1.371   1.608  0.2620 -0.4486  0.2822
 1019poe    c31 7908   3.754   1.420   1.518  0.1583 -0.3786  0.2087
 1020poe    c31 7909   6.313   3.962   3.408  0.0040 -0.2102 -0.2839
 1020poe     o2 7910   6.298   3.850   3.323 -0.0904 -0.7128  0.3812
 1020poe    c23 7911   6.223   3.890   3.210  0.4504  0.0177  0.2686
 1020poe    c23 7912   6.240   3.781   3.103 -0.6801  0.1547 -0.0587
 1020poe     o2 7913   6.240   3.656   3.168  0.1664 -0.0734 -0.4783
 1020poe    c23 7914   6.257   3.550   3.077 -0.1504 -0.5041 -0.0419
 1020poe    c23 7915   6.399   3.502   3.111  0.0160  0.2812  0.3995
 1020poe     o2 7916   6.413   3.515   3.250 -0.1756 -0.4369  0.4901
 1020poe    c23 7917   6.544   3.493   3.298  0.0438  0.2136  0.1950
 1020poe    c23 7918   6.527   3.514   3.449 -0.0144  0.5654  0.1401
 1020poe     o2 7919   6.469   3.642   3.462 -0.3943  0.4001  0.0918
 1020poe    c31 7920   6.450   3.663   3.600 -0.6357  0.5024  0.0440
 1021poe    c31 7921   3.816   5.032   6.333  0.2890 -0.1460 -0.4988
 1021poe     o2 7922   3.819   5.131   6.232 -0.0155  0.1015 -0.2675
 1021poe    c23 7923   3.946   5.193   6.239  0.0090  0.0153  0.0984
 1021poe    c23 7924   3.948   5.312   6.141  0.4283  0.0722  0.1762
 1021poe     o2 7925   3.881   5.254   6.031  0.1228  0.4686  0.1502
 1021poe    c23 7926   3.857   5.340   5.923  0.0934  0.4117  0.1119
 1021poe    c23 7927   3.779   5.256   5.819 -0.0558  0.3403  0.2810
 1021poe     o2 7928   3.678   5.196   5.897  0.4586 -0.2251  0.5203
 1021poe    c23 7929   3.625   5.078   5.841  0.0592  0.1127  0.1773
 1021poe    c23 7930   3.531   5.027   5.952 -0.4432  0.0882 -0.2570
 1021poe     o2 7931   3.605   5.020   6.072 -0.3042  0.5117 -0.3151
 1021poe    c31 7932   3.533   4.941   6.165  0.0838  0.3338 -0.1656
 1022poe    c31 7933   1.374   6.223   2.364  0.5307  0.8460  0.1446
 1022poe     o2 7934   1.277   6.324   2.349 -0.4603 -0.0348  0.4531
 1022poe    c23 7935   1.281   6.386   2.476  0.1038  0.0072  0.4188
 1022poe    c23 7936   1.177   6.486   2.530  0.0464  0.3685 -0.3576
 1022poe     o2 7937   1.195   6.613   2.472  0.1341  0.5686  0.1070
 1022poe    c23 7938   1.068   6.674   2.473  0.0202  0.3289  0.2941
 1022poe    c23 7939   1.086   6.816   2.416 -0.2515  0.3753  0.3252
 1022poe     o2 7940   1.188   6.877   2.491 -0.1295  0.5033  0.0582
 1022poe    c23 7941   1.216   7.010   2.456 -0.1052  0.4123 -0.2674
 1022poe    c23 7942   1.329   7.044   2.555  0.1166  0.5699 -0.5726
 1022poe     o2 7943   1.424   6.940   2.566 -0.0108  0.4930 -0.1828
 1022poe    c31 7944   1.547   6.982   2.622 -0.0120  0.4014 -0.1122
 1023poe    c31 7945   1.790   2.110   4.927 -0.1150  0.0115 -0.2620
 1023poe     o2 7946   1.658   2.149   4.895 -0.2500 -0.1261  0.1156
 1023poe    c23 7947   1.663   2.196   4.762  0.1781  0.0282  0.1836
 1023poe    c23 7948   1.523   2.239   4.712  0.1151 -0.1361  0.2177
 1023poe     o2 7949   1.448   2.264   4.828  0.3850 -0.2338  0.4160
 1023poe    c23 7950   1.327   2.191   4.818  0.6357 -0.5690 -0.1853
 1023poe    c23 7951   1.261   2.168   4.955 -0.0300  0.2128 -0.3632
 1023poe     o2 7952   1.363   2.113   5.036 -0.2397  0.2165 -0.0987
 1023poe    c23 7953   1.320   2.110   5.171  0.1405 -0.3464  0.0121
 1023poe    c23 7954   1.455   2.061   5.227  0.3084  0.3984  0.2753
 1023poe     o2 7955   1.561   2.135   5.170  0.3921 -0.0220 -0.1237
 1023poe    c31 7956   1.663   2.146   5.266  0.1010  0.2711  0.1520
 1024poe    c31 7957   1.961   6.301   2.140 -0.2871  0.2157  0.4293
 1024poe     o2 7958   1.978   6.234   2.018  0.4367  0.8138  0.1917
 1024poe    c23 7959   1.887   6.285   1.922  0.3060 -0.1451 -0.2069
 1024poe    c23 7960   1.881   6.195   1.797  0.3426 -0.1973 -0.1716
 1024poe     o2 7961   2.013   6.156   1.766  0.4134  0.0564 -0.1934
 1024poe    c23 7962   2.014   6.049   1.674 -0.1134  0.0612 -0.2070
 1024poe    c23 7963   2.153   5.988   1.648 -0.1475 -0.1215  0.0392
 1024poe     o2 7964   2.206   5.954   1.775  0.1857 -0.4233 -0.1804
 1024poe    c23 7965   2.300   5.849   1.773  0.4322 -0.2089  0.1339
 1024poe    c23 7966   2.320   5.793   1.915  0.5276 -0.4790  0.0161
 1024poe     o2 7967   2.198   5.738   1.958  0.1458  0.1931 -0.1881
 1024poe    c31 7968   2.212   5.651   2.068 -0.1265  0.2785 -0.0833
 1025poe    c31 7969   6.525   0.025   3.453 -0.1229  0.4253  0.2228
 1025poe     o2 7970   6.550   0.021   3.592  0.0414  0.3649  0.1913
 1025poe    c23 7971   6.644   0.117   3.636  0.1052  0.2961  0.2074
 1025poe    c23 7972   6.608   0.135   3.785  0.3520 -0.2310  0.3350
 1025poe     o2 7973   6.580   0.016   3.855  0.1103 -0.3808 -0.0088
 1025poe    c23 7974   6.558   0.047   3.991  0.5357 -0.0403 -0.0162
 1025poe    c23 7975   6.506  -0.084   4.051 -0.0509 -0.0857 -0.6083
 1025poe     o2 7976   6.402  -0.135   3.971 -0.7683  0.4245 -0.0194
 1025poe    c23 7977   6.342  -0.255   4.013 -0.0544 -0.0132 -0.2315
 1025poe    c23 7978   6.233  -0.292   3.911  0.4882 -0.1103 -0.7797
 1025poe     o2 7979   6.138  -0.188   3.900  0.2151 -0.2827 -0.0603
 1025poe    c31 7980   6.020  -0.230   3.835 -0.2923  0.2400  0.5177
 1026poe    c31 7981   6.004   6.471   1.567 -0.1317  0.3436 -0.6558
 1026poe     o2 7982   5.884   6.544   1.558 -0.6192 -0.3674 -0.0337
 1026poe    c23 7983   5.903   6.634   1.451 -0.0388 -0.3459  0.0836
 1026poe    c23 7984   5.771   6.685   1.390  0.4691  0.1357 -0.6278
 1026poe     o2 7985   5.699   6.733   1.502  0.4669  0.2818 -0.6923
 1026poe    c23 7986   5.561   6.720   1.477  0.3628 -0.1147  0.0604
 1026poe    c23 7987   5.508   6.577   1.498  0.3111 -0.1759 -0.4728
 1026poe     o2 7988   5.579   6.517   1.604 -0.2347  0.0543  0.0253
 1026poe    c23 7989   5.519   6.393   1.629  0.1557 -0.0110  0.6584
 1026poe    c23 7990   5.589   6.342   1.757 -0.1291 -0.4582  0.6420
 1026poe     o2 7991   5.720   6.395   1.748 -0.2239 -0.3398 -0.1422
 1026poe    c31 7992   5.794   6.346   1.857 -0.0565  0.1525 -0.0333
 1027poe    c31 7993   2.357   3.949   5.297 -0.3273  0.2712  0.4736
 1027poe     o2 7994   2.446   4.058   5.294 -0.2903  0.2333  0.1095
 1027poe    c23 7995   2.369   4.172   5.325 -0.3753  0.0065  0.7615
 1027poe    c23 7996   2.459   4.296   5.313 -0.1485 -0.1503  0.8537
 1027poe     o2 7997   2.577   4.250   5.376  0.5673  0.0891 -0.2685
 1027poe    c23 7998   2.666   4.358   5.392  0.1940  0.3108  0.3820
 1027poe    c23 7999   2.793   4.304   5.461  0.1859  0.0463  0.1929
 1027poe     o2 8000   2.854   4.214   5.372  0.1259 -0.0526  0.2519
 1027poe    c23 8001   2.990   4.195   5.406  0.0243 -0.2881  0.5300
 1027poe    c23 8002   3.051   4.086   5.316 -0.0457  0.3582 -0.3077
 1027poe     o2 8003   2.978   3.967   5.336  0.0536  0.3408 -0.0502
 1027poe    c31 8004   3.072   3.861   5.333 -0.2981  0.0036  0.6788
 1028poe    c31 8005   2.418   6.641   2.281  0.0350  0.2680 -0.0785
 1028poe     o2 8006   2.312   6.699   2.210 -0.2043 -0.2565 -0.1522
 1028poe    c23 8007   2.287   6.629   2.090  0.5048 -0.6253 -0.0856
 1028poe    c23 8008   2.149   6.666   2.033  0.2629 -0.1197  0.8175
 1028poe     o2 8009   2.138   6.806   2.050 -0.6713 -0.1148  0.2704
 1028poe    c23 8010   2.013   6.847   2.000 -0.3192  0.0900 -0.4429
 1028poe    c23 8011   2.010   7.001   2.013  0.0664  0.0295  0.3798
 1028poe     o2 8012   2.034   7.021   2.151 -0.3812 -0.7718  0.5827
 1028poe    c23 8013   1.959   7.128   2.204  0.1661 -0.1422  0.1050
 1028poe    c23 8014   1.994   7.183   2.343  0.3873  0.1813 -0.0787
 1028poe     o2 8015   2.004   7.086   2.445  0.1619  0.0656 -0.1670
 1028poe    c31 8016   2.073   7.147   2.551 -0.1898 -0.0780  0.1464
 1029poe    c31 8017   3.231   4.838   0.843 -0.4245  0.5091 -0.1681
 1029poe     o2 8018   3.283   4.955   0.784  0.0562  0.2504 -0.2594
 1029poe    c23 8019   3.406   4.982   0.848 -0.1810  0.2908  0.1878
 1029poe    c23 8020   3.461   5.114   0.790  0.2997 -0.0966 -0.2587
 1029poe     o2 8021   3.343   5.190   0.772 -0.1861 -0.6274  0.5972
 1029poe    c23 8022   3.364   5.310   0.701 -0.5204 -0.6254  0.5005
 1029poe    c23 8023   3.225   5.358   0.656  0.0790  0.4416 -0.2831
 1029poe     o2 8024   3.160   5.236   0.625  0.4886  0.2314 -0.3202
 1029poe    c23 8025   3.029   5.255   0.577  0.2717 -0.5054 -0.0238
 1029poe    c23 8026   2.981   5.113   0.540 -0.0079 -0.4212  0.0092
 1029poe     o2 8027   3.020   5.020   0.639 -0.0351  0.1146  0.5356
 1029poe    c31 8028   2.972   4.891   0.605 -0.2005  0.1873  0.4908
 1030poe    c31 8029   1.048   2.770   3.987 -0.7206  0.2942 -0.1019
 1030poe     o2 8030   0.963   2.658   4.004 -0.4951  0.0893 -0.3128
 1030poe    c23 8031   0.955   2.626   4.141  0.3520 -0.2540 -0.3379
 1030poe    c23 8032   0.836   2.529   4.156 -0.0426  0.3050  0.1550
 1030poe     o2 8033   0.815   2.463   4.034 -0.4704 -0.1525  0.4747
 1030poe    c23 8034   0.880   2.338   4.026  0.4167  0.3196  0.2987
 1030poe    c23 8035   0.883   2.310   3.874 -0.3864  0.3923  0.2654
 1030poe     o2 8036   0.897   2.431   3.803 -0.6527  0.0233 -0.4180
 1030poe    c23 8037   0.925   2.410   3.666 -0.4647  0.3348 -0.4281
 1030poe    c23 8038   0.963   2.552   3.620  0.1639  0.1187 -0.5812
 1030poe     o2 8039   0.915   2.637   3.722  0.6227  0.2385 -0.4641
 1030poe    c31 8040   0.919   2.762   3.658 -0.3735  0.4894 -0.0523
 1031poe    c31 8041   5.259   0.771   3.512  0.1870  0.2454  0.1763
 1031poe     o2 8042   5.331   0.771   3.391 -0.4760  0.2626 -0.2224
 1031poe    c23 8043   5.330   0.657   3.309 -0.2930 -0.1452  0.3384
 1031poe    c23 8044   5.195   0.636   3.238 -0.0738 -0.6864  0.0730
 1031poe     o2 8045   5.182   0.718   3.124 -0.2423 -0.3848  0.3095
 1031poe    c23 8046   5.069   0.691   3.043  0.3232 -0.6495 -0.4018
 1031poe    c23 8047   5.079   0.762   2.907 -0.6052 -0.0370 -0.1576
 1031poe     o2 8048   5.075   0.902   2.925 -0.1752 -0.0447  0.0120
 1031poe    c23 8049   5.085   0.945   2.791  0.0093  0.3352  0.1474
 1031poe    c23 8050   5.073   1.099   2.794  0.2292  0.3478  0.4288
 1031poe     o2 8051   5.153   1.154   2.896 -0.2098 -0.0145  0.9774
 1031poe    c31 8052   5.185   1.291   2.900 -0.0239 -0.0366  0.3943
 1032poe    c31 8053   3.688   0.175   2.326 -0.5058  0.4257 -0.4736
 1032poe     o2 8054   3.803   0.098   2.298 -0.4216  0.4848 -0.2890
 1032poe    c23 8055   3.832   0.106   2.161 -0.1902  0.2395 -0.2550
 1032poe    c23 8056   3.937  -0.003   2.131 -0.0254  0.3566 -0.1042
 1032poe     o2 8057   4.037   0.019   2.229 -0.1443  0.0040  0.1004
 1032poe    c23 8058   4.116  -0.093   2.261 -0.0614  0.0149 -0.0605
 1032poe    c23 8059   4.176  -0.076   2.402 -0.7068  1.0604  0.0990
 1032poe     o2 8060   4.069  -0.028   2.480 -0.6669  0.6839  0.3912
 1032poe    c23 8061   4.096  -0.012   2.618 -0.8315  0.3063  0.4670
 1032poe    c23 8062   3.961  -0.012   2.693 -0.7798  0.1036  0.5602
 1032poe     o2 8063   3.878   0.049   2.597  0.5684  0.5415 -0.3619
 1032poe    c31 8064   3.744   0.043   2.639  0.6175 -0.3785 -0.3114
 1033poe    c31 8065   3.594   3.168   3.329  0.6338  0.6691  0.2017
 1033poe     o2 8066   3.539   3.154   3.200  0.4968  0.0367  0.3252
 1033poe    c23 8067   3.625   3.213   3.105  0.1659  0.0135  0.0117
 1033poe    c23 8068   3.569   3.194   2.962 -0.5213  0.2259  0.2497
 1033poe     o2 8069   3.546   3.058   2.933 -0.1478  0.2254 -0.0404
 1033poe    c23 8070   3.535   3.048   2.793 -0.3342  0.0305 -0.0119
 1033poe    c23 8071   3.509   2.901   2.753 -0.0106 -0.0229 -0.0237
 1033poe     o2 8072   3.433   2.848   2.860 -0.1195 -0.1022 -0.1404
 1033poe    c23 8073   3.412   2.713   2.828  0.2292 -0.0892 -0.4329
 1033poe    c23 8074   3.345   2.640   2.946  0.0281 -0.1036 -0.5555
 1033poe     o2 8075   3.412   2.663   3.067 -0.1022 -0.1995 -0.4643
 1033poe    c31 8076   3.323   2.648   3.176  0.4702  0.1477  0.0612
 1034poe    c31 8077   6.109   1.185   2.274  0.0070  0.5739  0.1051
 1034poe     o2 8078   6.011   1.111   2.342  0.4553  0.0221  0.1623
 1034poe    c23 8079   6.066   0.994   2.399 -0.1561 -0.4176 -0.1398
 1034poe    c23 8080   5.945   0.909   2.442 -0.7123 -0.0813 -1.0095
 1034poe     o2 8081   5.863   1.009   2.498 -0.1445 -0.2025  0.0542
 1034poe    c23 8082   5.780   0.968   2.604 -0.0911  0.4844  0.3638
 1034poe    c23 8083   5.660   1.061   2.579 -0.4167 -0.0997 -0.2681
 1034poe     o2 8084   5.701   1.194   2.558 -0.4673 -0.1267 -0.5432
 1034poe    c23 8085   5.623   1.284   2.633 -0.2908 -0.1412 -0.3407
 1034poe    c23 8086   5.647   1.432   2.596 -0.2218 -0.1553 -0.3519
 1034poe     o2 8087   5.632   1.474   2.462 -0.1577  0.4447 -0.1705
 1034poe    c31 8088   5.596   1.611   2.456 -0.0965  0.4378 -0.6898
 1035poe    c31 8089   0.135   3.445   4.233  0.1911  0.1867  0.0472
 1035poe     o2 8090   0.208   3.336   4.284  0.0907  0.3918  0.6362
 1035poe    c23 8091   0.311   3.394   4.360  0.6486  0.6612 -0.3101
 1035poe    c23 8092   0.389   3.282   4.433 -0.0185  0.4069  0.0169
 1035poe     o2 8093   0.294   3.181   4.460  0.2655  0.1106 -0.0797
 1035poe    c23 8094   0.359   3.083   4.537 -0.5415 -0.2796  0.1211
 1035poe    c23 8095   0.260   2.965   4.533 -0.4283 -0.3848  0.3900
 1035poe     o2 8096   0.218   2.954   4.399  0.5908 -0.0148  0.0265
 1035poe    c23 8097   0.124   2.848   4.390  0.7886 -0.1514 -0.4904
 1035poe    c23 8098   0.102   2.793   4.248  0.2504  0.1915 -0.5424
 1035poe     o2 8099   0.071   2.898   4.159  0.1933  0.5803 -0.0678
 1035poe    c31 8100   0.021   2.860   4.033  0.1760 -0.3277  0.2062
 1036poe    c31 8101   5.471   1.154   4.278  0.0314 -0.0256  0.1986
 1036poe     o2 8102   5.494   1.073   4.391 -0.2642 -0.0857  0.2150
 1036poe    c23 8103   5.451   1.140   4.508  0.1567 -0.0500  0.3505
 1036poe    c23 8104   5.482   1.074   4.643  0.0466 -0.3236  0.2434
 1036poe     o2 8105   5.616   1.052   4.681 -0.0334 -0.7164  0.3042
 1036poe    c23 8106   5.620   0.976   4.799  0.1008  0.0251  0.7822
 1036poe    c23 8107   5.763   1.009   4.846  0.2837  0.3244  0.0149
 1036poe     o2 8108   5.847   1.005   4.733 -0.0751 -0.3690 -0.2319
 1036poe    c23 8109   5.973   1.062   4.763 -0.0151 -0.3655 -0.4852
 1036poe    c23 8110   6.060   1.044   4.637  0.5184  0.7030 -0.2831
 1036poe     o2 8111   5.981   1.075   4.525 -0.3105 -0.6257 -0.0909
 1036poe    c31 8112   6.070   1.060   4.417  0.3750  0.1326  0.3565
 1037poe    c31 8113   1.363   2.073   4.277  0.1481 -0.0460 -0.9878
 1037poe     o2 8114   1.348   1.933   4.283 -0.1009  0.0131 -0.0715
 1037poe    c23 8115   1.252   1.895   4.187  0.1667  0.0323 -0.3456
 1037poe    c23 8116   1.199   1.751   4.199 -0.0617  0.1016 -0.5088
 1037poe     o2 8117   1.143   1.709   4.321  0.2437  0.2685 -0.3102
 1037poe    c23 8118   1.133   1.568   4.320 -0.0766  0.2883 -0.0162
 1037poe    c23 8119   1.030   1.526   4.427  0.6348 -0.0814  0.5231
 1037poe     o2 8120   1.079   1.599   4.538  0.1901  1.1021 -0.0472
 1037poe    c23 8121   1.007   1.578   4.657  1.0892 -0.1089  0.3062
 1037poe    c23 8122   1.065   1.691   4.744 -0.6948  0.3132  0.9934
 1037poe     o2 8123   1.042   1.814   4.680 -0.2948 -0.1598 -0.0720
 1037poe    c31 8124   1.065   1.917   4.773  0.3745 -0.3834  0.0147
 1038poe    c31 8125   5.718   6.112   4.933 -0.3460  0.1343 -0.2360
 1038poe     o2 8126   5.820   6.016   4.949 -0.2874  0.1595 -0.4550
 1038poe    c23 8127   5.815   5.924   4.842  0.2593  0.2778 -0.5855
 1038poe    c23 8128   5.901   5.798   4.865 -0.5476 -0.1865 -0.0574
 1038poe     o2 8129   5.879   5.728   4.985  0.1719 -0.0797  0.1423
 1038poe    c23 8130   5.999   5.660   5.015  0.0556 -0.3005  0.1087
 1038poe    c23 8131   6.002   5.609   5.161 -0.3128 -0.4259  0.0737
 1038poe     o2 8132   6.003   5.714   5.254  0.3945 -0.2199 -0.1619
 1038poe    c23 8133   6.025   5.666   5.385 -0.1008 -0.0918 -0.0297
 1038poe    c23 8134   6.036   5.785   5.482 -0.3625 -0.1936  0.1274
 1038poe     o2 8135   5.926   5.866   5.449 -0.1539  0.2545  0.5281
 1038poe    c31 8136   5.920   5.974   5.540 -0.0393  0.2744  0.5129
 1039poe    c31 8137   4.741   5.837   0.076  0.4603  0.8327 -0.0530
 1039poe     o2 8138   4.733   5.882  -0.057 -0.1197  0.4939 -0.1386
 1039poe    c23 8139   4.629   5.809  -0.118 -0.0648 -0.0615  0.4288
 1039poe    c23 8140   4.670   5.799  -0.266 -0.5923  0.4515  0.2455
 1039poe     o2 8141   4.691   5.930  -0.312  0.5747  0.0897 -0.2874
 1039poe    c23 8142   4.763   5.926  -0.434  0.5521 -0.3421 -0.2863
 1039poe    c23 8143   4.829   6.064  -0.429 -0.4672  0.1480 -0.0393
 1039poe     o2 8144   4.871   6.078  -0.295 -0.4795  0.3601 -0.0562
 1039poe    c23 8145   4.949   6.189  -0.258 -0.5376  0.2935  0.2730
 1039poe    c23 8146   4.978   6.150  -0.112 -0.5546  0.0768  0.2200
 1039poe     o2 8147   4.851   6.134  -0.053 -0.6482  0.0522  0.0131
 1039poe    c31 8148   4.850   6.180   0.081 -0.7450 -0.4438  0.1820
 1040poe    c31 8149   4.822   2.817   3.233  0.0036  0.3662  0.5933
 1040poe     o2 8150   4.725   2.807   3.334 -0.4431 -0.0416  0.1302
 1040poe    c23 8151   4.666   2.931   3.366 -0.1234  0.1450 -0.0027
 1040poe    c23 8152   4.515   2.918   3.338 -0.1275  0.2049 -0.0128
 1040poe     o2 8153   4.468   2.812   3.418 -0.4316  0.5979  0.3354
 1040poe    c23 8154   4.369   2.735   3.353 -0.1213  0.4455  0.0387
 1040poe    c23 8155   4.406   2.588   3.384  0.0033  0.4312 -0.1774
 1040poe     o2 8156   4.538   2.558   3.346 -0.2301 -0.2852 -0.4290
 1040poe    c23 8157   4.578   2.430   3.390  0.3851  0.0746  0.0750
 1040poe    c23 8158   4.731   2.421   3.378  0.3199 -0.1970 -0.5561
 1040poe     o2 8159   4.779   2.537   3.440 -0.3672 -0.2488  0.0842
 1040poe    c31 8160   4.914   2.538   3.400 -0.4929 -0.5235 -0.3459
 1041poe    c31 8161   4.792   0.896   0.622 -0.1486 -0.1343 -0.7054
 1041poe     o2 8162   4.823   0.806   0.518  0.3624 -0.1352 -0.5552
 1041poe    c23 8163   4.920   0.711   0.555 -0.2253 -0.6660 -0.3683
 1041poe    c23 8164   5.037   0.701   0.456  0.2176  0.0253  0.0758
 1041poe     o2 8165   4.999   0.681   0.322 -0.1358  0.6985  0.0685
 1041poe    c23 8166   5.108   0.719   0.240 -0.2438  0.0441 -0.3878
 1041poe    c23 8167   5.095   0.651   0.102 -0.3927 -0.5198 -0.1017
 1041poe     o2 8168   4.973   0.698   0.049 -0.4786 -0.2627  0.3143
 1041poe    c23 8169   4.951   0.650  -0.082 -0.4246  0.3538  0.0754
 1041poe    c23 8170   4.805   0.683  -0.118 -0.4814 -0.4169 -0.4249
 1041poe     o2 8171   4.731   0.640  -0.006  0.0669 -0.9087 -0.2419
 1041poe    c31 8172   4.603   0.698  -0.024  0.7310  0.7140  0.0965
 1042poe    c31 8173   5.822   5.985   0.210  0.6763 -0.3520  0.7477
 1042poe     o2 8174   5.896   5.874   0.161 -0.2919 -0.8447  0.3774
 1042poe    c23 8175   5.990   5.840   0.261 -0.2714  0.2833  0.7589
 1042poe    c23 8176   6.067   5.708   0.248  0.7198  0.8403  0.8576
 1042poe     o2 8177   6.159   5.714   0.142 -0.0220  0.2488  0.1675
 1042poe    c23 8178   6.253   5.609   0.148  0.2050  0.3787 -0.8761
 1042poe    c23 8179   6.371   5.647   0.057  0.5539  0.6368 -0.3192
 1042poe     o2 8180   6.336   5.700  -0.069  0.2669  0.0475 -0.4913
 1042poe    c23 8181   6.444   5.740  -0.150  0.4336  0.3862 -0.1066
 1042poe    c23 8182   6.381   5.780  -0.285 -0.0458 -0.3508 -0.1029
 1042poe     o2 8183   6.270   5.857  -0.247  0.2507  0.0217  0.0060
 1042poe    c31 8184   6.206   5.913  -0.360 -0.2112  0.5256  0.5098
 1043poe    c31 8185   3.187   2.050   5.556 -0.6106  0.4072 -0.4411
 1043poe     o2 8186   3.220   1.984   5.436  0.5572  0.3706 -0.1124
 1043poe    c23 8187   3.105   1.995   5.355  0.2988  0.1617  0.2161
 1043poe    c23 8188   3.126   1.902   5.234  0.1356  0.3135  0.0707
 1043poe     o2 8189   3.257   1.908   5.182  0.1428 -0.6095 -0.0382
 1043poe    c23 8190   3.287   1.846   5.060 -0.1924 -0.4947 -0.1808
 1043poe    c23 8191   3.440   1.833   5.044 -0.0604  0.1312  0.5528
 1043poe     o2 8192   3.496   1.962   5.057  0.2763  0.0539 -0.0986
 1043poe    c23 8193   3.626   1.969   5.004  0.1605  0.0611 -0.3877
 1043poe    c23 8194   3.739   1.900   5.084 -0.1880  0.0100  0.0647
 1043poe     o2 8195   3.748   1.949   5.216 -0.2685 -0.2731  0.1780
 1043poe    c31 8196   3.868   1.900   5.272 -0.0293  0.4450  0.3136
 1044poe    c31 8197   2.028   5.051   2.118 -0.3522 -0.0725 -0.0585
 1044poe     o2 8198   1.973   5.118   2.229  0.3621  0.0163  0.2427
 1044poe    c23 8199   1.941   5.028   2.333  0.2452  0.3975  0.5401
 1044poe    c23 8200   1.916   5.097   2.468  0.0263  0.2072  0.5969
 1044poe     o2 8201   1.824   5.201   2.441 -0.3031 -0.1668  0.2609
 1044poe    c23 8202   1.770   5.276   2.547 -0.0161  0.4288 -0.0043
 1044poe    c23 8203   1.674   5.374   2.478 -0.7216 -0.7371 -0.7141
 1044poe     o2 8204   1.742   5.441   2.374  0.4115 -0.0789  0.4226
 1044poe    c23 8205   1.661   5.466   2.261  0.2895  0.8269  0.6975
 1044poe    c23 8206   1.760   5.485   2.144 -0.6960 -0.5040 -0.3843
 1044poe     o2 8207   1.842   5.373   2.120  0.8470  0.4728  0.2038
 1044poe    c31 8208   1.901   5.379   1.992  0.0160 -0.6015 -0.2395
 1045poe    c31 8209   6.762   1.856   6.249 -0.2493  0.2883 -0.0489
 1045poe     o2 8210   6.690   1.975   6.225 -0.4443  0.2540  0.3772
 1045poe    c23 8211   6.664   2.044   6.345 -0.1050  0.2264  0.4677
 1045poe    c23 8212   6.601   2.183   6.324 -0.1426  0.0974 -0.2938
 1045poe     o2 8213   6.685   2.275   6.257  0.6761 -0.1335  0.4016
 1045poe    c23 8214   6.619   2.399   6.253  0.4642 -0.2651 -0.2583
 1045poe    c23 8215   6.714   2.508   6.200  0.1985  0.0568 -0.0740
 1045poe     o2 8216   6.757   2.459   6.075  0.0550 -0.0577 -0.0792
 1045poe    c23 8217   6.873   2.526   6.030  0.3439 -0.1921  0.4560
 1045poe    c23 8218   6.917   2.454   5.901 -0.7149  0.2361 -0.1597
 1045poe     o2 8219   6.903   2.314   5.907  0.0000  0.1755  0.1737
 1045poe    c31 8220   6.947   2.260   5.784  0.5634  0.0209  0.4398
 1046poe    c31 8221   4.923   5.669   3.142 -0.1116  0.1570 -0.3296
 1046poe     o2 8222   4.798   5.649   3.079 -0.1935 -0.3337 -0.0178
 1046poe    c23 8223   4.781   5.759   2.993  0.0332 -0.1321  0.1929
 1046poe    c23 8224   4.670   5.720   2.893 -0.2900 -0.2030  0.5792
 1046poe     o2 8225   4.562   5.677   2.972 -0.3902  0.2405  0.6872
 1046poe    c23 8226   4.456   5.624   2.895  0.1092 -0.0374  0.1916
 1046poe    c23 8227   4.354   5.579   3.001 -0.1163 -0.3491 -0.1553
 1046poe     o2 8228   4.425   5.517   3.105  0.2684 -0.0195 -0.2192
 1046poe    c23 8229   4.366   5.532   3.232  0.3186 -0.3432 -0.1561
 1046poe    c23 8230   4.466   5.516   3.348  0.1270 -0.1254  0.0390
 1046poe     o2 8231   4.587   5.577   3.311  0.0885 -0.1767 -0.1738
 1046poe    c31 8232   4.677   5.547   3.416  0.5089  0.3289 -0.3826
 1047poe    c31 8233   3.010   2.341   2.151  0.1381 -1.3676 -0.0215
 1047poe     o2 8234   2.985   2.291   2.281 -0.0972 -0.8307  0.1404
 1047poe    c23 8235   3.015   2.396   2.371 -0.0037 -0.5435 -0.2225
 1047poe    c23 8236   2.903   2.396   2.476 -0.0763 -0.1273 -0.2981
 1047poe     o2 8237   2.890   2.266   2.531  0.3244 -0.2554 -0.5043
 1047poe    c23 8238   2.921   2.237   2.665 -0.6126  0.3431 -0.1433
 1047poe    c23 8239   2.839   2.113   2.703 -0.4288  0.1569 -0.3487
 1047poe     o2 8240   2.855   2.020   2.598 -0.2597  0.3423 -0.4856
 1047poe    c23 8241   2.821   1.889   2.638  0.0894  0.2913 -0.3478
 1047poe    c23 8242   2.918   1.791   2.570  0.2418  0.0881  0.1621
 1047poe     o2 8243   2.891   1.776   2.432 -0.2663  0.0616  0.2630
 1047poe    c31 8244   2.943   1.655   2.382 -0.4723  0.1717 -0.2178
 1048poe    c31 8245   5.813   5.846   5.879 -0.0292 -0.8471  0.0629
 1048poe     o2 8246   5.751   5.752   5.963 -0.3014  0.1065  0.9521
 1048poe    c23 8247   5.685   5.647   5.897  0.0059  0.4875  0.0327
 1048poe    c23 8248   5.624   5.537   5.986  0.3135 -0.1556 -0.5346
 1048poe     o2 8249   5.731   5.488   6.064  0.1258 -0.3143 -0.3761
 1048poe    c23 8250   5.692   5.424   6.184 -0.1795  0.0759 -0.2643
 1048poe    c23 8251   5.625   5.511   6.292 -0.6315 -0.0299 -0.4527
 1048poe     o2 8252   5.677   5.642   6.281  0.1650 -0.2880  0.0889
 1048poe    c23 8253   5.593   5.728   6.354  0.1140  0.1756 -0.5161
 1048poe    c23 8254   5.673   5.859   6.343  0.2032  0.2119  0.4748
 1048poe     o2 8255   5.720   5.881   6.212 -0.2643 -0.1575  0.2422
 1048poe    c31 8256   5.798   5.998   6.216  0.4137 -0.6034  0.3153
 1049poe    c31 8257   2.276   4.218   1.341 -0.1218  0.4988  0.1369
 1049poe     o2 8258   2.401   4.273   1.305  0.1249 -0.0021  0.2308
 1049poe    c23 8259   2.402   4.386   1.221  0.6301 -0.2232 -0.0676
 1049poe    c23 8260   2.545   4.435   1.194  0.2221  0.9512 -0.1400
 1049poe     o2 8261   2.603   4.431   1.323  0.1974  0.2613 -0.1464
 1049poe    c23 8262   2.718   4.513   1.333 -0.1656  0.7173  0.3753
 1049poe    c23 8263   2.797   4.491   1.463 -0.1925 -0.4922  0.2014
 1049poe     o2 8264   2.852   4.362   1.482  0.2450 -0.3571 -0.1230
 1049poe    c23 8265   2.980   4.350   1.425  0.3613  0.6741 -0.1017
 1049poe    c23 8266   3.050   4.214   1.443 -0.1391  0.4116 -0.1190
 1049poe     o2 8267   3.162   4.199   1.358 -0.2571 -0.4691 -0.1229
 1049poe    c31 8268   3.222   4.075   1.388 -0.3799 -0.5523 -0.2194
 1050poe    c31 8269   2.762   3.569   6.180  0.5570  0.0469  0.4918
 1050poe     o2 8270   2.738   3.465   6.088 -0.2349  0.4578  0.2216
 1050poe    c23 8271   2.623   3.395   6.131  0.3038 -0.3236  0.4176
 1050poe    c23 8272   2.654   3.262   6.060  0.0293 -0.1932  0.0525
 1050poe     o2 8273   2.670   3.283   5.921  0.1370  0.1966  0.1204
 1050poe    c23 8274   2.649   3.160   5.855  0.2816  0.0782  0.2939
 1050poe    c23 8275   2.621   3.167   5.704  0.1344  0.3853  0.3348
 1050poe     o2 8276   2.740   3.201   5.637  0.3053 -0.4513  0.2031
 1050poe    c23 8277   2.713   3.264   5.513  0.2550 -0.5837  0.1469
 1050poe    c23 8278   2.849   3.295   5.448  0.1182  0.1243  0.1935
 1050poe     o2 8279   2.921   3.174   5.437  0.1275  0.0868  0.6352
 1050poe    c31 8280   3.031   3.188   5.349  0.1657 -0.0149  0.6664
 1051poe    c31 8281   5.790   2.063   5.824 -0.1157 -0.0746  0.1362
 1051poe     o2 8282   5.694   1.997   5.903  0.1799 -0.6568  0.0145
 1051poe    c23 8283   5.595   1.948   5.814  0.1545  0.0138 -0.3324
 1051poe    c23 8284   5.490   1.866   5.890  0.2137  0.1505 -0.0994
 1051poe     o2 8285   5.467   1.931   6.013  0.1455  0.0666 -0.0678
 1051poe    c23 8286   5.393   1.845   6.096  0.3231 -0.1229 -0.1046
 1051poe    c23 8287   5.346   1.931   6.215  0.2369  0.0823 -0.2862
 1051poe     o2 8288   5.458   2.005   6.258  0.2167 -0.1561  0.1747
 1051poe    c23 8289   5.428   2.074   6.377 -0.3074  0.2469 -0.1912
 1051poe    c23 8290   5.546   2.138   6.452 -0.3666  0.0783  0.0486
 1051poe     o2 8291   5.583   2.252   6.377 -0.2284 -0.3195 -0.4869
 1051poe    c31 8292   5.693   2.309   6.443 -0.4313 -0.9007  0.3612
 1052poe    c31 8293   1.715   2.421   4.374 -0.6327 -0.4781 -0.1081
 1052poe     o2 8294   1.615   2.446   4.471 -0.3728 -0.3497  0.1278
 1052poe    c23 8295   1.500   2.479   4.397 -0.2337  0.0860  0.1027
 1052poe    c23 8296   1.375   2.462   4.485 -0.2325 -0.0118  0.0848
 1052poe     o2 8297   1.359   2.557   4.588  0.0372 -0.1528  0.2562
 1052poe    c23 8298   1.222   2.566   4.619 -0.1015  0.1454 -0.4302
 1052poe    c23 8299   1.208   2.624   4.761  0.1137  0.7005 -0.6338
 1052poe     o2 8300   1.260   2.755   4.754 -0.0069  0.7452 -0.7042
 1052poe    c23 8301   1.241   2.820   4.878  0.1382  0.1177 -0.3476
 1052poe    c23 8302   1.345   2.933   4.870  0.3418 -0.0476 -0.0739
 1052poe     o2 8303   1.469   2.872   4.841  0.4752  0.1451  0.0876
 1052poe    c31 8304   1.566   2.936   4.920  0.4626  0.4239 -0.1204
 1053poe    c31 8305   6.487   5.516   0.914 -0.5293 -0.1590 -0.2192
 1053poe     o2 8306   6.428   5.389   0.932  0.3250 -0.4713  0.5056
 1053poe    c23 8307   6.532   5.296   0.952  0.3776 -0.5062  0.0911
 1053poe    c23 8308   6.472   5.156   0.970  0.2018 -0.4061  0.2963
 1053poe     o2 8309   6.359   5.146   0.885  0.4132 -0.0364 -0.0326
 1053poe    c23 8310   6.304   5.017   0.874  0.6156 -0.1259  0.0113
 1053poe    c23 8311   6.208   5.026   0.754  0.5474  0.2248  0.0911
 1053poe     o2 8312   6.138   5.149   0.754 -0.1048 -0.1388 -0.1395
 1053poe    c23 8313   6.001   5.143   0.724 -0.2777 -0.0929  0.6282
 1053poe    c23 8314   5.928   5.277   0.707 -0.2538 -0.1475  0.0785
 1053poe     o2 8315   5.924   5.340   0.834 -0.3121  0.0118 -0.0016
 1053poe    c31 8316   5.821   5.436   0.839 -0.1531  0.1977 -0.2215
 1054poe    c31 8317   0.492   5.380   1.442 -0.0435 -0.7665 -0.6438
 1054poe     o2 8318   0.371   5.353   1.511  0.1219  0.5108  0.1675
 1054poe    c23 8319   0.392   5.313   1.644 -0.5706 -0.0984  0.0977
 1054poe    c23 8320   0.271   5.256   1.719 -0.4253 -0.3199  0.1677
 1054poe     o2 8321   0.161   5.320   1.659 -0.2129 -0.1929 -0.0854
 1054poe    c23 8322   0.039   5.252   1.679 -0.1180 -0.2184  0.4007
 1054poe    c23 8323  -0.076   5.327   1.610  0.2434  0.0087  0.0438
 1054poe     o2 8324  -0.046   5.367   1.478 -0.6351 -0.4965 -0.3247
 1054poe    c23 8325  -0.154   5.435   1.418 -0.5818 -0.2607 -0.1584
 1054poe    c23 8326  -0.109   5.527   1.304 -0.8533 -0.2537 -0.2607
 1054poe     o2 8327  -0.031   5.631   1.359 -0.5140 -0.4783 -0.3144
 1054poe    c31 8328   0.007   5.736   1.274 -0.5631 -0.5570 -0.4330
 1055poe    c31 8329   3.440   2.508   5.298  0.0734  0.0688  0.2918
 1055poe     o2 8330   3.484   2.582   5.410  0.1321  0.4400  0.0264
 1055poe    c23 8331   3.621   2.612   5.399  0.1792  0.2589  0.1158
 1055poe    c23 8332   3.676   2.677   5.527  0.4124  0.9342 -0.3220
 1055poe     o2 8333   3.562   2.724   5.595  0.2036  0.0978 -0.0763
 1055poe    c23 8334   3.596   2.769   5.724 -0.0181 -0.4513  0.1779
 1055poe    c23 8335   3.467   2.800   5.801  0.2652 -0.0456  0.4977
 1055poe     o2 8336   3.387   2.683   5.801  0.1642  0.0221 -0.2492
 1055poe    c23 8337   3.279   2.696   5.890  0.9011  0.5893  0.5744
 1055poe    c23 8338   3.231   2.554   5.928  0.2975  0.4496 -0.6767
 1055poe     o2 8339   3.177   2.469   5.830 -0.0799 -0.3315  0.2021
 1055poe    c31 8340   3.042   2.493   5.797 -0.0822  0.1876  0.5907
 1056poe    c31 8341   5.985   1.287   5.114  0.5647 -0.4521  0.5043
 1056poe     o2 8342   5.967   1.426   5.096 -0.3598 -0.6124  0.1727
 1056poe    c23 8343   5.833   1.442   5.054 -0.1235 -0.2941 -0.4727
 1056poe    c23 8344   5.775   1.585   5.056 -0.5595 -0.4751  0.3866
 1056poe     o2 8345   5.874   1.652   4.981 -0.4157 -0.2634  0.7605
 1056poe    c23 8346   5.900   1.787   5.012  0.0268 -0.0981 -0.2849
 1056poe    c23 8347   6.045   1.827   4.980 -0.0115 -0.2038 -0.5989
 1056poe     o2 8348   6.123   1.748   5.066 -0.4335  0.3473  0.3060
 1056poe    c23 8349   6.260   1.778   5.051 -0.3783  0.0193  0.1444
 1056poe    c23 8350   6.316   1.666   5.141 -0.2564  0.1663  0.2507
 1056poe     o2 8351   6.256   1.545   5.103 -0.5644  0.4083 -0.0333
 1056poe    c31 8352   6.346   1.437   5.107 -0.9223  0.0967 -0.2660
 1057poe    c31 8353   2.842   2.275   4.064  0.2738  0.7777  0.6825
 1057poe     o2 8354   2.734   2.239   4.147  0.1395 -0.1109  0.1373
 1057poe    c23 8355   2.635   2.185   4.062 -0.1769  0.4778  0.1265
 1057poe    c23 8356   2.498   2.216   4.126 -0.3934  0.0875 -0.1470
 1057poe     o2 8357   2.466   2.139   4.240 -0.7390  0.6763  0.1527
 1057poe    c23 8358   2.327   2.121   4.257 -0.6560 -0.3838 -0.2467
 1057poe    c23 8359   2.306   2.010   4.360  0.4759 -0.3445  0.0474
 1057poe     o2 8360   2.383   2.055   4.469 -0.0544 -0.0548  0.3093
 1057poe    c23 8361   2.365   1.972   4.581 -0.5006  0.1466  0.3873
 1057poe    c23 8362   2.440   2.034   4.700  0.4786 -1.0064  0.3834
 1057poe     o2 8363   2.568   2.077   4.658  0.0648 -0.2609 -0.1305
 1057poe    c31 8364   2.652   2.119   4.763 -0.2847  0.6714 -0.2120
 1058poe    c31 8365   0.465   6.245   3.929  0.1043  0.4618 -0.2895
 1058poe     o2 8366   0.384   6.313   4.022 -0.1059 -0.7081  0.4126
 1058poe    c23 8367   0.247   6.286   3.997 -0.1718 -0.0555  0.0433
 1058poe    c23 8368   0.165   6.397   4.065 -0.0628 -0.3323  0.6263
 1058poe     o2 8369   0.245   6.512   4.071 -0.1011 -0.2869  0.2278
 1058poe    c23 8370   0.173   6.627   4.111  0.8259  0.3634  0.0730
 1058poe    c23 8371   0.278   6.738   4.090  0.1811  0.8351 -0.7132
 1058poe     o2 8372   0.402   6.678   4.121 -0.3618  0.0910  0.0942
 1058poe    c23 8373   0.505   6.745   4.052 -0.3409 -0.0907 -0.0515
 1058poe    c23 8374   0.630   6.659   4.078 -0.3409 -0.2326 -0.5178
 1058poe     o2 8375   0.598   6.522   4.060 -0.0748 -0.2862 -0.5936
 1058poe    c31 8376   0.720   6.454   4.082 -0.2128 -0.4375 -0.2991
 1059poe    c31 8377   3.888   2.754   3.752  0.4598 -0.5362  0.2342
 1059poe     o2 8378   3.900   2.877   3.820  0.1204 -0.5224  0.2702
 1059poe    c23 8379   4.004   2.950   3.758  0.1946 -0.4379  0.4936
 1059poe    c23 8380   4.013   3.099   3.796 -0.1059 -0.2359 -0.2035
 1059poe     o2 8381   3.904   3.181   3.762 -0.1370 -0.3549 -0.3949
 1059poe    c23 8382   3.915   3.306   3.825 -0.2766 -0.2267 -0.6249
 1059poe    c23 8383   3.780   3.382   3.829 -0.0657  0.1328 -0.1208
 1059poe     o2 8384   3.687   3.299   3.894  0.0185  0.6722  0.6971
 1059poe    c23 8385   3.560   3.350   3.925 -0.3294  0.1561  0.1339
 1059poe    c23 8386   3.462   3.244   3.980 -0.5231  0.4152  0.2910
 1059poe     o2 8387   3.469   3.138   3.888  0.2971  0.4400  0.3135
 1059poe    c31 8388   3.385   3.030   3.923  0.3676  0.2687 -0.0375
 1060poe    c31 8389   6.289   5.778   3.462  0.0227  0.0759 -0.0917
 1060poe     o2 8390   6.206   5.673   3.505 -0.1629  0.3922  0.3358
 1060poe    c23 8391   6.179   5.696   3.641 -0.1066  0.4133  0.3431
 1060poe    c23 8392   6.091   5.578   3.686 -0.0918  0.1101 -0.4081
 1060poe     o2 8393   5.986   5.581   3.591 -0.3675 -0.2805 -0.1217
 1060poe    c23 8394   5.908   5.464   3.602 -0.4455 -0.1584  0.7250
 1060poe    c23 8395   5.788   5.462   3.506  0.2219  0.3027 -0.1336
 1060poe     o2 8396   5.836   5.533   3.394  0.3261  0.2427 -0.1274
 1060poe    c23 8397   5.735   5.535   3.296  0.3581 -0.2592 -0.1770
 1060poe    c23 8398   5.752   5.638   3.182  0.4417  0.0729  0.1370
 1060poe     o2 8399   5.758   5.773   3.225  0.3104 -0.0839  0.6653
 1060poe    c31 8400   5.795   5.848   3.111  0.1307 -0.8603  0.0868
 1061poe    c31 8401   1.585   4.837   6.285 -0.1081  0.6509 -0.4153
 1061poe     o2 8402   1.579   4.728   6.197  0.1903  0.1432  0.1901
 1061poe    c23 8403   1.652   4.750   6.078 -0.4545  0.0946 -0.2191
 1061poe    c23 8404   1.586   4.652   5.979  0.0954 -0.4047 -0.0972
 1061poe     o2 8405   1.555   4.529   6.040 -0.0896 -0.1057  0.4184
 1061poe    c23 8406   1.483   4.445   5.953  0.3196  0.1928 -0.2153
 1061poe    c23 8407   1.464   4.311   6.027 -0.1317  0.2193 -0.2844
 1061poe     o2 8408   1.447   4.343   6.163  0.3902  0.3241 -0.2425
 1061poe    c23 8409   1.437   4.225   6.238 -0.0747  0.1679 -0.5466
 1061poe    c23 8410   1.386   4.244   6.382  0.2952 -0.7397 -0.2871
 1061poe     o2 8411   1.465   4.320   6.471  0.0893 -0.3532 -0.4343
 1061poe    c31 8412   1.440   4.319   6.610  0.1020  0.5401 -0.4143
 1062poe    c31 8413   0.116   5.945   3.648 -0.2316  0.4825 -0.8683
 1062poe     o2 8414   0.249   5.898   3.636 -0.0700  0.6717  0.1203
 1062poe    c23 8415   0.313   5.910   3.761  0.3331  0.5286 -0.0740
 1062poe    c23 8416   0.462   5.872   3.749  0.0853 -0.5926  0.2878
 1062poe     o2 8417   0.530   5.956   3.659  0.0711 -0.3785  0.4737
 1062poe    c23 8418   0.668   5.929   3.670  0.2058  0.2084  0.2446
 1062poe    c23 8419   0.748   5.977   3.548  0.1447  0.5294  0.3286
 1062poe     o2 8420   0.676   5.957   3.428 -0.1355  0.1685  0.5536
 1062poe    c23 8421   0.761   5.984   3.318  0.0137 -0.2052  0.5749
 1062poe    c23 8422   0.685   5.958   3.186  0.0815 -0.0592  0.5070
 1062poe     o2 8423   0.555   6.012   3.193 -0.0532 -0.2806 -0.2305
 1062poe    c31 8424   0.527   6.078   3.071  0.1504  0.0768 -0.0876
 1063poe    c31 8425   2.444   0.260   1.783  0.2187  0.4185  0.5221
 1063poe     o2 8426   2.409   0.240   1.648  0.0347 -0.1116  0.6475
 1063poe    c23 8427   2.306   0.150   1.611 -0.0369  0.1998  0.0852
 1063poe    c23 8428   2.329   0.128   1.460 -0.2916  0.3561  0.0239
 1063poe     o2 8429   2.387   0.245   1.406  0.4567  0.1370  0.3480
 1063poe    c23 8430   2.397   0.233   1.266  0.0821 -0.3311  0.3576
 1063poe    c23 8431   2.414   0.370   1.197  0.2899 -0.7630 -0.4656
 1063poe     o2 8432   2.547   0.408   1.225  0.1018 -0.4061 -0.0475
 1063poe    c23 8433   2.560   0.545   1.194  0.3567 -0.4653 -0.2028
 1063poe    c23 8434   2.705   0.575   1.237  0.3251 -0.3131 -0.2017
 1063poe     o2 8435   2.727   0.586   1.376  0.2156 -0.5602 -0.1647
 1063poe    c31 8436   2.840   0.663   1.412 -0.4335  0.5644 -0.4790
 1064poe    c31 8437   0.401   1.651   3.691  0.0756  0.6739 -0.4924
 1064poe     o2 8438   0.349   1.645   3.560  0.2855 -0.3111 -0.5364
 1064poe    c23 8439   0.284   1.768   3.541  0.1401 -0.2785  0.1316
 1064poe    c23 8440   0.257   1.786   3.390 -0.1678 -0.0998  0.2080
 1064poe     o2 8441   0.381   1.756   3.330 -0.1982  0.1129  0.0371
 1064poe    c23 8442   0.371   1.738   3.191  0.0984 -0.2668  0.0658
 1064poe    c23 8443   0.508   1.715   3.123 -0.1912 -0.6082 -0.4036
 1064poe     o2 8444   0.576   1.615   3.195  0.4897  0.1918  0.0724
 1064poe    c23 8445   0.692   1.585   3.119 -0.3349 -0.0895 -1.1096
 1064poe    c23 8446   0.761   1.458   3.173 -0.4569  0.1429 -0.3856
 1064poe     o2 8447   0.820   1.477   3.300 -1.2060  0.2793 -0.0550
 1064poe    c31 8448   0.864   1.355   3.354  0.0353  0.5767 -0.3544
 1065poe    c31 8449   2.189   3.001   1.311 -0.0819  0.0039  0.0677
 1065poe     o2 8450   2.124   3.049   1.195  0.0233 -0.0288 -0.0058
 1065poe    c23 8451   2.010   2.970   1.166  0.1172 -0.1673  0.0023
 1065poe    c23 8452   1.966   3.005   1.023 -0.1948  0.6055  0.2822
 1065poe     o2 8453   1.968   3.146   1.011 -0.1618  0.5620 -0.2773
 1065poe    c23 8454   1.975   3.178   0.874  0.2918 -0.1779 -0.4352
 1065poe    c23 8455   2.000   3.329   0.858  0.6458 -0.2003 -0.1162
 1065poe     o2 8456   2.113   3.354   0.939  0.1502 -0.2107  0.5813
 1065poe    c23 8457   2.140   3.492   0.937  0.0112 -0.1862  0.4056
 1065poe    c23 8458   2.208   3.560   1.057  0.2740  0.4804 -0.1076
 1065poe     o2 8459   2.128   3.554   1.174  0.4398  0.0930 -0.0111
 1065poe    c31 8460   2.182   3.641   1.271  0.0009 -0.1556  0.4543
 1066poe    c31 8461   5.141   4.806   3.378  0.6580 -0.0266 -0.0341
 1066poe     o2 8462   5.221   4.690   3.393  0.0810 -0.4518 -0.1798
 1066poe    c23 8463   5.133   4.582   3.416 -0.2667 -0.0668  0.3226
 1066poe    c23 8464   5.209   4.456   3.460  0.0336  0.0812  0.2324
 1066poe     o2 8465   5.307   4.473   3.561  0.1811  0.4715  0.0254
 1066poe    c23 8466   5.344   4.347   3.612  0.0845  0.0765 -0.8573
 1066poe    c23 8467   5.421   4.354   3.745 -0.3187 -0.0601 -0.6146
 1066poe     o2 8468   5.530   4.442   3.726  0.1558 -0.4672  0.1795
 1066poe    c23 8469   5.596   4.468   3.848 -0.1861 -0.4100  0.3539
 1066poe    c23 8470   5.694   4.582   3.814 -0.3019 -0.3118  0.3521
 1066poe     o2 8471   5.628   4.673   3.729  0.0901  0.2422  0.6382
 1066poe    c31 8472   5.719   4.767   3.678  0.1576 -0.0906  0.1410
 1067poe    c31 8473   5.965   5.479   2.231  0.0757 -0.1553 -0.4672
 1067poe     o2 8474   5.826   5.503   2.220  0.0301 -0.0614  0.2294
 1067poe    c23 8475   5.770   5.408   2.131 -0.1430  0.1842  0.0756
 1067poe    c23 8476   5.617   5.400   2.117 -0.1454  0.1693  0.1041
 1067poe     o2 8477   5.567   5.520   2.063  0.4149  0.5307  0.3756
 1067poe    c23 8478   5.434   5.549   2.101  0.0894 -0.0553 -0.3051
 1067poe    c23 8479   5.386   5.682   2.042 -0.5137 -0.0493  0.1881
 1067poe     o2 8480   5.469   5.792   2.073 -0.0331 -0.4525  0.3343
 1067poe    c23 8481   5.399   5.912   2.049  0.1011 -0.3629  0.3869
 1067poe    c23 8482   5.501   6.013   2.102  0.1159  0.0407 -0.3923
 1067poe     o2 8483   5.635   5.974   2.085  0.1225  0.0111 -0.2721
 1067poe    c31 8484   5.719   6.057   2.163 -0.1984 -0.2263  0.3293
 1068poe    c31 8485   0.829   3.728   1.065  0.5758  0.3458  0.6630
 1068poe     o2 8486   0.743   3.729   1.177 -0.7208 -0.2330 -0.2976
 1068poe    c23 8487   0.817   3.703   1.294 -0.4444 -0.3292 -0.4932
 1068poe    c23 8488   0.720   3.724   1.411 -0.2668 -0.4431 -0.3244
 1068poe     o2 8489   0.598   3.661   1.379 -0.5370 -0.4886  0.7539
 1068poe    c23 8490   0.497   3.707   1.467 -0.5502  0.3458  0.3213
 1068poe    c23 8491   0.367   3.665   1.397 -0.0701 -0.2933 -0.2089
 1068poe     o2 8492   0.381   3.696   1.260 -0.6898 -0.3652 -0.2936
 1068poe    c23 8493   0.294   3.631   1.170 -0.4297  0.2566 -1.0061
 1068poe    c23 8494   0.368   3.511   1.109  0.0443 -0.0768  0.1907
 1068poe     o2 8495   0.500   3.557   1.092  0.0882 -0.1436  0.3480
 1068poe    c31 8496   0.559   3.487   0.985  0.5374  0.4440  0.2044
 1069poe    c31 8497   0.497   3.348   3.838 -0.2060  0.5405  0.1357
 1069poe     o2 8498   0.585   3.401   3.741 -0.5643 -0.1595 -0.5837
 1069poe    c23 8499   0.671   3.300   3.692 -0.4279 -0.1286 -0.4085
 1069poe    c23 8500   0.764   3.355   3.583 -0.0328 -0.6602 -0.3413
 1069poe     o2 8501   0.677   3.433   3.504 -0.0222 -0.3383 -0.0394
 1069poe    c23 8502   0.746   3.468   3.386  0.0683  0.2117  0.1752
 1069poe    c23 8503   0.657   3.557   3.296 -0.0079 -0.0504 -0.0103
 1069poe     o2 8504   0.599   3.666   3.364  0.4574  0.4482 -0.4084
 1069poe    c23 8505   0.503   3.738   3.291  0.0465  0.0906 -0.2226
 1069poe    c23 8506   0.373   3.678   3.234  0.0083  0.2442 -0.3000
 1069poe     o2 8507   0.292   3.615   3.330  0.4371 -0.4509 -0.3835
 1069poe    c31 8508   0.173   3.561   3.276  0.3346 -0.5853 -0.0281
 1070poe    c31 8509   3.964   4.345   5.111  0.1150 -0.5737 -0.3329
 1070poe     o2 8510   3.844   4.315   5.178  0.1290  0.2857  0.0956
 1070poe    c23 8511   3.754   4.286   5.074 -0.0363  0.3084  0.2312
 1070poe    c23 8512   3.612   4.306   5.129 -0.0816  0.3263  0.1091
 1070poe     o2 8513   3.601   4.398   5.236  0.1611  0.4371  0.0368
 1070poe    c23 8514   3.475   4.389   5.298  0.2253 -0.2641  0.0734
 1070poe    c23 8515   3.484   4.485   5.417  0.2525  0.4363 -0.4882
 1070poe     o2 8516   3.613   4.457   5.466 -0.2024 -0.0731  0.4456
 1070poe    c23 8517   3.671   4.568   5.530  0.4772  0.0742 -0.4123
 1070poe    c23 8518   3.821   4.536   5.544  0.3355 -0.1100  0.7590
 1070poe     o2 8519   3.872   4.492   5.420 -0.5597  0.4811  0.1688
 1070poe    c31 8520   4.012   4.504   5.432 -0.4599  0.0979 -0.5675
 1071poe    c31 8521   5.665   3.345   4.691  0.0000  0.2879  0.4568
 1071poe     o2 8522   5.735   3.243   4.759 -0.1305  0.0359  0.2117
 1071poe    c23 8523   5.842   3.189   4.685  0.1702  0.0154  0.6588
 1071poe    c23 8524   5.831   3.044   4.635  0.2645  0.1452  0.2581
 1071poe     o2 8525   5.813   2.947   4.735 -0.3594 -0.0330 -0.0186
 1071poe    c23 8526   5.846   2.814   4.704 -0.3434 -0.1759  0.5836
 1071poe    c23 8527   5.859   2.724   4.828  0.0302 -0.4062  0.3783
 1071poe     o2 8528   5.740   2.743   4.901 -0.0340 -0.2515  0.2316
 1071poe    c23 8529   5.754   2.678   5.025  0.0044 -0.3326  0.1845
 1071poe    c23 8530   5.623   2.715   5.097 -0.1158 -0.2031 -0.0975
 1071poe     o2 8531   5.606   2.854   5.110 -0.3793 -0.2091 -0.3696
 1071poe    c31 8532   5.520   2.881   5.217  0.2500  0.1766  0.0437
 1072poe    c31 8533   5.941   2.829   3.049  0.4281  0.2922 -0.4245
 1072poe     o2 8534   5.814   2.877   3.012 -0.0687 -0.1841  0.6073
 1072poe    c23 8535   5.830   2.979   2.916  0.1335 -0.1786  0.6466
 1072poe    c23 8536   5.687   3.026   2.885  0.0969 -0.4038  0.4801
 1072poe     o2 8537   5.603   2.914   2.868 -0.4150  0.0745 -0.1869
 1072poe    c23 8538   5.475   2.956   2.824 -0.2178  0.6126 -0.2587
 1072poe    c23 8539   5.386   2.833   2.851  0.4120  0.2292  0.1003
 1072poe     o2 8540   5.414   2.775   2.976 -0.0069 -0.1390  0.0264
 1072poe    c23 8541   5.408   2.635   2.962  0.2318 -0.1152 -0.3116
 1072poe    c23 8542   5.509   2.566   3.056  0.0963  0.3164  0.1524
 1072poe     o2 8543   5.637   2.624   3.043 -0.0592  0.5696 -0.2605
 1072poe    c31 8544   5.739   2.529   3.067 -0.2075  0.4604 -0.0664
 1073poe    c31 8545   1.461   5.852   5.827  0.5014 -0.2848  0.1101
 1073poe     o2 8546   1.596   5.854   5.866  0.4243  0.0224  0.3635
 1073poe    c23 8547   1.675   5.866   5.750  0.0717 -0.3445  0.0808
 1073poe    c23 8548   1.814   5.805   5.779 -0.0958 -0.8189 -0.1191
 1073poe     o2 8549   1.847   5.860   5.905  0.6924 -0.4130 -0.4992
 1073poe    c23 8550   1.978   5.838   5.950  0.4617  0.0174  0.4031
 1073poe    c23 8551   1.978   5.902   6.090 -0.1864  0.7369  0.0800
 1073poe     o2 8552   1.851   5.867   6.140 -0.2884 -0.4043 -0.9523
 1073poe    c23 8553   1.855   5.768   6.240  0.4288  0.3016 -0.2727
 1073poe    c23 8554   1.713   5.710   6.253  0.6477 -0.3040 -0.5363
 1073poe     o2 8555   1.658   5.711   6.123  0.4310 -0.1629 -0.4441
 1073poe    c31 8556   1.532   5.647   6.116  0.1897  0.3246 -0.5785
 1074poe    c31 8557   6.364   4.252   3.001 -0.0515 -0.5037  0.4507
 1074poe     o2 8558   6.238   4.315   2.997  0.1699 -0.1206 -0.5920
 1074poe    c23 8559   6.215   4.399   3.107  0.0872 -0.3952 -0.3970
 1074poe    c23 8560   6.083   4.472   3.079  0.1770 -0.0322  0.0986
 1074poe     o2 8561   6.076   4.499   2.940  0.2324  0.0859  0.1188
 1074poe    c23 8562   5.974   4.579   2.887  0.0360 -0.4107 -0.2590
 1074poe    c23 8563   6.009   4.610   2.740  0.8744  0.3040  0.0775
 1074poe     o2 8564   6.037   4.487   2.676 -0.3633 -0.1879  0.4385
 1074poe    c23 8565   6.066   4.501   2.539  0.5445  0.3709  0.6774
 1074poe    c23 8566   6.129   4.381   2.466  0.3081  0.6052  0.0717
 1074poe     o2 8567   6.265   4.358   2.498  0.2413 -0.1925 -0.2110
 1074poe    c31 8568   6.315   4.236   2.448 -0.7335 -0.6252 -0.1575
 1075poe    c31 8569   5.132   6.195   4.528  0.4553  0.5377 -0.2860
 1075poe     o2 8570   5.076   6.288   4.616  0.0598 -0.3850  0.4536
 1075poe    c23 8571   4.940   6.258   4.639 -0.2193  0.3535 -0.1789
 1075poe    c23 8572   4.884   6.366   4.734  0.2268  0.4385 -0.0116
 1075poe     o2 8573   4.951   6.487   4.706  0.7945  0.1581  0.1023
 1075poe    c23 8574   4.952   6.580   4.812  0.0606  0.2820  0.0086
 1075poe    c23 8575   5.022   6.703   4.750 -0.2745  0.1764 -0.5906
 1075poe     o2 8576   5.127   6.652   4.671  0.4426 -0.2151  0.5817
 1075poe    c23 8577   5.188   6.753   4.595  0.4074 -0.4699  0.2124
 1075poe    c23 8578   5.181   6.697   4.451 -0.0849  0.4214 -0.1198
 1075poe     o2 8579   5.201   6.559   4.468 -0.0697  0.4460  0.0699
 1075poe    c31 8580   5.207   6.502   4.339 -0.1222  0.3205  0.1230
 1076poe    c31 8581   3.438   1.945   4.031 -0.2349 -0.0234  0.7059
 1076poe     o2 8582   3.349   1.918   4.136 -0.4960 -0.0697  0.4737
 1076poe    c23 8583   3.400   1.951   4.264 -0.6644  0.3961  0.4245
 1076poe    c23 8584   3.310   2.048   4.342 -0.4011  0.8507  0.1660
 1076poe     o2 8585   3.184   2.000   4.384 -0.3289 -0.1664 -0.7496
 1076poe    c23 8586   3.118   2.112   4.438  0.6187 -0.0947  0.2949
 1076poe    c23 8587   3.014   2.050   4.533  0.0501 -0.1909 -0.3848
 1076poe     o2 8588   2.945   1.957   4.452 -0.5521 -0.1504  0.0715
 1076poe    c23 8589   2.848   1.890   4.529 -0.8301  0.2354  0.0638
 1076poe    c23 8590   2.795   1.782   4.432 -0.3118 -0.2753  0.3431
 1076poe     o2 8591   2.892   1.718   4.352 -0.3027 -0.2551  0.3380
 1076poe    c31 8592   2.855   1.592   4.301  0.0269 -0.6719  1.1268
 1077poe    c31 8593   3.652   6.780   1.178  0.1239 -0.5767 -0.2066
 1077poe     o2 8594   3.554   6.679   1.170 -0.1006 -0.3910  0.2057
 1077poe    c23 8595   3.451   6.695   1.265 -0.3613  0.4737 -0.2121
 1077poe    c23 8596   3.334   6.613   1.210 -0.0204 -0.2873  0.1833
 1077poe     o2 8597   3.403   6.497   1.169  0.6353  0.3187 -0.4687
 1077poe    c23 8598   3.313   6.401   1.118  0.2977  0.1952  0.3328
 1077poe    c23 8599   3.410   6.285   1.091  0.0082 -0.0642  0.3983
 1077poe     o2 8600   3.516   6.336   1.012 -0.4620 -0.0892 -0.2525
 1077poe    c23 8601   3.580   6.228   0.948  0.4663  0.1396  0.2707
 1077poe    c23 8602   3.616   6.248   0.800  0.7654 -0.2736  0.2853
 1077poe     o2 8603   3.681   6.371   0.775  0.4836 -0.2633 -0.4173
 1077poe    c31 8604   3.745   6.375   0.649 -0.0007  0.2816 -0.6512
 1078poe    c31 8605   3.181   2.215   1.164 -0.1010 -0.0398  0.3033
 1078poe     o2 8606   3.291   2.127   1.162  0.1412  0.2677 -0.2501
 1078poe    c23 8607   3.285   2.019   1.253  0.1887 -0.1084 -0.6842
 1078poe    c23 8608   3.396   1.917   1.224  0.1039 -0.4695  0.2299
 1078poe     o2 8609   3.511   1.999   1.219 -0.0476 -0.2648  0.0946
 1078poe    c23 8610   3.636   1.938   1.194  0.3229  0.4171  0.2720
 1078poe    c23 8611   3.739   2.050   1.219  0.4482  0.1647  0.9111
 1078poe     o2 8612   3.688   2.167   1.160  0.2362 -0.1528  0.4598
 1078poe    c23 8613   3.794   2.258   1.142  0.2602 -0.2863 -0.0886
 1078poe    c23 8614   3.818   2.348   1.264 -0.0026 -0.2613 -0.0562
 1078poe     o2 8615   3.704   2.430   1.284  0.1512 -0.1198  0.2588
 1078poe    c31 8616   3.733   2.551   1.350  0.0280  0.5496 -0.8752
 1079poe    c31 8617   4.488   2.725   1.280 -0.2091  0.2616  1.0235
 1079poe     o2 8618   4.385   2.753   1.189  0.4378 -0.2126  0.1315
 1079poe    c23 8619   4.331   2.631   1.140 -0.3259  0.1801 -0.0211
 1079poe    c23 8620   4.232   2.667   1.027 -0.4462  0.7281  0.2533
 1079poe     o2 8621   4.159   2.772   1.087 -0.1474  0.6370  0.7878
 1079poe    c23 8622   4.038   2.784   1.016  0.2255  0.2674  0.0729
 1079poe    c23 8623   3.925   2.849   1.099  0.0297 -0.2699  0.2319
 1079poe     o2 8624   3.954   2.985   1.125 -0.3894 -0.2402  0.5471
 1079poe    c23 8625   3.875   3.043   1.227  0.0733  0.3454  0.5734
 1079poe    c23 8626   3.942   3.167   1.290  0.4553  0.1794  0.4952
 1079poe     o2 8627   4.066   3.124   1.343  0.5928 -0.2251 -0.1307
 1079poe    c31 8628   4.136   3.239   1.384 -0.3832  0.1684  0.4751
 1080poe    c31 8629   2.517   3.180   5.167  0.0643  0.2092  0.4776
 1080poe     o2 8630   2.507   3.041   5.182 -0.3519  0.1823 -0.0354
 1080poe    c23 8631   2.443   3.017   5.306 -0.1035 -0.9304 -0.1085
 1080poe    c23 8632   2.471   2.872   5.349 -0.0806 -0.7883  0.3655
 1080poe     o2 8633   2.382   2.812   5.257 -0.6620  0.7745 -0.1290
 1080poe    c23 8634   2.408   2.676   5.227 -0.3491  0.6793  0.5484
 1080poe    c23 8635   2.529   2.663   5.133 -0.4453  0.4724  0.4535
 1080poe     o2 8636   2.516   2.762   5.033  0.2755  0.1550  0.0373
 1080poe    c23 8637   2.626   2.774   4.945  0.0111 -0.2594 -0.3568
 1080poe    c23 8638   2.573   2.877   4.842  0.2772  0.1481 -0.0892
 1080poe     o2 8639   2.507   2.983   4.908  0.1241 -0.1232  0.2011
 1080poe    c31 8640   2.474   3.092   4.825 -0.2244 -0.5831 -0.2733
 1081lim     li 8641   5.389   4.611   5.922  0.1386  0.6032  0.2230
 1082lim     li 8642   5.388   2.609   2.133 -0.4125  0.5070  0.2087
 1083lim     li 8643   5.083   6.257   5.326  0.2149 -0.8884 -0.2767
 1084lim     li 8644   5.678   5.255   2.977  1.0837 -0.3232  0.0088
 1085lim     li 8645   4.292   5.872   0.806 -0.2981  0.5339  0.1203
 1086lim     li 8646   1.426   2.736   4.705  0.5164 -0.0469  0.0816
 1087lim     li 8647   1.281   0.648   6.320  0.4274  0.0122 -1.1012
 1088lim     li 8648   5.971   1.151   3.614  1.1221 -0.9128 -0.0598
 1089lim     li 8649   5.960   0.844   0.923  0.6379  0.4293 -0.1913
 1090lim     li 8650   4.383   5.088   4.796  1.1438 -0.4353 -0.2025
 1091lim     li 8651   0.406   2.829   3.446  0.9243 -0.7083 -0.5630
 1092lim     li 8652   0.481   6.713   3.119  0.2133  0.4931 -0.3350
 1093lim     li 8653   0.857   2.586   3.877  0.9341 -0.0687  0.1325
 1094lim     li 8654   3.188   5.093   0.730 -0.1947 -0.4877 -0.1317
 1095lim     li 8655   4.011   1.715   4.056  0.6234 -0.5035  0.2054
 1096lim     li 8656   1.503   6.243   3.373  0.6013  0.7738  0.8154
 1097lim     li 8657   0.490   0.165   4.711  0.1028 -0.5029  0.3266
 1098lim     li 8658   6.122   4.103   3.857 -0.6881  0.3440  0.5858
 1099lim     li 8659   4.839   0.655   0.153  1.6338 -0.3108  1.0621
 1100lim     li 8660   1.708   5.844   6.018 -0.3072  0.7100  0.1150
 1101lim     li 8661   4.867   3.343   0.461 -0.1607 -1.1234  0.2155
 1102lim     li 8662   5.623   2.031   6.076 -0.0224  0.6433 -0.1615
 1103lim     li 8663   1.207   0.019   5.246 -0.0902  0.3344 -1.1393
 1104lim     li 8664   2.274   4.134   3.150 -1.5790  0.3897 -0.3045
 1105lim     li 8665   0.355   6.484   1.486 -0.3183  0.2784 -1.1816
 1106lim     li 8666   2.772   4.978   2.460 -0.3843 -0.8507 -0.0681
 1107lim     li 8667   1.876   5.273   2.267 -1.4874  0.0501 -0.1536
 1108lim     li 8668   3.510   1.825   2.210  0.1347  0.1033  0.2466
 1109lim     li 8669   0.610   1.534   1.312  0.2561  0.0325  0.1239
 1110lim     li 8670   4.973   1.763   5.268  0.7435 -0.2296  0.2839
 1111lim     li 8671   3.719   2.255   6.307 -0.2522  0.7068  0.8169
 1112lim     li 8672   5.690   6.056   3.623  0.2394 -0.5555  0.1628
 1113lim     li 8673   0.014   2.278   6.098  0.7156  0.4932  0.4707
 1114lim     li 8674   3.129   5.689   2.641  0.6132  0.4333  0.1941
 1115lim     li 8675   1.876   0.031   6.767  0.8442 -0.3200  0.3000
 1116lim     li 8676   0.209   3.987   3.708 -0.2551 -0.1828 -0.4927
 1117lim     li 8677   6.304   2.553   2.205 -0.0478 -0.5092  0.9958
 1118lim     li 8678   3.461   5.368   5.142 -0.5484  0.5812 -0.4224
 1119lim     li 8679   4.444   5.594   5.658 -0.0184 -0.9160 -0.6087
 1120lim     li 8680   0.474   5.184   5.145 -0.3387 -0.2888  0.4376
 1121lim     li 8681   2.839   2.566   6.473  0.6640 -0.0762 -0.2621
 1122lim     li 8682   0.514   6.004   3.360 -0.6872 -0.9356  0.8128
 1123lim     li 8683   4.341   2.282   5.502 -0.1747 -0.8352  0.0069
 1124lim     li 8684   0.132   6.031   5.109 -0.2771  0.1299  0.3634
 1125lim     li 8685   2.698   3.797   4.576  0.5229 -0.1978 -0.0127
 1126lim     li 8686   0.088   2.190   1.528  0.2344 -0.3480  0.1570
 1127lim     li 8687   5.750   4.931   0.120 -1.3604  0.0287  0.0736
 1128lim     li 8688   3.651   3.959   4.216  0.0719 -0.9685 -0.4985
 1129lim     li 8689   0.391   4.606   0.643  0.7907 -0.1054  0.1501
 1130lim     li 8690   4.520   5.121   2.826 -0.2719 -0.4750 -0.2103
 1131lim     li 8691   5.863   1.194   2.442 -0.6798  0.2692 -0.7422
 1132lim     li 8692   1.020   5.638   2.366  0.8245 -0.9039  0.5113
 1133lim     li 8693   0.329   2.954   5.999  0.4561  0.5273 -0.1219
 1134lim     li 8694   3.456   3.429   6.633  0.1798 -0.8734 -0.2764
 1135lim     li 8695   3.965   6.181   4.580 -1.0153  0.6606 -0.4572
 1136lim     li 8696   0.432   1.285   4.011 -0.1490  0.5144  0.8416
 1137lim     li 8697   0.616   4.833   1.979  0.3021  1.4558 -0.3785
 1138lim     li 8698   2.525   2.151   4.445 -0.8627 -0.2953 -0.4221
 1139lim     li 8699   5.893   2.492   3.630  0.7178  0.9267 -0.5892
 1140lim     li 8700   0.750   0.744   1.579  0.6922 -0.1399  0.3524
 1141lim     li 8701   0.440   6.683   2.389 -0.8945 -0.5254  0.1386
 1142lim     li 8702   5.141   1.028   3.022 -0.7702 -0.5473  0.2827
 1143lim     li 8703   4.314   0.063   0.757  0.2101  0.5392  0.4403
 1144lim     li 8704   1.410   0.639   2.782  0.7360 -0.2241 -0.3306
 1145lim     li 8705   5.655   5.799   2.095 -0.4287  0.9819  0.0828
 1146lim     li 8706   6.543   5.475   4.618  0.1743 -0.4406  0.1351
 1147lim     li 8707   6.069   3.509   6.584  0.0162  0.8878 -0.1670
 1148lim     li 8708   5.324   2.438   0.797 -0.1843  0.8008  0.5165
 1149lim     li 8709   1.273   0.183   4.184 -0.2627 -0.1269 -0.4959
 1150lim     li 8710   3.018   4.127   6.121 -0.0429  0.3649  0.0396
 1151lim     li 8711   3.657   0.561   5.840  0.3771  1.2343  0.0502
 1152lim     li 8712   1.375   5.048   4.718 -0.5909  0.6830 -1.1399
 1153lim     li 8713   5.526   1.056   5.621  0.2337 -0.5184 -0.9636
 1154lim     li 8714   1.882   2.509   6.197  1.2398 -0.0825  0.6407
 1155lim     li 8715   3.820   3.595   2.155 -0.0521 -0.1133  0.0388
 1156lim     li 8716   4.376   4.770   1.212 -0.5081 -0.3821 -0.0577
 1157lim     li 8717   1.989   3.358   3.655  0.7058  0.7459  0.3190
 1158lim     li 8718   3.978   3.827   4.856  0.0956  0.5542  0.5368
 1159lim     li 8719   2.587   3.160   1.861 -0.3441 -0.1427  1.2993
 1160lim     li 8720   4.520   1.608   2.294 -1.5175 -0.4821 -0.7684
 1161lim     li 8721   3.411   2.630   5.576 -0.2890  0.0159 -0.3543
 1162lim     li 8722   5.530   4.588   3.618 -0.9615 -0.0260 -0.7706
 1163lim     li 8723   6.047   5.650   3.421 -0.0005 -1.4711 -0.1084
 1164lim     li 8724   1.181   6.148   6.674 -0.2021  0.3713 -0.5248
 1165lim     li 8725   4.595   5.929   2.207  0.1410  0.1785  0.7591
 1166lim     li 8726   3.637   4.550   0.818  0.3166  0.4563 -0.3627
 1167lim     li 8727   6.152   2.767   6.451  0.9027  0.9726 -0.8508
 1168lim     li 8728   2.747   5.051   3.216 -0.1239 -0.6327  0.1325
 1169lim     li 8729   5.832   6.781   4.332 -0.1668 -0.2707  0.3637
 1170lim     li 8730   4.742   6.039   6.625 -0.6076 -0.1476  0.6999
 1171lim     li 8731   1.169   1.952   0.230 -0.5899  0.5930 -0.1837
 1172lim     li 8732   3.984   2.545   6.636 -0.3693  0.4848 -0.4975
 1173lim     li 8733   4.806   3.406   3.744 -1.0077 -0.3692 -0.7443
 1174lim     li 8734   3.771   0.364   0.539 -2.1228 -0.2296 -0.8915
 1175lim     li 8735   3.739   4.933   4.037 -0.6909 -0.3941 -0.0715
 1176lim     li 8736   5.574   0.192   2.980  0.6491 -0.9398 -0.7927
 1177lim     li 8737   0.579   1.939   2.585 -0.9665 -0.6292 -0.4402
 1178lim     li 8738   1.103   2.069   3.339  0.5926 -1.0137  0.9683
 1179lim     li 8739   1.612   4.090   1.685  0.0324 -0.6137 -0.2680
 1180lim     li 8740   3.038   5.783   5.927  1.1247 -0.0947 -0.3147
 1181lim     li 8741   5.222   2.736   3.862 -0.3642  0.6642  0.1767
 1182lim     li 8742   2.966   1.318   5.386 -0.1562  0.5521  0.2890
 1183lim     li 8743   6.227   4.007   5.286  0.6603  0.3260  1.7117
 1184lim     li 8744   3.043   1.839   4.357 -0.9652 -0.2982 -0.0548
 1185lim     li 8745   6.598   0.808   4.134  0.8794 -0.4331 -0.7088
 1186lim     li 8746   2.324   2.158   0.198  0.4849 -1.2811 -0.6630
 1187lim     li 8747   5.547   6.732   6.265  1.0912 -0.1868 -0.2008
 1188lim     li 8748   3.173   3.877   2.776 -1.1152 -0.8416  0.1223
 1189lim     li 8749   4.008   6.143   1.908 -0.7369  0.2198 -1.0154
 1190lim     li 8750   2.371   5.940   0.043  0.4598  0.4568  0.1889
 1191lim     li 8751   0.876   6.551   0.773 -0.8004  0.5548 -0.6756
 1192lim     li 8752   1.507   4.525   6.208 -0.4793 -0.2943  0.1534
 1193lim     li 8753   5.872   4.567   1.033  0.0797 -0.2602  0.4644
 1194lim     li 8754   3.211   1.711   0.118 -1.2664  1.3261  1.1694
 1195lim     li 8755   4.317   2.436   2.261  0.4175 -1.0228 -0.4386
 1196lim     li 8756   6.695   1.071   3.321  0.2922  0.2111 -0.7173
 1197lim     li 8757   3.355   5.438   0.072  0.1029  0.0931 -0.0701
 1198lim     li 8758   2.107   0.683   4.950  0.2006  0.5884 -0.1349
 1199lim     li 8759   3.073   3.511   1.139  0.4518 -0.3085 -0.4122
 1200lim     li 8760   5.650   1.864   0.117  0.4094 -0.8018  0.1711
 1201lim     li 8761   6.180   1.644   4.210 -0.1717  0.4772 -0.0447
 1202lim     li 8762   5.108   1.823   0.921 -0.5768 -0.2342  0.5767
 1203lim     li 8763   1.565   3.235   6.717 -0.1606  0.2737 -0.4902
 1204lim     li 8764   1.851   4.649   2.611 -1.0658 -0.0963  0.7019
 1205lim     li 8765   5.230   4.345   4.222 -1.0380 -0.8049 -0.0829
 1206lim     li 8766   4.451   0.390   3.050  0.4273 -0.6268 -1.0734
 1207lim     li 8767   0.445   0.339   0.578  0.2082  1.0088 -0.9375
 1208lim     li 8768   5.349   1.914   3.682 -0.6227 -0.7870 -0.7049
 1209lim     li 8769   3.955   1.723   2.946  0.5890  0.6610  0.0409
 1210lim     li 8770   1.658   4.149   5.203  0.8012 -0.4256 -1.4636
 1211lim     li 8771   4.226   5.775   4.263 -0.0635 -0.6656  0.1565
 1212lim     li 8772   3.156   5.284   1.343  0.1335 -0.1020  0.5135
 1213lim     li 8773   4.139   0.320   1.456  0.0526 -0.9901 -0.9996
 1214lim     li 8774   5.197   4.694   2.979  1.3085  0.2287 -0.0694
 1215lim     li 8775   0.748   0.795   3.193  0.4438  0.0548 -0.0796
 1216lim     li 8776   4.927   6.670   0.273  0.5839  0.5180  0.2486
 1217lim     li 8777   5.624   3.292   3.265  0.5815 -0.2268 -0.7946
 1218lim     li 8778   4.394   0.428   4.133  0.3303 -0.2505 -0.3710
 1219lim     li 8779   1.929   1.424   2.725  0.3640 -0.4815 -0.1231
 1220lim     li 8780   0.954   3.432   4.221  0.0005 -0.1291 -0.3150
 1221lim     li 8781   6.713   0.382   4.983  0.0261 -0.4442 -0.3611
 1222lim     li 8782   5.861   3.131   0.471  0.8153  0.4025 -0.6868
 1223lim     li 8783   2.552   4.271   1.393 -0.9820 -0.2280 -0.0563
 1224lim     li 8784   5.792   1.051   4.575  0.3208 -0.8337  0.4033
 1225lim     li 8785   2.391   2.889   0.416 -0.2279  1.0230  0.2644
 1226lim     li 8786   2.382   0.788   0.645  0.1853  0.4348 -0.1658
 1227lim     li 8787   1.323   0.344   1.635 -0.1818  0.3843  0.5111
 1228lim     li 8788   0.693   1.406   2.062 -0.3378  0.5376 -0.9300
 1229lim     li 8789   5.993   5.991   1.074 -0.4291  0.5890 -0.2245
 1230lim     li 8790   4.323   0.221   5.070  0.0330 -0.3555  0.0577
 1231lim     li 8791   0.893   0.158   6.738 -0.0879  0.0689 -0.8869
 1232lim     li 8792   6.507   5.240   2.585  0.9935 -0.3013 -0.3669
 1233lim     li 8793   3.755   4.374   5.342  0.4934 -1.2228 -0.5086
 1234lim     li 8794   2.842   5.011   5.758  0.6316 -0.0023 -0.4914
 1235lim     li 8795   5.784   5.376   1.706  0.4854  0.0237 -0.7350
 1236lim     li 8796   3.304   1.256   3.853  0.8696 -0.5783  0.3597
 1237lim     li 8797   3.361   1.937   5.331 -0.5395  0.5621  0.4539
 1238lim     li 8798   4.359   3.802   0.258 -0.6050 -0.7262  0.3044
 1239lim     li 8799   5.147   5.019   1.246  0.5639  0.0191  0.7715
 1240lim     li 8800   2.338   5.168   1.599  0.8911 -0.1908  0.4853
 1241lim     li 8801   6.249   5.288   0.834 -1.1772  0.5092  0.4499
 1242lim     li 8802   2.016   5.902   3.934 -0.7268  0.6584  0.6847
 1243lim     li 8803   3.687   2.517   2.542 -0.8958  1.2417  0.4830
 1244lim     li 8804   3.210   5.187   4.673  0.5697  0.3033  0.5641
 1245lim     li 8805   0.455   0.716   4.470 -0.3827 -0.4024 -0.8101
 1246lim     li 8806   2.844   6.107   1.358  0.2228 -0.1239 -0.2219
 1247lim     li 8807   2.035   5.310   0.853  0.4397  1.3996 -0.6116
 1248lim     li 8808   2.333   0.052   3.330  0.7172  0.2600  0.1585
 1249lim     li 8809   2.122   5.228   5.186  0.0652  0.5584  0.3733
 1250lim     li 8810   0.341   5.718   1.934  0.1154 -0.1646 -0.0049
 1251lim     li 8811   5.648   2.799   2.996  0.4753  0.3272  1.0413
 1252lim     li 8812   6.585   4.512   1.329  0.3987 -0.3412  0.4073
 1253lim     li 8813   2.293   2.681   4.319  0.1736  0.8377  0.9722
 1254lim     li 8814   0.429   6.474   4.100 -0.3705  0.2639  0.0613
 1255lim     li 8815   5.216   5.876   5.998 -0.0203 -1.2087 -0.8216
 1256lim     li 8816   6.082   1.560   5.057 -0.4048 -0.3338 -0.3519
 1257lim     li 8817   1.832   2.959   5.467 -0.4364 -0.7830 -0.7970
 1258lim     li 8818   0.627   0.380   5.790  0.0996 -0.3368 -0.5884
 1259lim     li 8819   6.351   3.961   4.620 -0.8522  0.1898  0.0644
 1260lim     li 8820   6.183   4.761   4.544  1.1043 -0.2746  1.0761
 1261lim     li 8821   5.665   2.902   4.927 -0.4903  0.6129  0.3551
 1262lim     li 8822   2.469   5.486   4.804 -0.3329  0.9313  0.1854
 1263lim     li 8823   3.469   2.890   3.028  0.4342 -0.3600 -0.4071
 1264lim     li 8824   3.363   2.615   4.823 -1.0440  0.3224  0.0429
 1265lim     li 8825   6.666   6.295   0.895  0.5120  0.8316 -0.6261
 1266lim     li 8826   5.766   5.705   6.130  0.3727  0.3990  0.5123
 1267lim     li 8827   5.887   0.601   4.713 -0.1247  0.7951 -0.6524
 1268lim     li 8828   0.206   5.731   2.680  0.3465 -0.1911 -0.2746
 1269lim     li 8829   1.336   6.385   6.055 -0.1312  0.0771 -0.2681
 1270lim     li 8830   2.163   2.000   3.222  0.3117 -0.1184  0.3732
 1271lim     li 8831   4.477   2.432   0.486  1.1659 -0.4007  0.0186
 1272lim     li 8832   2.140   6.379   1.084  0.1967  0.6620  0.6672
 1273lim     li 8833   3.703   4.836   2.680  0.2759 -0.3092  1.0674
 1274lim     li 8834   1.983   4.470   5.887 -0.1088 -0.4345 -1.1000
 1275lim     li 8835   2.908   4.031   3.574 -0.0673 -0.9107 -1.6512
 1276lim     li 8836   4.753   4.461   6.596 -0.2310 -1.2459  0.4317
 1277lim     li 8837   0.656   2.496   1.680 -0.0367 -0.3450  0.6353
 1278lim     li 8838   3.710   0.719   4.453  0.1067 -0.6020 -0.9074
 1279lim     li 8839   6.675   2.180   5.100 -0.7418 -0.5517  0.3989
 1280lim     li 8840   3.556   2.256   1.807 -0.5035 -0.4316  0.0700
 1281lim     li 8841   4.274   2.884   1.194  0.4018 -0.1793 -0.1783
 1282lim     li 8842   3.510   5.808   2.146  1.2179  0.4873  0.0730
 1283lim     li 8843   1.389   1.923   2.752  0.4967 -0.2471  0.1598
 1284lim     li 8844   3.207   0.781   0.426 -0.7468 -0.6531 -0.3741
 1285lim     li 8845   0.922   4.458   6.410  0.0476  0.2843  0.1452
 1286lim     li 8846   4.627   5.570   3.122 -0.3199  0.3342 -0.5235
 1287lim     li 8847   1.949   3.608   5.833 -0.1182 -0.9320  1.1919
 1288lim     li 8848   0.964   4.854   2.619 -0.3049 -0.3138 -0.0303
 1289lim     li 8849   4.819   6.468   3.097  0.6874 -0.3832 -0.8879
 1290lim     li 8850   3.181   0.439   1.629  0.7463 -0.6052 -0.1984
 1291lim     li 8851   5.881   5.842   5.275  0.6836  0.7789  0.6504
 1292lim     li 8852   4.099   6.240   6.491  0.5663 -0.4513 -0.9769
 1293lim     li 8853   6.383   4.183   0.340 -0.0123 -0.5450  0.6719
 1294lim     li 8854   6.479   6.198   2.823 -0.7559 -0.3355 -0.5469
 1295lim     li 8855   2.867   2.143   2.391  0.3172 -0.2827 -0.5060
 1296lim     li 8856   4.050   4.246   6.367  0.6941  0.4663 -0.6264
 1297lim     li 8857   0.692   0.838   2.452 -0.2383  0.3979  0.9306
 1298lim     li 8858   1.601   4.134   3.708 -0.2053  1.0976  0.8805
 1299lim     li 8859   6.271   2.999   5.763 -1.2237 -0.2465  1.2701
 1300lim     li 8860   3.646   6.386   6.085 -0.0806 -0.2549 -0.2218
 1301lim     li 8861   1.323   5.273   5.376  0.4001  0.1581  0.7659
 1302lim     li 8862   2.968   0.316   3.931 -0.7379 -0.5717  0.2701
 1303lim     li 8863   0.574   4.669   3.402  0.4753 -0.1698  0.1344
 1304lim     li 8864   0.024   5.162   3.585 -0.3252 -0.0831 -0.1110
 1305lim     li 8865   6.683   2.869   0.824 -0.3905  0.0338  0.4707
 1306lim     li 8866   1.110   1.798   4.503  0.1016  0.0416  0.7147
 1307lim     li 8867   5.340   3.883   3.089 -0.1055 -0.0475  1.1795
 1308lim     li 8868   1.312   5.020   0.154  0.5764 -0.1273  0.4435
 1309lim     li 8869   5.080   2.741   0.170  0.8654  0.1381 -0.0888
 1310lim     li 8870   6.317   1.962   5.731  1.0890 -1.8479  0.7316
 1311lim     li 8871   1.343   5.157   1.403 -0.1095 -0.3957  0.0096
 1312lim     li 8872   6.744   6.606   5.577  0.9939 -0.3423 -0.9242
 1313lim     li 8873   4.411   4.619   3.631  0.3306  0.2169  0.0041
 1314lim     li 8874   1.966   4.775   3.667 -0.5912  0.2008 -0.3778
 1315lim     li 8875   6.176   5.776   6.707 -0.6057  0.1494 -0.0153
 1316lim     li 8876   2.460   0.359   1.520  0.5955  0.4849  0.7086
 1317lim     li 8877   4.997   4.349   0.761 -0.0007  1.7536 -0.3887
 1318lim     li 8878   6.709   0.242   2.786  0.5898  0.2863  0.2237
 1319lim     li 8879   5.352   1.342   6.603  0.7756 -0.3816  0.6656
 1320lim     li 8880   3.763   3.746   0.811  0.7740 -1.3884 -0.8454
 1321lim     li 8881   0.495   1.617   3.388 -0.6747  1.0544 -0.0498
 1322lim     li 8882   6.174   1.554   0.824  1.3105  1.0034 -0.5733
 1323lim     li 8883   6.380   5.059   5.333  0.2320  0.4545 -0.1752
 1324lim     li 8884   3.764   3.133   0.323 -0.7536  1.6140  0.5900
 1325lim     li 8885   2.753   1.652   1.502 -0.9105 -0.1148  0.1010
 1326lim     li 8886   3.934   0.058   2.408  0.1868  0.1168 -1.1568
 1327lim     li 8887   1.253   3.416   2.658  0.0829 -0.1111 -0.9398
 1328lim     li 8888   5.739   6.550   1.644  0.7559  0.3525  0.1535
 1329lim     li 8889   5.200   0.140   1.028  1.5290  0.0605  0.2957
 1330lim     li 8890   0.174   4.075   2.541  0.3444  0.9848  0.0257
 1331lim     li 8891   3.560   2.171   0.617 -0.2042 -0.4285  0.7033
 1332lim     li 8892   5.811   1.977   1.614 -0.1914 -0.5941  0.2472
 1333lim     li 8893   1.689   1.717   3.962  0.4489  0.6133 -0.0310
 1334lim     li 8894   6.649   2.129   3.459  0.2541 -1.0497  0.6664
 1335lim     li 8895   1.640   2.121   1.054 -0.2855 -0.6518  0.3657
 1336lim     li 8896   5.177   4.371   2.281  0.1629  0.9241  0.4740
 1337lim     li 8897   0.431   1.760   4.789  0.1079 -0.5795  0.3077
 1338lim     li 8898   6.150   4.375   2.832  1.6065  0.3945  0.2161
 1339lim     li 8899   0.105   3.870   0.655 -0.7339 -0.6985  0.0994
 1340lim     li 8900   0.697   1.383   0.453  0.0152  0.4229 -0.2056
 1341lim     li 8901   4.566   3.166   2.530  0.6518 -1.2730  1.4292
 1342lim     li 8902   0.190   5.415   1.496 -0.5591  0.7504 -1.2900
 1343lim     li 8903   3.509   4.363   3.270  0.3628  0.1838  0.0954
 1344lim     li 8904   0.555   3.705   1.194  0.0332  0.6499 -0.3981
 1345lim     li 8905   5.228   1.899   4.719 -0.0957  0.1374  1.1336
 1346lim     li 8906   6.127   2.437   0.553  0.2285  0.4312 -0.4808
 1347lim     li 8907   2.611   3.550   0.016  0.2342  0.2594 -0.4705
 1348lim     li 8908   6.190   2.887   1.326 -0.0168  0.0731 -0.0533
 1349lim     li 8909   1.800   6.599   5.331  0.1604  0.0635  0.0798
 1350lim     li 8910   4.845   2.102   2.613  0.4945 -0.2675  0.3574
 1351lim     li 8911   2.382   2.131   5.562 -0.5412  0.1223  0.5533
 1352lim     li 8912   3.197   1.320   6.105 -0.1827  0.3211  0.9502
 1353lim     li 8913   1.793   1.257   5.242  1.6005  0.8827  0.2037
 1354lim     li 8914   4.664   2.676   3.418  0.7032  0.2679  0.0761
 1355lim     li 8915   5.545   1.179   1.551 -0.0584  0.2669  1.0704
 1356lim     li 8916   4.437   0.990   5.518  0.0159  0.3552  0.0836
 1357lim     li 8917   4.142   1.055   0.654  0.2593 -0.7097  0.0968
 1358lim     li 8918   1.608   2.676   3.681 -0.2049  0.0279 -0.5859
 1359lim     li 8919   2.529   2.312   1.301 -0.2427 -0.2578 -0.5200
 1360lim     li 8920   3.862   5.933   5.156 -0.2170  0.5073 -0.0520
 1361lim     li 8921   3.854   5.819   1.271  0.3368 -0.1752  0.7040
 1362lim     li 8922   2.356   1.377   4.220 -0.2420 -1.5227  0.7514
 1363lim     li 8923   4.730   6.279   3.757  0.2347 -0.2401 -1.2610
 1364lim     li 8924   2.589   5.799   0.707  0.8559 -0.3538  1.1359
 1365lim     li 8925   2.386   0.150   0.236 -0.2371  1.3331 -0.4492
 1366lim     li 8926   5.230   6.024   2.684 -0.6000 -0.2903 -0.6974
 1367lim     li 8927   5.202   5.408   4.867 -0.0580 -0.0405  0.3304
 1368lim     li 8928   0.381   3.772   5.524  0.1354 -0.0369 -0.7904
 1369lim     li 8929   1.197   6.394   2.204  0.5641  0.0261  0.2126
 1370lim     li 8930   5.919   0.305   2.378 -0.9213  0.4462 -0.8857
 1371lim     li 8931   4.531   5.235   1.744 -0.6054  1.1069  0.4998
 1372lim     li 8932   6.347   4.786   1.928 -0.8300  0.0726  1.0811
 1373lim     li 8933   4.347   4.548   4.455 -0.4003 -0.7748  0.8228
 1374lim     li 8934   1.598   1.018   2.017 -0.1171 -0.2206  0.6345
 1375lim     li 8935   1.088   3.812   5.762  1.2795 -0.5618 -0.4150
 1376lim     li 8936   0.529   5.453   4.447 -0.1940  0.6866 -0.0998
 1377lim     li 8937   5.299   5.129   4.231  0.1215 -0.0265 -0.1101
 1378lim     li 8938   6.245   5.119   5.913  0.6080  0.4402  0.0953
 1379lim     li 8939   3.787   1.468   5.761  0.8868 -0.2622  0.9260
 1380lim     li 8940   3.484   2.179   1.181  0.2377 -0.0158  1.0617
 1381lim     li 8941   5.610   3.430   4.188  0.1138 -0.0367 -0.3610
 1382lim     li 8942   0.552   2.202   6.685 -0.3112 -1.4172  0.1652
 1383lim     li 8943   4.508   6.445   1.395  1.1213  0.2018 -0.7961
 1384lim     li 8944   0.657   6.071   6.177  0.9411  0.4207 -0.0779
 1385lim     li 8945   1.665   2.329   1.996  0.2096  0.1377 -0.2929
 1386lim     li 8946   4.829   0.871   1.459 -0.2199 -0.8683  0.4323
 1387lim     li 8947   5.949   6.669   5.197  0.5174 -0.6688  1.1646
 1388lim     li 8948   2.241   6.431   6.108 -1.0049 -1.4272  0.6035
 1389lim     li 8949   0.011   1.796   2.510  0.4292 -0.1198 -0.1666
 1390lim     li 8950   2.277   1.355   5.008 -0.4206  0.3682 -0.8901
 1391lim     li 8951   2.598   2.795   2.480  0.3573 -0.5755 -0.1547
 1392lim     li 8952   5.953   4.324   5.955  1.2480  0.0122  1.3083
 1393lim     li 8953   3.618   4.154   1.399 -0.0069  0.6598  0.8192
 1394lim     li 8954   1.751   2.939   1.954 -1.0671  1.2161 -0.8136
 1395lim     li 8955   1.323   6.773   2.559 -0.6407 -1.0789  1.6088
 1396lim     li 8956   2.310   3.521   4.106  0.0921 -0.0062 -0.1590
 1397lim     li 8957   6.430   1.411   6.625 -0.2326 -0.6988 -0.2227
 1398lim     li 8958   0.469   1.053   6.259  0.0734  0.2150 -0.6620
 1399lim     li 8959   6.071   3.160   5.056 -0.2661  0.6314 -0.7431
 1400lim     li 8960   1.171   1.184   4.951 -0.5724  0.2253  0.0167
 1401lim     li 8961   3.734   5.162   6.085  0.5932 -0.6221  0.6114
 1402lim     li 8962   3.856   4.794   1.902 -0.7217 -0.2813 -1.0422
 1403lim     li 8963   5.252   6.787   2.192  0.1035  0.3054 -0.6813
 1404lim     li 8964   4.889   4.223   5.116 -0.4309  0.1371  0.5049
 1405lim     li 8965   4.009   2.268   3.412 -0.8229  0.1338 -0.6792
 1406lim     li 8966   5.730   2.019   2.722 -0.0242  1.8302  0.2657
 1407lim     li 8967   4.296   2.086   4.685  1.0115 -0.0713  0.6775
 1408lim     li 8968   0.365   4.526   4.777  0.8529 -0.5277  0.2221
 1409lim     li 8969   3.862   3.423   5.788 -0.6142  0.2401 -0.2231
 1410lim     li 8970   4.470   1.133   6.443  0.1923  0.9073  0.1020
 1411lim     li 8971   1.659   1.510   0.285 -0.5992 -0.4381 -0.8256
 1412lim     li 8972   2.878   3.240   3.146  1.0441 -0.4619  0.9973
 1413lim     li 8973   5.958   0.366   3.418  0.2467 -0.4146  0.3808
 1414lim     li 8974   5.922   1.333   6.063  0.3553  1.3090 -0.0065
 1415lim     li 8975   6.336   3.657   3.329  0.8104 -0.1130 -0.3281
 1416lim     li 8976   1.448   1.750   1.625  0.2638 -0.0066  0.7799
 1417lim     li 8977   5.969   6.360   2.926  0.0220  0.9226 -0.8121
 1418lim     li 8978   6.307   6.202   4.461  0.1570 -1.3886  0.6353
 1419lim     li 8979   2.226   0.635   3.462 -0.5375 -0.2940  0.5030
 1420lim     li 8980   5.122   0.480   3.927 -0.0547  0.3237 -0.4525
 1421lim     li 8981   4.806   1.666   4.199 -0.0941 -0.7534 -0.6592
 1422lim     li 8982   6.258   3.133   4.084  0.8465  0.1333 -0.6435
 1423lim     li 8983   2.975   6.665   6.783  0.0722  0.5389  0.0284
 1424lim     li 8984   4.060   5.352   6.768  0.3224  0.0718  0.9290
 1425lim     li 8985   3.138   1.388   0.767  0.1344 -0.1896 -0.3635
 1426lim     li 8986   1.754   5.337   3.130 -0.4784 -1.2313  0.7238
 1427lim     li 8987   3.254   6.066   4.440 -0.7765  0.4171  0.0965
 1428lim     li 8988   0.870   6.033   5.287  0.3053 -1.3091 -0.6102
 1429lim     li 8989   3.145   0.138   3.148  0.4832 -0.3171 -0.0874
 1430lim     li 8990   4.941   0.301   6.158 -0.0991  0.3179  0.8476
 1431lim     li 8991   5.427   5.546   0.349  0.7714  1.4318  0.0719
 1432lim     li 8992   2.247   4.218   0.787  0.1618 -0.7214  0.4949
 1433lim     li 8993   4.556   3.685   2.906 -0.8310 -0.9719 -0.0728
 1434lim     li 8994   3.831   1.099   6.658 -0.6535 -0.1734 -0.0228
 1435lim     li 8995   6.394   1.037   5.480 -1.5223  0.4228  0.1828
 1436lim     li 8996   5.929   0.215   0.588 -1.3041 -0.1928  0.4389
 1437lim     li 8997   2.811   3.401   5.930 -0.4994  0.4527 -0.2749
 1438lim     li 8998   4.461   2.586   4.640  0.5453  0.5090  0.7428
 1439lim     li 8999   2.940   4.146   0.454  0.4016  0.0890 -0.3607
 1440lim     li 9000   5.440   3.817   0.911  1.2564  0.2909  0.7505
 1441lim     li 9001   4.962   3.484   1.424 -1.0848 -0.5673  0.9437
 1442lim     li 9002   0.530   1.266   5.513  1.0190 -1.0320 -0.3119
 1443lim     li 9003   0.924   2.911   5.405  0.3742 -0.8084  0.7434
 1444lim     li 9004   3.240   6.425   5.123 -0.4344 -1.2895 -0.5113
 1445lim     li 9005   2.852   0.637   6.222  0.5730  0.8354  0.7359
 1446lim     li 9006   4.220   4.962   5.476  0.8396  0.5643 -0.7533
 1447lim     li 9007   6.608   1.126   1.947 -0.2587 -0.4018  0.1379
 1448lim     li 9008   5.130   6.096   1.270  0.2271  0.2782 -0.3173
 1449lim     li 9009   3.242   6.534   2.105  0.2781 -0.6562  0.3507
 1450lim     li 9010   6.740   0.496   1.968 -0.2591  0.4837 -0.8139
 1451lim     li 9011   1.129   3.860   4.730 -0.1812  0.1742 -0.9041
 1452lim     li 9012   3.577   6.430   3.541  0.1470  0.4626 -0.4101
 1453lim     li 9013   3.407   1.123   1.614  0.3340 -0.1108  0.0706
 1454lim     li 9014   1.312   0.557   5.470  0.1569 -0.5291  0.5820
 1455lim     li 9015   6.288   6.362   1.973  0.0512 -0.2973 -0.4448
 1456lim     li 9016   3.907   5.495   3.436 -1.6978 -0.6419 -0.5245
 1457lim     li 9017   5.248   3.707   6.006  0.1515  0.4662  0.0959
 1458lim     li 9018   1.696   0.194   1.165  0.3593  0.0273 -0.6477
 1459lim     li 9019   2.936   1.178   4.744 -2.1287  0.4935  0.5902
 1460lim     li 9020   0.100   3.330   2.592  0.6944 -0.6480  0.6167
 1461lim     li 9021   0.281   1.095   0.230  0.4530 -0.8155 -0.2552
 1462lim     li 9022   1.073   1.565   6.136  0.3273  0.1702 -0.0012
 1463lim     li 9023   6.012   0.494   1.517  0.5229  0.3959 -0.7966
 1464lim     li 9024   5.924   3.939   1.393  0.3607  1.3074  0.0980
 1465lim     li 9025   5.109   6.478   4.630  0.8609 -0.3319  0.1201
 1466lim     li 9026   3.121   4.563   6.446  1.3124 -0.0989  0.2246
 1467lim     li 9027   5.005   5.033   2.114  0.5145  0.5045  0.4815
 1468lim     li 9028   2.655   4.168   2.279  0.6426  0.8838 -0.9078
 1469lim     li 9029   2.210   0.065   2.220 -0.7046 -0.4290  0.6511
 1470lim     li 9030   2.765   6.180   3.688 -0.9248  0.1319 -0.0862
 1471lim     li 9031   4.517   3.930   5.581  0.3037  0.4391  0.0486
 1472lim     li 9032   4.389   5.920   5.309  0.3820  0.2996 -0.1062
 1473lim     li 9033   2.879   2.939   1.164 -0.1972 -0.3883  0.9806
 1474lim     li 9034   0.085   5.916   0.372 -0.0317  1.1270  0.1681
 1475lim     li 9035   1.179   4.657   4.187 -0.3669  0.1161  1.0818
 1476lim     li 9036   2.736   6.599   2.678 -1.1516  0.6542  0.0301
 1477lim     li 9037   2.449   2.922   5.072 -0.2299 -0.4933  0.5820
 1478lim     li 9038   2.581   4.488   4.863  0.4139 -0.3574  0.6981
 1479lim     li 9039   4.231   1.220   1.111 -0.2612 -0.2372  0.3524
 1480lim     li 9040   4.198   1.050   2.077  0.1408 -0.1834 -0.2171
 1481lim     li 9041   0.299   4.090   0.008  0.3977 -0.0197 -0.2250
 1482lim     li 9042   2.047   0.862   6.244  0.2937 -0.0181  1.4724
 1483lim     li 9043   2.520   0.208   5.891 -0.1063 -0.8733  0.2250
 1484lim     li 9044   6.465   6.714   3.742 -0.6582 -0.7090  1.1675
 1485lim     li 9045   2.255   4.213   6.592 -0.7344 -0.4396  0.2930
 1486lim     li 9046   0.160   2.967   0.195 -1.0059  0.1413  0.0330
 1487lim     li 9047   3.236   3.280   2.198  0.1403 -0.0516 -0.2005
 1488lim     li 9048   2.107   6.177   2.717 -1.5182  0.6178 -0.4512
 1489lim     li 9049   5.283   4.971   5.499 -0.5418 -0.3412  0.7237
 1490lim     li 9050   0.406   5.240   6.303 -0.6043  0.0106  0.8364
 1491lim     li 9051   6.412   4.954   3.918 -0.1063  0.1843  0.0105
 1492lim     li 9052   2.621   1.171   3.332 -0.3972 -0.8214 -0.8205
 1493lim     li 9053   1.290   2.604   5.986  0.5975  0.4197  0.3136
 1494lim     li 9054   0.255   3.804   4.751  1.4033 -0.9334  0.6373
 1495lim     li 9055   0.813   3.445   6.308 -0.3192 -1.3442  0.8467
 1496lim     li 9056   5.819   4.167   2.101  0.5015 -0.0117 -0.0279
 1497lim     li 9057   3.662   3.126   3.848  0.6079  0.9561 -0.3949
 1498lim     li 9058   5.161   2.491   5.451 -0.2957  0.3498 -0.6465
 1499lim     li 9059   4.274   4.254   2.407 -0.1627  0.6248  0.2085
 1500lim     li 9060   2.542   1.726   6.309 -0.0596 -0.7801  1.0159
 1501lim     li 9061   2.408   5.631   2.711  0.8738 -0.0716 -0.7592
 1502lim     li 9062   5.232   1.425   1.988 -0.9226 -0.2353 -0.3919
 1503lim     li 9063   2.478   2.543   3.475 -0.0961 -1.0538  0.1693
 1504lim     li 9064   1.669   5.884   4.860  0.5221 -0.0977  0.4095
 1505lim     li 9065   6.621   3.804   1.652  1.2011  0.0800  0.0295
 1506lim     li 9066   1.091   3.979   3.295  0.5791  0.7560  0.1610
 1507lim     li 9067   2.298   5.336   4.041  0.3856 -0.4471  0.4688
 1508lim     li 9068   1.518   1.040   3.699  0.4847 -0.2164 -0.2960
 1509lim     li 9069   3.200   5.513   3.653 -1.0519  0.0669 -0.5593
 1510lim     li 9070   1.013   0.658   3.718  0.7226  0.0385 -0.3815
 1511lim     li 9071   0.802   5.951   1.135  0.1458  0.2300  0.0738
 1512lim     li 9072   0.949   3.507   0.348  1.0249  0.6485  0.9771
 1513lim     li 9073   3.491   1.223   2.970  0.4688  0.3251 -0.5609
 1514lim     li 9074   0.002   0.346   1.102 -0.1909  0.0942  0.8710
 1515lim     li 9075   5.350   2.809   1.300 -0.1934  0.1182  0.8436
 1516lim     li 9076   5.212   2.667   6.199 -0.4003 -0.3220  0.4705
 1517lim     li 9077   4.763   5.223   3.873 -0.3315 -0.0809  0.4676
 1518lim     li 9078   6.777   4.595   6.461 -0.3112 -0.3128 -0.6347
 1519lim     li 9079   4.704   5.393   0.671  0.5385 -0.4160  0.1145
 1520lim     li 9080   1.427   5.404   3.935 -0.7145 -1.0041 -0.3066
 1521lim     li 9081   0.516   2.777   2.637  0.7876 -0.2850 -0.2458
 1522lim     li 9082   1.219   4.464   2.853 -0.2729  1.0091  0.5226
 1523lim     li 9083   4.369   6.759   5.677  0.4639 -0.3547 -0.2424
 1524lim     li 9084   1.112   2.986   1.941  0.9653  0.6061  0.7490
 1525lim     li 9085   1.523   2.204   4.995  0.7517 -0.1953  0.9473
 1526lim     li 9086   5.597   4.303   4.966 -1.0393  0.9269  0.5740
 1527lim     li 9087   1.489   0.597   0.310  0.0212 -0.8294  0.0165
 1528lim     li 9088   1.976   3.482   2.791 -0.4599 -0.7610 -0.6867
 1529lim     li 9089   3.356   6.162   0.404 -0.7418 -0.6858 -0.3458
 1530lim     li 9090   2.808   0.133   0.910 -0.4015 -1.0733 -0.7380
 1531lim     li 9091   1.290   5.054   5.926  0.7369  0.2346 -0.7869
 1532lim     li 9092   3.583   0.566   3.561 -0.3710  0.5410 -0.2240
 1533lim     li 9093   6.620   1.539   1.246 -0.2606 -0.1610 -1.3428
 1534lim     li 9094   4.701   1.867   6.356  0.4348  0.3133  0.7338
 1535lim     li 9095   1.703   2.611   2.714  0.6006 -0.3782  1.0374
 1536lim     li 9096   1.180   6.149   4.394 -0.3705 -1.5615  1.4626
 1537lim     li 9097   4.295   3.151   4.375 -0.5910 -0.2634 -0.1943
 1538lim     li 9098   2.092   6.104   1.931  0.4196 -0.3922 -0.2963
 1539lim     li 9099   3.889   6.203   2.844  0.0624 -0.3321 -0.9539
 1540lim     li 9100   4.791   1.409   0.326  0.2249  1.2511  0.6481
 1541lim     li 9101   5.979   2.313   4.541 -0.2738  0.1766  0.9668
 1542lim     li 9102   3.997   0.142   6.477 -0.9636  0.6066  0.4751
 1543lim     li 9103   0.141   5.234   0.467  0.5465  0.1707  0.6420
 1544lim     li 9104   4.230   3.377   1.689  0.0067 -0.8494  1.0654
 1545lim     li 9105   3.562   6.505   1.093 -0.8852  0.5144 -0.2005
 1546lim     li 9106   1.715   3.408   4.690 -0.8271  0.5342 -0.3822
 1547lim     li 9107   0.554   4.451   5.633  0.0070  0.9587 -0.3372
 1548lim     li 9108   1.221   2.711   1.120 -0.8994 -1.0734  0.2135
 1549lim     li 9109   1.465   5.804   1.590 -0.2272  0.3635 -0.2464
 1550lim     li 9110   4.087   6.687   4.022 -0.6193 -0.3678 -0.1111
 1551lim     li 9111   4.665   5.106   6.370  0.8001  0.4338  0.1057
 1552lim     li 9112   1.063   2.661   0.528  0.0535 -0.2045 -0.0631
 1553lim     li 9113   4.633   0.390   2.065  0.3315  0.6554 -0.2806
 1554lim     li 9114   6.603   6.299   6.427  0.1608 -0.6541 -0.1581
 1555lim     li 9115   0.704   5.443   3.166  0.7614  0.0806 -0.7112
 1556lim     li 9116   2.617   5.469   6.259  0.4886  0.0975 -0.6428
 1557lim     li 9117   4.751   4.110   1.652  0.8581 -1.1019  0.8505
 1558lim     li 9118   3.134   2.790   4.119 -1.1340 -0.4945  0.9919
 1559lim     li 9119   1.873   1.493   5.845 -0.1299  1.7167 -0.5341
 1560lim     li 9120   1.543   4.650   1.192 -0.8141 -1.3310  1.2552
 1561lim     li 9121   0.281   3.194   1.769 -0.3576  0.2675  0.3665
 1562lim     li 9122   0.563   3.525   3.614  0.0278  0.1000  0.1982
 1563lim     li 9123   6.592   3.575   6.090 -0.9948 -1.1819 -0.5564
 1564lim     li 9124   3.152   4.816   4.213 -0.1899 -0.0293  0.1991
 1565lim     li 9125   5.604   4.836   6.437 -0.4617  0.6997  0.4776
 1566lim     li 9126   4.351   4.586   0.424 -0.0376  0.4133 -0.4078
 1567lim     li 9127   2.235   1.613   2.094 -1.1059  1.3097  0.2238
 1568lim     li 9128   6.390   1.074   2.790  0.0185 -0.0215  1.5404
 1569lim     li 9129   4.896   3.471   4.806  0.4613 -0.9775 -1.0102
 1570lim     li 9130   5.934   0.762   0.001  0.3403  0.4188  0.5233
 1571lim     li 9131   0.687   2.222   5.580  0.7660 -0.3825  0.3067
 1572lim     li 9132   0.216   2.203   4.179  0.0957  1.3993  0.4929
 1573lim     li 9133   2.535   4.920   0.381  0.2544  0.6243  0.1910
 1574lim     li 9134   0.138   5.647   5.853 -0.0459  1.0318 -0.2280
 1575lim     li 9135   0.868   5.534   0.081 -0.4319  0.0819  0.2390
 1576lim     li 9136   4.162   3.863   3.458 -1.0129  1.2957  0.5235
 1577lim     li 9137   2.842   0.709   4.567  0.5458  0.5945 -0.8769
 1578lim     li 9138   5.586   3.916   0.149  0.1109 -0.3290  0.4922
 1579lim     li 9139   4.055   1.413   4.861 -0.3529 -0.6328 -0.0621
 1580lim     li 9140   2.063   0.176   4.226  0.5272 -0.2509  0.4448
 1581lim     li 9141   0.223   2.061   0.708 -0.0920  0.3172 -0.1443
 1582lim     li 9142   2.052   5.245   6.650  0.3922 -0.0363 -0.2675
 1583lim     li 9143   2.509   6.286   5.293  0.9117 -0.4402 -0.4458
 1584lim     li 9144   5.396   0.216   5.111 -1.0596  0.7917 -0.0734
 1585lim     li 9145   3.121   2.102   3.374  0.1507 -0.2813  0.3556
 1586lim     li 9146   5.467   5.844   4.236 -1.1425  0.5064 -0.1369
 1587lim     li 9147   4.101   2.997   5.445  1.6455  0.3895 -0.2684
 1588lim     li 9148   4.460   3.133   6.224 -0.5021  1.1661 -0.4869
 1589lim     li 9149   2.122   3.200   1.088  0.2972 -0.6473  0.0932
 1590lim     li 9150   3.805   0.527   2.667  0.4770 -0.6915  1.2568
 1591lim     li 9151   2.476   6.579   4.562 -0.3572 -0.3199 -0.1298
 1592lim     li 9152   5.101   3.283   5.352 -0.6906  0.3833 -0.0590
 1593lim     li 9153   2.283   1.378   0.213 -0.1051 -1.1570 -0.0775
 1594lim     li 9154   5.482   3.329   1.998 -0.5465 -0.7591 -0.4070
 1595lim     li 9155   4.577   2.067   1.470 -0.0782  0.0529  0.1324
 1596lim     li 9156   1.615   5.980   0.640 -0.0531  0.3218  0.5530
 1597lim     li 9157   0.190   3.150   4.317 -0.2501 -0.4619  0.5431
 1598lim     li 9158   0.574   4.845   1.217 -0.5393 -0.2295  1.3807
 1599lim     li 9159   2.918   3.051   5.566  0.4162  0.4150  0.5254
 1600lim     li 9160   2.419   0.926   1.777  0.4604 -0.5747  0.9213
 1601lim     li 9161   5.020   0.924   4.623 -1.0628  1.0752 -0.0700
 1602lim     li 9162   6.662   0.209   6.001 -0.7948 -0.8167  0.0476
 1603lim     li 9163   2.846   0.897   2.625  0.0903  0.3042  0.1079
 1604lim     li 9164   2.609   4.077   5.379 -0.2613  0.4981  0.5586
 1605lim     li 9165   5.606   6.457   0.258  0.0099 -0.4913 -0.2953
 1606lim     li 9166   5.777   3.650   2.577 -0.6644 -0.2378  1.1409
 1607lim     li 9167   4.561   1.087   3.630 -0.2235 -0.6928  0.3376
 1608lim     li 9168   1.502   3.461   1.149  0.3594  0.4315 -0.3922
 1609lim     li 9169   1.287   1.252   0.912  1.1994  0.8415  0.9596
 1610lim     li 9170   3.124   4.658   1.907  0.5268 -0.0549  0.1510
 1611lim     li 9171   1.586   3.895   0.602 -0.1159  0.0821  0.5907
 1612lim     li 9172   6.435   2.771   2.940 -0.6629  0.9408 -0.6767
 1613lim     li 9173   0.733   4.039   1.971 -0.2013 -0.3915  0.5389
 1614lim     li 9174   3.150   0.291   5.115 -0.1923 -1.1866  0.0687
 1615lim     li 9175   3.319   3.530   4.692 -0.1977 -1.1008  0.5197
 1616lim     li 9176   4.991   1.767   3.190 -0.7728 -0.1648  0.1001
 1617lim     li 9177   1.952   3.946   2.079 -0.0968  0.9562  0.7016
 1618lim     li 9178   0.005   2.750   4.951 -0.4848  0.0215 -0.3122
 1619lim     li 9179   2.115   4.481   4.227  0.2863 -0.4913 -1.0440
 1620lim     li 9180   6.761   0.164   6.743 -0.1977  0.2114 -0.1066
 1621ntf    cn1 9181   5.453   5.236   3.597 -0.2194 -0.0069 -0.0295
 1621ntf    sn2 9182   5.370   5.136   3.470 -0.1454 -0.3041  0.1540
 1621ntf    nn3 9183   5.242   5.226   3.461  0.4418  0.5634  0.4213
 1621ntf    sn2 9184   5.221   5.358   3.378 -0.4773 -0.0428 -0.3269
 1621ntf    cn1 9185   5.106   5.293   3.254  0.0759 -0.4182 -0.6476
 1621ntf    fn4 9186   5.370   5.276   3.692 -0.2496 -0.7867  0.2784
 1621ntf    fn4 9187   5.541   5.158   3.658 -0.3445  0.5359  0.8616
 1621ntf    fn4 9188   5.513   5.344   3.551  0.0766 -0.0011  0.3650
 1621ntf    on5 9189   5.451   5.137   3.350  0.2203  0.6840  0.4042
 1621ntf    on5 9190   5.343   5.014   3.543 -0.1752 -0.9023 -0.8362
 1621ntf    on5 9191   5.331   5.405   3.297 -0.2483 -0.4331 -0.2435
 1621ntf    on5 9192   5.139   5.457   3.444 -0.0814  0.2957 -0.3363
 1621ntf    fn4 9193   5.125   5.350   3.136  0.3666  0.7486 -0.0406
 1621ntf    fn4 9194   5.121   5.165   3.224  1.0818 -0.3132 -0.6110
 1621ntf    fn4 9195   4.981   5.314   3.293  0.4872 -0.0209  0.4922
 1622ntf    cn1 9196   6.173   4.309   1.569 -0.1001 -0.1643  0.3657
 1622ntf    sn2 9197   6.171   4.340   1.748 -0.0155  0.2001  0.3038
 1622ntf    nn3 9198   6.326   4.359   1.768  0.0560  0.1683 -0.2239
 1622ntf    sn2 9199   6.390   4.461   1.869 -0.0403  0.1852 -0.1797
 1622ntf    cn1 9200   6.302   4.420   2.022 -0.3088 -0.0778 -0.4039
 1622ntf    fn4 9201   6.058   4.280   1.512  0.4025 -0.7101 -0.3940
 1622ntf    fn4 9202   6.230   4.409   1.504  0.6950 -0.6383  0.3112
 1622ntf    fn4 9203   6.254   4.209   1.538  0.0542  0.0146  0.1877
 1622ntf    on5 9204   6.085   4.453   1.769 -0.1286  0.1722 -0.0151
 1622ntf    on5 9205   6.135   4.211   1.802  0.1061 -0.0148 -0.1272
 1622ntf    on5 9206   6.355   4.597   1.841 -0.0546  0.1964 -0.1089
 1622ntf    on5 9207   6.529   4.432   1.896 -0.0701  0.5878  0.4095
 1622ntf    fn4 9208   6.176   4.462   2.015 -0.5625 -0.7543 -0.0407
 1622ntf    fn4 9209   6.288   4.291   2.050 -0.3075 -0.1178 -0.5903
 1622ntf    fn4 9210   6.361   4.472   2.128  0.2246 -0.7062 -0.3856
 1623ntf    cn1 9211   6.191   0.715   5.241  0.0678 -0.0397 -0.3033
 1623ntf    sn2 9212   6.094   0.850   5.166 -0.1540 -0.0520 -0.0391
 1623ntf    nn3 9213   5.997   0.892   5.282 -0.0022 -0.4091  0.2185
 1623ntf    sn2 9214   5.853   0.843   5.322 -0.0839 -0.3091  0.0458
 1623ntf    cn1 9215   5.743   0.961   5.239 -0.1783 -0.1998  0.3251
 1623ntf    fn4 9216   6.121   0.610   5.281  0.1480  0.1245  0.2766
 1623ntf    fn4 9217   6.275   0.681   5.145  0.0985  0.4150 -0.4444
 1623ntf    fn4 9218   6.267   0.749   5.344 -0.3537  0.1072 -0.0385
 1623ntf    on5 9219   6.188   0.957   5.142  0.4381 -0.4240  0.5876
 1623ntf    on5 9220   6.034   0.788   5.051 -0.4760 -0.0086  0.1041
 1623ntf    on5 9221   5.820   0.857   5.461 -0.2404 -0.0595 -0.0168
 1623ntf    on5 9222   5.810   0.719   5.262  0.6698 -0.1367 -0.8764
 1623ntf    fn4 9223   5.791   1.002   5.123  0.1267 -0.6556  0.2902
 1623ntf    fn4 9224   5.628   0.900   5.215 -0.2427  0.0001  0.1209
 1623ntf    fn4 9225   5.723   1.065   5.319 -0.0777 -0.4884  0.7302
 1624ntf    cn1 9226   2.231   5.632   6.517 -0.1642 -0.1336  0.0779
 1624ntf    sn2 9227   2.327   5.785   6.501 -0.0819 -0.1974 -0.0460
 1624ntf    nn3 9228   2.469   5.750   6.443 -0.2184 -0.2426 -0.3570
 1624ntf    sn2 9229   2.538   5.783   6.306 -0.1867  0.1147 -0.2558
 1624ntf    cn1 9230   2.647   5.924   6.346 -0.1336  0.0583 -0.2014
 1624ntf    fn4 9231   2.237   5.549   6.414 -0.1213  0.0218 -0.0435
 1624ntf    fn4 9232   2.290   5.556   6.609  0.1316 -0.5528 -0.4522
 1624ntf    fn4 9233   2.102   5.644   6.543 -0.1910 -0.1859 -0.0314
 1624ntf    on5 9234   2.239   5.862   6.416 -0.0191 -0.2726 -0.1802
 1624ntf    on5 9235   2.339   5.845   6.632 -0.4720 -0.8713  0.3008
 1624ntf    on5 9236   2.460   5.837   6.198  0.1787  0.4845 -0.3430
 1624ntf    on5 9237   2.621   5.670   6.271  0.0980  0.2546 -0.0439
 1624ntf    fn4 9238   2.692   5.981   6.236  0.1189  0.0563 -0.0999
 1624ntf    fn4 9239   2.583   6.029   6.395 -0.0318  0.1239 -0.2088
 1624ntf    fn4 9240   2.746   5.891   6.427 -0.1005  0.3360 -0.1275
 1625ntf    cn1 9241   4.629   2.475   1.953  0.3131 -0.1653 -0.0255
 1625ntf    sn2 9242   4.605   2.509   2.130 -0.1192  0.0277 -0.1203
 1625ntf    nn3 9243   4.539   2.652   2.126  0.2020  0.1711 -0.4457
 1625ntf    sn2 9244   4.600   2.794   2.149 -0.1963  0.2595  0.0965
 1625ntf    cn1 9245   4.508   2.883   2.020 -0.1513  0.3712  0.1405
 1625ntf    fn4 9246   4.693   2.573   1.892  0.1586  0.0121  0.0959
 1625ntf    fn4 9247   4.703   2.369   1.924  0.2887 -0.0242 -0.6048
 1625ntf    fn4 9248   4.513   2.452   1.893  0.3064  0.0665 -0.1005
 1625ntf    on5 9249   4.504   2.414   2.167 -0.1378  0.1429  0.1267
 1625ntf    on5 9250   4.740   2.492   2.179 -0.2359  0.2842  0.2961
 1625ntf    on5 9251   4.740   2.806   2.116 -0.1490 -0.1912  0.1268
 1625ntf    on5 9252   4.552   2.852   2.272  0.4014  0.7757  0.0950
 1625ntf    fn4 9253   4.540   2.837   1.900  0.6951 -0.0894  0.5321
 1625ntf    fn4 9254   4.376   2.869   2.027 -0.1303  0.2413  0.2921
 1625ntf    fn4 9255   4.535   3.012   2.013  0.5610  0.1902 -0.5295
 1626ntf    cn1 9256   6.658   5.554   2.899 -0.2136 -0.2214  0.2001
 1626ntf    sn2 9257   6.723   5.722   2.876  0.0611 -0.3636 -0.0743
 1626ntf    nn3 9258   6.810   5.742   3.005 -0.2679  0.1541  0.0671
 1626ntf    sn2 9259   6.834   5.871   3.092 -0.0009 -0.1314  0.4243
 1626ntf    cn1 9260   6.691   5.868   3.204 -0.4258  0.4579 -0.0884
 1626ntf    fn4 9261   6.576   5.546   3.003 -0.4304  0.2440  0.0645
 1626ntf    fn4 9262   6.597   5.515   2.788 -0.0615 -0.3560  0.1623
 1626ntf    fn4 9263   6.750   5.462   2.926  0.0407  0.0356  0.2137
 1626ntf    on5 9264   6.808   5.702   2.761  0.4302  0.0408  0.1257
 1626ntf    on5 9265   6.602   5.800   2.867  0.1551 -0.2749 -0.5743
 1626ntf    on5 9266   6.831   6.001   3.028  0.3486 -0.4255 -0.1977
 1626ntf    on5 9267   6.939   5.858   3.189  0.1759 -0.0267  0.2486
 1626ntf    fn4 9268   6.685   5.760   3.280  0.3643  0.3105 -0.2326
 1626ntf    fn4 9269   6.692   5.974   3.283  0.2947  0.1455  0.3321
 1626ntf    fn4 9270   6.571   5.865   3.149 -0.4968 -0.6525  0.1179
 1627ntf    cn1 9271   4.220   1.251   5.963  0.1798  0.2678  0.2679
 1627ntf    sn2 9272   4.068   1.153   5.940  0.1833  0.2283  0.4168
 1627ntf    nn3 9273   3.978   1.185   6.064 -0.9898 -0.5807 -0.2122
 1627ntf    sn2 9274   3.981   1.110   6.202  0.2246  0.0307  0.1046
 1627ntf    cn1 9275   3.838   1.186   6.284  0.3126  0.2026  0.0989
 1627ntf    fn4 9276   4.292   1.196   6.059 -0.1066 -0.3494  0.1356
 1627ntf    fn4 9277   4.293   1.264   5.854  0.1434 -0.1751  0.1885
 1627ntf    fn4 9278   4.198   1.374   6.006 -0.3660  0.3373 -0.1824
 1627ntf    on5 9279   4.007   1.214   5.825 -0.2975 -0.1791  0.4562
 1627ntf    on5 9280   4.110   1.016   5.922 -0.7097 -0.0836  0.6765
 1627ntf    on5 9281   4.091   1.142   6.290  0.2635 -0.1353  0.1163
 1627ntf    on5 9282   3.939   0.972   6.202  0.2431  0.0251  0.0324
 1627ntf    fn4 9283   3.854   1.312   6.323 -0.2238  0.3594 -0.1722
 1627ntf    fn4 9284   3.734   1.177   6.203  0.3708 -0.4255  0.0903
 1627ntf    fn4 9285   3.807   1.127   6.398 -0.4710  0.4358  0.0121
 1628ntf    cn1 9286   4.556   6.606   6.378  0.1361  0.3025  0.0202
 1628ntf    sn2 9287   4.496   6.475   6.489  0.0400  0.3683  0.0468
 1628ntf    nn3 9288   4.522   6.555   6.621 -0.4290  0.2470  0.2147
 1628ntf    sn2 9289   4.568   6.517   6.766  0.1796  0.0026 -0.0365
 1628ntf    cn1 9290   4.488   6.641   6.873 -0.0780 -0.1400 -0.0630
 1628ntf    fn4 9291   4.518   6.605   6.251 -0.1849 -0.0832  0.1187
 1628ntf    fn4 9292   4.512   6.723   6.422  0.0313  0.0829  0.4979
 1628ntf    fn4 9293   4.688   6.615   6.373  0.1587 -0.0695 -0.0944
 1628ntf    on5 9294   4.356   6.458   6.460  0.0545  0.0084  0.1898
 1628ntf    on5 9295   4.587   6.365   6.469 -0.3432  0.0988 -0.2289
 1628ntf    on5 9296   4.709   6.531   6.791  0.0993  0.2572  0.2800
 1628ntf    on5 9297   4.502   6.395   6.810 -0.5430  0.4315  0.0917
 1628ntf    fn4 9298   4.525   6.762   6.837 -0.4527  0.1271  0.4386
 1628ntf    fn4 9299   4.356   6.628   6.865 -0.0677 -0.3687  0.1221
 1628ntf    fn4 9300   4.521   6.621   6.999 -0.2904 -0.0962  0.0001
 1629ntf    cn1 9301   2.325   2.556   1.626  0.2114  0.3282 -0.0975
 1629ntf    sn2 9302   2.369   2.562   1.449  0.1462 -0.4877 -0.1480
 1629ntf    nn3 9303   2.239   2.624   1.386  0.3900  0.1822 -0.0028
 1629ntf    sn2 9304   2.140   2.568   1.278  0.1958  0.3515  0.0863
 1629ntf    cn1 9305   1.987   2.613   1.365  0.0524  0.3975 -0.1887
 1629ntf    fn4 9306   2.212   2.490   1.645 -0.0252  0.5562 -0.6817
 1629ntf    fn4 9307   2.417   2.491   1.696  0.1003 -0.2183 -0.4510
 1629ntf    fn4 9308   2.320   2.677   1.679 -0.0080  0.3492 -0.1684
 1629ntf    on5 9309   2.481   2.653   1.449  0.3810 -0.7742  0.1824
 1629ntf    on5 9310   2.393   2.425   1.412 -0.1319 -0.3777 -0.7398
 1629ntf    on5 9311   2.129   2.425   1.262  0.6594  0.3499 -0.2615
 1629ntf    on5 9312   2.144   2.656   1.163 -0.1328 -0.1415 -0.3083
 1629ntf    fn4 9313   1.956   2.741   1.350 -0.0024  0.4192  0.1130
 1629ntf    fn4 9314   1.882   2.545   1.323  0.1899  0.1402 -0.1192
 1629ntf    fn4 9315   1.991   2.586   1.494 -0.0735  0.2538 -0.2148
 1630ntf    cn1 9316   0.762   6.450   5.712  0.3003  0.1282 -0.3326
 1630ntf    sn2 9317   0.774   6.441   5.893  0.0619 -0.0847 -0.3273
 1630ntf    nn3 9318   0.923   6.488   5.902  0.1562 -0.3521 -0.4846
 1630ntf    sn2 9319   0.998   6.487   6.040 -0.2204  0.1035 -0.2736
 1630ntf    cn1 9320   0.984   6.660   6.094  0.2517  0.1094 -0.1609
 1630ntf    fn4 9321   0.778   6.571   5.661  0.0707  0.0719 -0.5395
 1630ntf    fn4 9322   0.847   6.369   5.651  0.3236 -0.2589  0.2066
 1630ntf    fn4 9323   0.645   6.408   5.666  0.3237  0.0085 -0.2831
 1630ntf    on5 9324   0.679   6.538   5.941  0.5316  0.0351  0.3746
 1630ntf    on5 9325   0.754   6.302   5.926 -0.5823  0.2274  0.6444
 1630ntf    on5 9326   1.141   6.477   6.019 -0.2435  0.4254 -0.6014
 1630ntf    on5 9327   0.948   6.403   6.146 -0.3493  0.6285  0.0851
 1630ntf    fn4 9328   1.065   6.684   6.196  0.1886  0.0764 -0.1034
 1630ntf    fn4 9329   1.020   6.737   5.992  0.1349  0.4165  0.0268
 1630ntf    fn4 9330   0.865   6.705   6.128  0.1592  0.2114 -0.6016
 1631ntf    cn1 9331   2.277   0.736   1.419  0.4362  0.2318  0.5679
 1631ntf    sn2 9332   2.305   0.668   1.586 -0.1249 -0.0387  0.5540
 1631ntf    nn3 9333   2.156   0.635   1.624 -0.2850  0.0916  0.0552
 1631ntf    sn2 9334   2.051   0.706   1.717 -0.2984  0.0196  0.0947
 1631ntf    cn1 9335   2.094   0.611   1.866 -0.0216 -0.5343 -0.3361
 1631ntf    fn4 9336   2.194   0.839   1.428  0.8629  0.6483 -0.2146
 1631ntf    fn4 9337   2.390   0.780   1.366  0.3523 -0.4793 -0.2248
 1631ntf    fn4 9338   2.233   0.648   1.331  0.5769 -0.0037  0.7328
 1631ntf    on5 9339   2.377   0.547   1.555  0.0542  0.2275 -0.0953
 1631ntf    on5 9340   2.370   0.774   1.659  0.5530 -0.2529  0.2662
 1631ntf    on5 9341   1.915   0.669   1.688 -0.3625  0.0955  0.2997
 1631ntf    on5 9342   2.087   0.843   1.746  0.6955 -0.1984 -0.0595
 1631ntf    fn4 9343   2.224   0.630   1.883 -0.0963 -0.3118 -0.0125
 1631ntf    fn4 9344   2.038   0.661   1.975 -0.5821 -0.8522 -0.4719
 1631ntf    fn4 9345   2.062   0.482   1.862  0.1241 -0.5922  0.3263
 1632ntf    cn1 9346   3.615   5.686   0.629 -0.1359  0.2272  0.2625
 1632ntf    sn2 9347   3.617   5.774   0.788  0.3206  0.0032  0.3810
 1632ntf    nn3 9348   3.467   5.763   0.831  0.2476  0.5637  0.2851
 1632ntf    sn2 9349   3.346   5.861   0.820 -0.3027 -0.1428 -0.0837
 1632ntf    cn1 9350   3.317   5.894   0.996 -0.0859 -0.0320 -0.0683
 1632ntf    fn4 9351   3.530   5.584   0.634 -0.4157  0.4389 -0.1525
 1632ntf    fn4 9352   3.571   5.765   0.532  0.0408 -0.3301 -0.2807
 1632ntf    fn4 9353   3.727   5.627   0.589 -0.0279  0.5030  0.1576
 1632ntf    on5 9354   3.706   5.697   0.870  0.4452  0.1777  0.4117
 1632ntf    on5 9355   3.664   5.905   0.747 -0.0424  0.0947  0.2564
 1632ntf    on5 9356   3.218   5.802   0.789 -0.4293 -0.0296  0.2195
 1632ntf    on5 9357   3.374   5.985   0.751 -0.5533 -0.1705 -0.2405
 1632ntf    fn4 9358   3.209   5.968   1.018 -0.0284  0.1997 -0.5482
 1632ntf    fn4 9359   3.298   5.782   1.065 -0.1167  0.1384  0.2018
 1632ntf    fn4 9360   3.417   5.951   1.062  0.0443  0.1665 -0.4369
 1633ntf    cn1 9361   5.816   3.273   6.007 -0.1514  0.5260  0.0454
 1633ntf    sn2 9362   5.975   3.360   6.011 -0.0011  0.2545  0.0083
 1633ntf    nn3 9363   5.953   3.492   5.928 -0.3388  0.1299 -0.0997
 1633ntf    sn2 9364   5.943   3.512   5.773  0.1538  0.2823 -0.1123
 1633ntf    cn1 9365   5.809   3.632   5.754 -0.2399 -0.0916  0.2778
 1633ntf    fn4 9366   5.826   3.161   6.078  0.1033  0.1732 -0.5404
 1633ntf    fn4 9367   5.716   3.345   6.057 -0.0372  0.3069  0.6059
 1633ntf    fn4 9368   5.785   3.230   5.886  0.1766 -0.6260  0.3511
 1633ntf    on5 9369   5.979   3.392   6.151 -0.3293  0.1438  0.0443
 1633ntf    on5 9370   6.072   3.269   5.954  0.2100  0.3243  0.2526
 1633ntf    on5 9371   5.897   3.397   5.698  0.9060 -0.3994  0.4517
 1633ntf    on5 9372   6.050   3.587   5.712 -0.0127  0.5360 -0.0940
 1633ntf    fn4 9373   5.792   3.650   5.623  0.2273 -0.1840  0.2035
 1633ntf    fn4 9374   5.690   3.594   5.797 -0.5216  0.2616 -0.1704
 1633ntf    fn4 9375   5.839   3.752   5.800 -0.6347 -0.0288  0.3809
 1634ntf    cn1 9376   0.140   2.395   6.686 -0.0652  0.3804  0.3026
 1634ntf    sn2 9377   0.253   2.331   6.558 -0.4219  0.1088  0.1227
 1634ntf    nn3 9378   0.241   2.439   6.445  0.0172  0.0444  0.0145
 1634ntf    sn2 9379   0.311   2.579   6.432  0.0074  0.0450 -0.0315
 1634ntf    cn1 9380   0.458   2.530   6.338 -0.1184 -0.0868 -0.1603
 1634ntf    fn4 9381   0.113   2.308   6.781 -0.2296  0.2338  0.1222
 1634ntf    fn4 9382   0.183   2.509   6.737  0.0215  0.3665  0.2617
 1634ntf    fn4 9383   0.021   2.423   6.636 -0.4569 -0.7919  0.5422
 1634ntf    on5 9384   0.378   2.317   6.627 -0.5335 -0.4254  0.2241
 1634ntf    on5 9385   0.195   2.210   6.504 -0.4655  0.0488  0.3003
 1634ntf    on5 9386   0.359   2.632   6.558 -0.4051 -0.3908  0.3131
 1634ntf    on5 9387   0.241   2.671   6.346  0.0091 -0.1989 -0.2928
 1634ntf    fn4 9388   0.432   2.468   6.224  0.2136 -0.1240 -0.2167
 1634ntf    fn4 9389   0.529   2.636   6.304 -0.7262  0.2542 -0.3716
 1634ntf    fn4 9390   0.542   2.454   6.406 -0.3112  0.1226  0.3143
 1635ntf    cn1 9391   0.230   6.102   6.086  0.5858  0.3616  0.4030
 1635ntf    sn2 9392   0.369   5.992   6.046  0.1311  0.0269 -0.2847
 1635ntf    nn3 9393   0.369   6.014   5.891  0.3480  0.2579 -0.2527
 1635ntf    sn2 9394   0.319   5.925   5.772 -0.2815  0.4797 -0.1560
 1635ntf    cn1 9395   0.467   5.837   5.714 -0.4340  0.0111  0.1640
 1635ntf    fn4 9396   0.207   6.101   6.217  0.4657  0.6982  0.3854
 1635ntf    fn4 9397   0.262   6.228   6.064  0.3087  0.4051  0.2421
 1635ntf    fn4 9398   0.115   6.072   6.027  0.7459  0.1072  0.2206
 1635ntf    on5 9399   0.482   6.057   6.108  0.0001 -0.3490  0.3687
 1635ntf    on5 9400   0.319   5.866   6.096 -0.8103  0.3785 -0.3251
 1635ntf    on5 9401   0.279   6.013   5.664 -0.1982  0.0884 -0.5091
 1635ntf    on5 9402   0.222   5.826   5.811 -0.3917  0.7351  0.2266
 1635ntf    fn4 9403   0.515   5.753   5.804 -0.5635  0.0578  0.2786
 1635ntf    fn4 9404   0.450   5.770   5.600 -0.1429 -0.0405  0.1501
 1635ntf    fn4 9405   0.556   5.929   5.682 -0.5804 -0.0024 -0.2996
 1636ntf    cn1 9406   0.430   0.357   3.882 -0.0813  0.1740 -0.2204
 1636ntf    sn2 9407   0.603   0.316   3.843 -0.1234 -0.2146 -0.0020
 1636ntf    nn3 9408   0.663   0.286   3.985  0.2177 -0.1935 -0.1421
 1636ntf    sn2 9409   0.692   0.391   4.099  0.1663 -0.3492  0.0148
 1636ntf    cn1 9410   0.869   0.431   4.079  0.1519 -0.1450  0.2925
 1636ntf    fn4 9411   0.373   0.267   3.960 -0.0125 -0.2024 -0.5954
 1636ntf    fn4 9412   0.420   0.475   3.940  0.7025  0.4007 -0.5291
 1636ntf    fn4 9413   0.353   0.362   3.774  0.3620  0.6001 -0.5180
 1636ntf    on5 9414   0.585   0.195   3.768 -0.1907 -0.1043 -0.1636
 1636ntf    on5 9415   0.660   0.424   3.767  0.2070 -0.0950  0.4135
 1636ntf    on5 9416   0.688   0.329   4.229  0.1892  0.4715  0.4097
 1636ntf    on5 9417   0.635   0.523   4.086  0.1034 -0.3609  0.1836
 1636ntf    fn4 9418   0.904   0.541   4.142 -0.2529 -0.1887  0.5996
 1636ntf    fn4 9419   0.947   0.333   4.120  0.0275 -0.0819  0.6826
 1636ntf    fn4 9420   0.911   0.459   3.957 -0.2447  0.4563  0.2925
 1637ntf    cn1 9421   2.832   1.567   3.031  0.2747 -0.0554  0.3795
 1637ntf    sn2 9422   2.827   1.385   3.018  0.1263 -0.0322  0.0933
 1637ntf    nn3 9423   2.938   1.351   3.124  0.0788  0.4317  0.2948
 1637ntf    sn2 9424   2.936   1.287   3.267 -0.4285  0.0676  0.1277
 1637ntf    cn1 9425   3.037   1.141   3.226 -0.2693  0.0059  0.7265
 1637ntf    fn4 9426   2.949   1.625   3.013  0.2581  0.0640  0.6511
 1637ntf    fn4 9427   2.747   1.613   2.940  0.2213 -0.3203  0.2933
 1637ntf    fn4 9428   2.778   1.608   3.144  0.6014  0.4557  0.3494
 1637ntf    on5 9429   2.691   1.359   3.057 -0.2185  0.4211 -0.7791
 1637ntf    on5 9430   2.870   1.359   2.883  0.2055  0.0528  0.1013
 1637ntf    on5 9431   2.815   1.228   3.318 -0.5435  0.6527  0.5400
 1637ntf    on5 9432   3.018   1.354   3.365 -0.0480 -0.1390 -0.0445
 1637ntf    fn4 9433   3.136   1.166   3.142 -0.6517 -0.6938  0.0474
 1637ntf    fn4 9434   3.097   1.084   3.329  0.0069 -0.5527  0.2605
 1637ntf    fn4 9435   2.954   1.051   3.174 -0.0369  0.0967  0.1875
 1638ntf    cn1 9436   0.183   5.927   4.147  0.4077  0.1507 -0.1013
 1638ntf    sn2 9437   0.024   5.896   4.066  0.4024  0.0216 -0.0416
 1638ntf    nn3 9438   0.063   5.782   3.965  0.4895  0.0065  0.0097
 1638ntf    sn2 9439   0.038   5.627   3.963 -0.0793  0.0935  0.1643
 1638ntf    cn1 9440  -0.143   5.617   3.953 -0.0954  0.1871  0.3479
 1638ntf    fn4 9441   0.241   5.814   4.187 -0.2435 -0.0575  0.2696
 1638ntf    fn4 9442   0.274   5.979   4.066 -0.6080  0.6910 -0.9144
 1638ntf    fn4 9443   0.173   6.012   4.247 -0.3625  0.0617 -0.1023
 1638ntf    on5 9444  -0.064   5.852   4.172  0.3150 -0.2935 -0.2435
 1638ntf    on5 9445  -0.006   6.018   3.996 -0.3473 -0.4440 -0.5588
 1638ntf    on5 9446   0.079   5.557   4.082  0.3424  0.5665  0.3017
 1638ntf    on5 9447   0.081   5.562   3.842 -0.6167  0.1261 -0.0472
 1638ntf    fn4 9448  -0.208   5.641   4.066 -0.4475 -0.4351  0.2832
 1638ntf    fn4 9449  -0.190   5.698   3.860 -0.1019  0.1163  0.2888
 1638ntf    fn4 9450  -0.177   5.493   3.921  0.4181  0.0936  0.1483
 1639ntf    cn1 9451   3.119   5.819   5.143 -0.3355  0.0504 -0.0643
 1639ntf    sn2 9452   3.071   5.691   5.022 -0.3499 -0.1612  0.1653
 1639ntf    nn3 9453   3.072   5.770   4.887  0.7021  0.8423  0.7368
 1639ntf    sn2 9454   2.963   5.868   4.830 -0.0497 -0.4723 -0.1534
 1639ntf    cn1 9455   2.863   5.770   4.714 -0.1060 -0.4220 -0.1473
 1639ntf    fn4 9456   3.224   5.886   5.100 -0.0770 -0.2369  0.1173
 1639ntf    fn4 9457   3.028   5.908   5.179  0.1266  0.4643  0.0778
 1639ntf    fn4 9458   3.152   5.774   5.263 -0.1317 -0.4626 -0.3101
 1639ntf    on5 9459   3.182   5.598   5.019 -0.2759 -0.0944  0.6831
 1639ntf    on5 9460   2.944   5.645   5.071 -0.5909 -0.4437 -0.7101
 1639ntf    on5 9461   3.027   5.959   4.738 -0.4350  0.2694  0.3025
 1639ntf    on5 9462   2.876   5.921   4.932 -0.4338 -0.8363 -0.2890
 1639ntf    fn4 9463   2.776   5.847   4.652  0.0374 -0.1924 -0.0659
 1639ntf    fn4 9464   2.938   5.702   4.629  0.6122 -0.3139  0.3827
 1639ntf    fn4 9465   2.791   5.686   4.786  0.0469 -0.5439 -0.1348
 1640ntf    cn1 9466   3.526   1.173   2.318 -0.0538 -0.0066  0.0772
 1640ntf    sn2 9467   3.599   1.336   2.283  0.0439 -0.0422  0.1126
 1640ntf    nn3 9468   3.699   1.356   2.402  0.2265  0.2018 -0.0812
 1640ntf    sn2 9469   3.838   1.285   2.421  0.0984 -0.0129  0.0527
 1640ntf    cn1 9470   3.930   1.441   2.433  0.2067 -0.0948  0.3011
 1640ntf    fn4 9471   3.613   1.083   2.363  0.0544  0.0100 -0.1007
 1640ntf    fn4 9472   3.427   1.180   2.405 -0.2381 -0.1505 -0.1216
 1640ntf    fn4 9473   3.475   1.122   2.207  0.2505 -0.1760  0.0140
 1640ntf    on5 9474   3.654   1.327   2.150  0.1457 -0.4420  0.1791
 1640ntf    on5 9475   3.486   1.424   2.302 -0.0742 -0.2696  0.4743
 1640ntf    on5 9476   3.907   1.232   2.307 -0.3617 -0.1695 -0.1545
 1640ntf    on5 9477   3.845   1.222   2.551 -0.2615 -0.2708 -0.0519
 1640ntf    fn4 9478   4.046   1.432   2.497  0.2572 -0.0848  0.2109
 1640ntf    fn4 9479   3.956   1.498   2.316  1.1771 -0.7368  0.1925
 1640ntf    fn4 9480   3.858   1.534   2.495  0.0864 -0.1562  0.2532
 1641ntf    cn1 9481   0.726   2.820   2.038 -0.0190  0.0864  0.0719
 1641ntf    sn2 9482   0.783   2.991   2.009 -0.4109  0.2299  0.1402
 1641ntf    nn3 9483   0.765   3.053   2.152  0.2553 -0.4199  0.5172
 1641ntf    sn2 9484   0.646   3.147   2.193  0.1512 -0.2364 -0.1907
 1641ntf    cn1 9485   0.713   3.308   2.141 -0.1101 -0.0875 -0.0722
 1641ntf    fn4 9486   0.594   2.819   2.047 -0.0366  0.1032 -0.1776
 1641ntf    fn4 9487   0.758   2.738   1.939 -0.2362 -0.1992  0.2382
 1641ntf    fn4 9488   0.780   2.765   2.145 -0.2052 -0.0629  0.0896
 1641ntf    on5 9489   0.925   2.973   1.993 -0.4979 -0.0653 -0.3594
 1641ntf    on5 9490   0.705   3.040   1.898  0.1497 -0.0161 -0.3651
 1641ntf    on5 9491   0.644   3.160   2.337  0.3721 -0.2723 -0.1832
 1641ntf    on5 9492   0.524   3.131   2.118  0.0816 -0.0083 -0.1284
 1641ntf    fn4 9493   0.838   3.327   2.181  0.1900  0.2610 -1.1313
 1641ntf    fn4 9494   0.723   3.320   2.009  0.0814 -0.4733 -0.0956
 1641ntf    fn4 9495   0.628   3.402   2.179 -0.0744 -0.0492 -0.0870
 1642ntf    cn1 9496   5.135   1.691   1.392  0.2573 -0.0961 -0.0592
 1642ntf    sn2 9497   5.290   1.652   1.305  0.1012 -0.1846 -0.3000
 1642ntf    nn3 9498   5.353   1.793   1.275 -0.2412  0.0250 -0.0472
 1642ntf    sn2 9499   5.357   1.879   1.143 -0.1034  0.1429  0.0340
 1642ntf    cn1 9500   5.529   1.838   1.103 -0.1925 -0.2106  0.0103
 1642ntf    fn4 9501   5.156   1.739   1.513  0.4497  0.0005 -0.1290
 1642ntf    fn4 9502   5.065   1.788   1.334 -0.1380 -0.0700  0.4641
 1642ntf    fn4 9503   5.057   1.585   1.398  0.2118 -0.0748 -0.2513
 1642ntf    on5 9504   5.368   1.582   1.405  0.1404  0.2828 -0.0007
 1642ntf    on5 9505   5.250   1.575   1.189 -0.1264 -0.0522 -0.3104
 1642ntf    on5 9506   5.357   2.021   1.169 -0.3491  0.1261  0.1341
 1642ntf    on5 9507   5.280   1.836   1.030 -0.2294 -0.4666  0.3440
 1642ntf    fn4 9508   5.555   1.708   1.091 -0.2635 -0.2441  0.2097
 1642ntf    fn4 9509   5.555   1.883   0.982 -0.1161  0.3045  0.2189
 1642ntf    fn4 9510   5.604   1.896   1.195 -0.6931  0.2886  0.1035
 1643ntf    cn1 9511   4.141   3.222   2.208 -0.6798  0.0747  0.0467
 1643ntf    sn2 9512   4.067   3.126   2.344 -0.0283 -0.5991 -0.0727
 1643ntf    nn3 9513   3.980   3.226   2.429 -0.0606 -0.7029  0.0169
 1643ntf    sn2 9514   3.828   3.204   2.459 -0.1265  0.1192  0.2926
 1643ntf    cn1 9515   3.800   3.307   2.606 -0.0029  0.2302  0.2390
 1643ntf    fn4 9516   4.211   3.327   2.247 -0.5234  0.1795 -0.5111
 1643ntf    fn4 9517   4.231   3.159   2.136 -0.2662  0.4932  0.1929
 1643ntf    fn4 9518   4.050   3.263   2.122 -0.3231  0.5482 -0.1072
 1643ntf    on5 9519   3.992   3.024   2.275 -0.1943 -0.4568 -0.1018
 1643ntf    on5 9520   4.189   3.082   2.408 -0.0939  0.2431  0.6548
 1643ntf    on5 9521   3.800   3.071   2.506 -0.6635  0.2254  0.2772
 1643ntf    on5 9522   3.748   3.262   2.354  0.5361 -0.1278 -0.3582
 1643ntf    fn4 9523   3.843   3.431   2.595 -0.3614  0.3162 -0.1864
 1643ntf    fn4 9524   3.675   3.318   2.649 -0.0213  0.3400  0.1569
 1643ntf    fn4 9525   3.868   3.264   2.712  0.2414  0.0942  0.0303
 1644ntf    cn1 9526   5.809   0.432   0.234 -0.2890  0.1662  0.3397
 1644ntf    sn2 9527   5.977   0.399   0.293 -0.2200  0.2429  0.1865
 1644ntf    nn3 9528   6.056   0.359   0.163 -1.2638 -0.3622 -0.2709
 1644ntf    sn2 9529   6.081   0.214   0.107 -0.0401 -0.2250 -0.1058
 1644ntf    cn1 9530   6.120   0.246  -0.067  0.3492  0.3054  0.0757
 1644ntf    fn4 9531   5.821   0.491   0.117 -0.0853 -0.0925  0.2310
 1644ntf    fn4 9532   5.730   0.328   0.212  0.0542  0.1042 -0.5940
 1644ntf    fn4 9533   5.740   0.510   0.316 -0.3546  0.4684 -0.0017
 1644ntf    on5 9534   6.023   0.531   0.329  0.3782  0.2030 -0.4115
 1644ntf    on5 9535   5.965   0.305   0.402  0.5879 -0.4583 -0.3091
 1644ntf    on5 9536   5.956   0.142   0.104 -0.6001  0.6898  0.4089
 1644ntf    on5 9537   6.202   0.147   0.148  0.0507  0.1656  0.2746
 1644ntf    fn4 9538   6.237   0.306  -0.085  0.6737 -0.3135  0.0744
 1644ntf    fn4 9539   6.112   0.139  -0.145 -0.1128  0.4259 -0.0451
 1644ntf    fn4 9540   6.035   0.334  -0.117  0.1851  0.0946 -0.0186
 1645ntf    cn1 9541   3.060   4.318   5.738 -0.2333  0.0894 -0.2469
 1645ntf    sn2 9542   3.072   4.391   5.905 -0.1098 -0.0900 -0.1762
 1645ntf    nn3 9543   3.193   4.490   5.888 -0.4072  0.3700  0.3827
 1645ntf    sn2 9544   3.322   4.516   5.973 -0.1339  0.1341  0.0408
 1645ntf    cn1 9545   3.452   4.453   5.863  0.1686  0.1286  0.4000
 1645ntf    fn4 9546   3.011   4.396   5.643 -0.4764 -0.0439 -0.2308
 1645ntf    fn4 9547   3.179   4.277   5.696 -0.1367  0.3702 -0.2515
 1645ntf    fn4 9548   2.984   4.210   5.745 -0.3046  0.1640  0.1854
 1645ntf    on5 9549   2.950   4.467   5.908  0.1359  0.2972 -0.0173
 1645ntf    on5 9550   3.089   4.283   6.000  0.0091 -0.1113 -0.2216
 1645ntf    on5 9551   3.334   4.439   6.094  0.1453  0.2639  0.0974
 1645ntf    on5 9552   3.349   4.657   5.984  0.1392  0.0465  0.5343
 1645ntf    fn4 9553   3.436   4.491   5.737 -0.9402 -0.0365  0.4891
 1645ntf    fn4 9554   3.574   4.500   5.888  0.4543 -0.5764  0.3409
 1645ntf    fn4 9555   3.455   4.321   5.858  0.3274  0.1632 -0.8365
 1646ntf    cn1 9556   6.059   0.473   3.854  0.2648  0.2432 -0.0243
 1646ntf    sn2 9557   6.148   0.425   3.703 -0.0701 -0.1629 -0.0936
 1646ntf    nn3 9558   6.254   0.538   3.679 -0.2643 -0.0490 -0.4235
 1646ntf    sn2 9559   6.406   0.542   3.716 -0.3514 -0.0076 -0.0608
 1646ntf    cn1 9560   6.473   0.487   3.556 -0.0656  0.0927  0.0234
 1646ntf    fn4 9561   5.935   0.426   3.855  0.3681 -0.0314 -0.0563
 1646ntf    fn4 9562   6.120   0.429   3.962 -0.2125  0.0376  0.1677
 1646ntf    fn4 9563   6.046   0.603   3.873 -0.1518  0.2162 -0.1063
 1646ntf    on5 9564   6.204   0.294   3.725  0.0929 -0.0318  0.2735
 1646ntf    on5 9565   6.047   0.428   3.600  0.3004  0.3548 -0.4412
 1646ntf    on5 9566   6.444   0.439   3.810 -0.0721 -0.3277 -0.5164
 1646ntf    on5 9567   6.450   0.678   3.735  0.1771 -0.1754 -0.0588
 1646ntf    fn4 9568   6.595   0.437   3.569 -0.1872 -0.2835 -0.2321
 1646ntf    fn4 9569   6.401   0.383   3.516 -0.2944  0.1704  0.2350
 1646ntf    fn4 9570   6.468   0.580   3.462  0.1752  0.3826  0.2969
 1647ntf    cn1 9571   4.397   0.409   0.129  0.3003 -0.2217  0.1226
 1647ntf    sn2 9572   4.457   0.370   0.296  0.4459 -0.0464  0.1102
 1647ntf    nn3 9573   4.351   0.457   0.372  0.1070 -0.2674 -0.1086
 1647ntf    sn2 9574   4.378   0.599   0.433 -0.2235 -0.1269 -0.2889
 1647ntf    cn1 9575   4.484   0.559   0.575 -0.1476  0.2859 -0.2258
 1647ntf    fn4 9576   4.471   0.341   0.043  0.0265  0.0172 -0.3052
 1647ntf    fn4 9577   4.267   0.386   0.118  0.0838  0.9790  0.0791
 1647ntf    fn4 9578   4.414   0.537   0.101  0.0678 -0.2265 -0.0448
 1647ntf    on5 9579   4.442   0.230   0.325 -0.2278 -0.1036 -0.4891
 1647ntf    on5 9580   4.590   0.427   0.303  0.3476  0.2145 -0.1279
 1647ntf    on5 9581   4.262   0.659   0.493 -0.2248 -0.3876 -0.0303
 1647ntf    on5 9582   4.453   0.689   0.349 -0.4275  0.0326 -0.3015
 1647ntf    fn4 9583   4.413   0.483   0.658  0.0151  0.5169  0.1244
 1647ntf    fn4 9584   4.596   0.496   0.543 -0.2961 -0.1547  0.1058
 1647ntf    fn4 9585   4.518   0.661   0.651 -0.0486  0.4093 -0.4346
 1648ntf    cn1 9586   4.839   5.042   3.395  0.0389 -0.1285  0.2121
 1648ntf    sn2 9587   4.753   5.025   3.235 -0.0799  0.1010  0.2516
 1648ntf    nn3 9588   4.794   5.167   3.181 -0.1091 -0.1147 -0.3395
 1648ntf    sn2 9589   4.728   5.250   3.065 -0.0397  0.2492 -0.1195
 1648ntf    cn1 9590   4.866   5.261   2.947  0.3626 -0.0661  0.3170
 1648ntf    fn4 9591   4.814   4.939   3.473  0.3330 -0.4166 -0.0691
 1648ntf    fn4 9592   4.971   5.057   3.399  0.0173  0.0242  0.3728
 1648ntf    fn4 9593   4.793   5.149   3.456  0.5154  0.2836 -0.1346
 1648ntf    on5 9594   4.822   4.918   3.169  0.1510  0.6346 -0.3801
 1648ntf    on5 9595   4.616   5.007   3.275  0.0162 -0.8034  0.1889
 1648ntf    on5 9596   4.710   5.389   3.100 -0.0999  0.1145  0.3896
 1648ntf    on5 9597   4.621   5.190   2.990 -0.3131  0.6198 -0.0308
 1648ntf    fn4 9598   4.965   5.325   3.007  0.2734  0.0527  0.3366
 1648ntf    fn4 9599   4.911   5.140   2.916 -0.2817 -0.1334 -0.3742
 1648ntf    fn4 9600   4.834   5.329   2.838 -0.4665  0.0844  0.6507
 1649ntf    cn1 9601   2.653   6.677   5.111 -0.2292 -0.2375  0.0699
 1649ntf    sn2 9602   2.679   6.497   5.103 -0.1648 -0.2238 -0.0345
 1649ntf    nn3 9603   2.625   6.475   4.958  0.0637  0.3002 -0.2018
 1649ntf    sn2 9604   2.693   6.455   4.818  0.1690 -0.0802 -0.0989
 1649ntf    cn1 9605   2.663   6.277   4.800  0.4200 -0.1198 -0.1286
 1649ntf    fn4 9606   2.523   6.705   5.112 -0.1740  0.0231 -0.1460
 1649ntf    fn4 9607   2.711   6.728   5.217 -0.2045 -0.2728  0.0735
 1649ntf    fn4 9608   2.705   6.738   5.006 -0.3790 -0.3576 -0.0770
 1649ntf    on5 9609   2.819   6.466   5.121 -0.1439 -0.0680  0.0719
 1649ntf    on5 9610   2.587   6.442   5.199  0.1879  0.1570  0.5292
 1649ntf    on5 9611   2.834   6.483   4.808  0.1774 -0.0672  0.0649
 1649ntf    on5 9612   2.606   6.514   4.719 -0.0463 -0.5322 -0.1841
 1649ntf    fn4 9613   2.709   6.198   4.897  0.3848 -0.5697 -0.4725
 1649ntf    fn4 9614   2.535   6.245   4.787  0.2627  0.5497 -0.2591
 1649ntf    fn4 9615   2.730   6.245   4.691  0.5395 -0.4108  0.0286
 1650ntf    cn1 9616   6.001   3.172   3.482  0.0246 -0.1176 -0.2209
 1650ntf    sn2 9617   5.889   3.314   3.474 -0.1493 -0.2285  0.1966
 1650ntf    nn3 9618   5.991   3.424   3.427 -0.0751 -0.3023  0.1831
 1650ntf    sn2 9619   6.053   3.548   3.500 -0.1417 -0.3284  0.2838
 1650ntf    cn1 9620   5.935   3.683   3.468 -0.0937 -0.3749 -0.0870
 1650ntf    fn4 9621   6.117   3.206   3.536  0.1423 -0.1615 -0.4448
 1650ntf    fn4 9622   5.961   3.062   3.544 -0.2100  0.2821  0.3458
 1650ntf    fn4 9623   6.030   3.133   3.359 -0.4367 -0.4003 -0.2429
 1650ntf    on5 9624   5.801   3.279   3.365  0.0335 -0.6489  0.1844
 1650ntf    on5 9625   5.834   3.339   3.605  0.4573  0.5420  0.3097
 1650ntf    on5 9626   6.172   3.588   3.431 -0.2005  0.1249  0.4362
 1650ntf    on5 9627   6.068   3.538   3.643  0.4879  0.1041  0.2509
 1650ntf    fn4 9628   5.851   3.686   3.570 -0.0880  0.2183 -0.0938
 1650ntf    fn4 9629   5.988   3.804   3.462 -0.0286 -0.3903  0.1861
 1650ntf    fn4 9630   5.870   3.664   3.355 -0.1044  0.1447 -0.1740
 1651ntf    cn1 9631   1.382   2.374   1.508  0.0799 -0.0257 -0.2122
 1651ntf    sn2 9632   1.558   2.403   1.471  0.0699  0.0749 -0.1808
 1651ntf    nn3 9633   1.533   2.480   1.336 -0.5626 -0.2231 -0.2364
 1651ntf    sn2 9634   1.485   2.626   1.305  0.1834  0.1728  0.4407
 1651ntf    cn1 9635   1.617   2.679   1.192 -0.2524  0.2465 -0.0410
 1651ntf    fn4 9636   1.355   2.306   1.619  0.3983 -0.4901 -0.4171
 1651ntf    fn4 9637   1.315   2.487   1.522  0.2619  0.0743 -0.1385
 1651ntf    fn4 9638   1.321   2.311   1.409 -0.3099 -0.1580  0.1086
 1651ntf    on5 9639   1.600   2.477   1.587 -0.4588  0.2052 -0.0679
 1651ntf    on5 9640   1.596   2.266   1.453 -0.4687 -0.0472 -0.4318
 1651ntf    on5 9641   1.479   2.723   1.411 -0.3277  0.1905  0.3985
 1651ntf    on5 9642   1.369   2.613   1.220  0.0861  0.3020  0.5536
 1651ntf    fn4 9643   1.633   2.600   1.088  0.0071  0.3886 -0.1114
 1651ntf    fn4 9644   1.582   2.797   1.144 -0.5552  0.0032 -0.4216
 1651ntf    fn4 9645   1.736   2.694   1.248 -0.2710 -0.1253  0.0997
 1652ntf    cn1 9646   3.262   4.010   0.806 -0.5321 -0.5554 -0.1062
 1652ntf    sn2 9647   3.167   4.048   0.956 -0.1513  0.0931 -0.0236
 1652ntf    nn3 9648   3.232   4.187   0.987 -0.0831  0.0787 -0.0989
 1652ntf    sn2 9649   3.176   4.329   0.948 -0.1501  0.0515 -0.1003
 1652ntf    cn1 9650   3.107   4.381   1.108 -0.0813 -0.0655 -0.0324
 1652ntf    fn4 9651   3.393   4.008   0.827 -0.6548  0.2550  0.7974
 1652ntf    fn4 9652   3.230   3.889   0.762 -0.0473 -0.6325 -0.2529
 1652ntf    fn4 9653   3.228   4.092   0.707 -0.4647  0.2129  0.4944
 1652ntf    on5 9654   3.025   4.044   0.928 -0.0932  0.0417 -0.3114
 1652ntf    on5 9655   3.225   3.955   1.049  0.0905  0.0230 -0.2425
 1652ntf    on5 9656   3.063   4.333   0.858 -0.2612  0.1232  0.0425
 1652ntf    on5 9657   3.276   4.428   0.914 -0.2474  0.1559 -0.0821
 1652ntf    fn4 9658   3.066   4.507   1.103 -0.3968 -0.1578  0.2184
 1652ntf    fn4 9659   3.001   4.309   1.140 -0.2117  0.2466  0.2446
 1652ntf    fn4 9660   3.194   4.367   1.207 -0.1955 -0.0712  0.0674
 1653ntf    cn1 9661   4.036   4.182   1.497  0.1211 -0.1818  0.0171
 1653ntf    sn2 9662   3.944   4.274   1.370  0.0910  0.0809  0.2273
 1653ntf    nn3 9663   4.010   4.213   1.241 -0.0115 -0.4837  0.4363
 1653ntf    sn2 9664   3.949   4.175   1.101  0.2290  0.0132  0.1934
 1653ntf    cn1 9665   4.083   4.215   0.985  0.2377 -0.0001  0.1990
 1653ntf    fn4 9666   3.990   4.212   1.617 -0.3283  0.1288 -0.2268
 1653ntf    fn4 9667   4.037   4.050   1.483  0.1604 -0.1893  0.0907
 1653ntf    fn4 9668   4.164   4.215   1.501  0.2664 -0.6557 -0.5713
 1653ntf    on5 9669   3.804   4.240   1.383  0.1897 -0.5375 -0.2348
 1653ntf    on5 9670   3.977   4.411   1.396  0.1585  0.1533 -0.2345
 1653ntf    on5 9671   3.843   4.265   1.061  0.3400  0.1469  0.1988
 1653ntf    on5 9672   3.937   4.033   1.081 -0.0005  0.0640 -0.0389
 1653ntf    fn4 9673   4.060   4.189   0.857  1.1204 -0.2906  0.0970
 1653ntf    fn4 9674   4.103   4.346   0.987 -0.0609  0.0567 -0.2356
 1653ntf    fn4 9675   4.196   4.155   1.019  0.1134 -0.0269  0.5713
 1654ntf    cn1 9676   3.466   3.137   1.382  0.2251 -0.1700 -0.2728
 1654ntf    sn2 9677   3.391   3.298   1.420  0.1939 -0.2851  0.1555
 1654ntf    nn3 9678   3.438   3.391   1.303  0.1889 -0.0384  0.3488
 1654ntf    sn2 9679   3.504   3.533   1.317  0.1479  0.0356 -0.1984
 1654ntf    cn1 9680   3.679   3.494   1.344  0.1128 -0.0253 -0.0614
 1654ntf    fn4 9681   3.419   3.088   1.269 -0.0811 -0.3627 -0.0633
 1654ntf    fn4 9682   3.597   3.137   1.362  0.2598  0.3922 -0.0702
 1654ntf    fn4 9683   3.447   3.046   1.476 -0.1832 -0.2060 -0.3856
 1654ntf    on5 9684   3.248   3.277   1.416  0.1473 -0.0224  0.3891
 1654ntf    on5 9685   3.456   3.325   1.546 -0.5235  0.3581  0.4029
 1654ntf    on5 9686   3.473   3.610   1.435 -0.1233 -0.5729  0.1278
 1654ntf    on5 9687   3.504   3.607   1.193 -0.0661  0.3935  0.0123
 1654ntf    fn4 9688   3.692   3.416   1.450 -0.1421  0.0521  0.0284
 1654ntf    fn4 9689   3.721   3.422   1.242 -0.0377 -0.2323  0.0218
 1654ntf    fn4 9690   3.762   3.596   1.353  0.1650 -0.1002  0.3605
 1655ntf    cn1 9691   0.834   6.205   1.752  0.1155  0.2971  0.3896
 1655ntf    sn2 9692   0.824   6.037   1.822  0.1551  0.0631 -0.1592
 1655ntf    nn3 9693   0.767   6.076   1.963 -0.2797  0.3161 -0.4052
 1655ntf    sn2 9694   0.624   6.041   2.017 -0.1195  0.0364 -0.1618
 1655ntf    cn1 9695   0.624   6.153   2.161 -0.0230 -0.0965 -0.0582
 1655ntf    fn4 9696   0.827   6.296   1.848 -0.2378  0.3310  0.3336
 1655ntf    fn4 9697   0.949   6.224   1.690 -0.0896 -0.0535 -0.1064
 1655ntf    fn4 9698   0.739   6.232   1.664  0.4927 -0.2155 -0.1892
 1655ntf    on5 9699   0.739   5.972   1.726  0.2255 -0.0864 -0.1203
 1655ntf    on5 9700   0.963   5.999   1.834  0.3328  0.8413  0.3275
 1655ntf    on5 9701   0.598   5.909   2.069 -0.6839  0.0333 -0.4488
 1655ntf    on5 9702   0.518   6.093   1.934 -0.3695  0.1131  0.2001
 1655ntf    fn4 9703   0.652   6.278   2.128  0.1258 -0.1416 -0.1010
 1655ntf    fn4 9704   0.507   6.168   2.222  0.1193  0.4317  0.0866
 1655ntf    fn4 9705   0.706   6.109   2.255  0.0417  0.6333  0.2273
 1656ntf    cn1 9706   1.368   6.133   1.146 -0.3053 -0.4721  0.4419
 1656ntf    sn2 9707   1.381   5.967   1.071  0.1246 -0.3543  0.2511
 1656ntf    nn3 9708   1.227   5.938   1.067  0.1457 -0.4286  0.0015
 1656ntf    sn2 9709   1.144   5.834   1.150 -0.0894 -0.3065 -0.0797
 1656ntf    cn1 9710   1.153   5.683   1.050  0.2014 -0.1361 -0.3131
 1656ntf    fn4 9711   1.278   6.209   1.086  0.7702  0.3761 -0.1495
 1656ntf    fn4 9712   1.331   6.124   1.273 -0.3871 -0.1185  0.4425
 1656ntf    fn4 9713   1.484   6.197   1.147 -0.4104 -0.2842  0.4999
 1656ntf    on5 9714   1.435   6.000   0.942 -0.4191  0.1750  0.1535
 1656ntf    on5 9715   1.467   5.899   1.165  0.3662 -0.6404 -0.1791
 1656ntf    on5 9716   1.002   5.859   1.148  0.0773  0.6847  0.1168
 1656ntf    on5 9717   1.205   5.798   1.276  0.2650 -0.2473 -0.2338
 1656ntf    fn4 9718   1.104   5.697   0.928 -0.2622 -0.3074 -0.1498
 1656ntf    fn4 9719   1.271   5.625   1.036  0.2251 -0.1772  0.0573
 1656ntf    fn4 9720   1.074   5.592   1.107  0.4415 -0.0827  0.1070
 1657ntf    cn1 9721   5.309   2.330   0.410  0.6883 -0.5737  0.1373
 1657ntf    sn2 9722   5.165   2.337   0.520  0.5097 -0.2802 -0.1144
 1657ntf    nn3 9723   5.093   2.203   0.485  0.0807 -0.2462  0.6098
 1657ntf    sn2 9724   4.952   2.169   0.425  0.2264 -0.0523  0.1514
 1657ntf    cn1 9725   4.991   2.162   0.248  0.0618 -0.2149  0.1210
 1657ntf    fn4 9726   5.276   2.297   0.286  0.1186 -0.6561  0.3081
 1657ntf    fn4 9727   5.367   2.449   0.402 -0.3377 -0.0776 -0.0312
 1657ntf    fn4 9728   5.392   2.233   0.446  0.3282 -0.7123  0.5965
 1657ntf    on5 9729   5.228   2.335   0.650  0.3002  0.8598  0.0232
 1657ntf    on5 9730   5.109   2.461   0.471  0.5246 -0.0971  0.3239
 1657ntf    on5 9731   4.852   2.271   0.447 -0.2542 -0.2772 -0.8986
 1657ntf    on5 9732   4.916   2.032   0.454 -0.5107  0.1938  0.4191
 1657ntf    fn4 9733   5.072   2.261   0.214 -0.3189  0.1198  0.1744
 1657ntf    fn4 9734   5.056   2.050   0.220 -0.2050 -0.4285  0.3496
 1657ntf    fn4 9735   4.890   2.157   0.162 -0.0312  0.3155  0.1990
 1658ntf    cn1 9736   4.110   4.158   0.147 -0.1780  0.0753  0.0737
 1658ntf    sn2 9737   4.256   4.126   0.250 -0.0156  0.0167 -0.1728
 1658ntf    nn3 9738   4.370   4.199   0.171  0.4822 -0.2218  0.3186
 1658ntf    sn2 9739   4.447   4.329   0.215  0.0843 -0.0124  0.4054
 1658ntf    cn1 9740   4.603   4.272   0.289  0.2608  0.0038  0.0511
 1658ntf    fn4 9741   4.000   4.153   0.220 -0.2419 -0.6686 -0.0606
 1658ntf    fn4 9742   4.111   4.277   0.090  0.4400  0.3237  0.6056
 1658ntf    fn4 9743   4.086   4.075   0.046 -0.3414 -0.5923  0.6500
 1658ntf    on5 9744   4.230   4.178   0.382  0.1184 -0.1905 -0.0657
 1658ntf    on5 9745   4.278   3.984   0.245 -0.2360 -0.0013 -0.6633
 1658ntf    on5 9746   4.393   4.418   0.314  0.0716  0.7368 -0.2669
 1658ntf    on5 9747   4.490   4.402   0.098 -0.6269 -0.2591 -0.0201
 1658ntf    fn4 9748   4.678   4.378   0.312 -0.4649  0.5653 -0.1239
 1658ntf    fn4 9749   4.591   4.218   0.409 -0.1204 -0.2908 -0.1188
 1658ntf    fn4 9750   4.676   4.196   0.210 -0.4533 -0.0273 -0.5852
 1659ntf    cn1 9751   6.677   4.706   2.754  0.2829  0.7645 -0.2391
 1659ntf    sn2 9752   6.515   4.751   2.684 -0.0309  0.0396  0.0118
 1659ntf    nn3 9753   6.453   4.844   2.794 -0.0387 -0.2260  0.2340
 1659ntf    sn2 9754   6.356   4.799   2.908 -0.0249 -0.2275  0.2454
 1659ntf    cn1 9755   6.472   4.855   3.036  0.4636  0.6305 -0.5662
 1659ntf    fn4 9756   6.743   4.816   2.785  0.3017  0.6599  0.0992
 1659ntf    fn4 9757   6.673   4.627   2.860  0.4777  0.4327 -0.4769
 1659ntf    fn4 9758   6.749   4.640   2.665 -0.4001 -0.0720 -0.1842
 1659ntf    on5 9759   6.558   4.833   2.574  0.1194  0.0502  0.0778
 1659ntf    on5 9760   6.450   4.625   2.657  0.4287 -0.1698 -0.1419
 1659ntf    on5 9761   6.341   4.659   2.941 -0.3619 -0.1492  0.4272
 1659ntf    on5 9762   6.236   4.880   2.912  0.3250  0.3050  0.0151
 1659ntf    fn4 9763   6.529   4.970   3.001  0.4329  0.9559  0.4291
 1659ntf    fn4 9764   6.403   4.882   3.145  0.1133 -0.6393 -0.4555
 1659ntf    fn4 9765   6.570   4.771   3.066 -0.1973  0.0794  0.1007
 1660ntf    cn1 9766   3.887   2.975   6.103  0.2717  0.0302  0.2652
 1660ntf    sn2 9767   4.012   2.926   5.980 -0.1297  0.0889 -0.1708
 1660ntf    nn3 9768   4.060   2.801   6.061  0.0075  0.4305  0.2764
 1660ntf    sn2 9769   4.198   2.764   6.126  0.0134 -0.1594 -0.0618
 1660ntf    cn1 9770   4.273   2.665   5.993  0.0761  0.0527 -0.1871
 1660ntf    fn4 9771   3.796   2.880   6.122  0.1223  0.1120 -0.0221
 1660ntf    fn4 9772   3.934   2.996   6.224 -0.0890 -0.2769  0.4611
 1660ntf    fn4 9773   3.823   3.085   6.066  0.1199  0.1437  0.8674
 1660ntf    on5 9774   3.928   2.897   5.866 -0.2353  0.2335 -0.1306
 1660ntf    on5 9775   4.103   3.037   5.975  0.1792 -0.1194  0.6324
 1660ntf    on5 9776   4.174   2.667   6.229  0.3450 -0.0931  0.0811
 1660ntf    on5 9777   4.288   2.873   6.159 -0.0569 -0.1814  0.2066
 1660ntf    fn4 9778   4.263   2.719   5.873  0.0017 -0.2198 -0.3058
 1660ntf    fn4 9779   4.402   2.642   6.008 -0.0089 -0.0924  0.3521
 1660ntf    fn4 9780   4.217   2.545   5.985 -0.0640  0.1191 -0.2096
 1661ntf    cn1 9781   6.405   2.369   1.096  0.5718 -0.2287 -0.6402
 1661ntf    sn2 9782   6.431   2.273   0.944  0.0239 -0.4574 -0.5936
 1661ntf    nn3 9783   6.293   2.198   0.943 -0.1212 -0.1963 -0.1995
 1661ntf    sn2 9784   6.267   2.058   1.009 -0.1533 -0.0632  0.0721
 1661ntf    cn1 9785   6.113   2.098   1.097 -0.0961  0.1331  0.0833
 1661ntf    fn4 9786   6.291   2.436   1.100  0.5287 -0.3468  0.2744
 1661ntf    fn4 9787   6.398   2.292   1.203  0.4429  0.3254 -0.2477
 1661ntf    fn4 9788   6.505   2.455   1.109  0.0248  0.3420 -0.1368
 1661ntf    on5 9789   6.442   2.366   0.834  0.1407  0.2214 -0.0153
 1661ntf    on5 9790   6.551   2.199   0.974  0.5226  0.3463 -0.5779
 1661ntf    on5 9791   6.353   2.014   1.116  0.7088 -0.2498 -0.6812
 1661ntf    on5 9792   6.223   1.951   0.923  0.2305 -0.3508  0.2314
 1661ntf    fn4 9793   6.134   2.190   1.189 -0.2498 -0.0816  0.3326
 1661ntf    fn4 9794   6.015   2.146   1.022  0.5080  0.0581 -0.7749
 1661ntf    fn4 9795   6.060   1.987   1.143  0.1904  0.1120  0.3668
 1662ntf    cn1 9796   0.521   2.168   3.622 -0.2661 -0.0771  0.3840
 1662ntf    sn2 9797   0.351   2.159   3.686 -0.3765  0.0799  0.1157
 1662ntf    nn3 9798   0.352   2.030   3.775  0.9051 -0.0277 -0.0321
 1662ntf    sn2 9799   0.303   2.000   3.921  0.1981 -0.1126 -0.2799
 1662ntf    cn1 9800   0.464   1.931   3.970 -0.0015 -0.2897  0.1334
 1662ntf    fn4 9801   0.613   2.188   3.715  0.4997 -0.0776 -0.3549
 1662ntf    fn4 9802   0.563   2.059   3.561 -0.2810  0.0482  0.1479
 1662ntf    fn4 9803   0.535   2.265   3.533  0.0609  0.0446  0.5678
 1662ntf    on5 9804   0.333   2.282   3.759 -0.0828  0.5437 -0.5893
 1662ntf    on5 9805   0.269   2.143   3.569 -0.3285  0.2100  0.0649
 1662ntf    on5 9806   0.205   1.895   3.931 -0.3646  0.4224 -0.1529
 1662ntf    on5 9807   0.285   2.113   4.009  0.2134 -0.4383  0.1485
 1662ntf    fn4 9808   0.477   1.909   4.100  0.4223 -0.0962  0.1270
 1662ntf    fn4 9809   0.487   1.819   3.903  0.2218 -0.5305  0.6072
 1662ntf    fn4 9810   0.561   2.012   3.932 -0.0935  0.1023  0.7253
 1663ntf    cn1 9811   2.009   2.250   3.797 -0.2109  0.3207  0.0080
 1663ntf    sn2 9812   2.179   2.197   3.835 -0.2379  0.0880 -0.1942
 1663ntf    nn3 9813   2.189   2.084   3.727 -0.0264  0.0695 -0.1558
 1663ntf    sn2 9814   2.167   1.931   3.756  0.1543 -0.0036 -0.3959
 1663ntf    cn1 9815   2.334   1.884   3.808 -0.0328  0.1840  0.3911
 1663ntf    fn4 9816   1.924   2.153   3.824  0.0657  0.1357  0.2155
 1663ntf    fn4 9817   1.979   2.355   3.872 -0.4093  0.5912 -0.4446
 1663ntf    fn4 9818   1.992   2.293   3.673  0.0394 -0.3956 -0.2822
 1663ntf    on5 9819   2.252   2.315   3.798 -0.2956  0.2694  0.2605
 1663ntf    on5 9820   2.176   2.154   3.973  0.0128  0.1633 -0.1644
 1663ntf    on5 9821   2.141   1.857   3.635  0.4948 -0.2816 -0.2999
 1663ntf    on5 9822   2.083   1.897   3.869  0.1777 -0.0514 -0.3932
 1663ntf    fn4 9823   2.360   1.760   3.845 -0.2995  0.0691  0.1970
 1663ntf    fn4 9824   2.424   1.917   3.717  0.0692  0.0174  0.4320
 1663ntf    fn4 9825   2.370   1.956   3.913 -0.0012 -0.1665  0.6223
 1664ntf    cn1 9826   6.670   4.200   0.650  0.4520 -0.0523 -0.3900
 1664ntf    sn2 9827   6.721   4.210   0.475  0.1370  0.0466 -0.4764
 1664ntf    nn3 9828   6.797   4.347   0.471  0.5705 -0.1830 -0.1663
 1664ntf    sn2 9829   6.788   4.478   0.384  0.3523 -0.0680  0.0298
 1664ntf    cn1 9830   6.672   4.576   0.483  0.6020  0.0298  0.2248
 1664ntf    fn4 9831   6.622   4.082   0.684 -0.0933  0.2781 -0.0111
 1664ntf    fn4 9832   6.773   4.223   0.730  0.0652 -0.3261  0.1885
 1664ntf    fn4 9833   6.574   4.285   0.680  0.1592 -0.4454 -0.2069
 1664ntf    on5 9834   6.814   4.103   0.448  0.1998  0.0725 -0.3635
 1664ntf    on5 9835   6.592   4.207   0.411 -0.3569  0.4862  0.4866
 1664ntf    on5 9836   6.714   4.470   0.260  0.1852 -0.5981  0.1590
 1664ntf    on5 9837   6.910   4.555   0.387  0.3167  0.0044 -0.3474
 1664ntf    fn4 9838   6.702   4.593   0.611  0.5803  0.3159  0.1937
 1664ntf    fn4 9839   6.663   4.701   0.439 -0.1994 -0.2177 -0.3356
 1664ntf    fn4 9840   6.547   4.533   0.474  0.6162  0.0484 -0.0612
 1665ntf    cn1 9841   4.881   0.221   1.413 -0.0317 -0.1203  0.4541
 1665ntf    sn2 9842   5.012   0.317   1.495  0.3745 -0.2105 -0.0860
 1665ntf    nn3 9843   5.134   0.297   1.397  0.3166  0.3258 -0.2675
 1665ntf    sn2 9844   5.230   0.175   1.374  0.0872  0.0730  0.1137
 1665ntf    cn1 9845   5.394   0.252   1.379  0.2207 -0.2145  0.1078
 1665ntf    fn4 9846   4.766   0.226   1.477 -0.3657 -0.1201 -0.1373
 1665ntf    fn4 9847   4.854   0.264   1.291 -0.1681 -0.1390  0.4780
 1665ntf    fn4 9848   4.911   0.093   1.395  0.3406  0.0864 -0.4540
 1665ntf    on5 9849   4.954   0.448   1.488 -0.3891 -0.5264  0.3031
 1665ntf    on5 9850   5.016   0.248   1.622  0.5054 -0.6414 -0.3194
 1665ntf    on5 9851   5.223   0.123   1.240 -0.1659  0.5245 -0.0487
 1665ntf    on5 9852   5.236   0.077   1.480  0.5548 -0.4494 -0.3926
 1665ntf    fn4 9853   5.412   0.366   1.315  0.6053 -0.4592 -0.2286
 1665ntf    fn4 9854   5.429   0.278   1.504  0.1553  0.3248  0.0122
 1665ntf    fn4 9855   5.490   0.181   1.321  0.0102  0.1377 -0.6783
 1666ntf    cn1 9856   1.642   0.429   3.789  0.1095 -0.0942 -0.3055
 1666ntf    sn2 9857   1.779   0.350   3.699  0.1363 -0.0734 -0.2827
 1666ntf    nn3 9858   1.859   0.475   3.647 -0.2548  0.3206  0.0511
 1666ntf    sn2 9859   1.992   0.542   3.698  0.0837 -0.2695 -0.0473
 1666ntf    cn1 9860   1.926   0.701   3.755 -0.1360 -0.3205 -0.1567
 1666ntf    fn4 9861   1.685   0.535   3.855  0.5481 -0.6850  0.3795
 1666ntf    fn4 9862   1.554   0.481   3.705 -0.0701 -0.0514 -0.0926
 1666ntf    fn4 9863   1.573   0.362   3.880  0.4595 -0.0203  0.0163
 1666ntf    on5 9864   1.845   0.269   3.798  0.3213  0.2986 -0.1003
 1666ntf    on5 9865   1.703   0.287   3.594  0.1084 -0.1403 -0.2221
 1666ntf    on5 9866   2.077   0.587   3.590  0.0521  0.7262  0.3335
 1666ntf    on5 9867   2.060   0.477   3.807  0.4463  0.5046  0.1880
 1666ntf    fn4 9868   1.849   0.683   3.861  0.0193 -0.1204 -0.0076
 1666ntf    fn4 9869   2.021   0.786   3.791 -0.1016 -0.4884  0.1538
 1666ntf    fn4 9870   1.862   0.764   3.658 -0.6069 -0.6429 -0.0588
 1667ntf    cn1 9871   4.937   0.392   5.266 -0.0640 -0.0997  0.1390
 1667ntf    sn2 9872   4.974   0.538   5.164 -0.2564 -0.2873 -0.2040
 1667ntf    nn3 9873   5.029   0.637   5.274  0.5813 -0.0827 -0.7951
 1667ntf    sn2 9874   5.178   0.658   5.319  0.2636 -0.0069  0.2386
 1667ntf    cn1 9875   5.195   0.595   5.489  0.1041 -0.1973  0.1847
 1667ntf    fn4 9876   5.041   0.359   5.339  0.1457 -0.0210 -0.1227
 1667ntf    fn4 9877   4.837   0.414   5.350 -0.0113 -0.5621  0.3258
 1667ntf    fn4 9878   4.900   0.286   5.196  0.1668 -0.1521  0.0983
 1667ntf    on5 9879   5.063   0.491   5.061 -0.1329  0.2332 -0.3402
 1667ntf    on5 9880   4.841   0.578   5.127 -0.5493 -0.4849  0.6002
 1667ntf    on5 9881   5.222   0.794   5.338  0.2268 -0.0302  0.5026
 1667ntf    on5 9882   5.270   0.571   5.250  0.0389  0.1270 -0.2339
 1667ntf    fn4 9883   5.117   0.665   5.569  0.1299 -0.1750  0.1914
 1667ntf    fn4 9884   5.166   0.466   5.499  0.5192 -0.3382 -0.3609
 1667ntf    fn4 9885   5.322   0.608   5.524  0.0583  0.0263  0.2678
 1668ntf    cn1 9886   3.979   5.763   6.066  0.1418  0.0505  0.3016
 1668ntf    sn2 9887   3.922   5.722   6.234 -0.1463  0.2553  0.2546
 1668ntf    nn3 9888   4.033   5.617   6.271 -0.1668  0.0104 -0.3642
 1668ntf    sn2 9889   4.150   5.631   6.374 -0.2979  0.0300 -0.2179
 1668ntf    cn1 9890   4.293   5.670   6.268 -0.2611  0.2604 -0.0845
 1668ntf    fn4 9891   4.009   5.652   6.001 -0.3396  0.1870 -0.1578
 1668ntf    fn4 9892   3.891   5.834   5.997  0.4016  0.1057  0.0254
 1668ntf    fn4 9893   4.085   5.842   6.064  0.0629  0.1567  0.2416
 1668ntf    on5 9894   3.925   5.847   6.305  0.6917  0.3274  0.1064
 1668ntf    on5 9895   3.792   5.664   6.209 -0.1613  0.2269  0.3976
 1668ntf    on5 9896   4.192   5.504   6.428 -0.2817  0.0682 -0.1407
 1668ntf    on5 9897   4.145   5.737   6.471  0.5840 -0.0602 -0.0650
 1668ntf    fn4 9898   4.337   5.568   6.196  0.3412  0.3640  0.1352
 1668ntf    fn4 9899   4.267   5.772   6.189 -0.4638  0.3167  0.0545
 1668ntf    fn4 9900   4.391   5.729   6.335  0.2745 -0.8387  0.1232
 1669ntf    cn1 9901   1.459   6.671   6.612  0.4110 -0.0336  0.1909
 1669ntf    sn2 9902   1.312   6.777   6.594  0.3208 -0.1209  0.4157
 1669ntf    nn3 9903   1.341   6.886   6.703  0.1857  0.2480  0.0858
 1669ntf    sn2 9904   1.241   6.955   6.803 -0.0661  0.2114 -0.1392
 1669ntf    cn1 9905   1.242   6.843   6.946  0.1532  0.1672 -0.1739
 1669ntf    fn4 9906   1.447   6.554   6.552  0.0664  0.1191 -0.0447
 1669ntf    fn4 9907   1.570   6.723   6.563  0.3185 -0.1333 -0.1298
 1669ntf    fn4 9908   1.484   6.645   6.739 -0.2305 -0.2437  0.2760
 1669ntf    on5 9909   1.321   6.822   6.457 -0.2236  0.1968  0.4796
 1669ntf    on5 9910   1.205   6.689   6.631 -0.1084  0.0053 -0.4994
 1669ntf    on5 9911   1.105   6.964   6.755  0.1232 -0.0960 -0.7396
 1669ntf    on5 9912   1.304   7.072   6.859  0.1984  0.0210 -0.0366
 1669ntf    fn4 9913   1.227   6.715   6.918  0.5953  0.0945 -0.0850
 1669ntf    fn4 9914   1.349   6.841   7.023 -0.1649  0.3078  0.2797
 1669ntf    fn4 9915   1.142   6.868   7.029  0.2183  0.1232 -0.0817
 1670ntf    cn1 9916   4.299   2.684   1.738  0.0232 -0.1480 -0.1764
 1670ntf    sn2 9917   4.154   2.624   1.647 -0.1551 -0.2402  0.1684
 1670ntf    nn3 9918   4.056   2.717   1.727  0.3088  0.3621  0.0426
 1670ntf    sn2 9919   3.904   2.691   1.756  0.3301  0.3357  0.1325
 1670ntf    cn1 9920   3.830   2.842   1.686  0.2682 -0.0209 -0.5849
 1670ntf    fn4 9921   4.416   2.635   1.699  0.1289  0.1287 -0.2105
 1670ntf    fn4 9922   4.313   2.815   1.728 -0.0314 -0.1075  0.2471
 1670ntf    fn4 9923   4.293   2.663   1.869 -0.0884 -0.4576 -0.2307
 1670ntf    on5 9924   4.170   2.673   1.512  0.0662 -0.2080  0.2054
 1670ntf    on5 9925   4.154   2.482   1.675  0.0362 -0.2473  0.1321
 1670ntf    on5 9926   3.869   2.679   1.895 -0.4960 -0.5025 -0.1413
 1670ntf    on5 9927   3.850   2.587   1.672  0.0710  0.5447  0.0370
 1670ntf    fn4 9928   3.851   2.855   1.556  0.2042  0.1922 -0.5751
 1670ntf    fn4 9929   3.698   2.835   1.695  0.2670  0.5462 -0.0420
 1670ntf    fn4 9930   3.868   2.956   1.742  0.2369 -0.3828  0.1906
 1671ntf    cn1 9931   5.881   0.924   2.988 -0.1490  0.1500 -0.0817
 1671ntf    sn2 9932   5.920   0.750   3.023 -0.1768  0.1220 -0.1895
 1671ntf    nn3 9933   5.908   0.682   2.882  0.0011 -0.3261  0.0116
 1671ntf    sn2 9934   6.023   0.661   2.777 -0.2254 -0.0796 -0.2821
 1671ntf    cn1 9935   6.110   0.510   2.827 -0.3389 -0.1571 -0.3184
 1671ntf    fn4 9936   5.984   0.987   2.934 -0.1645  0.2304 -0.0171
 1671ntf    fn4 9937   5.782   0.941   2.902  0.1756 -0.1323 -0.5185
 1671ntf    fn4 9938   5.848   0.981   3.102  0.1868 -0.1212  0.1545
 1671ntf    on5 9939   6.053   0.752   3.078 -0.3737  0.0442  0.3034
 1671ntf    on5 9940   5.813   0.712   3.113 -0.0430  0.5623  0.1569
 1671ntf    on5 9941   6.130   0.757   2.781 -0.3681  0.0519  0.5419
 1671ntf    on5 9942   5.975   0.629   2.644 -0.3505 -0.5531 -0.1257
 1671ntf    fn4 9943   6.226   0.498   2.765 -0.2203 -0.0143 -0.1215
 1671ntf    fn4 9944   6.138   0.519   2.956  0.5043  0.2655 -0.5281
 1671ntf    fn4 9945   6.045   0.395   2.812  0.0404 -0.4128 -0.0234
 1672ntf    cn1 9946   0.021   4.327   3.430 -0.2895 -0.3306  0.0788
 1672ntf    sn2 9947  -0.083   4.335   3.579 -0.3751  0.0865 -0.0024
 1672ntf    nn3 9948   0.008   4.420   3.675  0.0090  0.0207 -0.3069
 1672ntf    sn2 9949  -0.027   4.544   3.764 -0.1283 -0.2076 -0.0383
 1672ntf    cn1 9950  -0.048   4.462   3.924 -0.1493 -0.0745  0.0275
 1672ntf    fn4 9951   0.146   4.304   3.466 -0.2019 -0.2331 -0.1619
 1672ntf    fn4 9952  -0.016   4.231   3.347 -0.5171 -0.0463 -0.1517
 1672ntf    fn4 9953   0.019   4.442   3.364  0.1523 -0.1665  0.3487
 1672ntf    on5 9954  -0.207   4.397   3.540 -0.0628  0.1867 -0.8535
 1672ntf    on5 9955  -0.086   4.200   3.628 -0.0582  0.2267  0.4109
 1672ntf    on5 9956  -0.150   4.614   3.739  0.1976  0.3675 -0.0690
 1672ntf    on5 9957   0.091   4.621   3.795 -0.1273 -0.2688  0.1086
 1672ntf    fn4 9958  -0.101   4.544   4.015 -0.2092 -0.6302  0.5004
 1672ntf    fn4 9959  -0.124   4.353   3.920  0.0863 -0.2347 -0.0542
 1672ntf    fn4 9960   0.070   4.421   3.968 -0.4707 -0.1464  0.8550
 1673ntf    cn1 9961   3.713   5.554   3.810  0.4709 -0.2168 -0.1502
 1673ntf    sn2 9962   3.704   5.402   3.710  0.0439 -0.0646 -0.3449
 1673ntf    nn3 9963   3.554   5.390   3.665 -0.2375  0.3335  0.4596
 1673ntf    sn2 9964   3.441   5.296   3.721 -0.2313  0.1629  0.1914
 1673ntf    cn1 9965   3.430   5.164   3.597 -0.0891  0.1322  0.2108
 1673ntf    fn4 9966   3.625   5.547   3.908  0.3218  0.0831 -0.2622
 1673ntf    fn4 9967   3.830   5.582   3.865  0.2313  0.5581 -0.0198
 1673ntf    fn4 9968   3.678   5.654   3.731  0.9132  0.1647  0.1361
 1673ntf    on5 9969   3.790   5.444   3.603  0.2448  0.0486 -0.1397
 1673ntf    on5 9970   3.759   5.301   3.797  0.3010  0.4055  0.0427
 1673ntf    on5 9971   3.315   5.367   3.719 -0.2314  0.1468 -0.5995
 1673ntf    on5 9972   3.465   5.230   3.847  0.5471 -0.0932 -0.0828
 1673ntf    fn4 9973   3.346   5.069   3.637  0.5093 -0.4578  0.0803
 1673ntf    fn4 9974   3.373   5.201   3.483  0.4163 -0.2240 -0.1603
 1673ntf    fn4 9975   3.544   5.106   3.564 -0.7959 -1.0573 -0.1953
 1674ntf    cn1 9976   6.689   0.860   2.472 -0.5065 -0.0926  0.0101
 1674ntf    sn2 9977   6.529   0.816   2.399 -0.6037 -0.0045  0.1704
 1674ntf    nn3 9978   6.580   0.741   2.271 -0.4787  0.5026 -0.0803
 1674ntf    sn2 9979   6.561   0.757   2.116 -0.0141  0.0499 -0.1865
 1674ntf    cn1 9980   6.389   0.699   2.104 -0.1501  0.4629 -0.2165
 1674ntf    fn4 9981   6.680   0.947   2.571  0.0909  0.2449 -0.2234
 1674ntf    fn4 9982   6.748   0.753   2.523 -0.3350 -0.0374 -0.0715
 1674ntf    fn4 9983   6.776   0.902   2.381  0.1780 -0.7295  0.3543
 1674ntf    on5 9984   6.459   0.722   2.483 -0.7406  0.2218  0.3099
 1674ntf    on5 9985   6.469   0.947   2.388  0.3012  0.4631  0.7196
 1674ntf    on5 9986   6.641   0.665   2.039 -0.5356  0.0783 -0.7693
 1674ntf    on5 9987   6.551   0.894   2.074  0.3797  0.0850 -0.1702
 1674ntf    fn4 9988   6.346   0.688   1.979 -1.4570 -0.0807  0.2638
 1674ntf    fn4 9989   6.372   0.579   2.156 -0.3096  0.7996  0.5293
 1674ntf    fn4 9990   6.305   0.780   2.167 -0.3195  0.4011 -0.3630
 1675ntf    cn1 9991   6.333   0.069   1.384 -0.0413 -0.3311  0.1291
 1675ntf    sn2 9992   6.268   0.220   1.305 -0.1302 -0.3698  0.1277
 1675ntf    nn3 9993   6.157   0.158   1.213 -0.1027 -0.2349  0.0024
 1675ntf    sn2 9994   6.140   0.132   1.059  0.1674 -0.2972 -0.0176
 1675ntf    cn1 9995   6.093  -0.043   1.057 -0.2487 -0.1839 -0.3774
 1675ntf    fn4 9996   6.397  -0.007   1.297  0.7801  0.4525  0.0374
 1675ntf    fn4 9997   6.422   0.098   1.478  0.2221 -0.5309 -0.0570
 1675ntf    fn4 9998   6.236  -0.005   1.433 -0.4966 -0.0822 -0.3808
 1675ntf    on5 9999   6.213   0.301   1.409 -0.5425 -0.3202 -0.1282
 1675ntf    on510000   6.383   0.275   1.237 -0.3670  0.0720  0.0835
 1675ntf    on510001   6.265   0.150   0.989 -0.0696  0.0433 -0.3591
 1675ntf    on510002   6.027   0.201   1.001  0.0734  0.1098  0.6390
 1675ntf    fn410003   6.095  -0.084   0.931 -0.0385 -0.3713 -0.3154
 1675ntf    fn410004   6.187  -0.118   1.113 -0.2588  0.0930  0.0137
 1675ntf    fn410005   5.981  -0.076   1.119 -0.1747  0.1191 -0.0831
 1676ntf    cn110006   0.012   6.199   2.225 -0.1683 -0.6381  0.2515
 1676ntf    sn210007  -0.019   6.086   2.086  0.0838 -0.3122 -0.0682
 1676ntf    nn310008  -0.161   6.040   2.133 -0.0022 -0.2277 -0.2458
 1676ntf    sn210009  -0.285   6.008   2.041 -0.2039 -0.1603  0.0027
 1676ntf    cn110010  -0.362   5.877   2.140 -0.1933 -0.3598 -0.2518
 1676ntf    fn410011  -0.088   6.283   2.247  0.4062 -0.1142  0.9179
 1676ntf    fn410012   0.024   6.133   2.339 -0.0113 -0.3462  0.4040
 1676ntf    fn410013   0.125   6.265   2.205 -0.5725 -0.0391 -0.0837
 1676ntf    on510014  -0.005   6.171   1.970 -0.1853  0.0708  0.1753
 1676ntf    on510015   0.083   5.986   2.107  0.0806 -0.4269 -0.5853
 1676ntf    on510016  -0.255   5.945   1.915 -0.0915 -0.2131  0.0555
 1676ntf    on510017  -0.377   6.119   2.036 -0.0312 -0.0082  0.1610
 1676ntf    fn410018  -0.481   5.850   2.089 -0.2730  0.6156 -0.6012
 1676ntf    fn410019  -0.297   5.761   2.139  0.3675 -0.0524  0.1109
 1676ntf    fn410020  -0.384   5.915   2.265  0.6036 -0.0710 -0.1951
 1677ntf    cn110021   6.566   5.029   1.359 -0.0044  0.2917  0.1861
 1677ntf    sn210022   6.731   4.986   1.296 -0.2182 -0.1027 -0.1055
 1677ntf    nn310023   6.690   4.919   1.160 -0.1833  0.0087 -0.1710
 1677ntf    sn210024   6.681   4.767   1.121 -0.0902 -0.0323 -0.0329
 1677ntf    cn110025   6.543   4.773   1.004 -0.3110 -0.3579  0.2102
 1677ntf    fn410026   6.570   5.060   1.487 -0.3155  0.2234  0.2134
 1677ntf    fn410027   6.507   5.124   1.288 -0.1642  0.2449  0.2569
 1677ntf    fn410028   6.483   4.926   1.350  0.0961  0.2272 -0.0127
 1677ntf    on510029   6.796   5.114   1.291 -0.3281 -0.0587 -0.4944
 1677ntf    on510030   6.786   4.892   1.390  0.2826  0.0749 -0.2192
 1677ntf    on510031   6.628   4.677   1.220 -0.1538  0.1139  0.0654
 1677ntf    on510032   6.792   4.718   1.042  0.0876  0.7319 -0.2671
 1677ntf    fn410033   6.423   4.785   1.059 -0.2571  0.3699  0.1772
 1677ntf    fn410034   6.563   4.875   0.921 -0.1858 -0.5428  0.0101
 1677ntf    fn410035   6.544   4.661   0.933  0.4158 -0.1311 -0.1444
 1678ntf    cn110036   2.076   6.423   4.351 -0.1925 -0.6620 -0.0201
 1678ntf    sn210037   1.965   6.467   4.488  0.3311  0.0145  0.1951
 1678ntf    nn310038   2.057   6.443   4.612 -0.0831 -0.0403  0.4924
 1678ntf    sn210039   2.019   6.441   4.765 -0.4391 -0.0762  0.4053
 1678ntf    cn110040   2.093   6.278   4.800 -0.1241 -0.1031 -0.3528
 1678ntf    fn410041   2.024   6.420   4.230 -0.1150 -0.4998 -0.0586
 1678ntf    fn410042   2.178   6.508   4.344 -0.5068 -0.3503 -0.8389
 1678ntf    fn410043   2.129   6.304   4.374  0.4908 -0.2222  0.7617
 1678ntf    on510044   1.929   6.606   4.465  0.4310 -0.0928 -0.6689
 1678ntf    on510045   1.856   6.374   4.475  0.1226  0.2800  0.0013
 1678ntf    on510046   1.880   6.436   4.803 -0.5197 -0.6012  0.0549
 1678ntf    on510047   2.103   6.527   4.845  0.3674 -0.1717 -0.3112
 1678ntf    fn410048   2.088   6.251   4.929 -0.2068 -0.4329 -0.4255
 1678ntf    fn410049   2.022   6.182   4.742 -0.4470  0.1792 -0.4319
 1678ntf    fn410050   2.220   6.274   4.763  0.1149  0.0158  0.4428
 1679ntf    cn110051   2.215   5.235   2.724 -0.0195  0.2633  0.2055
 1679ntf    sn210052   2.153   5.406   2.717  0.0629  0.2791 -0.1327
 1679ntf    nn310053   2.076   5.397   2.580 -0.0469 -0.2461 -0.0415
 1679ntf    sn210054   2.109   5.458   2.439 -0.0517 -0.2226 -0.0328
 1679ntf    cn110055   2.034   5.622   2.463  0.5479  0.0834 -0.2117
 1679ntf    fn410056   2.285   5.218   2.835  0.5209  0.8589 -0.0388
 1679ntf    fn410057   2.119   5.144   2.727 -0.0717  0.3096 -0.0997
 1679ntf    fn410058   2.296   5.206   2.624  0.2446 -0.3093  0.5782
 1679ntf    on510059   2.059   5.408   2.826  0.5880  0.4752  0.3180
 1679ntf    on510060   2.269   5.491   2.722 -0.2919  0.7473  0.2547
 1679ntf    on510061   2.036   5.393   2.333  0.0220 -0.2988 -0.0372
 1679ntf    on510062   2.248   5.490   2.415 -0.1129  0.4151  0.4373
 1679ntf    fn410063   2.054   5.709   2.366  0.4383  0.6071  0.2272
 1679ntf    fn410064   1.903   5.605   2.468  0.6145 -0.2851  0.4894
 1679ntf    fn410065   2.073   5.685   2.573  0.6955  0.0067 -0.2190
 1680ntf    cn110066   3.779   4.141   5.732 -0.0813  0.2190  0.1311
 1680ntf    sn210067   3.816   4.090   5.562  0.1465  0.2880  0.1603
 1680ntf    nn310068   3.715   3.972   5.542  0.0676  0.3440  0.2316
 1680ntf    sn210069   3.608   3.946   5.430  0.1584  0.2078  0.1760
 1680ntf    cn110070   3.452   3.998   5.507 -0.1968  0.1263 -0.4836
 1680ntf    fn410071   3.849   4.244   5.776  0.3189  0.2115 -0.4804
 1680ntf    fn410072   3.651   4.172   5.746 -0.1091  0.2008 -0.0888
 1680ntf    fn410073   3.799   4.040   5.816 -0.2355  0.2130  0.1623
 1680ntf    on510074   3.786   4.209   5.486  0.0457  0.3208  0.2526
 1680ntf    on510075   3.955   4.055   5.579 -0.1749 -0.8743  0.4968
 1680ntf    on510076   3.593   3.804   5.410  0.1070  0.1077  0.8937
 1680ntf    on510077   3.618   4.021   5.307  0.2469 -0.3457 -0.1565
 1680ntf    fn410078   3.456   4.125   5.542  0.7236 -0.1224  0.3535
 1680ntf    fn410079   3.350   3.980   5.424 -0.2417  0.3525 -0.4767
 1680ntf    fn410080   3.426   3.934   5.620 -0.1125  0.2151 -0.4141
 1681ntf    cn110081   0.556   3.342   0.651 -0.0144  0.1395 -0.1326
 1681ntf    sn210082   0.436   3.440   0.556 -0.2040  0.2101  0.1797
 1681ntf    nn310083   0.321   3.337   0.527 -0.2452  0.3560 -0.1702
 1681ntf    sn210084   0.193   3.307   0.613 -0.1317 -0.1061 -0.1609
 1681ntf    cn110085   0.055   3.292   0.496 -0.0024 -0.3693 -0.2815
 1681ntf    fn410086   0.599   3.234   0.587 -0.1823 -0.1600  0.2563
 1681ntf    fn410087   0.661   3.412   0.691 -0.0102 -0.1003  0.2790
 1681ntf    fn410088   0.501   3.292   0.761 -0.2429  0.0350 -0.2939
 1681ntf    on510089   0.397   3.546   0.645  0.3248  0.5611 -0.0032
 1681ntf    on510090   0.506   3.467   0.433  0.4111  0.4959  0.5885
 1681ntf    on510091   0.150   3.409   0.704  0.1945 -0.1396  0.0321
 1681ntf    on510092   0.191   3.173   0.666 -0.0507 -0.0964 -0.1332
 1681ntf    fn410093   0.065   3.388   0.406  0.2080  0.0860  0.2241
 1681ntf    fn410094   0.054   3.176   0.432  0.0703 -0.3626 -0.2942
 1681ntf    fn410095  -0.061   3.303   0.558  0.3631  0.0091  0.3397
 1682ntf    cn110096   5.270   0.127   0.241  0.4220  0.1156 -0.1759
 1682ntf    sn210097   5.205   0.026   0.376  0.2405 -0.0027 -0.3509
 1682ntf    nn310098   5.196   0.131   0.493  0.1262  0.1503 -0.4964
 1682ntf    sn210099   5.072   0.215   0.539  0.0835 -0.0287 -0.2791
 1682ntf    cn110100   5.161   0.355   0.615 -0.1833  0.0955 -0.1948
 1682ntf    fn410101   5.280   0.253   0.281  0.4923  0.2007 -0.4548
 1682ntf    fn410102   5.392   0.098   0.197  0.5176 -0.0191  0.1767
 1682ntf    fn410103   5.186   0.129   0.138 -0.1390  0.3582  0.2796
 1682ntf    on510104   5.078  -0.027   0.331  0.0954  0.0791 -0.0477
 1682ntf    on510105   5.312  -0.067   0.398 -0.1844 -0.4834 -0.2856
 1682ntf    on510106   4.989   0.157   0.642 -0.0146  0.2300 -0.2106
 1682ntf    on510107   5.003   0.285   0.433 -0.0683 -0.0361 -0.1857
 1682ntf    fn410108   5.247   0.406   0.530  0.3191  0.1380  0.3320
 1682ntf    fn410109   5.086   0.456   0.655 -0.0647  0.0045  0.2641
 1682ntf    fn410110   5.234   0.319   0.720 -0.2236  0.2965 -0.0982
 1683ntf    cn110111   2.758   4.833   1.774  0.1711  0.2186 -0.1132
 1683ntf    sn210112   2.793   4.677   1.862 -0.2177 -0.0550 -0.4393
 1683ntf    nn310113   2.681   4.685   1.972 -0.2381  0.5363 -0.4967
 1683ntf    sn210114   2.539   4.619   1.976  0.1036 -0.1908 -0.1129
 1683ntf    cn110115   2.456   4.707   2.111  0.2849  0.0684 -0.1700
 1683ntf    fn410116   2.647   4.829   1.702  0.0568 -0.5017  0.0891
 1683ntf    fn410117   2.744   4.940   1.851  0.0532  0.1760 -0.0742
 1683ntf    fn410118   2.856   4.855   1.689  0.2309  0.3044 -0.0222
 1683ntf    on510119   2.779   4.574   1.763  0.3679  0.0085 -0.5894
 1683ntf    on510120   2.923   4.692   1.921 -0.6836  0.1071  0.5618
 1683ntf    on510121   2.535   4.480   2.014 -0.3264 -0.3533 -0.7215
 1683ntf    on510122   2.459   4.650   1.860  0.0076  0.2662  0.0763
 1683ntf    fn410123   2.327   4.678   2.109  0.3368 -0.1890  0.2370
 1683ntf    fn410124   2.493   4.665   2.230 -0.0928 -0.0870 -0.1050
 1683ntf    fn410125   2.466   4.838   2.094  0.0444  0.0127 -0.7638
 1684ntf    cn110126   1.036   1.608   0.672 -0.1285  0.0887  0.1351
 1684ntf    sn210127   1.022   1.437   0.612  0.1117  0.1461 -0.0831
 1684ntf    nn310128   1.155   1.405   0.534 -0.1652  0.0615 -0.5235
 1684ntf    sn210129   1.263   1.297   0.568 -0.2698  0.1455  0.0868
 1684ntf    cn110130   1.180   1.148   0.505  0.6230 -0.1877 -0.3231
 1684ntf    fn410131   1.017   1.694   0.574 -0.0849 -0.0732 -0.0157
 1684ntf    fn410132   0.947   1.640   0.765 -0.1657  0.2610  0.0386
 1684ntf    fn410133   1.155   1.637   0.721 -0.2444  0.4511  0.2017
 1684ntf    on510134   1.007   1.356   0.730  0.1372 -0.0471 -0.2105
 1684ntf    on510135   0.914   1.437   0.517 -0.3436  0.0558  0.4343
 1684ntf    on510136   1.298   1.264   0.704 -0.2002 -0.6186 -0.1117
 1684ntf    on510137   1.376   1.318   0.480 -0.3557 -0.4070 -0.1647
 1684ntf    fn410138   1.238   1.037   0.549  0.5682 -0.2184 -0.3277
 1684ntf    fn410139   1.052   1.146   0.538  0.7610  0.0436  0.2289
 1684ntf    fn410140   1.174   1.143   0.373  0.4121 -0.1138 -0.3158
 1685ntf    cn110141   1.650   3.033   2.352 -0.2300 -0.4235  0.1400
 1685ntf    sn210142   1.494   3.125   2.371  0.1519  0.2186  0.1985
 1685ntf    nn310143   1.548   3.271   2.352  0.3960  0.0820 -0.1681
 1685ntf    sn210144   1.496   3.408   2.408  0.1125 -0.0217 -0.1792
 1685ntf    cn110145   1.372   3.448   2.281 -0.0447  0.0773  0.0057
 1685ntf    fn410146   1.725   3.066   2.456  0.4089 -0.0163 -0.4404
 1685ntf    fn410147   1.617   2.906   2.361 -0.3820 -0.3870  0.1022
 1685ntf    fn410148   1.728   3.048   2.246 -0.6471  0.7078 -0.0204
 1685ntf    on510149   1.420   3.078   2.256  0.2456  0.5137  0.0161
 1685ntf    on510150   1.445   3.070   2.495 -0.1369 -0.2680 -0.1269
 1685ntf    on510151   1.586   3.520   2.398 -0.4252  0.4163 -0.1541
 1685ntf    on510152   1.416   3.404   2.528  0.0628  0.0509 -0.2090
 1685ntf    fn410153   1.418   3.426   2.159  0.2746 -0.7400  0.2725
 1685ntf    fn410154   1.260   3.381   2.303 -0.2300  0.4942  0.3443
 1685ntf    fn410155   1.338   3.576   2.284  0.3291  0.1838 -0.2712
 1686ntf    cn110156   1.830   0.453   6.196  0.5098 -0.3087  0.2457
 1686ntf    sn210157   1.851   0.587   6.316  0.0253  0.0251 -0.0391
 1686ntf    nn310158   1.868   0.501   6.446 -0.4713  0.3254  0.2300
 1686ntf    sn210159   1.987   0.481   6.547 -0.3337 -0.3945 -0.0664
 1686ntf    cn110160   1.933   0.592   6.681 -0.0752  0.3987 -0.6132
 1686ntf    fn410161   1.941   0.383   6.181  0.4557 -0.4365  0.4434
 1686ntf    fn410162   1.738   0.363   6.229 -0.3395  0.0431 -1.0860
 1686ntf    fn410163   1.795   0.489   6.073  0.1580  0.0160  0.4376
 1686ntf    on510164   1.960   0.670   6.272 -0.1393  0.3842  0.2248
 1686ntf    on510165   1.719   0.646   6.315  0.1255  0.2749  0.6337
 1686ntf    on510166   2.116   0.530   6.505 -0.6325  0.1361 -0.3879
 1686ntf    on510167   1.981   0.350   6.606 -0.3871 -0.2084  0.3454
 1686ntf    fn410168   1.892   0.714   6.650 -0.3988  0.4389 -0.0293
 1686ntf    fn410169   1.841   0.537   6.758  0.0749  0.4463 -0.3973
 1686ntf    fn410170   2.028   0.610   6.771 -0.0990 -0.6289 -0.3751
 1687ntf    cn110171   2.004   2.407   4.686 -0.1238 -0.2774  0.3409
 1687ntf    sn210172   2.081   2.307   4.555 -0.3744 -0.2603  0.1805
 1687ntf    nn310173   2.227   2.331   4.605 -0.4996  0.4496  0.2208
 1687ntf    sn210174   2.342   2.417   4.540  0.1368 -0.2518  0.3992
 1687ntf    cn110175   2.393   2.507   4.689  0.0177 -0.0091  0.2928
 1687ntf    fn410176   1.874   2.429   4.671  0.0347  0.3295 -0.1566
 1687ntf    fn410177   2.024   2.351   4.804  0.1384 -0.0564  0.4031
 1687ntf    fn410178   2.062   2.526   4.691 -0.1859 -0.2461  0.3164
 1687ntf    on510179   2.032   2.175   4.586 -0.8473 -0.0822  0.2091
 1687ntf    on510180   2.039   2.367   4.430 -0.6317 -0.3936  0.2005
 1687ntf    on510181   2.295   2.524   4.455  0.5259 -0.0860  0.3916
 1687ntf    on510182   2.456   2.345   4.488 -0.0720  0.0332 -0.4661
 1687ntf    fn410183   2.294   2.575   4.746 -0.4800 -0.3488 -0.1583
 1687ntf    fn410184   2.444   2.437   4.788  0.2785 -0.3103 -0.0557
 1687ntf    fn410185   2.480   2.602   4.658 -0.0136  0.0465  0.3748
 1688ntf    cn110186   3.637   0.290   4.058 -0.2902  0.2631 -0.1596
 1688ntf    sn210187   3.644   0.249   3.881  0.0073 -0.3991  0.0054
 1688ntf    nn310188   3.766   0.151   3.868  0.1625 -0.2080  0.0198
 1688ntf    sn210189   3.920   0.173   3.891  0.1267  0.0146  0.0460
 1688ntf    cn110190   3.978   0.183   3.719  0.0752  0.0416  0.0298
 1688ntf    fn410191   3.534   0.365   4.095  0.0640  0.6367  0.0867
 1688ntf    fn410192   3.638   0.182   4.135 -0.2466  0.0384 -0.4756
 1688ntf    fn410193   3.736   0.363   4.108  0.1453 -0.3215 -0.1603
 1688ntf    on510194   3.519   0.181   3.856  0.1207 -0.6268  0.0528
 1688ntf    on510195   3.663   0.372   3.810  0.0330 -0.4033  0.0050
 1688ntf    on510196   3.989   0.053   3.930 -0.3647 -0.0700  0.6743
 1688ntf    on510197   3.953   0.301   3.949  1.0882 -0.2186  0.0242
 1688ntf    fn410198   4.107   0.209   3.711  0.1475 -0.3636 -0.1412
 1688ntf    fn410199   3.945   0.077   3.646 -0.0122  0.1131 -0.0338
 1688ntf    fn410200   3.919   0.283   3.657 -0.2407 -0.1061  0.0864
 1689ntf    cn110201   5.770   2.218   5.124 -0.0616 -0.0925  0.2002
 1689ntf    sn210202   5.743   2.281   4.956 -0.1355 -0.1005  0.2093
 1689ntf    nn310203   5.877   2.360   4.943 -0.4317  0.3916  0.1080
 1689ntf    sn210204   6.012   2.319   4.873 -0.5289  0.3687 -0.0649
 1689ntf    cn110205   6.141   2.416   4.957 -0.2069 -0.2454  0.1624
 1689ntf    fn410206   5.879   2.145   5.140  0.1613  0.1796 -0.0662
 1689ntf    fn410207   5.777   2.314   5.215  0.1489  0.0344  0.0524
 1689ntf    fn410208   5.668   2.139   5.152 -0.2493  0.0099 -0.1920
 1689ntf    on510209   5.734   2.161   4.875 -0.3011 -0.0255  0.1147
 1689ntf    on510210   5.630   2.368   4.979 -0.1943 -0.2409  0.4534
 1689ntf    on510211   6.033   2.355   4.735  0.3787  0.0301 -0.0190
 1689ntf    on510212   6.056   2.186   4.909  0.1347  0.6625  0.2389
 1689ntf    fn410213   6.116   2.399   5.085 -0.0355 -0.1186  0.2131
 1689ntf    fn410214   6.265   2.383   4.927  0.0457  0.6381  0.2021
 1689ntf    fn410215   6.129   2.545   4.928  0.0322 -0.2609 -0.0109
 1690ntf    cn110216   5.098   3.497   4.239  0.5084 -0.4084 -0.0297
 1690ntf    sn210217   5.166   3.332   4.273  0.1499 -0.4897  0.3051
 1690ntf    nn310218   5.036   3.246   4.264 -0.1774  0.0405 -0.0649
 1690ntf    sn210219   4.929   3.227   4.378 -0.0743  0.1067  0.0424
 1690ntf    cn110220   5.011   3.095   4.471 -0.3165  0.0551  0.1831
 1690ntf    fn410221   5.177   3.602   4.249 -0.1196  0.0665 -0.0161
 1690ntf    fn410222   5.040   3.506   4.120  0.1101 -0.0570  0.1860
 1690ntf    fn410223   5.004   3.529   4.326  0.3656 -0.0338 -0.3184
 1690ntf    on510224   5.251   3.306   4.159  0.1597  0.6340  0.0461
 1690ntf    on510225   5.226   3.354   4.403 -0.3273 -0.2601  0.4874
 1690ntf    on510226   4.811   3.156   4.335  0.3437 -0.5821  0.0217
 1690ntf    on510227   4.915   3.338   4.468 -0.4894 -0.1492  0.2920
 1690ntf    fn410228   5.107   3.130   4.556  0.1851  0.0260 -0.3648
 1690ntf    fn410229   4.930   3.014   4.537 -0.1083  0.1050  0.5049
 1690ntf    fn410230   5.078   3.005   4.400  0.1391  0.7425 -0.2669
 1691ntf    cn110231   1.870   5.412   5.703  0.1449 -0.3019  0.3720
 1691ntf    sn210232   1.800   5.401   5.870 -0.0516 -0.1962  0.2975
 1691ntf    nn310233   1.876   5.268   5.904  0.2795 -0.0055  0.3096
 1691ntf    sn210234   1.817   5.130   5.952 -0.0828  0.0209 -0.0594
 1691ntf    cn110235   1.978   5.046   5.949 -0.1501 -0.1152  0.1608
 1691ntf    fn410236   2.002   5.411   5.705  0.1451 -1.0915  0.2083
 1691ntf    fn410237   1.839   5.309   5.627  0.2515  0.1144 -0.2440
 1691ntf    fn410238   1.829   5.516   5.631  0.0583 -0.7392 -0.2189
 1691ntf    on510239   1.836   5.518   5.945  0.2562 -0.3269  0.3549
 1691ntf    on510240   1.659   5.384   5.847 -0.0163  0.0088 -0.0773
 1691ntf    on510241   1.730   5.059   5.861  0.2458 -0.5580  0.0792
 1691ntf    on510242   1.789   5.123   6.093 -0.7858  0.0119 -0.1956
 1691ntf    fn410243   2.067   5.091   6.037  0.1401  0.4081 -0.3873
 1691ntf    fn410244   1.947   4.922   5.981 -0.2428 -0.1586 -0.0978
 1691ntf    fn410245   2.046   5.039   5.836 -0.0118 -0.0876  0.2421
 1692ntf    cn110246   1.690   3.831   4.648 -0.0869 -0.1876  0.1423
 1692ntf    sn210247   1.756   3.705   4.536  0.0808  0.0917 -0.0714
 1692ntf    nn310248   1.672   3.727   4.405 -0.0803 -0.1852 -0.0147
 1692ntf    sn210249   1.558   3.644   4.336 -0.3746  0.1618  0.0496
 1692ntf    cn110250   1.654   3.571   4.200 -0.0330  0.2980  0.2175
 1692ntf    fn410251   1.767   3.852   4.753 -0.2008  0.2022  0.1466
 1692ntf    fn410252   1.670   3.946   4.587  0.3096  0.0533  0.4652
 1692ntf    fn410253   1.571   3.800   4.698 -0.2017  0.2546  0.1422
 1692ntf    on510254   1.896   3.734   4.514  0.1405 -0.0793  0.0808
 1692ntf    on510255   1.730   3.579   4.602  0.3186 -0.1856 -0.4976
 1692ntf    on510256   1.471   3.728   4.257  0.2251  0.1500 -0.6320
 1692ntf    on510257   1.509   3.534   4.415  0.4022 -0.3996 -0.2377
 1692ntf    fn410258   1.573   3.507   4.117  0.0104  0.3896  0.1044
 1692ntf    fn410259   1.712   3.664   4.126 -0.1142 -0.1481 -0.4124
 1692ntf    fn410260   1.746   3.484   4.239 -0.1823  0.1390  0.2187
 1693ntf    cn110261   5.159   5.505   4.370 -0.3643 -0.0956  0.0609
 1693ntf    sn210262   5.310   5.413   4.413 -0.2341  0.0099 -0.1691
 1693ntf    nn310263   5.417   5.526   4.393  0.0873 -0.2374  0.1394
 1693ntf    sn210264   5.470   5.639   4.488  0.3495 -0.2847  0.0510
 1693ntf    cn110265   5.630   5.569   4.538  0.4382 -0.1869 -0.0927
 1693ntf    fn410266   5.154   5.619   4.436  0.4365  0.1475 -0.2894
 1693ntf    fn410267   5.162   5.537   4.241  0.0162 -0.0181  0.0893
 1693ntf    fn410268   5.040   5.451   4.392 -0.3751 -0.1469 -0.1175
 1693ntf    on510269   5.299   5.371   4.550  0.0860  0.0247 -0.1390
 1693ntf    on510270   5.325   5.309   4.314 -0.2797 -0.3303  0.1794
 1693ntf    on510271   5.390   5.655   4.607 -0.1056  0.1510 -0.3036
 1693ntf    on510272   5.502   5.757   4.411  0.0858 -0.1008  0.2188
 1693ntf    fn410273   5.619   5.452   4.600  0.3345 -0.2208 -0.1743
 1693ntf    fn410274   5.710   5.552   4.435  0.5466 -0.4425  0.0305
 1693ntf    fn410275   5.696   5.648   4.622 -0.1342  0.5617 -0.3358
 1694ntf    cn110276   5.649   4.936   5.970 -0.0909 -0.1541  0.2992
 1694ntf    sn210277   5.513   4.880   6.077 -0.4594  0.3622  0.0983
 1694ntf    nn310278   5.417   5.001   6.045 -0.0367  0.5365 -0.5220
 1694ntf    sn210279   5.401   5.136   6.122 -0.1786 -0.0089  0.4123
 1694ntf    cn110280   5.233   5.109   6.188 -0.5701  0.7461 -0.2567
 1694ntf    fn410281   5.621   4.924   5.841  0.1916  0.1120  0.2101
 1694ntf    fn410282   5.675   5.063   5.993  0.5575 -0.2335  0.0335
 1694ntf    fn410283   5.757   4.866   6.003  0.0053 -0.2156 -0.1448
 1694ntf    on510284   5.465   4.762   6.008 -0.0900  0.2510  0.0313
 1694ntf    on510285   5.565   4.869   6.211  0.2708  0.0820 -0.2037
 1694ntf    on510286   5.367   5.243   6.031  0.6613 -0.1018 -0.0138
 1694ntf    on510287   5.489   5.176   6.230  0.0088  0.2720  0.1572
 1694ntf    fn410288   5.182   5.217   6.244 -0.1831  0.4905  0.6007
 1694ntf    fn410289   5.146   5.066   6.098 -0.2371 -0.1497 -0.1645
 1694ntf    fn410290   5.244   5.017   6.282 -0.4377  0.2555 -0.7454
 1695ntf    cn110291   6.679   3.034   2.171  0.3104 -0.2836 -0.4077
 1695ntf    sn210292   6.747   2.904   2.278 -0.2923 -0.2317  0.0384
 1695ntf    nn310293   6.879   2.869   2.200 -0.1804 -0.3988  0.3006
 1695ntf    sn210294   6.891   2.783   2.070 -0.1385  0.2739 -0.1465
 1695ntf    cn110295   6.940   2.623   2.141  0.4592  0.4342 -0.1925
 1695ntf    fn410296   6.766   3.130   2.144  0.2617 -0.0523  0.2551
 1695ntf    fn410297   6.637   2.990   2.053 -0.1189 -0.2572 -0.2640
 1695ntf    fn410298   6.574   3.089   2.228  0.1776 -0.3076 -0.6274
 1695ntf    on510299   6.761   2.975   2.403 -0.7329  0.0297 -0.0594
 1695ntf    on510300   6.651   2.796   2.280 -0.0433 -0.4529  0.1885
 1695ntf    on510301   7.010   2.814   1.995  0.1367 -0.2399  0.0751
 1695ntf    on510302   6.770   2.762   1.993 -0.1982 -0.0577  0.0349
 1695ntf    fn410303   6.871   2.588   2.248 -0.0080  0.0929 -0.5999
 1695ntf    fn410304   6.911   2.524   2.058  0.8999  0.1958 -0.0622
 1695ntf    fn410305   7.068   2.615   2.172  0.5164  0.0599 -0.5092
 1696ntf    cn110306   5.592   4.864   0.522  0.0130  0.1771  0.0433
 1696ntf    sn210307   5.751   4.931   0.462  0.0375 -0.2575 -0.3821
 1696ntf    nn310308   5.845   4.850   0.557  0.6737  0.3288 -0.5117
 1696ntf    sn210309   5.908   4.708   0.538  0.4996  0.1804 -0.0083
 1696ntf    cn110310   6.062   4.757   0.455  0.3905  0.2697 -0.1587
 1696ntf    fn410311   5.568   4.739   0.486 -0.2353  0.1430  0.3284
 1696ntf    fn410312   5.581   4.877   0.653  0.5296  0.4783  0.0607
 1696ntf    fn410313   5.504   4.940   0.459 -0.2795 -0.1442  0.0657
 1696ntf    on510314   5.755   4.893   0.323 -0.0331 -0.5578 -0.3021
 1696ntf    on510315   5.737   5.073   0.481  0.2078 -0.3192  0.2260
 1696ntf    on510316   5.837   4.624   0.445  0.4546 -0.2050  0.3732
 1696ntf    on510317   5.954   4.645   0.659  0.1428 -0.3475 -0.1429
 1696ntf    fn410318   6.031   4.803   0.335  0.4501 -0.3411 -0.4119
 1696ntf    fn410319   6.120   4.859   0.516  0.0681  0.3909 -0.0561
 1696ntf    fn410320   6.154   4.662   0.445 -0.1725 -0.3175  0.1664
 1697ntf    cn110321   6.245   3.519   0.819 -0.0860  0.0892  0.1827
 1697ntf    sn210322   6.197   3.573   0.652 -0.1465  0.3862  0.2970
 1697ntf    nn310323   6.219   3.441   0.570  0.2174  0.4047  0.3622
 1697ntf    sn210324   6.296   3.410   0.437 -0.1947  0.2262  0.1644
 1697ntf    cn110325   6.467   3.379   0.490 -0.1647  0.2817  0.1013
 1697ntf    fn410326   6.163   3.425   0.863 -0.4221  0.5618  0.5725
 1697ntf    fn410327   6.368   3.470   0.822 -0.3123 -0.5004  0.0531
 1697ntf    fn410328   6.246   3.617   0.907  0.1509 -0.1768  0.4778
 1697ntf    on510329   6.057   3.605   0.669 -0.1785  0.3255  0.1417
 1697ntf    on510330   6.288   3.679   0.617  0.1317  0.0788  0.0927
 1697ntf    on510331   6.296   3.517   0.341  0.0830  0.0085 -0.0775
 1697ntf    on510332   6.257   3.280   0.387  0.0376  0.1159  0.2699
 1697ntf    fn410333   6.516   3.480   0.558 -0.3497  0.2375  0.3035
 1697ntf    fn410334   6.475   3.272   0.569 -0.2267 -0.0266 -0.3047
 1697ntf    fn410335   6.548   3.360   0.387  0.1917 -0.4928  0.5124
 1698ntf    cn110336   5.657   1.833   5.368  0.2748 -0.0318 -0.2380
 1698ntf    sn210337   5.667   1.664   5.436 -0.0170  0.1899  0.3650
 1698ntf    nn310338   5.801   1.614   5.370  0.0088  0.4290  0.2364
 1698ntf    sn210339   5.949   1.630   5.419  0.0744  0.2331  0.1012
 1698ntf    cn110340   5.992   1.464   5.478  0.0989  0.2002 -0.0076
 1698ntf    fn410341   5.775   1.891   5.382  0.0903  0.2673  0.1070
 1698ntf    fn410342   5.627   1.835   5.239  0.0783  0.4542 -0.1864
 1698ntf    fn410343   5.574   1.914   5.431  0.0246 -0.3583 -0.1408
 1698ntf    on510344   5.669   1.678   5.579  0.2323 -0.3648  0.4164
 1698ntf    on510345   5.554   1.597   5.377  0.0517 -0.0831  0.5394
 1698ntf    on510346   5.965   1.722   5.529 -0.2761  0.4922 -0.0617
 1698ntf    on510347   6.034   1.647   5.303  0.4885  0.3504  0.4212
 1698ntf    fn410348   5.905   1.414   5.565  0.0532 -0.1109 -0.2302
 1698ntf    fn410349   5.987   1.377   5.378 -0.1558  0.7392 -0.4681
 1698ntf    fn410350   6.113   1.453   5.532  0.1525 -0.3628 -0.2353
 1699ntf    cn110351   2.409   1.167   4.682  0.0666  0.0535  0.3280
 1699ntf    sn210352   2.299   1.312   4.682 -0.3870 -0.2767 -0.6342
 1699ntf    nn310353   2.400   1.427   4.646 -0.6647  0.1835  0.0331
 1699ntf    sn210354   2.407   1.515   4.516  0.2021 -0.0767 -0.1013
 1699ntf    cn110355   2.254   1.611   4.533  0.2082 -0.1017  0.0937
 1699ntf    fn410356   2.501   1.181   4.775  0.5757 -0.1755 -0.1308
 1699ntf    fn410357   2.330   1.063   4.706  0.1476 -0.1001 -0.0597
 1699ntf    fn410358   2.465   1.156   4.562  0.5452  0.4039  0.5208
 1699ntf    on510359   2.197   1.292   4.582 -0.2037  0.4818 -0.9791
 1699ntf    on510360   2.267   1.320   4.822  0.4403  0.4308 -0.4767
 1699ntf    on510361   2.396   1.442   4.392  0.0382 -0.3990  0.1050
 1699ntf    on510362   2.510   1.616   4.520  0.4342 -0.3066 -0.2544
 1699ntf    fn410363   2.248   1.669   4.652  0.0633 -0.0598  0.0664
 1699ntf    fn410364   2.249   1.709   4.443  0.3903 -0.3486 -0.1872
 1699ntf    fn410365   2.140   1.544   4.520  0.1813 -0.0881  0.2586
 1700ntf    cn110366   1.095   2.317   2.389 -0.1343 -0.2214  0.3315
 1700ntf    sn210367   1.097   2.140   2.348  0.3153 -0.1961  0.2279
 1700ntf    nn310368   1.136   2.133   2.197 -0.1259 -0.0696  0.1052
 1700ntf    sn210369   1.044   2.166   2.074  0.1495 -0.0405 -0.0956
 1700ntf    cn110370   0.929   2.026   2.069  0.1587 -0.0755  0.5806
 1700ntf    fn410371   1.096   2.335   2.520  0.1896 -0.0429  0.3051
 1700ntf    fn410372   1.197   2.386   2.339 -0.0141 -0.8406 -0.3058
 1700ntf    fn410373   0.981   2.372   2.351 -0.0533  0.1271  0.5889
 1700ntf    on510374   1.205   2.084   2.426  0.4355 -0.8392 -0.3875
 1700ntf    on510375   0.963   2.104   2.389  0.5780 -0.6425  0.7116
 1700ntf    on510376   1.102   2.158   1.942  0.3749  0.1794 -0.0118
 1700ntf    on510377   0.967   2.285   2.101  0.7359  0.3817 -0.2527
 1700ntf    fn410378   0.836   2.035   2.164 -0.2232  0.0226  0.2021
 1700ntf    fn410379   0.868   2.005   1.953  0.7656  0.1125  0.2246
 1700ntf    fn410380   0.999   1.917   2.091 -0.2094 -0.4050  0.1450
 1701ntf    cn110381   0.069   3.232   3.110 -0.0027  0.0786  0.3465
 1701ntf    sn210382   0.080   3.079   3.013 -0.0942  0.1728  0.1888
 1701ntf    nn310383   0.191   2.993   3.084 -0.0867 -0.0592 -0.1020
 1701ntf    sn210384   0.174   2.899   3.208  0.0092 -0.0079 -0.0501
 1701ntf    cn110385   0.171   2.736   3.127  0.2994 -0.1290  0.1820
 1701ntf    fn410386   0.178   3.307   3.100 -0.2302  0.3556 -0.0863
 1701ntf    fn410387  -0.038   3.301   3.076 -0.1963 -0.4702 -0.1645
 1701ntf    fn410388   0.051   3.201   3.238  0.1658 -0.0803  0.3321
 1701ntf    on510389  -0.051   3.019   3.022  0.0852 -0.2244  0.1796
 1701ntf    on510390   0.117   3.123   2.881 -0.0579  0.2287  0.2175
 1701ntf    on510391   0.049   2.903   3.280 -0.0321  0.1394 -0.1311
 1701ntf    on510392   0.297   2.883   3.282 -0.0694 -0.6580 -0.0525
 1701ntf    fn410393   0.280   2.691   3.067  0.2953 -0.3049  0.3061
 1701ntf    fn410394   0.133   2.643   3.213  0.1650 -0.1671  0.0793
 1701ntf    fn410395   0.079   2.731   3.032  0.1834 -0.3396  0.3046
 1702ntf    cn110396   4.656   6.769   1.119 -0.3019  0.0936  0.1774
 1702ntf    sn210397   4.509   6.663   1.118  0.1009 -0.4712 -0.1478
 1702ntf    nn310398   4.539   6.565   0.999  0.3195 -0.3017 -0.2334
 1702ntf    sn210399   4.535   6.602   0.847 -0.0553 -0.0357 -0.1605
 1702ntf    cn110400   4.508   6.446   0.757  0.1419 -0.1352 -0.0465
 1702ntf    fn410401   4.653   6.844   1.010  0.0717 -0.5986 -0.3212
 1702ntf    fn410402   4.668   6.852   1.222  0.1127 -0.0290  0.2323
 1702ntf    fn410403   4.770   6.701   1.125 -0.1837  0.2894  0.1838
 1702ntf    on510404   4.513   6.592   1.243  0.1379  0.3479  0.3252
 1702ntf    on510405   4.394   6.747   1.092  0.2383 -0.2006  0.1117
 1702ntf    on510406   4.659   6.648   0.788  0.3356 -0.8500  0.0228
 1702ntf    on510407   4.421   6.678   0.802 -0.0285 -0.5107 -1.0415
 1702ntf    fn410408   4.581   6.349   0.810  0.8347  0.1968 -0.3754
 1702ntf    fn410409   4.385   6.401   0.772  0.1644 -0.2166 -0.1127
 1702ntf    fn410410   4.529   6.451   0.627  0.2737 -0.1969 -0.0285
 1703ntf    cn110411   2.418   6.466   3.911 -0.1019  0.5946  0.0231
 1703ntf    sn210412   2.574   6.560   3.905  0.2959 -0.0747 -0.1834
 1703ntf    nn310413   2.668   6.449   3.965 -0.2185 -0.4801 -0.1173
 1703ntf    sn210414   2.815   6.402   3.936  0.0182  0.0515  0.2064
 1703ntf    cn110415   2.860   6.342   4.102  0.0105 -0.3304  0.0690
 1703ntf    fn410416   2.427   6.368   3.824 -0.0408  0.2925  0.3657
 1703ntf    fn410417   2.404   6.416   4.033  0.4009 -0.3606 -0.3036
 1703ntf    fn410418   2.306   6.530   3.883 -0.2382  0.0527 -0.6900
 1703ntf    on510419   2.598   6.580   3.764 -0.8661 -0.0396 -0.3852
 1703ntf    on510420   2.556   6.672   3.994  0.4377 -0.0146 -0.2305
 1703ntf    on510421   2.905   6.509   3.903  0.3728 -0.4681 -0.5258
 1703ntf    on510422   2.819   6.277   3.865  0.2309 -0.0313  0.3642
 1703ntf    fn410423   2.869   6.437   4.193  0.1789  0.4690 -0.7648
 1703ntf    fn410424   2.764   6.263   4.148  0.3854 -0.9614 -0.2168
 1703ntf    fn410425   2.964   6.261   4.107  0.0773 -0.2647 -0.2075
 1704ntf    cn110426   6.101   5.048   2.406  0.1755 -0.1178  0.4297
 1704ntf    sn210427   5.937   5.064   2.329  0.3318 -0.0889  0.0986
 1704ntf    nn310428   5.869   4.926   2.360 -0.1532  0.0847 -0.1907
 1704ntf    sn210429   5.717   4.888   2.376 -0.0011 -0.2844  0.4265
 1704ntf    cn110430   5.697   4.771   2.237 -0.0998 -0.0307  0.2264
 1704ntf    fn410431   6.103   5.018   2.535  0.0658 -0.2756  0.3944
 1704ntf    fn410432   6.169   4.953   2.343  0.2103 -0.0973  0.4357
 1704ntf    fn410433   6.174   5.159   2.397 -0.2890  0.1321 -0.4170
 1704ntf    on510434   5.880   5.180   2.393  0.1074  0.0071 -0.2733
 1704ntf    on510435   5.968   5.069   2.189 -0.6872  0.5550 -0.1133
 1704ntf    on510436   5.619   4.989   2.348 -0.1299 -0.3500  0.6465
 1704ntf    on510437   5.691   4.807   2.492 -0.0481 -0.4214  0.3209
 1704ntf    fn410438   5.795   4.683   2.234 -0.1263 -0.0304 -0.8534
 1704ntf    fn410439   5.583   4.705   2.229  0.0076 -0.2201  0.2693
 1704ntf    fn410440   5.707   4.827   2.118  0.4079 -0.2585  0.1601
 1705ntf    cn110441   0.486   0.830   2.011 -0.3165  0.1481 -0.2622
 1705ntf    sn210442   0.658   0.884   1.994 -0.1832 -0.2727 -0.2663
 1705ntf    nn310443   0.653   1.012   1.902  0.0346 -0.0998 -0.0408
 1705ntf    sn210444   0.667   1.032   1.747  0.2150  0.2637  0.0225
 1705ntf    cn110445   0.806   1.149   1.743  0.4593 -0.0218  0.1603
 1705ntf    fn410446   0.400   0.926   2.042 -0.4702 -0.1245  0.1654
 1705ntf    fn410447   0.431   0.790   1.898 -0.9536 -0.0654  0.1161
 1705ntf    fn410448   0.459   0.729   2.093 -0.1864  0.3911  0.0822
 1705ntf    on510449   0.693   0.924   2.128 -0.9039  0.1496 -0.2014
 1705ntf    on510450   0.719   0.767   1.936 -0.1898 -0.2233 -0.3734
 1705ntf    on510451   0.562   1.115   1.693 -0.1431  0.4379  0.9575
 1705ntf    on510452   0.704   0.916   1.671 -0.2900  0.3335 -0.3390
 1705ntf    fn410453   0.851   1.152   1.619  0.1187 -0.5647  0.0201
 1705ntf    fn410454   0.763   1.270   1.777  0.2313  0.0772 -0.4657
 1705ntf    fn410455   0.903   1.107   1.822  0.4553  0.6752  0.5461
 1706ntf    cn110456   2.962   1.688   4.868 -0.2805  0.0205  0.1089
 1706ntf    sn210457   3.072   1.599   4.754  0.0895  0.4823  0.1044
 1706ntf    nn310458   3.159   1.716   4.695  0.3121  0.3809  0.2348
 1706ntf    sn210459   3.254   1.689   4.573  0.0275 -0.1296  0.1220
 1706ntf    cn110460   3.390   1.808   4.594 -0.1996  0.1611 -0.0500
 1706ntf    fn410461   2.888   1.767   4.793 -0.5377 -0.2980  0.0249
 1706ntf    fn410462   2.867   1.613   4.922 -0.7283  0.3099 -0.2655
 1706ntf    fn410463   3.024   1.756   4.963  0.0587 -0.3579  0.1632
 1706ntf    on510464   3.146   1.505   4.834 -0.4631  0.4135  0.5476
 1706ntf    on510465   2.977   1.544   4.660 -0.3907  1.1260  0.2086
 1706ntf    on510466   3.200   1.728   4.445  0.0091 -0.1532  0.1226
 1706ntf    on510467   3.331   1.567   4.581  0.2217 -0.0217 -0.0971
 1706ntf    fn410468   3.435   1.792   4.717 -0.8029 -0.0118  0.1510
 1706ntf    fn410469   3.484   1.773   4.507  0.0669 -0.5214  0.5028
 1706ntf    fn410470   3.356   1.935   4.580 -0.4116  0.1661  0.5048
 1707ntf    cn110471   6.290   5.135   3.241  0.1833 -0.2198  0.4979
 1707ntf    sn210472   6.275   5.305   3.306  0.2669  0.0477 -0.1818
 1707ntf    nn310473   6.267   5.402   3.182 -0.5717  0.0442 -0.1358
 1707ntf    sn210474   6.155   5.503   3.139 -0.6181  0.0051 -0.1070
 1707ntf    cn110475   6.243   5.614   3.024 -0.3301  0.0026  0.1076
 1707ntf    fn410476   6.288   5.045   3.338  0.2179 -0.1957  0.5217
 1707ntf    fn410477   6.184   5.107   3.168 -0.0018  0.1932  0.6007
 1707ntf    fn410478   6.386   5.113   3.153 -0.0802 -0.1073  0.1820
 1707ntf    on510479   6.159   5.301   3.390 -0.0420  0.4488 -0.5860
 1707ntf    on510480   6.404   5.324   3.368  0.0610  0.3628  0.1537
 1707ntf    on510481   6.098   5.591   3.237 -0.0830 -0.0745  0.2790
 1707ntf    on510482   6.065   5.436   3.048 -0.3825 -0.1170 -0.2539
 1707ntf    fn410483   6.342   5.672   3.089 -0.4117  0.5589 -0.2649
 1707ntf    fn410484   6.290   5.546   2.921  0.0910 -0.1148  0.3723
 1707ntf    fn410485   6.165   5.702   2.963 -0.3430 -0.3897 -0.4461
 1708ntf    cn110486   6.311   2.051   3.007  0.0178 -0.0611  0.0693
 1708ntf    sn210487   6.318   2.225   2.957 -0.0555 -0.0450  0.1148
 1708ntf    nn310488   6.187   2.280   3.024 -0.0687  0.3983 -0.2653
 1708ntf    sn210489   6.173   2.375   3.148  0.1959 -0.1634  0.2014
 1708ntf    cn110490   6.042   2.292   3.245 -0.0957 -0.3862 -0.3775
 1708ntf    fn410491   6.209   1.993   2.944  0.1329 -0.2584  0.0627
 1708ntf    fn410492   6.420   1.982   2.979 -0.0764 -0.2808  0.2349
 1708ntf    fn410493   6.282   2.030   3.134 -0.2830 -0.4227 -0.0561
 1708ntf    on510494   6.444   2.275   3.007 -0.3504  0.5502  0.2777
 1708ntf    on510495   6.303   2.208   2.814 -0.5471 -0.4751  0.2157
 1708ntf    on510496   6.119   2.503   3.110 -0.0670 -0.2817  0.1711
 1708ntf    on510497   6.287   2.376   3.236 -0.0366 -0.5302  0.5140
 1708ntf    fn410498   6.015   2.363   3.353 -0.3331 -0.5306 -0.3431
 1708ntf    fn410499   5.936   2.276   3.168 -0.6646 -0.1309  0.3414
 1708ntf    fn410500   6.085   2.177   3.293 -0.3331 -0.1345  0.4602
 1709ntf    cn110501   3.469   2.583   3.615  0.2334  0.1599  0.1340
 1709ntf    sn210502   3.413   2.742   3.682 -0.2850  0.0377 -0.0015
 1709ntf    nn310503   3.260   2.751   3.650 -0.2400 -0.1723 -0.2763
 1709ntf    sn210504   3.194   2.830   3.531 -0.1589 -0.0874 -0.2654
 1709ntf    cn110505   3.205   3.005   3.579  0.0914 -0.0807 -0.3436
 1709ntf    fn410506   3.393   2.484   3.659  0.5536 -0.1986 -0.1177
 1709ntf    fn410507   3.470   2.570   3.483 -0.2634  0.3545  0.1101
 1709ntf    fn410508   3.589   2.548   3.657  0.2323 -0.2040 -0.1606
 1709ntf    on510509   3.438   2.740   3.824 -0.0763 -0.3326 -0.0434
 1709ntf    on510510   3.489   2.839   3.606 -0.7332  0.1055 -0.3704
 1709ntf    on510511   3.053   2.801   3.527 -0.1360 -0.3219  0.4774
 1709ntf    on510512   3.265   2.828   3.405 -0.2097  0.5677 -0.3068
 1709ntf    fn410513   3.180   3.020   3.708 -0.2322  0.5110 -0.4760
 1709ntf    fn410514   3.329   3.049   3.568  0.1514 -0.2347 -0.2933
 1709ntf    fn410515   3.124   3.088   3.517  0.3403 -0.1286 -0.7358
 1710ntf    cn110516   4.371   1.019   0.071 -0.1188  0.3109 -0.0780
 1710ntf    sn210517   4.407   1.162  -0.036  0.2344  0.3496  0.0912
 1710ntf    nn310518   4.483   1.252   0.068 -0.1890  0.0777  0.6413
 1710ntf    sn210519   4.555   1.388   0.037  0.0926 -0.1720  0.1858
 1710ntf    cn110520   4.427   1.508   0.088 -0.0606 -0.3105  0.1281
 1710ntf    fn410521   4.279   0.940   0.018 -0.0828  0.3793 -0.2427
 1710ntf    fn410522   4.479   0.943   0.081 -0.1851  0.1942 -0.2326
 1710ntf    fn410523   4.342   1.045   0.197 -0.1279  0.5270 -0.1253
 1710ntf    on510524   4.488   1.111  -0.144 -0.3542 -0.9438  0.2395
 1710ntf    on510525   4.275   1.206  -0.070 -0.0387 -0.6104 -0.1210
 1710ntf    on510526   4.577   1.424  -0.101  0.7484  0.0930  0.3576
 1710ntf    on510527   4.663   1.418   0.128  0.2666  0.2213 -0.1480
 1710ntf    fn410528   4.402   1.495   0.217  0.1171 -0.1181  0.1832
 1710ntf    fn410529   4.458   1.635   0.069 -1.1013 -0.0318  0.2714
 1710ntf    fn410530   4.309   1.493   0.030 -0.0948  0.5298 -0.0328
 1711ntf    cn110531   6.310   6.120   5.189  0.0257 -0.0461 -0.2123
 1711ntf    sn210532   6.270   6.285   5.124 -0.1286  0.0166  0.0392
 1711ntf    nn310533   6.224   6.343   5.262  0.0148 -0.3073  0.2241
 1711ntf    sn210534   6.081   6.373   5.320  0.0490  0.3218 -0.0092
 1711ntf    cn110535   6.122   6.426   5.489 -0.3606  0.5198  0.0290
 1711ntf    fn410536   6.389   6.126   5.294 -0.2461 -0.5855  0.0258
 1711ntf    fn410537   6.201   6.056   5.228  0.2415 -0.3948 -0.1853
 1711ntf    fn410538   6.377   6.046   5.102  0.4274  0.5348 -0.4009
 1711ntf    on510539   6.395   6.342   5.078  0.2253 -0.3179  0.5854
 1711ntf    on510540   6.172   6.265   5.020 -0.4497  0.0120  0.3442
 1711ntf    on510541   5.999   6.258   5.347 -0.1567  0.4977  0.1178
 1711ntf    on510542   6.011   6.487   5.265 -0.5977 -0.1230 -0.1177
 1711ntf    fn410543   6.023   6.488   5.551 -0.2379  0.4827  0.2611
 1711ntf    fn410544   6.165   6.326   5.565  0.2309  0.4852 -0.3459
 1711ntf    fn410545   6.220   6.513   5.479  0.0909 -0.0059 -0.2029
 1712ntf    cn110546   1.504   3.404   0.509 -0.0848 -0.0113  0.1538
 1712ntf    sn210547   1.333   3.353   0.473  0.0297 -0.1782 -0.1640
 1712ntf    nn310548   1.256   3.378   0.608  0.4237  0.1393  0.0028
 1712ntf    sn210549   1.135   3.474   0.634  0.0884 -0.2337 -0.1735
 1712ntf    cn110550   1.028   3.389   0.754 -0.4700  0.5602 -0.1000
 1712ntf    fn410551   1.568   3.394   0.394  0.3585 -0.1312  0.4112
 1712ntf    fn410552   1.520   3.529   0.547  0.3282  0.0935 -0.3531
 1712ntf    fn410553   1.561   3.331   0.603 -0.3840 -0.4652 -0.0088
 1712ntf    on510554   1.301   3.442   0.364  0.4465 -0.1074 -0.2305
 1712ntf    on510555   1.342   3.213   0.440  0.3219 -0.2436  0.1807
 1712ntf    on510556   1.044   3.481   0.522 -0.2313  0.1049  0.1010
 1712ntf    on510557   1.171   3.596   0.702  0.3965 -0.2634 -0.2821
 1712ntf    fn410558   0.948   3.299   0.701 -0.5169  0.2694  0.4614
 1712ntf    fn410559   1.107   3.317   0.833 -0.1611  0.5284 -0.4356
 1712ntf    fn410560   0.959   3.471   0.832 -0.7018  0.3650 -0.1007
 1713ntf    cn110561   0.228   2.405   5.128  0.1781  0.2446 -0.5974
 1713ntf    sn210562   0.059   2.472   5.136  0.1072  0.0235 -0.2146
 1713ntf    nn310563   0.044   2.508   5.288 -0.3803  0.0235 -0.2607
 1713ntf    sn210564   0.081   2.641   5.363 -0.0790 -0.1909 -0.0219
 1713ntf    cn110565   0.102   2.582   5.533  0.0196 -0.1122 -0.0059
 1713ntf    fn410566   0.247   2.348   5.011 -0.2295  0.0214 -0.5535
 1713ntf    fn410567   0.327   2.491   5.146  0.0073  0.3725 -0.2522
 1713ntf    fn410568   0.246   2.307   5.214  0.3572  0.3853 -0.4742
 1713ntf    on510569   0.071   2.583   5.044 -0.1954 -0.0898 -0.3931
 1713ntf    on510570  -0.032   2.364   5.105 -0.2341  0.1947  0.1780
 1713ntf    on510571  -0.026   2.737   5.369 -0.0370 -0.1385 -0.0996
 1713ntf    on510572   0.211   2.687   5.321 -0.1806  0.2378  0.1226
 1713ntf    fn410573   0.202   2.497   5.547  0.1759  0.0808  0.0478
 1713ntf    fn410574   0.135   2.674   5.621 -0.4176  0.1240 -0.0829
 1713ntf    fn410575  -0.002   2.520   5.588  0.0278  0.3020  0.4870
 1714ntf    cn110576   1.770   1.576   3.258  0.2980 -0.0817 -0.0355
 1714ntf    sn210577   1.688   1.720   3.183  0.1014 -0.0491  0.2423
 1714ntf    nn310578   1.806   1.823   3.166 -0.6107  0.6769 -0.3866
 1714ntf    sn210579   1.910   1.834   3.049  0.4352 -0.0567  0.4489
 1714ntf    cn110580   1.808   1.937   2.939  0.4232 -0.2741  0.2554
 1714ntf    fn410581   1.831   1.605   3.371  0.2069  0.3584 -0.1003
 1714ntf    fn410582   1.692   1.471   3.281  0.2924 -0.1319 -0.2798
 1714ntf    fn410583   1.864   1.523   3.180 -0.2606 -0.5055 -0.4326
 1714ntf    on510584   1.630   1.668   3.062  0.4133 -0.7502  0.3861
 1714ntf    on510585   1.600   1.760   3.291 -0.2032 -0.0941  0.0114
 1714ntf    on510586   1.941   1.715   2.975 -0.0505  0.3131 -0.3644
 1714ntf    on510587   2.016   1.924   3.086  0.1363  0.5893 -0.2321
 1714ntf    fn410588   1.806   2.064   2.977  0.5529  0.0099 -0.6732
 1714ntf    fn410589   1.859   1.931   2.817  0.4295  0.0331  0.2417
 1714ntf    fn410590   1.685   1.890   2.934  0.2117  0.3227 -0.2840
 1715ntf    cn110591   3.448   4.130   4.566  0.1257  0.0712 -0.1246
 1715ntf    sn210592   3.576   4.002   4.546 -0.1637 -0.2546  0.1080
 1715ntf    nn310593   3.708   4.079   4.581 -0.3204 -0.0244  0.1892
 1715ntf    sn210594   3.775   4.083   4.723  0.3031 -0.1797 -0.0970
 1715ntf    cn110595   3.897   4.216   4.715 -0.2164  0.3066  0.0133
 1715ntf    fn410596   3.328   4.094   4.524 -0.0538  0.2832  0.2049
 1715ntf    fn410597   3.436   4.186   4.686  0.6205 -0.0435 -0.0176
 1715ntf    fn410598   3.473   4.230   4.483 -0.2907  0.4650  0.2166
 1715ntf    on510599   3.538   3.894   4.634 -0.0717  0.1818  0.6833
 1715ntf    on510600   3.567   3.966   4.406 -0.3750  0.5871 -0.0969
 1715ntf    on510601   3.852   3.965   4.751 -0.1168 -0.2713  0.7017
 1715ntf    on510602   3.685   4.132   4.824 -0.1937 -0.1267 -0.5596
 1715ntf    fn410603   4.003   4.176   4.646 -0.2361  0.3531 -0.0437
 1715ntf    fn410604   3.853   4.323   4.650  0.3202  0.3056 -0.3626
 1715ntf    fn410605   3.934   4.259   4.834 -0.1582 -0.0861  0.1381
 1716ntf    cn110606   2.747   2.871   6.240  0.0070 -0.0549  0.2377
 1716ntf    sn210607   2.913   2.868   6.313  0.2926 -0.1969 -0.4091
 1716ntf    nn310608   2.990   2.874   6.176  0.0121 -0.0069 -0.5589
 1716ntf    sn210609   3.054   3.001   6.109 -0.2218  0.3794 -0.0598
 1716ntf    cn110610   3.228   2.993   6.159 -0.1281 -0.2957 -0.4844
 1716ntf    fn410611   2.645   2.879   6.323 -0.1355 -0.1312  0.0714
 1716ntf    fn410612   2.727   2.974   6.159  0.3615 -0.1781 -0.0092
 1716ntf    fn410613   2.729   2.765   6.163 -0.0798 -0.2435  0.5164
 1716ntf    on510614   2.926   2.984   6.398 -0.5794 -0.3420 -0.0710
 1716ntf    on510615   2.914   2.735   6.371  0.0242  0.0057  0.0652
 1716ntf    on510616   2.992   3.126   6.148 -0.4242  0.1154  0.4771
 1716ntf    on510617   3.070   2.972   5.969  0.5399 -0.4237  0.1887
 1716ntf    fn410618   3.292   2.890   6.106 -0.2406 -0.6305  0.0190
 1716ntf    fn410619   3.301   3.099   6.130  0.2591 -0.4445 -0.0709
 1716ntf    fn410620   3.229   2.977   6.291 -0.2533 -0.3641 -0.4912
 1717ntf    cn110621   5.421   6.064   6.623 -0.2479  0.1201 -0.0948
 1717ntf    sn210622   5.506   6.204   6.544  0.1043  0.0010  0.0675
 1717ntf    nn310623   5.657   6.163   6.545  0.0022 -0.3863 -0.0891
 1717ntf    sn210624   5.771   6.212   6.641 -0.2303 -0.0802  0.0343
 1717ntf    cn110625   5.826   6.345   6.531  0.0961 -0.1194  0.1469
 1717ntf    fn410626   5.290   6.072   6.609 -0.3217 -0.4925  0.2127
 1717ntf    fn410627   5.456   5.949   6.567  0.0416 -0.0725  0.4686
 1717ntf    fn410628   5.456   6.048   6.749  0.4136  0.0505 -0.2792
 1717ntf    on510629   5.461   6.202   6.407  0.3654 -0.1008 -0.0165
 1717ntf    on510630   5.474   6.318   6.627  0.0895  0.0719 -0.0345
 1717ntf    on510631   5.887   6.126   6.645 -0.0735  0.1271 -0.0621
 1717ntf    on510632   5.732   6.272   6.766  0.1757 -0.1796  0.2101
 1717ntf    fn410633   5.834   6.309   6.404  0.1338 -0.3238  0.2084
 1717ntf    fn410634   5.738   6.444   6.540  0.0596 -0.1554  0.1891
 1717ntf    fn410635   5.944   6.388   6.573 -0.0297  0.0604  0.3150
 1718ntf    cn110636   1.123   2.251   5.453 -0.1722 -0.2712 -0.0085
 1718ntf    sn210637   0.967   2.332   5.406 -0.0888 -0.2012 -0.1670
 1718ntf    nn310638   0.992   2.334   5.251 -0.0563  0.1028 -0.1591
 1718ntf    sn210639   0.892   2.298   5.136  0.0099 -0.3903 -0.0645
 1718ntf    cn110640   0.919   2.435   5.019  0.5129 -0.3151  0.1395
 1718ntf    fn410641   1.232   2.323   5.433 -0.2371 -0.2523 -0.3095
 1718ntf    fn410642   1.125   2.224   5.582 -0.4094 -0.1659  0.0184
 1718ntf    fn410643   1.134   2.131   5.399  0.4674 -0.1915 -0.0584
 1718ntf    on510644   0.855   2.256   5.457  0.0768 -0.3139  0.0333
 1718ntf    on510645   0.973   2.467   5.457 -0.1725 -0.3157  0.1493
 1718ntf    on510646   0.753   2.318   5.167 -0.0308 -0.4798 -0.1850
 1718ntf    on510647   0.934   2.179   5.065 -0.3594 -0.5650  0.0044
 1718ntf    fn410648   0.917   2.555   5.075  0.3057 -0.2276 -0.0559
 1718ntf    fn410649   1.040   2.425   4.967  0.3619  0.0795 -0.2834
 1718ntf    fn410650   0.832   2.435   4.920  0.1475 -0.0253  0.4535
 1719ntf    cn110651   2.455   0.359   2.757 -0.1947  0.4497  0.1641
 1719ntf    sn210652   2.385   0.409   2.917 -0.1741 -0.2313  0.3891
 1719ntf    nn310653   2.476   0.531   2.956 -0.3882  0.1302 -0.2381
 1719ntf    sn210654   2.608   0.541   3.040 -0.2346 -0.1170 -0.4472
 1719ntf    cn110655   2.734   0.587   2.918 -0.0722  0.1142 -0.1925
 1719ntf    fn410656   2.572   0.297   2.763 -0.4020 -0.0153 -0.5122
 1719ntf    fn410657   2.382   0.265   2.698  0.3198 -0.2679  0.6453
 1719ntf    fn410658   2.468   0.458   2.671  0.2194  0.0155 -0.2764
 1719ntf    on510659   2.248   0.439   2.885 -0.1754 -0.1107  0.5071
 1719ntf    on510660   2.416   0.294   2.998 -0.7667 -0.7983 -0.1749
 1719ntf    on510661   2.664   0.420   3.095  0.0232 -0.1557 -0.7946
 1719ntf    on510662   2.607   0.652   3.132  0.5091 -0.3276 -0.1799
 1719ntf    fn410663   2.819   0.678   2.964 -0.0129 -0.1185  0.1615
 1719ntf    fn410664   2.806   0.482   2.882 -0.2318 -0.1426  0.2246
 1719ntf    fn410665   2.676   0.633   2.808  0.0128  0.6712 -0.0104
 1720ntf    cn110666   0.515   1.863   6.024 -0.2027  0.0101 -0.1062
 1720ntf    sn210667   0.399   2.001   6.004 -0.2872 -0.0030  0.2939
 1720ntf    nn310668   0.269   1.920   5.972 -0.2675  0.0356  0.1171
 1720ntf    sn210669   0.215   1.861   5.837 -0.0013  0.2993 -0.1046
 1720ntf    cn110670   0.171   1.692   5.885 -0.2144  0.3230 -0.2106
 1720ntf    fn410671   0.499   1.796   6.137 -0.2009 -0.0759 -0.1565
 1720ntf    fn410672   0.520   1.775   5.925 -0.5622  0.0550 -0.1634
 1720ntf    fn410673   0.636   1.916   6.019 -0.1627 -0.0242  0.4798
 1720ntf    on510674   0.397   2.056   6.138 -0.1671  1.1927 -0.1873
 1720ntf    on510675   0.460   2.088   5.906  0.1465  0.1504  0.6940
 1720ntf    on510676   0.310   1.840   5.730 -0.3460 -0.5809 -0.2481
 1720ntf    on510677   0.082   1.910   5.810 -0.1869 -0.4396 -0.5582
 1720ntf    fn410678   0.107   1.620   5.794 -0.1972  0.3566 -0.2491
 1720ntf    fn410679   0.283   1.626   5.911 -0.2352  0.1779 -0.4840
 1720ntf    fn410680   0.110   1.694   6.002 -0.2060  0.6324 -0.2118
 1721ntf    cn110681   1.935   0.734   0.268 -0.2027  0.1114 -0.4346
 1721ntf    sn210682   1.894   0.764   0.442  0.0772  0.1203 -0.3694
 1721ntf    nn310683   1.893   0.617   0.498 -0.1630  0.2345 -0.0676
 1721ntf    sn210684   1.771   0.520   0.482  0.2638 -0.3195 -0.0186
 1721ntf    cn110685   1.739   0.466   0.653  0.3229  0.1056  0.1265
 1721ntf    fn410686   1.956   0.841   0.192 -0.4208  0.2446 -0.3095
 1721ntf    fn410687   2.045   0.662   0.255 -0.1186  0.0617  0.5437
 1721ntf    fn410688   1.838   0.669   0.207 -0.2526 -0.1660 -0.0576
 1721ntf    on510689   2.015   0.834   0.477  0.1442 -0.1834  0.0226
 1721ntf    on510690   1.775   0.845   0.443 -0.2323 -0.3281 -0.3365
 1721ntf    on510691   1.796   0.396   0.412 -0.0321 -0.1439 -0.4442
 1721ntf    on510692   1.646   0.584   0.448 -0.0151 -0.5601  0.5510
 1721ntf    fn410693   1.842   0.398   0.701  0.3654  0.2547  0.2476
 1721ntf    fn410694   1.731   0.565   0.741  0.0931  0.1468  0.0604
 1721ntf    fn410695   1.632   0.390   0.661  0.3334  0.0831  0.0547
 1722ntf    cn110696   6.050   6.217   6.026 -0.0554  0.2497 -0.2190
 1722ntf    sn210697   6.211   6.147   6.075 -0.3644 -0.2693  0.0640
 1722ntf    nn310698   6.177   5.994   6.074 -0.5638 -0.2234 -0.3738
 1722ntf    sn210699   6.288   5.885   6.049 -0.2326  0.0855 -0.2600
 1722ntf    cn110700   6.292   5.880   5.867  0.4707 -0.2649 -0.2354
 1722ntf    fn410701   5.977   6.141   5.946  0.2368 -0.3065  0.0400
 1722ntf    fn410702   5.975   6.236   6.134  0.3292  0.0596  0.0869
 1722ntf    fn410703   6.051   6.338   5.972 -0.7855  0.0422 -0.7187
 1722ntf    on510704   6.288   6.195   5.963 -0.2506 -0.5197  0.0363
 1722ntf    on510705   6.240   6.203   6.205  0.4787  0.0303 -0.2506
 1722ntf    on510706   6.229   5.758   6.084 -0.3543  0.1631 -0.1799
 1722ntf    on510707   6.425   5.910   6.086 -0.2647 -0.0712 -0.0358
 1722ntf    fn410708   6.366   5.972   5.807  0.0790  0.1514 -0.0867
 1722ntf    fn410709   6.343   5.770   5.814 -0.0752 -0.4199 -0.4375
 1722ntf    fn410710   6.171   5.896   5.817  0.2184 -0.0871  0.4161
 1723ntf    cn110711   6.561   0.264   3.195 -0.0544  0.2002  0.1773
 1723ntf    sn210712   6.658   0.397   3.118 -0.0231 -0.0381 -0.1979
 1723ntf    nn310713   6.777   0.393   3.220  0.0119  0.1355 -0.2314
 1723ntf    sn210714   6.922   0.454   3.218  0.0673  0.0237  0.1454
 1723ntf    cn110715   7.012   0.297   3.225  0.3995  0.2115  0.1310
 1723ntf    fn410716   6.445   0.240   3.137  0.1001 -0.1001 -0.0122
 1723ntf    fn410717   6.632   0.152   3.201 -0.1767  0.0896 -0.3748
 1723ntf    fn410718   6.535   0.288   3.322 -0.3682 -0.2392  0.1998
 1723ntf    on510719   6.683   0.350   2.984  0.0664  0.1389 -0.2444
 1723ntf    on510720   6.582   0.518   3.132 -0.0332 -0.0579 -0.0776
 1723ntf    on510721   6.955   0.509   3.347 -0.0012  0.7828 -0.1553
 1723ntf    on510722   6.964   0.526   3.100 -0.5079 -0.0200 -0.0879
 1723ntf    fn410723   6.968   0.216   3.129 -0.0549  0.5981  0.0087
 1723ntf    fn410724   7.141   0.315   3.202  0.3479 -0.5699 -0.8675
 1723ntf    fn410725   7.003   0.235   3.342  0.4951 -0.2150 -0.0838
 1724ntf    cn110726   4.842   5.948   4.335  0.2996 -0.0193  0.2110
 1724ntf    sn210727   4.689   5.909   4.426  0.2966  0.2992  0.3438
 1724ntf    nn310728   4.701   6.007   4.548 -0.3955  1.1101 -0.2231
 1724ntf    sn210729   4.622   5.995   4.683 -0.1139  0.0120 -0.1430
 1724ntf    cn110730   4.731   5.885   4.778 -0.4045  0.1004  0.2937
 1724ntf    fn410731   4.842   5.911   4.208  0.3884 -0.3995  0.3218
 1724ntf    fn410732   4.851   6.080   4.327 -0.0036 -0.0196 -0.1833
 1724ntf    fn410733   4.951   5.907   4.397  0.0794  0.0540  0.6510
 1724ntf    on510734   4.581   5.941   4.336  0.3369  0.3891  0.3257
 1724ntf    on510735   4.696   5.771   4.468 -0.0473  0.3820  0.6699
 1724ntf    on510736   4.499   5.920   4.678 -0.4196  0.5052 -0.1012
 1724ntf    on510737   4.636   6.114   4.762 -0.1951 -0.0028 -0.1062
 1724ntf    fn410738   4.705   5.756   4.770  0.1738 -0.0121  0.1728
 1724ntf    fn410739   4.852   5.891   4.725 -0.4693 -0.2149  0.1073
 1724ntf    fn410740   4.746   5.905   4.908 -0.5569 -0.3081  0.3747
 1725ntf    cn110741   6.411   1.709   3.511  0.0978  0.0789 -0.3897
 1725ntf    sn210742   6.269   1.811   3.561  0.1449  0.0916 -0.2803
 1725ntf    nn310743   6.248   1.765   3.710 -0.4251  0.0746 -0.3636
 1725ntf    sn210744   6.156   1.647   3.760 -0.1267  0.0479  0.1335
 1725ntf    cn110745   5.996   1.730   3.782  0.0327  0.3668  0.0889
 1725ntf    fn410746   6.451   1.733   3.388 -0.0794 -0.1566 -0.4933
 1725ntf    fn410747   6.508   1.743   3.595  0.4596  0.2237 -0.8677
 1725ntf    fn410748   6.395   1.577   3.517 -0.0269  0.0984 -0.2648
 1725ntf    on510749   6.322   1.944   3.554 -0.2291  0.2486 -0.1660
 1725ntf    on510750   6.165   1.782   3.466  0.1542  0.3617 -0.3699
 1725ntf    on510751   6.189   1.606   3.894  0.1263 -0.2092 -0.0046
 1725ntf    on510752   6.117   1.536   3.677  0.2133  0.2211 -0.2656
 1725ntf    fn410753   6.002   1.817   3.881  0.2108  0.4508  0.0053
 1725ntf    fn410754   5.952   1.800   3.679  0.6236  0.1439 -0.3225
 1725ntf    fn410755   5.900   1.644   3.810  0.2335  0.1493  0.1181
 1726ntf    cn110756   6.749   3.388   1.125  0.2660 -0.1616 -0.2297
 1726ntf    sn210757   6.781   3.250   1.239 -0.0127 -0.1080 -0.0853
 1726ntf    nn310758   6.682   3.294   1.352  0.2459  0.1323  0.0502
 1726ntf    sn210759   6.534   3.244   1.369  0.2927 -0.0791 -0.1635
 1726ntf    cn110760   6.574   3.106   1.480  0.0678 -0.1652 -0.1888
 1726ntf    fn410761   6.790   3.366   1.001 -0.5873 -0.2908 -0.4932
 1726ntf    fn410762   6.618   3.404   1.118  0.3433  0.7558  0.1961
 1726ntf    fn410763   6.797   3.505   1.165  0.4703 -0.2011 -0.3584
 1726ntf    on510764   6.738   3.136   1.163 -0.1668  0.2303 -0.5105
 1726ntf    on510765   6.922   3.260   1.270  0.0617 -0.5273 -0.2890
 1726ntf    on510766   6.461   3.186   1.259 -0.0008 -0.3094  0.1527
 1726ntf    on510767   6.465   3.331   1.461  0.3888 -0.0604 -0.1090
 1726ntf    fn410768   6.678   3.036   1.436  0.0204 -0.4520  0.1470
 1726ntf    fn410769   6.599   3.152   1.601 -0.3893  0.2078 -0.2360
 1726ntf    fn410770   6.475   3.020   1.497 -0.0855  0.0182 -0.1612
 1727ntf    cn110771   4.736   1.115   5.863 -0.3431  0.0229  0.3095
 1727ntf    sn210772   4.613   0.997   5.799 -0.2177 -0.0021  0.1132
 1727ntf    nn310773   4.706   0.876   5.761  0.2497  0.2920  0.3224
 1727ntf    sn210774   4.724   0.737   5.830  0.1568  0.2723  0.3062
 1727ntf    cn110775   4.842   0.673   5.708 -0.2697 -0.2456  0.1571
 1727ntf    fn410776   4.679   1.217   5.923 -0.7075  0.2350 -0.3795
 1727ntf    fn410777   4.825   1.064   5.946 -0.2865 -0.4516 -0.0360
 1727ntf    fn410778   4.810   1.170   5.768 -0.1806 -0.1147  0.3572
 1727ntf    on510779   4.520   0.973   5.906  0.3440 -0.8073  0.4287
 1727ntf    on510780   4.565   1.055   5.676  0.4101  0.0552 -0.1094
 1727ntf    on510781   4.611   0.647   5.825  0.1836  0.2305  0.4550
 1727ntf    on510782   4.806   0.731   5.948  0.4585  0.0778  0.0881
 1727ntf    fn410783   4.927   0.764   5.662 -0.1270 -0.2586  0.3928
 1727ntf    fn410784   4.913   0.573   5.757 -0.3314 -0.4390 -0.1469
 1727ntf    fn410785   4.775   0.634   5.601  0.2949  0.2453 -0.3881
 1728ntf    cn110786   1.173   5.667   3.146  0.4076 -0.4624 -0.0275
 1728ntf    sn210787   1.065   5.717   3.283  0.0595 -0.3349 -0.3490
 1728ntf    nn310788   1.105   5.607   3.387 -0.3972 -0.0135  0.1727
 1728ntf    sn210789   1.178   5.606   3.526  0.1640  0.1365 -0.1173
 1728ntf    cn110790   1.103   5.744   3.617  0.1375 -0.0122  0.0885
 1728ntf    fn410791   1.136   5.554   3.089 -0.0603 -0.3375  0.0263
 1728ntf    fn410792   1.182   5.762   3.054 -0.0910 -0.1575  0.2341
 1728ntf    fn410793   1.290   5.644   3.204  0.4271  0.0102  0.1293
 1728ntf    on510794   1.092   5.855   3.315 -0.1404 -0.3892  0.0660
 1728ntf    on510795   0.930   5.688   3.240 -0.0341 -0.1864 -0.1581
 1728ntf    on510796   1.315   5.650   3.522  0.1438  0.4196  1.5230
 1728ntf    on510797   1.150   5.483   3.597  0.3014  0.4496  0.4846
 1728ntf    fn410798   1.160   5.863   3.610 -0.3936  0.2176 -0.4625
 1728ntf    fn410799   0.982   5.767   3.568  0.2399  0.1425 -0.0897
 1728ntf    fn410800   1.082   5.727   3.747 -0.2043 -0.3313 -0.0060
 1729ntf    cn110801   4.438   3.702   5.936  0.5225 -0.1316  0.1844
 1729ntf    sn210802   4.376   3.868   5.897  0.2038 -0.2278  0.2805
 1729ntf    nn310803   4.395   3.944   6.033 -0.2693 -0.0484  0.2516
 1729ntf    sn210804   4.529   4.012   6.081 -0.2587  0.0509  0.0817
 1729ntf    cn110805   4.507   4.174   6.003 -0.4873 -0.1979 -0.3792
 1729ntf    fn410806   4.563   3.696   5.978  0.5917 -0.1598 -0.0245
 1729ntf    fn410807   4.362   3.638   6.024 -0.0012  0.2568  0.0204
 1729ntf    fn410808   4.435   3.619   5.833  0.6624  0.0300  0.0508
 1729ntf    on510809   4.467   3.904   5.791 -0.3372  0.4576  0.0408
 1729ntf    on510810   4.237   3.852   5.860  0.2960  0.1636 -0.2602
 1729ntf    on510811   4.648   3.960   6.019 -0.4002  0.3094 -0.4112
 1729ntf    on510812   4.526   4.040   6.222 -0.0130  0.4460  0.0078
 1729ntf    fn410813   4.424   4.244   6.078 -0.1191 -0.1323 -0.0284
 1729ntf    fn410814   4.620   4.241   5.987 -0.4318 -0.0938  0.4399
 1729ntf    fn410815   4.454   4.165   5.882 -0.3272 -0.0684 -0.4598
 1730ntf    cn110816   1.958   1.869   6.708  0.0999 -0.3736 -0.0912
 1730ntf    sn210817   2.060   1.750   6.801  0.3405 -0.1512 -0.0687
 1730ntf    nn310818   1.959   1.702   6.912 -0.1635 -0.5387 -0.6852
 1730ntf    sn210819   1.986   1.587   7.015  0.2641  0.0258 -0.1592
 1730ntf    cn110820   2.011   1.676   7.171  0.1022  0.0713 -0.1585
 1730ntf    fn410821   1.919   1.976   6.775  0.0572 -0.2336 -0.3409
 1730ntf    fn410822   2.012   1.923   6.600 -0.0197  0.4872  0.2756
 1730ntf    fn410823   1.843   1.807   6.686 -0.1041  0.0532 -0.2233
 1730ntf    on510824   2.094   1.648   6.705 -0.3026 -0.3410 -0.1000
 1730ntf    on510825   2.172   1.827   6.848  0.0066 -0.1081  0.6601
 1730ntf    on510826   2.100   1.502   6.991  0.2266  0.0580 -0.4542
 1730ntf    on510827   1.859   1.528   7.051  0.1907  0.2754 -0.0006
 1730ntf    fn410828   1.902   1.742   7.206  0.3949  0.5845 -0.2021
 1730ntf    fn410829   2.041   1.602   7.277 -0.3338  0.1290  0.0070
 1730ntf    fn410830   2.104   1.769   7.160  0.1143  0.1080  0.2388
 1731ntf    cn110831   1.719   0.594   2.061  0.0281  0.2236  0.2132
 1731ntf    sn210832   1.571   0.685   2.115 -0.0347  0.1120  0.2293
 1731ntf    nn310833   1.454   0.604   2.047 -0.1479 -0.3635  0.9816
 1731ntf    sn210834   1.300   0.628   2.068 -0.2725 -0.3027  0.0270
 1731ntf    cn110835   1.270   0.496   2.189 -0.0360 -0.1989  0.2010
 1731ntf    fn410836   1.703   0.464   2.043 -0.1875  0.2519  0.2005
 1731ntf    fn410837   1.760   0.631   1.941  0.0307  0.3773  0.2614
 1731ntf    fn410838   1.817   0.598   2.149  0.1299 -0.4336  0.1331
 1731ntf    on510839   1.586   0.669   2.257 -0.3383  0.3711  0.2922
 1731ntf    on510840   1.592   0.816   2.058 -0.0627 -0.0523 -0.1644
 1731ntf    on510841   1.224   0.592   1.951 -0.3786 -0.1589  0.0522
 1731ntf    on510842   1.268   0.752   2.133  0.2680 -0.1343 -0.0175
 1731ntf    fn410843   1.148   0.501   2.242  0.2591  0.1539  0.8554
 1731ntf    fn410844   1.289   0.376   2.136  0.0199 -0.3150  0.4821
 1731ntf    fn410845   1.348   0.505   2.295  0.0714  0.3125  0.0811
 1732ntf    cn110846   2.628   1.813   5.073 -0.0206  0.3730 -0.2488
 1732ntf    sn210847   2.733   1.942   5.147  0.1428 -0.0786  0.3223
 1732ntf    nn310848   2.796   1.859   5.264  0.6289 -0.6770 -0.3590
 1732ntf    sn210849   2.716   1.781   5.374 -0.1921  0.1952 -0.3162
 1732ntf    cn110850   2.842   1.791   5.505 -0.1744 -0.1906 -0.2997
 1732ntf    fn410851   2.524   1.798   5.153  0.0556  0.1889 -0.1828
 1732ntf    fn410852   2.578   1.848   4.956 -0.1173  0.5367 -0.1581
 1732ntf    fn410853   2.693   1.698   5.062 -0.4351  0.1165 -0.0380
 1732ntf    on510854   2.839   1.963   5.052 -0.4687 -0.7768 -0.5289
 1732ntf    on510855   2.637   2.047   5.174  0.2584  0.0825  0.1128
 1732ntf    on510856   2.709   1.639   5.349  0.2373  0.0748  0.2137
 1732ntf    on510857   2.604   1.843   5.440  0.0959 -0.3216  0.6881
 1732ntf    fn410858   2.861   1.919   5.534 -0.5403 -0.1580 -0.1884
 1732ntf    fn410859   2.792   1.745   5.619 -0.0769  0.3098 -0.0506
 1732ntf    fn410860   2.956   1.729   5.482  0.0259 -0.0855  0.3714
 1733ntf    cn110861   6.779   4.887   5.951  0.0822  0.3031  0.0697
 1733ntf    sn210862   6.817   4.947   6.118  0.1012  0.0837  0.1448
 1733ntf    nn310863   6.787   5.101   6.107 -0.0657  0.0345 -0.0937
 1733ntf    sn210864   6.851   5.219   6.188 -0.0765 -0.0748  0.0748
 1733ntf    cn110865   6.748   5.224   6.338 -0.3082  0.1097 -0.0896
 1733ntf    fn410866   6.876   4.913   5.866  0.0540 -0.1975 -0.1208
 1733ntf    fn410867   6.741   4.760   5.941  0.0714  0.3265 -0.2090
 1733ntf    fn410868   6.680   4.956   5.897 -0.0523  0.1705  0.1449
 1733ntf    on510869   6.711   4.879   6.189  0.1832  0.2073  0.3859
 1733ntf    on510870   6.952   4.904   6.144 -0.1427 -0.7674  0.0528
 1733ntf    on510871   6.824   5.349   6.133 -0.8281 -0.1904  0.1556
 1733ntf    on510872   6.987   5.203   6.234 -0.0855 -0.5203 -0.0486
 1733ntf    fn410873   6.760   5.108   6.401  0.1929 -0.0498 -0.4707
 1733ntf    fn410874   6.788   5.325   6.414  0.0361 -0.1455  0.0712
 1733ntf    fn410875   6.621   5.245   6.310 -0.3536  0.1871  0.1651
 1734ntf    cn110876   2.527   0.458   5.196 -0.2013  0.0665  0.1435
 1734ntf    sn210877   2.691   0.384   5.177 -0.1725  0.1055  0.2403
 1734ntf    nn310878   2.780   0.494   5.245 -0.0050  0.3656 -0.3930
 1734ntf    sn210879   2.919   0.550   5.199  0.1109  0.2256 -0.2145
 1734ntf    cn110880   2.970   0.632   5.353 -0.0278  0.1489 -0.1276
 1734ntf    fn410881   2.511   0.495   5.322  0.2882  0.3060  0.1348
 1734ntf    fn410882   2.502   0.565   5.122 -0.0924 -0.2379 -0.3373
 1734ntf    fn410883   2.428   0.379   5.156 -0.2779  0.1764  0.1137
 1734ntf    on510884   2.674   0.262   5.252 -0.0524  0.1513  0.3433
 1734ntf    on510885   2.703   0.375   5.034  0.3837  0.6987  0.2442
 1734ntf    on510886   2.904   0.653   5.099 -0.1265  0.7074  0.3120
 1734ntf    on510887   3.016   0.446   5.177  0.1666  0.2026  0.1362
 1734ntf    fn410888   3.072   0.715   5.338 -0.1894  0.4043  0.1712
 1734ntf    fn410889   2.866   0.692   5.408  0.0071  0.7839 -0.7478
 1734ntf    fn410890   3.006   0.538   5.439 -0.6299  0.2449  0.2351
 1735ntf    cn110891   1.442   0.800   1.224 -0.4443 -0.0209 -0.0443
 1735ntf    sn210892   1.475   0.958   1.309  0.2356 -0.1301 -0.0989
 1735ntf    nn310893   1.632   0.950   1.316  0.2103 -0.2448  0.3679
 1735ntf    sn210894   1.737   1.033   1.234 -0.0043 -0.0279  0.3095
 1735ntf    cn110895   1.875   1.049   1.352  0.2356 -0.3426  0.0747
 1735ntf    fn410896   1.314   0.782   1.200 -0.4590 -0.3912  0.3164
 1735ntf    fn410897   1.504   0.787   1.108 -0.3357 -0.1487  0.0278
 1735ntf    fn410898   1.493   0.702   1.297 -0.7205 -0.0603  0.0950
 1735ntf    on510899   1.421   1.053   1.216  0.4937  0.0849 -0.0301
 1735ntf    on510900   1.411   0.941   1.437  0.8355 -0.1831  0.1992
 1735ntf    on510901   1.705   1.172   1.215 -0.2507 -0.1193  0.0484
 1735ntf    on510902   1.794   0.960   1.123  0.4876 -0.1371  0.6272
 1735ntf    fn410903   1.833   1.072   1.475  0.0690  0.1027 -0.0628
 1735ntf    fn410904   1.950   0.941   1.357  0.1566 -0.3781  0.4999
 1735ntf    fn410905   1.953   1.151   1.319  0.2311 -0.2621  0.3114
 1736ntf    cn110906   5.855   5.530   6.621  0.0173  0.0961  0.0521
 1736ntf    sn210907   6.015   5.527   6.536  0.0001 -0.2784  0.0305
 1736ntf    nn310908   6.072   5.383   6.563 -0.1887 -0.1910  0.9084
 1736ntf    sn210909   6.175   5.308   6.473 -0.6178  0.0483  0.2114
 1736ntf    cn110910   6.292   5.266   6.606 -0.4035  0.1807  0.0651
 1736ntf    fn410911   5.865   5.531   6.753  0.1304 -0.1847  0.0468
 1736ntf    fn410912   5.782   5.637   6.593 -0.6560 -0.2672  0.3850
 1736ntf    fn410913   5.771   5.432   6.592 -0.0140  0.1068  0.1066
 1736ntf    on510914   5.981   5.565   6.401  0.2082  0.2643  0.1278
 1736ntf    on510915   6.094   5.623   6.609 -0.1368 -0.3174  0.2279
 1736ntf    on510916   6.261   5.391   6.391 -0.3152 -0.3870  0.0834
 1736ntf    on510917   6.134   5.184   6.412  0.5271 -0.2417 -0.0061
 1736ntf    fn410918   6.380   5.171   6.580 -0.2407  0.2436  0.3873
 1736ntf    fn410919   6.357   5.373   6.648  0.4500 -0.1503 -0.3784
 1736ntf    fn410920   6.215   5.219   6.703 -0.1757 -0.0706  0.1254
 1737ntf    cn110921   3.639   6.435   2.379  0.3432  0.8242 -0.0801
 1737ntf    sn210922   3.817   6.470   2.386  0.4383  0.3281  0.0358
 1737ntf    nn310923   3.876   6.402   2.514 -0.7921 -0.6073  0.1192
 1737ntf    sn210924   3.966   6.274   2.527  0.0455 -0.0350  0.0081
 1737ntf    cn110925   4.136   6.335   2.509  0.0658 -0.0363  0.1989
 1737ntf    fn410926   3.583   6.406   2.495  0.1178  0.0252 -0.3829
 1737ntf    fn410927   3.571   6.537   2.328 -0.1411  0.4983 -0.0960
 1737ntf    fn410928   3.611   6.328   2.306 -0.3250  0.8806  0.0889
 1737ntf    on510929   3.864   6.416   2.261 -0.1998 -0.1989  0.0172
 1737ntf    on510930   3.815   6.614   2.393  0.9019  0.3397 -0.0446
 1737ntf    on510931   3.940   6.176   2.424 -0.4744  0.4076 -0.2844
 1737ntf    on510932   3.967   6.226   2.663  0.3261  0.2191  0.0958
 1737ntf    fn410933   4.219   6.232   2.518  0.0749 -0.0475 -0.0070
 1737ntf    fn410934   4.156   6.386   2.389 -0.2486  0.2366  0.2625
 1737ntf    fn410935   4.170   6.426   2.599  0.5200 -0.0121  0.0084
 1738ntf    cn110936   0.094   0.086   0.640  0.0960 -0.1901  0.3053
 1738ntf    sn210937   0.258   0.085   0.719  0.1673 -0.1699  0.1572
 1738ntf    nn310938   0.323  -0.049   0.668  0.1735  0.0429 -0.4061
 1738ntf    sn210939   0.321  -0.193   0.730  0.0859  0.2537  0.0884
 1738ntf    cn110940   0.339  -0.293   0.579 -0.5369 -0.0308  0.1993
 1738ntf    fn410941   0.107   0.075   0.509  0.2353  0.0093  0.3021
 1738ntf    fn410942   0.018  -0.016   0.675 -0.3802  0.0636  0.0094
 1738ntf    fn410943   0.024   0.196   0.659  0.0467 -0.1020 -0.3610
 1738ntf    on510944   0.319   0.203   0.662  0.0828  0.1531  0.7338
 1738ntf    on510945   0.220   0.096   0.857  1.2459 -0.7710  0.5172
 1738ntf    on510946   0.195  -0.237   0.784  0.3276 -0.9005 -0.2599
 1738ntf    on510947   0.445  -0.226   0.797  0.0406  0.3839  0.2374
 1738ntf    fn410948   0.220  -0.294   0.521 -0.6509  0.4418  0.4153
 1738ntf    fn410949   0.426  -0.243   0.493 -0.3973 -0.8044 -0.1188
 1738ntf    fn410950   0.377  -0.419   0.593  0.2916  0.1992  0.0994
 1739ntf    cn110951   6.680   1.707   1.795 -0.0668  0.1572 -0.2628
 1739ntf    sn210952   6.820   1.645   1.697 -0.0293 -0.1419 -0.0236
 1739ntf    nn310953   6.781   1.493   1.705 -0.6013 -0.0222 -0.4079
 1739ntf    sn210954   6.823   1.377   1.802 -0.2172  0.0305 -0.5066
 1739ntf    cn110955   6.929   1.276   1.694  0.3587  0.0864  0.0057
 1739ntf    fn410956   6.668   1.838   1.799 -0.2519  0.1626 -0.8928
 1739ntf    fn410957   6.560   1.661   1.762 -0.1453  0.3255 -0.2099
 1739ntf    fn410958   6.703   1.667   1.919 -0.4651  0.3679 -0.1193
 1739ntf    on510959   6.796   1.702   1.566 -0.0292  0.0994  0.0809
 1739ntf    on510960   6.936   1.692   1.768  0.4523 -0.4558 -0.5905
 1739ntf    on510961   6.705   1.297   1.827  0.1670 -0.6253 -0.7667
 1739ntf    on510962   6.916   1.402   1.909 -0.5536 -1.2747  0.1162
 1739ntf    fn410963   7.054   1.321   1.691  0.3899 -0.0066 -0.0893
 1739ntf    fn410964   6.949   1.152   1.735  0.0588  0.0292 -0.0205
 1739ntf    fn410965   6.883   1.271   1.571  0.1597 -0.1106  0.0880
 1740ntf    cn110966   1.409   5.949   3.822 -0.4958 -0.5690  0.3511
 1740ntf    sn210967   1.478   6.000   3.982  0.0888  0.2401 -0.1502
 1740ntf    nn310968   1.513   6.150   3.953  0.5862  0.0395 -0.5918
 1740ntf    sn210969   1.638   6.227   4.008  0.2148  0.2623 -0.0517
 1740ntf    cn110970   1.568   6.395   4.013  0.2780  0.2814  0.2791
 1740ntf    fn410971   1.495   5.992   3.731 -0.7400 -0.4409  0.1820
 1740ntf    fn410972   1.407   5.817   3.809  0.3934 -0.5538 -0.0158
 1740ntf    fn410973   1.289   5.997   3.793  0.0090  0.6362  0.1826
 1740ntf    on510974   1.369   5.974   4.073  0.2692  0.2295  0.0658
 1740ntf    on510975   1.597   5.920   3.987 -0.1405 -0.0541  0.8189
 1740ntf    on510976   1.749   6.233   3.916  0.3510  0.0810  0.0975
 1740ntf    on510977   1.665   6.193   4.146 -0.1637 -0.4027 -0.1362
 1740ntf    fn410978   1.654   6.491   4.042  0.6536 -0.1118  0.4797
 1740ntf    fn410979   1.521   6.433   3.895 -0.1828  0.2757  0.4620
 1740ntf    fn410980   1.467   6.406   4.097  0.1494 -0.1743  0.1867
 1741ntf    cn110981   1.647   4.668   3.189 -0.0268  0.1113 -0.1878
 1741ntf    sn210982   1.715   4.679   3.357 -0.2537  0.1420 -0.0968
 1741ntf    nn310983   1.828   4.570   3.348  0.0350  0.4101  0.2315
 1741ntf    sn210984   1.980   4.569   3.385  0.0773 -0.4376  0.0495
 1741ntf    cn110985   2.056   4.615   3.226 -0.2446  0.1820  0.0733
 1741ntf    fn410986   1.665   4.546   3.141  0.3657  0.2704 -0.4441
 1741ntf    fn410987   1.520   4.705   3.174  0.0603  0.5541  0.1449
 1741ntf    fn410988   1.715   4.752   3.113  0.5994 -0.2204 -0.0009
 1741ntf    on510989   1.769   4.812   3.376  0.2325 -0.1546  0.6200
 1741ntf    on510990   1.605   4.636   3.439 -0.2497  0.2883 -0.0145
 1741ntf    on510991   2.033   4.439   3.420  1.1859  0.1044  0.4175
 1741ntf    on510992   2.010   4.670   3.483  0.3705 -0.0788 -0.4055
 1741ntf    fn410993   1.998   4.720   3.170  0.4767  0.5406 -0.0078
 1741ntf    fn410994   2.184   4.642   3.246 -0.1450 -0.3023  0.1151
 1741ntf    fn410995   2.049   4.513   3.143 -0.1801  0.2364  0.0015
 1742ntf    cn110996   0.956   0.269   6.058 -0.1863 -0.1181 -0.1476
 1742ntf    sn210997   0.931   0.398   5.932  0.1285  0.0396 -0.0492
 1742ntf    nn310998   0.930   0.522   6.028 -0.0643  0.0801 -0.1021
 1742ntf    sn210999   0.810   0.578   6.111  0.1424  0.2473  0.0869
 1742ntf    cn111000   0.853   0.755   6.114  0.2968  0.2149 -0.2774
 1742ntf    fn411001   1.055   0.294   6.141 -0.2025  0.2290 -0.2321
 1742ntf    fn411002   0.846   0.248   6.130 -0.4693  0.9512 -0.2488
 1742ntf    fn411003   0.991   0.155   6.001 -0.4670 -0.2519 -0.0547
 1742ntf    on511004   1.050   0.379   5.853  0.1971  0.1284  0.0329
 1742ntf    on511005   0.807   0.357   5.871  0.2900  0.1084 -0.4263
 1742ntf    on511006   0.813   0.536   6.249  0.0072 -0.0432  0.0022
 1742ntf    on511007   0.679   0.566   6.051  0.0605 -0.2601  0.3623
 1742ntf    fn411008   0.960   0.780   6.187  0.0094  0.3803  0.0858
 1742ntf    fn411009   0.883   0.791   5.990 -0.7289 -0.0838 -0.6183
 1742ntf    fn411010   0.752   0.829   6.156 -0.0931 -0.5580  0.1673
 1743ntf    cn111011   5.962   1.544   3.054  0.0798  0.1984  0.3923
 1743ntf    sn211012   5.824   1.482   2.954  0.3045  0.1438  0.1127
 1743ntf    nn311013   5.747   1.407   3.068  0.1111 -0.1875 -0.2330
 1743ntf    sn211014   5.596   1.403   3.112  0.1755  0.0463  0.0125
 1743ntf    cn111015   5.573   1.560   3.201  0.2216  0.0537  0.0117
 1743ntf    fn411016   5.913   1.582   3.170 -0.6270 -0.8355  0.4488
 1743ntf    fn411017   6.048   1.444   3.067  0.3651  0.3670 -0.1339
 1743ntf    fn411018   6.029   1.641   2.993 -0.2508  0.2730  0.1448
 1743ntf    on511019   5.767   1.604   2.902 -0.2144 -0.2182 -0.1768
 1743ntf    on511020   5.888   1.397   2.857 -0.3067  0.0234 -0.1893
 1743ntf    on511021   5.568   1.309   3.216  0.1184 -0.4824 -0.4755
 1743ntf    on511022   5.506   1.409   2.999  0.2037 -0.2014 -0.0233
 1743ntf    fn411023   5.667   1.571   3.293 -0.0662 -0.5318  0.3874
 1743ntf    fn411024   5.582   1.667   3.124  0.1404  0.1645  0.1540
 1743ntf    fn411025   5.451   1.562   3.253 -0.0607 -0.5241 -0.6100
 1744ntf    cn111026   5.248   4.407   5.129 -0.1156 -0.2651 -0.0517
 1744ntf    sn211027   5.334   4.517   5.013 -0.4634  0.1534  0.0866
 1744ntf    nn311028   5.233   4.527   4.892 -0.2064  0.0653 -0.1369
 1744ntf    sn211029   5.101   4.610   4.880 -0.0848  0.2673 -0.0893
 1744ntf    cn111030   5.160   4.752   4.783  0.0564  0.2071 -0.0935
 1744ntf    fn411031   5.326   4.364   5.227 -0.8510 -0.2950  0.5265
 1744ntf    fn411032   5.143   4.453   5.195  0.0653  0.0573  0.0112
 1744ntf    fn411033   5.215   4.300   5.059  0.2030 -0.5503  0.2322
 1744ntf    on511034   5.354   4.643   5.080  0.4051 -0.0379  0.1978
 1744ntf    on511035   5.455   4.447   4.980 -0.9638 -0.6545 -0.0471
 1744ntf    on511036   5.044   4.669   4.998  0.1982  0.3718 -0.0063
 1744ntf    on511037   5.015   4.536   4.790 -0.0911  0.1883 -0.0178
 1744ntf    fn411038   5.070   4.848   4.769  0.1416  0.3075  0.0529
 1744ntf    fn411039   5.264   4.815   4.835  0.0763 -0.1378  0.2861
 1744ntf    fn411040   5.197   4.716   4.661 -0.1522  0.2695 -0.1757
 1745ntf    cn111041   1.369   3.673   6.393  0.0977  0.3825 -0.0875
 1745ntf    sn211042   1.266   3.776   6.502  0.2962  0.1808  0.2902
 1745ntf    nn311043   1.123   3.729   6.458  0.3318  0.2116  0.1438
 1745ntf    sn211044   1.048   3.603   6.513  0.3284  0.2207  0.1598
 1745ntf    cn111045   0.930   3.685   6.626 -0.1122 -0.0106 -0.1279
 1745ntf    fn411046   1.497   3.664   6.421  0.0748 -0.0528 -0.1226
 1745ntf    fn411047   1.329   3.547   6.393  0.0844  0.3867  0.0000
 1745ntf    fn411048   1.365   3.707   6.265  0.5055  0.1176 -0.1729
 1745ntf    on511049   1.299   3.745   6.639  0.3608  0.3066  0.3035
 1745ntf    on511050   1.300   3.908   6.455  0.0613  0.3142  0.4929
 1745ntf    on511051   1.118   3.513   6.601 -0.0351  0.0527  0.2823
 1745ntf    on511052   0.969   3.538   6.411  0.0017 -0.1813  0.6652
 1745ntf    fn411053   0.996   3.763   6.710  0.1035 -0.2845 -0.0376
 1745ntf    fn411054   0.842   3.768   6.574  0.0006  0.2405  0.0801
 1745ntf    fn411055   0.874   3.587   6.694 -0.5615  0.3194 -0.0192
 1746ntf    cn111056   1.100   4.016   1.382  0.1519  0.0349  0.1611
 1746ntf    sn211057   1.177   3.976   1.541  0.1605  0.1659  0.1905
 1746ntf    nn311058   1.110   3.834   1.558 -0.0695  0.2333 -0.1489
 1746ntf    sn211059   1.064   3.778   1.697  0.0637  0.2960 -0.0793
 1746ntf    cn111060   1.190   3.658   1.749 -0.2807 -0.1778 -0.3324
 1746ntf    fn411061   1.146   4.132   1.337  0.2814 -0.2295 -0.3899
 1746ntf    fn411062   1.122   3.930   1.284  0.2664  0.3226 -0.0685
 1746ntf    fn411063   0.968   4.031   1.391  0.0918 -0.1691 -0.3766
 1746ntf    on511064   1.316   3.971   1.503  0.0357 -0.4907 -0.2067
 1746ntf    on511065   1.132   4.076   1.635 -0.1998 -0.0165  0.2146
 1746ntf    on511066   0.953   3.688   1.680  0.0702  0.4527 -1.0034
 1746ntf    on511067   1.062   3.859   1.817 -0.4970 -0.2105  0.2539
 1746ntf    fn411068   1.163   3.583   1.855  0.2633  0.0045 -0.0605
 1746ntf    fn411069   1.201   3.572   1.649 -0.0769  0.1124 -0.5600
 1746ntf    fn411070   1.307   3.717   1.768 -0.5124  0.2084 -0.1088
 1747ntf    cn111071   2.103   1.930   2.348  0.1783 -0.3699 -0.7400
 1747ntf    sn211072   2.195   1.787   2.412 -0.0853 -0.1188  0.2275
 1747ntf    nn311073   2.330   1.858   2.449 -0.1884 -0.0009  0.3775
 1747ntf    sn211074   2.365   1.929   2.584 -0.2346  0.0057  0.3860
 1747ntf    cn111075   2.451   1.802   2.682  0.0961  0.0828  0.1977
 1747ntf    fn411076   2.169   1.997   2.255  0.6904  0.0857 -0.0543
 1747ntf    fn411077   1.989   1.897   2.288  0.1831 -0.3207 -0.7767
 1747ntf    fn411078   2.067   2.017   2.442 -0.2452 -1.2407 -0.0819
 1747ntf    on511079   2.107   1.737   2.514  0.1313  0.2110  0.5796
 1747ntf    on511080   2.226   1.705   2.297 -0.1351 -0.2898  0.3358
 1747ntf    on511081   2.254   1.974   2.664 -0.3118  0.4524  0.0315
 1747ntf    on511082   2.468   2.026   2.554 -0.0664 -0.3616 -0.2475
 1747ntf    fn411083   2.546   1.740   2.615  0.0771  0.2661  0.0002
 1747ntf    fn411084   2.506   1.851   2.792  0.1889 -0.2223  0.2860
 1747ntf    fn411085   2.363   1.708   2.712  0.1814 -0.0580  0.0082
 1748ntf    cn111086   1.001   1.518   1.454  0.0329 -0.0161 -0.2814
 1748ntf    sn211087   0.894   1.664   1.457  0.1319  0.0457  0.3171
 1748ntf    nn311088   0.930   1.719   1.315 -0.2230 -0.7122 -0.0742
 1748ntf    sn211089   1.047   1.821   1.285 -0.2394 -0.6208  0.1712
 1748ntf    cn111090   1.034   1.842   1.105 -0.1046  0.2890  0.2659
 1748ntf    fn411091   0.953   1.419   1.528  0.3002 -0.3213 -0.5139
 1748ntf    fn411092   1.010   1.466   1.333  0.1955  0.0587 -0.3024
 1748ntf    fn411093   1.125   1.550   1.486 -0.0342  0.1442 -0.1810
 1748ntf    on511094   0.763   1.603   1.452  0.2317 -0.1577  0.1997
 1748ntf    on511095   0.938   1.731   1.577  0.1648  0.3591  0.1298
 1748ntf    on511096   1.179   1.765   1.296  0.4903  0.9988 -0.1650
 1748ntf    on511097   1.029   1.958   1.327  0.7139 -0.3433 -0.3172
 1748ntf    fn411098   1.026   1.724   1.047  0.4179  0.0815  0.6095
 1748ntf    fn411099   0.929   1.912   1.068 -0.1105  0.0246 -0.2188
 1748ntf    fn411100   1.143   1.892   1.048  0.1425 -0.5941 -0.0447
 1749ntf    cn111101   0.650   0.263   1.147 -0.5283 -0.3167 -0.2081
 1749ntf    sn211102   0.781   0.149   1.092 -0.2618  0.0578 -0.3532
 1749ntf    nn311103   0.902   0.247   1.072  0.0974 -0.3058  0.0554
 1749ntf    sn211104   0.991   0.276   0.946  0.3190  0.0477  0.2892
 1749ntf    cn111105   0.961   0.451   0.909 -0.0398 -0.1262 -0.2551
 1749ntf    fn411106   0.616   0.350   1.053 -0.0874 -0.2596 -0.3173
 1749ntf    fn411107   0.540   0.196   1.175 -0.4071 -0.2657  0.3878
 1749ntf    fn411108   0.684   0.335   1.252 -0.3605 -0.4293 -0.1840
 1749ntf    on511109   0.802   0.066   1.207 -0.2095  0.6824  0.0943
 1749ntf    on511110   0.733   0.088   0.971  0.0607  0.1665 -0.5383
 1749ntf    on511111   0.952   0.215   0.821  0.0646 -0.3000  0.5353
 1749ntf    on511112   1.132   0.262   0.975  0.4053 -0.5089 -0.3711
 1749ntf    fn411113   1.057   0.528   0.956 -0.2633 -0.1399  0.2229
 1749ntf    fn411114   0.968   0.477   0.779 -0.5746 -0.1651 -0.2937
 1749ntf    fn411115   0.848   0.496   0.961 -0.0358 -0.0875 -0.2794
 1750ntf    cn111116   0.402   0.794   2.784 -0.2164  0.2634 -0.4176
 1750ntf    sn211117   0.483   0.673   2.676  0.1211 -0.0496  0.1787
 1750ntf    nn311118   0.538   0.564   2.774  0.4161 -0.1404 -0.0850
 1750ntf    sn211119   0.560   0.409   2.757  0.3065 -0.1493 -0.1450
 1750ntf    cn111120   0.740   0.406   2.778  0.3074  0.2440 -0.0798
 1750ntf    fn411121   0.361   0.903   2.721 -0.2517  0.7666  0.4508
 1750ntf    fn411122   0.288   0.756   2.840  0.3533 -0.3066  0.3808
 1750ntf    fn411123   0.477   0.841   2.883 -0.3915  0.6944 -0.4892
 1750ntf    on511124   0.381   0.631   2.583  0.1785 -0.5982  0.3609
 1750ntf    on511125   0.593   0.744   2.615 -0.7458  0.5533 -0.7090
 1750ntf    on511126   0.537   0.348   2.629 -0.6815 -0.1138  0.0062
 1750ntf    on511127   0.508   0.333   2.869 -0.5890  0.1608 -0.3419
 1750ntf    fn411128   0.773   0.282   2.814 -0.7763 -0.0072  0.0903
 1750ntf    fn411129   0.807   0.425   2.666  0.1487  0.2590 -0.1707
 1750ntf    fn411130   0.779   0.489   2.874 -0.4320  0.0767  0.3739
 1751ntf    cn111131   0.365   3.838   4.084  0.3734 -0.2191 -0.1825
 1751ntf    sn211132   0.368   3.745   3.928 -0.3829 -0.0970 -0.2734
 1751ntf    nn311133   0.522   3.723   3.907 -0.4682 -0.5619 -0.4248
 1751ntf    sn211134   0.620   3.781   3.799 -0.0427  0.0205  0.2639
 1751ntf    cn111135   0.774   3.795   3.895  0.3527 -0.3845 -0.2975
 1751ntf    fn411136   0.270   3.931   4.085  0.4127 -0.1785  0.0600
 1751ntf    fn411137   0.350   3.770   4.197 -0.3746 -0.5417 -0.4662
 1751ntf    fn411138   0.484   3.894   4.094  0.1717  0.1649  0.1155
 1751ntf    on511139   0.291   3.625   3.955  0.4718 -0.5802  0.0446
 1751ntf    on511140   0.307   3.836   3.834 -0.1062  0.6314  0.2451
 1751ntf    on511141   0.593   3.916   3.758  0.2601 -0.0727 -0.2569
 1751ntf    on511142   0.645   3.688   3.691  0.0423 -0.0058  0.3060
 1751ntf    fn411143   0.857   3.879   3.836 -0.1433 -0.0766 -0.5652
 1751ntf    fn411144   0.743   3.836   4.018 -0.3487 -0.1140 -0.5592
 1751ntf    fn411145   0.830   3.676   3.908  0.2214 -0.3971  0.1863
 1752ntf    cn111146   4.197   0.101   1.868  0.1375  0.0695 -0.2016
 1752ntf    sn211147   4.085   0.074   1.727  0.0677 -0.1888 -0.0968
 1752ntf    nn311148   3.947   0.075   1.802 -0.0133  0.0398 -0.2516
 1752ntf    sn211149   3.805   0.041   1.743 -0.2101  0.1993  0.1290
 1752ntf    cn111150   3.776   0.185   1.635  0.1333  0.0306 -0.1926
 1752ntf    fn411151   4.194   0.001   1.955  0.5125 -0.0659 -0.3412
 1752ntf    fn411152   4.321   0.122   1.827  0.3958 -0.7351  0.1436
 1752ntf    fn411153   4.158   0.205   1.939  0.3462 -0.2614  0.3997
 1752ntf    on511154   4.101   0.196   1.653 -0.3620 -0.2569 -0.3066
 1752ntf    on511155   4.128  -0.050   1.666  0.2580 -0.1332 -0.0767
 1752ntf    on511156   3.702   0.053   1.844 -0.1965  0.3437  0.1271
 1752ntf    on511157   3.789  -0.073   1.657 -0.2306 -0.2195  0.6860
 1752ntf    fn411158   3.797   0.303   1.691 -0.0423 -0.4180  0.8552
 1752ntf    fn411159   3.862   0.188   1.536  0.0485 -0.1913 -0.2746
 1752ntf    fn411160   3.654   0.181   1.584 -0.0315  0.8306  0.1186
 1753ntf    cn111161   4.603   2.180   3.793 -0.1101 -0.2961 -0.0979
 1753ntf    sn211162   4.617   2.026   3.698 -0.0202 -0.2501 -0.1595
 1753ntf    nn311163   4.585   2.069   3.551  0.0367  0.1363 -0.0596
 1753ntf    sn211164   4.453   2.039   3.471 -0.0026 -0.0120  0.0608
 1753ntf    cn111165   4.479   1.866   3.422 -0.0858  0.0129 -0.0683
 1753ntf    fn411166   4.698   2.263   3.753 -0.0292 -0.1909  0.3011
 1753ntf    fn411167   4.488   2.247   3.789  0.2097  0.3446  1.0202
 1753ntf    fn411168   4.621   2.158   3.922  0.0380 -0.0179 -0.0704
 1753ntf    on511169   4.756   1.992   3.719  0.1272  0.6320  0.3664
 1753ntf    on511170   4.525   1.928   3.750 -0.1897  0.2530  0.5063
 1753ntf    on511171   4.450   2.110   3.346 -0.1954  0.1446  0.1545
 1753ntf    on511172   4.325   2.034   3.536  0.0283 -0.3606  0.0937
 1753ntf    fn411173   4.487   1.789   3.528  0.5526 -0.1249 -0.2116
 1753ntf    fn411174   4.390   1.814   3.338 -0.1591  0.4589 -0.2706
 1753ntf    fn411175   4.597   1.851   3.365  0.0207  0.0918  0.1332
 1754ntf    cn111176   1.482   4.930   2.160  0.1610 -0.2781 -0.2256
 1754ntf    sn211177   1.530   5.094   2.223  0.0598 -0.3046 -0.0803
 1754ntf    nn311178   1.427   5.185   2.147 -0.2926 -0.3629  0.3166
 1754ntf    sn211179   1.293   5.245   2.202 -0.3152  0.0954 -0.2279
 1754ntf    cn111180   1.221   5.289   2.041 -0.2110  0.2712 -0.2267
 1754ntf    fn411181   1.496   4.911   2.030 -0.0287 -0.1615 -0.2635
 1754ntf    fn411182   1.552   4.832   2.214 -0.3711 -0.2584  0.5207
 1754ntf    fn411183   1.355   4.911   2.191  0.3507 -0.6122  0.3727
 1754ntf    on511184   1.504   5.078   2.364  0.2100 -0.1952 -0.0401
 1754ntf    on511185   1.664   5.117   2.175  0.3799 -0.4843  0.7112
 1754ntf    on511186   1.306   5.372   2.269  0.3494 -0.1628  0.1396
 1754ntf    on511187   1.202   5.144   2.250 -0.5617  0.3184 -0.2261
 1754ntf    fn411188   1.301   5.374   1.979  0.0411  0.3240  0.1693
 1754ntf    fn411189   1.203   5.179   1.970  0.6965 -0.0880  0.0939
 1754ntf    fn411190   1.102   5.343   2.064 -0.2316  0.0154  0.2704
 1755ntf    cn111191   5.898   4.397   4.093  0.5752  0.3926 -0.4252
 1755ntf    sn211192   5.953   4.230   4.141 -0.3492  0.1983 -0.0179
 1755ntf    nn311193   5.814   4.160   4.155  0.0886 -0.6079  0.3580
 1755ntf    sn211194   5.726   4.148   4.284 -0.1386 -0.0072  0.2597
 1755ntf    cn111195   5.799   3.999   4.357 -0.4555 -0.2690  0.0459
 1755ntf    fn411196   5.816   4.445   4.185  0.1571 -0.3189 -0.4213
 1755ntf    fn411197   6.008   4.471   4.080  0.7734  0.0742 -0.5779
 1755ntf    fn411198   5.830   4.397   3.980 -0.4090  0.0309  0.1563
 1755ntf    on511199   6.024   4.194   4.020 -0.6454 -0.1069 -0.1014
 1755ntf    on511200   6.037   4.250   4.257 -0.0701  0.9376 -0.3392
 1755ntf    on511201   5.589   4.115   4.252 -0.0785  0.5366 -0.5850
 1755ntf    on511202   5.746   4.257   4.376  0.0658  0.2746 -0.1147
 1755ntf    fn411203   5.929   4.010   4.381 -0.4594 -0.4847  0.1692
 1755ntf    fn411204   5.748   3.977   4.477 -0.2625 -0.1087  0.1568
 1755ntf    fn411205   5.773   3.890   4.286 -0.7270 -0.4333  0.3929
 1756ntf    cn111206   4.476   3.139   0.419  0.2264 -0.0747 -0.1900
 1756ntf    sn211207   4.552   3.294   0.362  0.1377 -0.0358 -0.2021
 1756ntf    nn311208   4.558   3.250   0.212  0.0612  0.2548 -0.2924
 1756ntf    sn211209   4.457   3.288   0.098 -0.0831  0.1481 -0.2004
 1756ntf    cn111210   4.572   3.319  -0.040  0.0365  0.1852 -0.0921
 1756ntf    fn411211   4.443   3.147   0.547 -0.1230 -0.5318 -0.2502
 1756ntf    fn411212   4.367   3.112   0.349 -0.1101  0.1230  0.2512
 1756ntf    fn411213   4.548   3.029   0.406 -0.1444 -0.2790 -0.5419
 1756ntf    on511214   4.460   3.403   0.387  0.1787  0.0095 -0.2478
 1756ntf    on511215   4.681   3.300   0.427  0.0456 -0.0302 -0.0199
 1756ntf    on511216   4.385   3.411   0.118 -0.6732 -0.2581  0.1972
 1756ntf    on511217   4.386   3.170   0.053 -0.3577  0.0450  0.4970
 1756ntf    fn411218   4.521   3.397  -0.134 -0.1529 -0.0920 -0.2196
 1756ntf    fn411219   4.678   3.385   0.003 -0.4440  0.4178  0.7551
 1756ntf    fn411220   4.624   3.215  -0.103 -0.7805  0.0338 -0.5248
 1757ntf    cn111221   4.007   4.821   6.043  0.0484  0.1393  0.3057
 1757ntf    sn211222   4.045   4.875   5.874 -0.1066 -0.0239  0.2193
 1757ntf    nn311223   4.191   4.820   5.859 -0.2670 -0.3633 -0.1199
 1757ntf    sn211224   4.274   4.778   5.733  0.0688 -0.2646  0.0676
 1757ntf    cn111225   4.238   4.600   5.739 -0.1708 -0.2035  0.4421
 1757ntf    fn411226   3.894   4.864   6.098  0.0580  0.8009 -0.1838
 1757ntf    fn411227   3.992   4.690   6.055 -0.1989  0.1233 -0.1872
 1757ntf    fn411228   4.101   4.857   6.129 -0.1982  0.4980  0.4298
 1757ntf    on511229   3.944   4.807   5.796 -0.2855  0.0768  0.3617
 1757ntf    on511230   4.035   5.018   5.885 -0.0232 -0.0304  0.3853
 1757ntf    on511231   4.418   4.785   5.749  0.0026  0.3687  0.4034
 1757ntf    on511232   4.222   4.818   5.605  0.2958 -0.9346 -0.2410
 1757ntf    fn411233   4.269   4.538   5.851  0.1872 -0.2532  0.3159
 1757ntf    fn411234   4.110   4.576   5.712 -0.1689  0.3310 -0.0581
 1757ntf    fn411235   4.306   4.545   5.640 -0.1691  0.6399 -0.0374
 1758ntf    cn111236   5.088   1.125   6.053  0.2186  0.1827  0.0311
 1758ntf    sn211237   5.258   1.180   6.087  0.2677  0.0359  0.0252
 1758ntf    nn311238   5.248   1.310   5.999 -0.1469  0.4651  0.6972
 1758ntf    sn211239   5.366   1.408   5.967  0.1418 -0.1123 -0.0270
 1758ntf    cn111240   5.339   1.453   5.793  0.1186 -0.3782 -0.0928
 1758ntf    fn411241   5.049   1.019   6.122  0.2039 -0.2088 -0.5628
 1758ntf    fn411242   4.996   1.215   6.083 -0.1819 -0.2015 -0.0312
 1758ntf    fn411243   5.069   1.093   5.926  0.2541  0.1149  0.0429
 1758ntf    on511244   5.266   1.195   6.230 -0.0355 -0.1310  0.0611
 1758ntf    on511245   5.338   1.076   6.027  0.2090  0.0259 -0.0351
 1758ntf    on511246   5.499   1.352   5.967  0.0022 -0.4456  0.0022
 1758ntf    on511247   5.345   1.537   6.027  1.1362  0.2552 -0.4504
 1758ntf    fn411248   5.344   1.584   5.772 -0.2259 -0.3516 -0.0248
 1758ntf    fn411249   5.429   1.408   5.708  0.5376  0.0385  0.1290
 1758ntf    fn411250   5.219   1.422   5.746 -0.2785  0.5264  0.3018
 1759ntf    cn111251   6.464   5.910   1.447 -0.0904  0.1465 -0.1328
 1759ntf    sn211252   6.475   6.063   1.350 -0.0033  0.1611 -0.0996
 1759ntf    nn311253   6.325   6.102   1.322  0.0368  0.9040  0.6906
 1759ntf    sn211254   6.260   6.158   1.191 -0.1756 -0.2494  0.2942
 1759ntf    cn111255   6.216   6.320   1.261 -0.4552 -0.1728 -0.0560
 1759ntf    fn411256   6.397   5.926   1.560  0.2661 -0.5013  0.1798
 1759ntf    fn411257   6.400   5.817   1.377  0.2001 -0.0084 -0.1963
 1759ntf    fn411258   6.577   5.854   1.486 -0.2410  0.1051  0.2481
 1759ntf    on511259   6.545   6.156   1.435 -0.1428  0.3018 -0.1390
 1759ntf    on511260   6.550   6.020   1.234  0.0543  0.4100 -0.1545
 1759ntf    on511261   6.133   6.096   1.160 -0.2046  0.0559 -0.1922
 1759ntf    on511262   6.350   6.190   1.084 -0.3068 -0.1673  0.2082
 1759ntf    fn411263   6.190   6.413   1.170  0.9424  0.1283 -0.1783
 1759ntf    fn411264   6.117   6.325   1.348 -0.2175 -0.1458  0.2168
 1759ntf    fn411265   6.315   6.367   1.335 -0.4331  0.1685 -0.3025
 1760ntf    cn111266   3.336   1.394   6.516  0.2702  0.3563  0.2961
 1760ntf    sn211267   3.205   1.497   6.444 -0.0407 -0.1606  0.1112
 1760ntf    nn311268   3.293   1.625   6.420 -0.5663  0.2857  0.5212
 1760ntf    sn211269   3.327   1.740   6.522  0.1251  0.3883  0.1845
 1760ntf    cn111270   3.508   1.738   6.511  0.1179  0.2953  0.0713
 1760ntf    fn411271   3.312   1.264   6.508  0.3236  0.3593  0.0551
 1760ntf    fn411272   3.451   1.412   6.452  0.0604  0.2376 -0.1207
 1760ntf    fn411273   3.354   1.420   6.644  0.4127 -0.3009  0.4123
 1760ntf    on511274   3.183   1.435   6.316 -0.2244 -0.3347  0.2254
 1760ntf    on511275   3.100   1.502   6.543  0.1520 -0.2422  0.3203
 1760ntf    on511276   3.302   1.712   6.661 -0.1203 -0.2647  0.0156
 1760ntf    on511277   3.287   1.870   6.474  0.1653  0.0831 -0.7032
 1760ntf    fn411278   3.552   1.626   6.565  0.0101  0.3457  0.2631
 1760ntf    fn411279   3.561   1.749   6.390 -0.0548 -0.4517 -0.0767
 1760ntf    fn411280   3.571   1.828   6.586  0.1462  0.1409  0.2328
 1761ntf    cn111281   4.813   4.174   3.571 -0.2085 -0.0022  0.2624
 1761ntf    sn211282   4.791   4.170   3.390  0.2445 -0.0142  0.2058
 1761ntf    nn311283   4.651   4.240   3.379  0.1703 -0.1558  0.2310
 1761ntf    sn211284   4.511   4.189   3.329  0.2031  0.1352 -0.1674
 1761ntf    cn111285   4.507   4.243   3.155 -0.2632 -0.5449 -0.3724
 1761ntf    fn411286   4.699   4.147   3.632 -0.6395  0.1028 -0.4795
 1761ntf    fn411287   4.909   4.094   3.615 -0.0338  0.0882  0.0490
 1761ntf    fn411288   4.860   4.286   3.623  0.2931 -0.2419  0.3318
 1761ntf    on511289   4.895   4.257   3.341  0.1679  0.0473  0.1529
 1761ntf    on511290   4.788   4.029   3.357 -0.4188  0.0798 -0.1665
 1761ntf    on511291   4.411   4.268   3.396  0.0336  0.0251 -0.2888
 1761ntf    on511292   4.494   4.046   3.328  0.8558  0.0530  0.0517
 1761ntf    fn411293   4.419   4.173   3.086 -0.6888 -0.2543 -0.1349
 1761ntf    fn411294   4.467   4.369   3.142  0.3428 -0.2927  0.1267
 1761ntf    fn411295   4.627   4.230   3.101 -0.2501 -0.2756 -0.4088
 1762ntf    cn111296   6.472   6.773   6.338 -0.0238 -0.2979  0.1511
 1762ntf    sn211297   6.606   6.755   6.218  0.0995  0.2331  0.2050
 1762ntf    nn311298   6.730   6.736   6.312  0.1850  0.4682  0.1404
 1762ntf    sn211299   6.776   6.611   6.396 -0.2396  0.2633  0.0677
 1762ntf    cn111300   6.925   6.565   6.303 -0.3862  0.0180 -0.0470
 1762ntf    fn411301   6.466   6.678   6.430  0.0077 -0.6868 -0.2471
 1762ntf    fn411302   6.477   6.886   6.407  0.4017 -0.0912 -0.2153
 1762ntf    fn411303   6.355   6.769   6.276  0.1105  0.0099 -0.1236
 1762ntf    on511304   6.570   6.632   6.152 -0.3877  0.3636  0.2263
 1762ntf    on511305   6.600   6.875   6.138  0.0165  0.3398  0.3719
 1762ntf    on511306   6.695   6.493   6.383  0.2253 -0.0032 -0.4499
 1762ntf    on511307   6.821   6.645   6.529  0.3250 -0.5341  0.0852
 1762ntf    fn411308   7.035   6.628   6.343 -0.0057 -0.5330 -0.2095
 1762ntf    fn411309   6.958   6.438   6.323  0.0839  0.0692 -0.4817
 1762ntf    fn411310   6.907   6.591   6.175  0.0026  0.4437 -0.0162
 1763ntf    cn111311   2.993   2.580   1.694 -0.3348  0.0185  0.1783
 1763ntf    sn211312   3.012   2.711   1.569  0.0984 -0.1666  0.0464
 1763ntf    nn311313   3.150   2.683   1.499 -0.1367 -0.6293 -0.2388
 1763ntf    sn211314   3.188   2.596   1.375  0.0278 -0.0973 -0.5679
 1763ntf    cn111315   3.342   2.686   1.343  0.0965  0.0799  0.2471
 1763ntf    fn411316   3.091   2.585   1.783 -0.1628 -0.1184 -0.0016
 1763ntf    fn411317   2.875   2.564   1.750 -0.1276  0.0879  0.6410
 1763ntf    fn411318   3.025   2.462   1.644 -0.5828  0.2896 -0.6359
 1763ntf    on511319   2.896   2.688   1.486  0.0026  0.2449  0.0629
 1763ntf    on511320   3.009   2.829   1.652  0.4409 -0.1573  0.0470
 1763ntf    on511321   3.108   2.621   1.257 -0.3635  0.1038 -0.2601
 1763ntf    on511322   3.228   2.459   1.398  0.0583 -0.0396 -0.2813
 1763ntf    fn411323   3.336   2.817   1.334 -0.6217 -0.0210 -0.8840
 1763ntf    fn411324   3.429   2.657   1.439  0.4412 -0.2730 -0.1672
 1763ntf    fn411325   3.399   2.658   1.226 -0.1401  0.4567  0.0410
 1764ntf    cn111326   5.636   2.786   3.777 -0.0447  0.3064  0.2995
 1764ntf    sn211327   5.572   2.637   3.860 -0.2517  0.2422  0.0254
 1764ntf    nn311328   5.685   2.621   3.967  0.0794 -0.0225 -0.3619
 1764ntf    sn211329   5.821   2.543   3.959 -0.0700 -0.3100 -0.0916
 1764ntf    cn111330   5.784   2.380   4.030 -0.1807 -0.4095 -0.3769
 1764ntf    fn411331   5.657   2.886   3.860  0.0594  0.4352  0.1185
 1764ntf    fn411332   5.743   2.769   3.701 -0.0506 -0.0484  0.3692
 1764ntf    fn411333   5.548   2.828   3.687 -0.1203  0.2644  0.3541
 1764ntf    on511334   5.440   2.672   3.907 -0.2261 -0.1675  0.4027
 1764ntf    on511335   5.578   2.541   3.752  0.4611  0.5225 -0.1878
 1764ntf    on511336   5.922   2.608   4.039 -0.4274  0.2035 -0.0593
 1764ntf    on511337   5.875   2.516   3.828 -0.2790  0.6215 -0.3770
 1764ntf    fn411338   5.771   2.376   4.162 -0.1329 -0.1410 -0.3633
 1764ntf    fn411339   5.681   2.317   3.976 -0.5352 -0.0965 -0.0805
 1764ntf    fn411340   5.887   2.301   4.005  0.0894  0.0805 -0.8115
 1765ntf    cn111341   6.019   4.755   3.928  0.2134 -0.5880 -0.2788
 1765ntf    sn211342   6.070   4.907   4.012 -0.1036 -0.4950 -0.2516
 1765ntf    nn311343   5.951   5.009   4.001  0.5333  0.3289  0.2856
 1765ntf    sn211344   5.917   5.104   3.881 -0.0962 -0.0610  0.1485
 1765ntf    cn111345   5.970   5.266   3.943 -0.5761  0.3117 -0.4042
 1765ntf    fn411346   5.986   4.771   3.801  0.1127 -0.2255 -0.2069
 1765ntf    fn411347   6.114   4.663   3.936  0.0420 -0.7977 -0.6179
 1765ntf    fn411348   5.913   4.715   3.998  0.2442  0.0155  0.1197
 1765ntf    on511349   6.082   4.866   4.149  0.5535  0.7600  0.0859
 1765ntf    on511350   6.195   4.950   3.953 -0.2281 -0.0052 -0.1662
 1765ntf    on511351   5.776   5.118   3.853  0.0567  0.4371 -0.3995
 1765ntf    on511352   6.001   5.084   3.766 -0.2414 -0.8248  0.1706
 1765ntf    fn411353   5.934   5.365   3.863 -0.0378  0.8914  0.0582
 1765ntf    fn411354   5.924   5.291   4.065 -0.0634 -0.8492  0.0374
 1765ntf    fn411355   6.102   5.275   3.952 -0.5929  0.3196 -0.1404
 1766ntf    cn111356   1.389   5.150   2.879 -0.0163  0.2410  0.1990
 1766ntf    sn211357   1.455   4.992   2.943  0.2783  0.3530  0.1744
 1766ntf    nn311358   1.406   5.009   3.091  0.1212 -0.1144  0.1766
 1766ntf    sn211359   1.261   5.015   3.151  0.0488  0.0548 -0.0182
 1766ntf    cn111360   1.253   4.851   3.228 -0.1834  0.1280  0.1130
 1766ntf    fn411361   1.419   5.175   2.753 -0.1065  0.1495  0.1590
 1766ntf    fn411362   1.258   5.162   2.866 -0.0567 -0.1501  0.2229
 1766ntf    fn411363   1.427   5.253   2.953 -0.1235 -0.0714  0.6943
 1766ntf    on511364   1.382   4.887   2.877  0.0319  0.5013  0.2080
 1766ntf    on511365   1.596   5.008   2.923  0.2286  0.5280 -0.0394
 1766ntf    on511366   1.153   5.015   3.055 -0.0946  0.6797  0.1394
 1766ntf    on511367   1.238   5.098   3.267 -0.0852  0.5316 -0.3796
 1766ntf    fn411368   1.128   4.821   3.263 -0.2012  0.2383  0.1443
 1766ntf    fn411369   1.300   4.755   3.151 -0.8329 -0.3510  0.2991
 1766ntf    fn411370   1.326   4.849   3.338 -0.0225 -0.1421  0.0004
 1767ntf    cn111371   1.260   2.289   3.937  0.0817 -0.1906  0.0242
 1767ntf    sn211372   1.441   2.270   3.943  0.1185  0.1858  0.0811
 1767ntf    nn311373   1.474   2.380   3.835 -0.8318  0.2938 -0.1126
 1767ntf    sn211374   1.474   2.362   3.679  0.1856  0.5018 -0.1452
 1767ntf    cn111375   1.632   2.278   3.651  0.2539  0.4209  0.4615
 1767ntf    fn411376   1.206   2.257   3.821 -0.0545  0.4917 -0.1055
 1767ntf    fn411377   1.193   2.219   4.027 -0.2607 -0.1544 -0.1985
 1767ntf    fn411378   1.220   2.414   3.950  0.0556 -0.1774 -0.1816
 1767ntf    on511379   1.468   2.318   4.076 -0.1548  0.4380  0.0481
 1767ntf    on511380   1.463   2.133   3.905 -0.1623  0.2445 -0.2980
 1767ntf    on511381   1.501   2.489   3.616  0.2513  0.6405  0.1592
 1767ntf    on511382   1.370   2.281   3.620  0.2173  0.1781  0.2401
 1767ntf    fn411383   1.699   2.318   3.544  0.4239  0.4449  0.5764
 1767ntf    fn411384   1.715   2.303   3.751  0.4574  0.0574  0.3870
 1767ntf    fn411385   1.611   2.147   3.640  0.1303  0.4599  0.2225
 1768ntf    cn111386   4.580   6.391   2.460 -0.2033  0.0081  0.0391
 1768ntf    sn211387   4.575   6.326   2.629 -0.1738  0.1614  0.0998
 1768ntf    nn311388   4.549   6.172   2.612 -0.0108  0.1567 -0.0891
 1768ntf    sn211389   4.578   6.048   2.704  0.0051  0.2342  0.0111
 1768ntf    cn111390   4.431   6.044   2.811  0.1248 -0.4770  0.1518
 1768ntf    fn411391   4.622   6.516   2.452  0.0617 -0.0836 -0.0029
 1768ntf    fn411392   4.665   6.321   2.387 -0.0351  0.1710  0.0763
 1768ntf    fn411393   4.461   6.386   2.403 -0.2076  0.3465  0.0164
 1768ntf    on511394   4.705   6.353   2.684 -0.0889 -0.0461  0.0022
 1768ntf    on511395   4.465   6.400   2.686 -0.4165 -0.0144 -0.1371
 1768ntf    on511396   4.687   6.065   2.797  0.3932  0.0994 -0.4151
 1768ntf    on511397   4.563   5.926   2.629 -0.2074  0.4429 -0.2901
 1768ntf    fn411398   4.408   6.160   2.870  0.6936 -0.0396 -0.4703
 1768ntf    fn411399   4.326   6.003   2.741  0.0335 -0.0507  0.0393
 1768ntf    fn411400   4.443   5.959   2.912  0.2096  0.0982  0.6254
 1769ntf    cn111401   5.765   0.718   4.032 -0.3838  0.0752  0.3648
 1769ntf    sn211402   5.890   0.842   4.077 -0.1685  0.0276 -0.0968
 1769ntf    nn311403   5.845   0.936   3.959 -0.2524 -0.2127 -0.2564
 1769ntf    sn211404   5.873   1.089   3.936  0.2530 -0.2701 -0.0462
 1769ntf    cn111405   5.718   1.170   3.988  0.4317  0.1180 -0.1178
 1769ntf    fn411406   5.733   0.642   4.135  0.4679  0.2538  0.7743
 1769ntf    fn411407   5.649   0.775   4.006 -0.3957 -0.2014 -0.2033
 1769ntf    fn411408   5.796   0.646   3.925 -0.2136 -0.0139  0.4739
 1769ntf    on511409   5.857   0.882   4.212  0.5703  0.0151  0.0953
 1769ntf    on511410   6.016   0.775   4.054 -0.2491 -0.1305 -0.0761
 1769ntf    on511411   5.884   1.118   3.795  0.8312  0.2805  0.1088
 1769ntf    on511412   5.977   1.132   4.026 -0.3137  0.5144  0.2434
 1769ntf    fn411413   5.608   1.102   3.962  0.4134  0.1609 -0.1530
 1769ntf    fn411414   5.719   1.197   4.117 -0.0414 -0.0334 -0.0819
 1769ntf    fn411415   5.705   1.292   3.938 -0.0512  0.2756  0.3841
 1770ntf    cn111416   0.996   1.225   5.917  0.4876 -0.2243 -0.0184
 1770ntf    sn211417   0.940   1.246   6.088 -0.2923 -0.1009 -0.2817
 1770ntf    nn311418   0.792   1.289   6.059 -0.2564 -0.0212 -0.3478
 1770ntf    sn211419   0.667   1.194   6.043 -0.3921  0.1427 -0.2561
 1770ntf    cn111420   0.557   1.310   5.957 -0.6107  0.1088 -0.0246
 1770ntf    fn411421   0.943   1.322   5.843 -0.0255 -0.0388  0.5817
 1770ntf    fn411422   1.126   1.239   5.901  0.3523  0.0958 -0.9509
 1770ntf    fn411423   0.962   1.108   5.865  0.0266 -0.0753 -0.0602
 1770ntf    on511424   0.946   1.113   6.144  0.1830  0.0330 -0.0075
 1770ntf    on511425   1.020   1.351   6.147  0.1907 -0.6072 -0.0330
 1770ntf    on511426   0.608   1.158   6.170  0.0173 -0.1966 -0.1599
 1770ntf    on511427   0.689   1.086   5.951 -0.7839  0.0856 -0.2833
 1770ntf    fn411428   0.611   1.355   5.845 -0.1134  0.3835  0.3192
 1770ntf    fn411429   0.445   1.250   5.920 -0.4787 -0.5614  0.6403
 1770ntf    fn411430   0.524   1.406   6.043  0.2567  0.2362  0.1773
 1771ntf    cn111431   4.033   6.717   0.154  0.3376 -0.2299  0.2625
 1771ntf    sn211432   3.886   6.821   0.180  0.3762 -0.0276 -0.3094
 1771ntf    nn311433   3.770   6.744   0.106 -0.1896  0.3673  0.1618
 1771ntf    sn211434   3.743   6.771  -0.046 -0.0373  0.0769  0.0837
 1771ntf    cn111435   3.635   6.916  -0.036  0.1163  0.1762  0.3224
 1771ntf    fn411436   4.078   6.729   0.030 -0.5272 -0.3395 -0.0741
 1771ntf    fn411437   4.131   6.763   0.229  0.1960 -0.1113  0.3758
 1771ntf    fn411438   4.019   6.586   0.170 -0.4252 -0.1763  0.0952
 1771ntf    on511439   3.871   6.812   0.323  0.6446  0.0211 -0.2783
 1771ntf    on511440   3.922   6.953   0.135  0.3017  0.2277  0.3754
 1771ntf    on511441   3.658   6.678  -0.116  0.3902  0.0449 -0.4034
 1771ntf    on511442   3.855   6.808  -0.129 -0.0604  0.3003  0.1515
 1771ntf    fn411443   3.565   6.930  -0.148  0.0272 -0.2681  0.3239
 1771ntf    fn411444   3.543   6.906   0.058  0.2189  0.5636  0.4669
 1771ntf    fn411445   3.703   7.029  -0.021  0.3318  0.0936 -0.0339
 1772ntf    cn111446   0.593   4.119   5.183 -0.4482 -0.1370 -0.3265
 1772ntf    sn211447   0.420   4.173   5.163 -0.4674 -0.1986 -0.3296
 1772ntf    nn311448   0.357   4.048   5.094  0.0311 -0.3736 -0.4742
 1772ntf    sn211449   0.215   4.033   5.027 -0.2857 -0.0015  0.1030
 1772ntf    cn111450   0.110   3.962   5.156 -0.2041  0.2011  0.2810
 1772ntf    fn411451   0.647   4.158   5.297 -0.7576 -0.0812 -0.1961
 1772ntf    fn411452   0.601   3.987   5.182 -0.3642 -0.1379  0.2505
 1772ntf    fn411453   0.679   4.167   5.095  0.1307 -0.3114  0.1375
 1772ntf    on511454   0.387   4.202   5.300  0.4733  0.0724 -0.1524
 1772ntf    on511455   0.438   4.285   5.073 -0.0939 -0.0804 -0.1112
 1772ntf    on511456   0.211   3.935   4.920  0.1637  0.0404  0.0417
 1772ntf    on511457   0.162   4.164   4.997  0.1712  0.2851  0.5422
 1772ntf    fn411458   0.095   4.045   5.258  0.1559  0.1322  0.3915
 1772ntf    fn411459  -0.010   3.939   5.104 -0.0365  0.1989 -0.1057
 1772ntf    fn411460   0.154   3.844   5.199 -0.0887  0.0524 -0.2424
 1773ntf    cn111461   2.410   3.531   5.479  0.1844 -0.0758 -0.1268
 1773ntf    sn211462   2.458   3.637   5.618 -0.2592 -0.0848  0.0336
 1773ntf    nn311463   2.499   3.767   5.542 -0.5441  0.2558  0.4530
 1773ntf    sn211464   2.594   3.877   5.600 -0.3850  0.2406  0.2247
 1773ntf    cn111465   2.564   3.877   5.779  0.3106  0.2781  0.3471
 1773ntf    fn411466   2.512   3.501   5.401 -0.0234 -0.1595 -0.3680
 1773ntf    fn411467   2.361   3.412   5.512 -0.5174  0.2391 -0.0065
 1773ntf    fn411468   2.334   3.589   5.387  0.2710  0.0922 -0.0925
 1773ntf    on511469   2.340   3.646   5.701 -0.1038  0.5586  0.1889
 1773ntf    on511470   2.570   3.561   5.666  0.1073  0.0813 -0.5576
 1773ntf    on511471   2.561   4.012   5.561  0.2505  0.2315 -0.3654
 1773ntf    on511472   2.735   3.847   5.593 -0.5263 -0.4108  0.1601
 1773ntf    fn411473   2.610   3.987   5.835  0.0468  0.4060  0.3135
 1773ntf    fn411474   2.435   3.871   5.810  0.2668 -0.7761  0.0226
 1773ntf    fn411475   2.625   3.778   5.843 -0.0845  0.0134  0.3206
 1774ntf    cn111476   5.881   1.384   0.531 -0.4450  0.4001 -0.0781
 1774ntf    sn211477   5.967   1.531   0.596 -0.2581  0.1427  0.2629
 1774ntf    nn311478   5.841   1.617   0.636 -0.7552 -0.3168 -0.2912
 1774ntf    sn211479   5.781   1.748   0.575  0.2210  0.4044  0.2687
 1774ntf    cn111480   5.750   1.833   0.732  0.4167  0.2643  0.3842
 1774ntf    fn411481   5.969   1.304   0.476 -0.4817  0.1023  0.2898
 1774ntf    fn411482   5.833   1.309   0.628 -0.1008  0.3272  0.0361
 1774ntf    fn411483   5.787   1.410   0.441 -0.3390 -0.0152 -0.3080
 1774ntf    on511484   6.037   1.477   0.709  0.5691 -0.0696 -0.3403
 1774ntf    on511485   6.044   1.574   0.482  0.0171 -0.1849  0.3251
 1774ntf    on511486   5.651   1.724   0.518 -0.0285  0.3952  0.8405
 1774ntf    on511487   5.867   1.837   0.500  0.3868  0.1880  0.2012
 1774ntf    fn411488   5.655   1.776   0.804 -0.1584  0.2242 -0.3880
 1774ntf    fn411489   5.852   1.839   0.816  0.4678  0.0606  0.3349
 1774ntf    fn411490   5.719   1.962   0.720 -0.3642 -0.0013 -0.6135
 1775ntf    cn111491   0.535   4.812   5.831  0.1683 -0.1208 -0.3946
 1775ntf    sn211492   0.505   4.787   5.653 -0.1507 -0.1558 -0.3378
 1775ntf    nn311493   0.363   4.851   5.638 -0.0005  0.3002  0.1562
 1775ntf    sn211494   0.295   4.881   5.500  0.2797 -0.0962 -0.0681
 1775ntf    cn111495   0.147   4.779   5.526 -0.0089  0.3410  0.0226
 1775ntf    fn411496   0.442   4.750   5.902  0.0269  0.3691 -0.1452
 1775ntf    fn411497   0.656   4.770   5.863 -0.1807 -0.3667  0.6454
 1775ntf    fn411498   0.519   4.937   5.871  0.3698 -0.1226 -0.3105
 1775ntf    on511499   0.611   4.865   5.593  0.1232 -0.0600  0.2537
 1775ntf    on511500   0.505   4.645   5.632  1.1811 -0.2000 -0.1158
 1775ntf    on511501   0.343   4.825   5.376  0.0926 -0.5898  0.0822
 1775ntf    on511502   0.235   5.012   5.490  0.2537 -0.1045 -0.0236
 1775ntf    fn411503   0.060   4.837   5.607 -0.0673  0.1253  0.1183
 1775ntf    fn411504   0.082   4.756   5.413 -0.1592 -0.1301  0.2008
 1775ntf    fn411505   0.164   4.660   5.582 -0.5766  0.0694 -0.3750
 1776ntf    cn111506   3.938   1.783   0.043  0.2821  0.0837  0.3534
 1776ntf    sn211507   3.861   1.936   0.105 -0.2988 -0.1351  0.1737
 1776ntf    nn311508   3.823   1.900   0.253 -0.4580  0.1232  0.1955
 1776ntf    sn211509   3.916   1.900   0.379  0.0909  0.1639 -0.2050
 1776ntf    cn111510   3.857   1.741   0.444 -0.2387  0.2750 -0.2319
 1776ntf    fn411511   4.049   1.749   0.106  0.2735  0.0014  0.3238
 1776ntf    fn411512   3.852   1.683   0.051  0.0494  0.2345 -0.2333
 1776ntf    fn411513   3.961   1.793  -0.087 -0.0135 -0.6265  0.2413
 1776ntf    on511514   3.968   2.031   0.095 -0.0826 -0.3945 -0.0066
 1776ntf    on511515   3.745   1.948   0.020 -0.1347 -0.4283 -0.0977
 1776ntf    on511516   3.881   1.992   0.485 -0.0809 -0.7294  0.5229
 1776ntf    on511517   4.051   1.872   0.337  0.1819  0.5255 -0.1608
 1776ntf    fn411518   3.922   1.696   0.550 -0.7308 -0.1124 -0.0905
 1776ntf    fn411519   3.730   1.747   0.482 -0.1194  0.2699  0.1812
 1776ntf    fn411520   3.862   1.644   0.355  0.6650  0.0198  0.0867
 1777ntf    cn111521   5.392   2.445   2.589 -0.4108  0.1407  0.0097
 1777ntf    sn211522   5.475   2.581   2.500  0.1664 -0.2208 -0.0063
 1777ntf    nn311523   5.624   2.533   2.499  0.0092 -0.7142 -0.0757
 1777ntf    sn211524   5.728   2.580   2.607 -0.1526 -0.0795 -0.1969
 1777ntf    cn111525   5.789   2.737   2.538 -0.3240 -0.0660 -0.3190
 1777ntf    fn411526   5.263   2.466   2.611 -0.3668  0.4223  0.0032
 1777ntf    fn411527   5.403   2.329   2.527  0.3148  0.3095 -0.1875
 1777ntf    fn411528   5.443   2.418   2.707  0.7123 -0.0829 -0.5154
 1777ntf    on511529   5.422   2.563   2.367  0.1016  0.4070 -0.0663
 1777ntf    on511530   5.443   2.707   2.562  0.4836  0.1109 -0.5194
 1777ntf    on511531   5.845   2.496   2.607  0.0267  0.1629 -0.6169
 1777ntf    on511532   5.679   2.615   2.738 -0.4524  0.2474 -0.3917
 1777ntf    fn411533   5.904   2.776   2.590 -0.4731 -0.3812  0.2609
 1777ntf    fn411534   5.816   2.724   2.409  0.3864  0.0382 -0.1818
 1777ntf    fn411535   5.704   2.838   2.549 -0.2238 -0.0321  0.1616
 1778ntf    cn111536   1.729   0.832   5.519 -0.0613  0.4034 -0.2023
 1778ntf    sn211537   1.593   0.949   5.546  0.2404  0.7110 -0.0054
 1778ntf    nn311538   1.533   0.942   5.401  0.3235 -0.2864  0.0012
 1778ntf    sn211539   1.549   1.031   5.272  0.3371 -0.2483  0.0291
 1778ntf    cn111540   1.403   1.139   5.284  0.3408 -0.2292 -0.0959
 1778ntf    fn411541   1.812   0.882   5.429 -0.5321  0.8556 -0.3871
 1778ntf    fn411542   1.796   0.809   5.631 -0.3606  0.3898 -0.0263
 1778ntf    fn411543   1.684   0.715   5.477 -0.0238  0.2810  0.0970
 1778ntf    on511544   1.512   0.881   5.644  0.3286 -0.3125 -0.6314
 1778ntf    on511545   1.649   1.077   5.584  0.1573  0.9940 -0.8176
 1778ntf    on511546   1.524   0.946   5.158 -0.2396 -0.5112  0.3431
 1778ntf    on511547   1.666   1.114   5.265  0.2893 -0.1441  0.4557
 1778ntf    fn411548   1.289   1.079   5.253  0.1695 -0.1345  0.3388
 1778ntf    fn411549   1.380   1.192   5.403  0.4312 -0.1870 -0.0970
 1778ntf    fn411550   1.411   1.240   5.199  0.5943 -0.0034  0.1969
 1779ntf    cn111551   0.023   6.748   1.841 -0.0603  0.2072  0.3660
 1779ntf    sn211552   0.092   6.914   1.817  0.2968 -0.0404 -0.3619
 1779ntf    nn311553   0.244   6.875   1.820  0.1996 -0.3844  0.4263
 1779ntf    sn211554   0.366   6.912   1.728 -0.0883 -0.1352  0.1404
 1779ntf    cn111555   0.514   6.848   1.812  0.1413 -0.0888 -0.2309
 1779ntf    fn411556   0.073   6.662   1.754 -0.8272 -0.1352  0.2584
 1779ntf    fn411557   0.050   6.690   1.957 -0.1424  0.0251  0.2947
 1779ntf    fn411558  -0.108   6.739   1.826  0.0359 -0.3358 -0.1769
 1779ntf    on511559   0.039   6.954   1.689  0.3946 -0.0962 -0.4191
 1779ntf    on511560   0.051   6.983   1.937  0.2145 -0.4136 -0.1735
 1779ntf    on511561   0.396   7.052   1.711  0.1770 -0.2034  0.0528
 1779ntf    on511562   0.371   6.839   1.604  0.2476  0.0435  0.0471
 1779ntf    fn411563   0.527   6.885   1.938 -0.1366 -0.3171 -0.1355
 1779ntf    fn411564   0.522   6.716   1.806 -0.3266 -0.1146 -0.3411
 1779ntf    fn411565   0.628   6.887   1.756  0.3573 -0.4673 -0.0653
 1780ntf    cn111566   4.878   2.601   2.768  0.3547 -0.0482  0.1912
 1780ntf    sn211567   4.746   2.539   2.876  0.1049 -0.1125 -0.1531
 1780ntf    nn311568   4.615   2.605   2.820 -0.0834 -0.1831  0.2015
 1780ntf    sn211569   4.568   2.752   2.851  0.0570 -0.0585 -0.1788
 1780ntf    cn111570   4.442   2.724   2.978 -0.2081  0.1034 -0.4057
 1780ntf    fn411571   4.847   2.557   2.648 -0.5892  0.3971  0.2611
 1780ntf    fn411572   4.886   2.733   2.768  0.3714 -0.0493  0.1389
 1780ntf    fn411573   4.997   2.548   2.791  0.2281 -0.2543  0.3720
 1780ntf    on511574   4.744   2.397   2.849 -0.5159 -0.0987 -0.1963
 1780ntf    on511575   4.789   2.583   3.006  0.2421  0.2881 -0.3338
 1780ntf    on511576   4.491   2.810   2.743 -0.0685 -0.1965 -0.1632
 1780ntf    on511577   4.663   2.844   2.908  0.0438  0.0107 -0.2682
 1780ntf    fn411578   4.360   2.626   2.944 -0.0996  0.0171 -0.4142
 1780ntf    fn411579   4.501   2.692   3.092 -0.0202  0.1942 -0.4771
 1780ntf    fn411580   4.372   2.835   3.000  0.4671  0.6135 -0.7994
 1781ntf    cn111581   4.319   2.720   0.100 -0.2233 -0.1825 -0.7368
 1781ntf    sn211582   4.180   2.605   0.121 -0.3036  0.0186 -0.1412
 1781ntf    nn311583   4.113   2.655   0.253  0.0827  0.0821  0.0333
 1781ntf    sn211584   3.987   2.744   0.281 -0.0494 -0.1844  0.2913
 1781ntf    cn111585   3.871   2.612   0.327 -0.0669 -0.3940 -0.3474
 1781ntf    fn411586   4.398   2.718   0.206  0.0770 -0.3546 -0.9636
 1781ntf    fn411587   4.390   2.691  -0.008  0.9408  0.0525 -0.0468
 1781ntf    fn411588   4.266   2.841   0.087 -0.2481 -0.0797  0.2608
 1781ntf    on511589   4.107   2.619  -0.003  0.4329  0.6209 -0.5185
 1781ntf    on511590   4.248   2.480   0.143 -0.0786  0.2038  0.2141
 1781ntf    on511591   3.923   2.809   0.169  0.5895 -0.6607 -0.3588
 1781ntf    on511592   4.007   2.826   0.399  0.1814  0.3043 -0.0839
 1781ntf    fn411593   3.743   2.645   0.324  0.0707  0.1210 -0.4825
 1781ntf    fn411594   3.887   2.498   0.261  0.1884 -0.4729 -0.1538
 1781ntf    fn411595   3.889   2.573   0.453 -0.0666 -0.4094 -0.3520
 1782ntf    cn111596   6.251   1.068   6.408 -0.1520 -0.0912 -0.0563
 1782ntf    sn211597   6.194   1.202   6.517  0.0971 -0.0422  0.0128
 1782ntf    nn311598   6.125   1.119   6.631 -0.1972 -0.0338 -0.1579
 1782ntf    sn211599   5.978   1.069   6.653 -0.1477 -0.1534 -0.0997
 1782ntf    cn111600   5.923   1.189   6.779  0.3525 -0.0365  0.0120
 1782ntf    fn411601   6.154   0.994   6.357  0.2479 -0.5380 -0.1702
 1782ntf    fn411602   6.327   1.111   6.309 -0.6096  0.3547 -0.2194
 1782ntf    fn411603   6.322   0.982   6.479 -0.1183 -0.0622 -0.0550
 1782ntf    on511604   6.312   1.265   6.572 -0.1334  0.0902  0.3550
 1782ntf    on511605   6.107   1.284   6.437  0.4099  0.3948  0.1122
 1782ntf    on511606   5.967   0.942   6.721 -0.1218 -0.0705  0.0600
 1782ntf    on511607   5.890   1.098   6.543 -0.5294  0.5639  0.3840
 1782ntf    fn411608   5.797   1.173   6.815  0.2608  0.7237  0.0379
 1782ntf    fn411609   5.994   1.190   6.890  0.2267  1.0524  0.0912
 1782ntf    fn411610   5.929   1.310   6.725 -0.1983 -0.1887 -0.4007
 1783ntf    cn111611   1.417   5.714   2.118  0.2507 -0.0663 -0.3608
 1783ntf    sn211612   1.493   5.879   2.117 -0.0661  0.0847  0.0246
 1783ntf    nn311613   1.635   5.842   2.175  0.1599  0.3437 -0.3564
 1783ntf    sn211614   1.726   5.946   2.249  0.0801  0.1992 -0.0529
 1783ntf    cn111615   1.675   5.922   2.422  0.0585 -0.2269 -0.1178
 1783ntf    fn411616   1.389   5.679   2.243 -0.0045  0.2788 -0.3205
 1783ntf    fn411617   1.302   5.716   2.054 -0.1241 -0.0715  0.2972
 1783ntf    fn411618   1.499   5.621   2.072  0.0761 -0.3487 -0.1050
 1783ntf    on511619   1.496   5.921   1.979 -0.0639  0.3005  0.0893
 1783ntf    on511620   1.410   5.947   2.213 -0.3892  0.4147 -0.4837
 1783ntf    on511621   1.708   6.087   2.220  0.0813  0.2234  0.0641
 1783ntf    on511622   1.861   5.897   2.245 -0.0826 -0.2805  0.3280
 1783ntf    fn411623   1.673   5.794   2.454 -0.3510 -0.2310 -0.1569
 1783ntf    fn411624   1.758   5.980   2.507  0.0925  0.3771 -0.5582
 1783ntf    fn411625   1.553   5.966   2.449  0.0096 -0.0394 -0.6344
 1784ntf    cn111626   2.096   4.685   0.923  0.1181 -0.1601  0.1838
 1784ntf    sn211627   2.205   4.803   1.010  0.2561  0.0651 -0.2929
 1784ntf    nn311628   2.318   4.818   0.902  0.3873  0.0237 -0.1618
 1784ntf    sn211629   2.445   4.726   0.887  0.1729 -0.2813 -0.1071
 1784ntf    cn111630   2.559   4.791   1.013  0.1634 -0.0569 -0.2147
 1784ntf    fn411631   2.147   4.563   0.921  0.0519 -0.1845 -0.0435
 1784ntf    fn411632   1.982   4.670   0.988 -0.0134 -0.0358 -0.0195
 1784ntf    fn411633   2.071   4.719   0.798  0.2342 -0.1910  0.1518
 1784ntf    on511634   2.126   4.923   1.017  0.1377 -0.0259 -0.0536
 1784ntf    on511635   2.241   4.739   1.134 -0.3796  0.2552 -0.0060
 1784ntf    on511636   2.512   4.742   0.761  0.2179  0.1127 -0.0345
 1784ntf    on511637   2.416   4.589   0.922  0.1269 -0.3427 -0.3922
 1784ntf    fn411638   2.682   4.743   1.019  0.2725  0.1072 -0.9388
 1784ntf    fn411639   2.574   4.921   0.990  0.0162  0.0234  0.1350
 1784ntf    fn411640   2.514   4.787   1.137  0.0539 -0.3227 -0.2639
 1785ntf    cn111641   2.669   1.850   3.795 -0.2267  0.1897  0.2523
 1785ntf    sn211642   2.839   1.804   3.839 -0.1609 -0.0175 -0.2130
 1785ntf    nn311643   2.927   1.866   3.724  0.4648 -0.0787  0.2290
 1785ntf    sn211644   2.989   2.010   3.716  0.2041  0.0344  0.2196
 1785ntf    cn111645   3.160   1.985   3.774  0.2195 -0.1829  0.0845
 1785ntf    fn411646   2.626   1.805   3.678 -0.0005 -0.4304  0.4059
 1785ntf    fn411647   2.579   1.814   3.885 -0.1125 -0.0971  0.2540
 1785ntf    fn411648   2.664   1.982   3.793  0.0338  0.1975  0.1969
 1785ntf    on511649   2.861   1.851   3.973  0.2242 -0.1511 -0.2271
 1785ntf    on511650   2.833   1.660   3.834  0.8382 -0.0848  0.2501
 1785ntf    on511651   2.940   2.116   3.800  0.3528  0.1651  0.1431
 1785ntf    on511652   3.018   2.048   3.580 -0.0139 -0.8647 -0.0873
 1785ntf    fn411653   3.236   1.939   3.676  0.1825 -0.3338  0.1262
 1785ntf    fn411654   3.208   2.099   3.821  0.0231  0.0541 -0.2836
 1785ntf    fn411655   3.170   1.897   3.872  0.3887 -0.1706  0.0773
 1786ntf    cn111656   2.951   3.326   5.000  0.2177 -0.1481 -0.0212
 1786ntf    sn211657   2.851   3.213   4.899 -0.2161  0.0618  0.1743
 1786ntf    nn311658   2.968   3.167   4.806 -0.4151 -0.3061  0.1037
 1786ntf    sn211659   3.007   3.216   4.662 -0.0508 -0.1208  0.2627
 1786ntf    cn111660   2.874   3.152   4.555 -0.0712  0.0171  0.2053
 1786ntf    fn411661   3.055   3.267   5.056  0.3776  0.4049  0.2717
 1786ntf    fn411662   3.000   3.430   4.933 -0.0917 -0.2502 -0.4098
 1786ntf    fn411663   2.884   3.370   5.105 -0.1655  0.3925 -0.4834
 1786ntf    on511664   2.799   3.116   4.993 -0.0642  0.2069  0.4089
 1786ntf    on511665   2.751   3.297   4.839 -0.0003  0.5596  0.5037
 1786ntf    on511666   3.114   3.134   4.610  0.1729  0.2064  0.2051
 1786ntf    on511667   3.003   3.358   4.640 -0.6166 -0.1770 -0.0170
 1786ntf    fn411668   2.747   3.174   4.583 -0.1748  0.3086 -0.4748
 1786ntf    fn411669   2.898   3.170   4.426 -0.1562  0.0588  0.1957
 1786ntf    fn411670   2.873   3.021   4.572 -0.1482  0.0450  0.4241
 1787ntf    cn111671   5.460   1.888   3.260 -0.2742 -0.1337 -0.2628
 1787ntf    sn211672   5.356   2.008   3.349 -0.0732  0.2147 -0.4974
 1787ntf    nn311673   5.403   2.143   3.283  0.3792  0.0653 -0.4877
 1787ntf    sn211674   5.493   2.254   3.347 -0.3061  0.2818  0.1053
 1787ntf    cn111675   5.371   2.377   3.402  0.0144  0.8187 -0.3729
 1787ntf    fn411676   5.434   1.767   3.306  0.0297 -0.0621  0.0988
 1787ntf    fn411677   5.434   1.893   3.130 -0.2016  0.0611 -0.2709
 1787ntf    fn411678   5.590   1.908   3.272 -0.2573 -0.5979  0.3850
 1787ntf    on511679   5.221   1.983   3.308 -0.2772  0.2437  0.1409
 1787ntf    on511680   5.387   1.983   3.488 -0.1295  0.1880 -0.4895
 1787ntf    on511681   5.571   2.327   3.252 -0.0437 -0.1115  0.0152
 1787ntf    on511682   5.566   2.217   3.466 -0.0240 -0.4419 -0.2842
 1787ntf    fn411683   5.431   2.488   3.441 -0.1891  0.7385  0.1908
 1787ntf    fn411684   5.283   2.402   3.307 -0.3726 -0.3947 -0.3583
 1787ntf    fn411685   5.295   2.338   3.504 -0.0819  0.5965 -0.5267
 1788ntf    cn111686   2.631   3.001   3.687  0.1945  0.0820  0.3973
 1788ntf    sn211687   2.554   2.914   3.827  0.0993 -0.0764  0.2476
 1788ntf    nn311688   2.405   2.959   3.805  0.1184  0.0002  0.2752
 1788ntf    sn211689   2.279   2.869   3.787  0.0969  0.1261 -0.2076
 1788ntf    cn111690   2.191   2.913   3.940  0.2155  0.2345 -0.1700
 1788ntf    fn411691   2.587   2.958   3.570  0.3141 -0.6056  0.6029
 1788ntf    fn411692   2.604   3.130   3.701 -0.0066  0.1245 -0.3071
 1788ntf    fn411693   2.762   2.992   3.677  0.1722  0.0908  0.0967
 1788ntf    on511694   2.584   2.776   3.802 -0.3117 -0.2303  0.5955
 1788ntf    on511695   2.607   2.971   3.948 -0.1199  0.8374 -0.0769
 1788ntf    on511696   2.291   2.725   3.795 -0.4522  0.0965  0.1973
 1788ntf    on511697   2.195   2.913   3.678  0.1605  0.2965 -0.1877
 1788ntf    fn411698   2.182   3.044   3.956  0.2353  0.1647  0.4196
 1788ntf    fn411699   2.064   2.876   3.925  0.3818 -0.2959 -0.2895
 1788ntf    fn411700   2.238   2.863   4.053 -0.1679 -0.1275 -0.1671
 1789ntf    cn111701   0.511   1.502   2.623 -0.1618 -0.0919 -0.1342
 1789ntf    sn211702   0.648   1.619   2.601 -0.0521 -0.1561  0.1999
 1789ntf    nn311703   0.683   1.616   2.447  0.6801  0.5219  0.3452
 1789ntf    sn211704   0.786   1.528   2.368  0.2315  0.2372  0.0774
 1789ntf    cn111705   0.920   1.650   2.368  0.2480  0.2194  0.1127
 1789ntf    fn411706   0.404   1.528   2.549  0.0203  0.1474 -0.3151
 1789ntf    fn411707   0.543   1.375   2.606  0.7016  0.1119 -0.0642
 1789ntf    fn411708   0.459   1.502   2.744  0.5146  0.4328  0.1594
 1789ntf    on511709   0.596   1.749   2.635  0.4161 -0.0169  0.3861
 1789ntf    on511710   0.749   1.572   2.692 -0.0790  0.1203  0.3739
 1789ntf    on511711   0.741   1.502   2.233 -0.4873 -0.0278  0.3615
 1789ntf    on511712   0.841   1.414   2.437  0.0230  0.4084  0.5291
 1789ntf    fn411713   1.028   1.601   2.310  0.0474 -0.1094  0.0151
 1789ntf    fn411714   0.880   1.747   2.287  0.4684  0.5781  0.4276
 1789ntf    fn411715   0.950   1.704   2.485  0.4120  0.5087 -0.0609
 1790ntf    cn111716   3.543   5.023   0.349  0.1438  0.1170 -0.1972
 1790ntf    sn211717   3.369   5.070   0.378  0.0391 -0.0825 -0.4981
 1790ntf    nn311718   3.294   5.004   0.256 -0.2386  0.5549 -0.6782
 1790ntf    sn211719   3.289   4.851   0.219  0.1845  0.3306  0.1574
 1790ntf    cn111720   3.108   4.845   0.205  0.2103  0.3242 -0.1645
 1790ntf    fn411721   3.628   5.071   0.438  0.2140 -0.1515 -0.1173
 1790ntf    fn411722   3.559   4.892   0.349  0.4255  0.1529 -0.0746
 1790ntf    fn411723   3.590   5.068   0.234 -0.2914  0.1764 -0.3566
 1790ntf    on511724   3.333   5.018   0.507  0.2722  0.1050 -0.3560
 1790ntf    on511725   3.366   5.214   0.366  0.0964 -0.0619 -0.2682
 1790ntf    on511726   3.324   4.763   0.328 -0.0408 -0.0383 -0.0655
 1790ntf    on511727   3.338   4.829   0.086 -0.2833  0.1911  0.0061
 1790ntf    fn411728   3.073   4.723   0.166  0.1525  0.0845  0.6157
 1790ntf    fn411729   3.043   4.870   0.317 -0.2810 -0.2996 -0.3009
 1790ntf    fn411730   3.065   4.927   0.111  0.4499  0.0873 -0.4845
 1791ntf    cn111731   0.429   0.592   6.747  0.2503  0.1141  0.2033
 1791ntf    sn211732   0.284   0.573   6.639  0.0794 -0.0326  0.4585
 1791ntf    nn311733   0.249   0.723   6.608  0.0523 -0.2775 -0.7578
 1791ntf    sn211734   0.111   0.798   6.609  0.1587 -0.0801  0.1074
 1791ntf    cn111735   0.128   0.880   6.447  0.1965  0.0641  0.1838
 1791ntf    fn411736   0.492   0.477   6.763  0.0985 -0.0328 -0.2429
 1791ntf    fn411737   0.505   0.684   6.691  0.5416 -0.3654 -0.1945
 1791ntf    fn411738   0.389   0.621   6.869 -0.1060 -0.3104  0.1904
 1791ntf    on511739   0.340   0.494   6.532 -0.2731  0.5455 -0.1673
 1791ntf    on511740   0.188   0.504   6.722 -0.4910 -0.1078 -0.2493
 1791ntf    on511741   0.113   0.907   6.704  0.1482 -0.2368  0.2869
 1791ntf    on511742  -0.014   0.729   6.591 -0.1860  0.7198 -0.6778
 1791ntf    fn411743   0.038   0.975   6.431 -0.0189 -0.2184 -0.3324
 1791ntf    fn411744   0.244   0.941   6.428  0.2099 -0.1137 -0.3376
 1791ntf    fn411745   0.102   0.798   6.346  0.6560 -0.2073  0.2845
 1792ntf    cn111746   6.545   0.884   0.914 -0.4484 -0.0914 -0.2307
 1792ntf    sn211747   6.458   0.942   1.062 -0.1612 -0.0663 -0.0696
 1792ntf    nn311748   6.568   0.911   1.169 -0.3225 -0.0310  0.1079
 1792ntf    sn211749   6.593   0.807   1.283  0.0479 -0.0772 -0.0139
 1792ntf    cn111750   6.773   0.786   1.273  0.0931  0.2317  0.1387
 1792ntf    fn411751   6.486   0.897   0.796 -0.0216  0.1408 -0.4224
 1792ntf    fn411752   6.658   0.953   0.900 -0.5220 -0.0464 -0.6397
 1792ntf    fn411753   6.584   0.759   0.929  0.2907  0.1038 -0.4334
 1792ntf    on511754   6.440   1.083   1.035  0.2054 -0.0203 -0.0732
 1792ntf    on511755   6.339   0.860   1.065 -0.5147  0.4350 -0.1684
 1792ntf    on511756   6.545   0.672   1.264 -0.0517 -0.1779  0.8766
 1792ntf    on511757   6.582   0.867   1.414  0.1168 -0.1837  0.0414
 1792ntf    fn411758   6.838   0.899   1.252 -0.0015  0.2649  0.0296
 1792ntf    fn411759   6.819   0.732   1.385 -0.2162 -0.3931 -0.0282
 1792ntf    fn411760   6.798   0.698   1.178  0.1203 -0.2781  0.6108
 1793ntf    cn111761   0.077   4.812   4.732  0.0158  0.3819 -0.0525
 1793ntf    sn211762   0.233   4.812   4.638  0.1498  0.2724  0.1708
 1793ntf    nn311763   0.187   4.765   4.496 -0.1201  0.4849  0.1886
 1793ntf    sn211764   0.087   4.841   4.402 -0.0631  0.1198 -0.1721
 1793ntf    cn111765   0.106   4.743   4.250 -0.3269  0.3814 -0.3781
 1793ntf    fn411766   0.108   4.811   4.860 -0.4626 -0.3967  0.0606
 1793ntf    fn411767  -0.003   4.914   4.704 -0.3428  0.0679 -0.1810
 1793ntf    fn411768   0.014   4.698   4.709  0.4652  0.1578 -0.1996
 1793ntf    on511769   0.296   4.942   4.641 -0.3258  0.5078 -0.0257
 1793ntf    on511770   0.305   4.704   4.702 -0.2919 -0.2429 -0.1975
 1793ntf    on511771   0.132   4.970   4.356 -0.4186  0.0628 -0.6932
 1793ntf    on511772  -0.051   4.820   4.439 -0.0296  0.0262 -0.1016
 1793ntf    fn411773   0.032   4.784   4.149 -0.5629  0.1714 -0.2913
 1793ntf    fn411774   0.228   4.738   4.200 -0.1908 -0.5186  0.0077
 1793ntf    fn411775   0.072   4.618   4.279 -0.6420  0.3203 -1.0065
 1794ntf    cn111776   2.583   4.698   6.518  0.0174 -0.1612 -0.1198
 1794ntf    sn211777   2.662   4.857   6.479  0.3075 -0.2202  0.2222
 1794ntf    nn311778   2.649   4.853   6.323 -0.5215 -0.0955  0.2875
 1794ntf    sn211779   2.584   4.957   6.224 -0.1943  0.0108  0.1856
 1794ntf    cn111780   2.455   4.857   6.145  0.0447 -0.0205 -0.1663
 1794ntf    fn411781   2.558   4.685   6.647  0.1824  0.3910 -0.0284
 1794ntf    fn411782   2.468   4.686   6.454  0.1240  0.0252 -0.3462
 1794ntf    fn411783   2.655   4.594   6.478  0.1523 -0.1972  0.2154
 1794ntf    on511784   2.572   4.945   6.549  0.6086  0.1883  0.0970
 1794ntf    on511785   2.797   4.843   6.528  0.4092 -0.0863 -0.0190
 1794ntf    on511786   2.671   4.988   6.113 -0.4804  1.2601  0.2936
 1794ntf    on511787   2.514   5.064   6.292 -0.2080  0.1150  0.0076
 1794ntf    fn411788   2.395   4.917   6.044 -0.0082 -0.0915 -0.1775
 1794ntf    fn411789   2.503   4.746   6.091  0.0948  0.0820 -0.3329
 1794ntf    fn411790   2.349   4.824   6.217  0.0373 -0.0832 -0.2060
 1795ntf    cn111791   3.667   2.705   3.322 -0.0814  0.0622  0.1244
 1795ntf    sn211792   3.750   2.791   3.185 -0.5895  0.3113 -0.0301
 1795ntf    nn311793   3.826   2.911   3.254 -0.4546 -0.1284  0.5964
 1795ntf    sn211794   3.958   2.914   3.338 -0.0803  0.4853 -0.0086
 1795ntf    cn111795   4.086   2.973   3.222 -0.1254 -0.1430 -0.3804
 1795ntf    fn411796   3.753   2.675   3.418  0.1919 -0.0911 -0.1659
 1795ntf    fn411797   3.558   2.747   3.384 -0.0517  0.0194  0.2063
 1795ntf    fn411798   3.634   2.585   3.275  0.2549  0.0002  0.0469
 1795ntf    on511799   3.832   2.688   3.127 -0.3461  0.4016  0.1492
 1795ntf    on511800   3.639   2.844   3.111 -0.7608  0.2464  0.1777
 1795ntf    on511801   4.014   2.784   3.364 -0.6374  0.1304 -0.5703
 1795ntf    on511802   3.971   3.013   3.442  0.7566  0.1117  0.2571
 1795ntf    fn411803   4.205   2.984   3.277 -0.2600 -0.4234 -0.0284
 1795ntf    fn411804   4.098   2.893   3.117  0.2248 -0.0652 -0.3995
 1795ntf    fn411805   4.055   3.093   3.176  0.1517  0.3805  0.7747
 1796ntf    cn111806   3.594   5.516   5.591 -0.0918 -0.0146  0.1610
 1796ntf    sn211807   3.736   5.578   5.496 -0.1576 -0.1253 -0.0083
 1796ntf    nn311808   3.697   5.730   5.500 -0.4945 -0.2218  0.3262
 1796ntf    sn211809   3.633   5.822   5.390 -0.2252 -0.1306  0.2463
 1796ntf    cn111810   3.588   5.964   5.494 -0.1885  0.2118 -0.2034
 1796ntf    fn411811   3.585   5.551   5.718  0.3188  0.4099  0.0791
 1796ntf    fn411812   3.483   5.570   5.545 -0.1447 -0.0482  0.2490
 1796ntf    fn411813   3.579   5.385   5.584  0.0547 -0.0308  0.1458
 1796ntf    on511814   3.852   5.544   5.575 -0.4859 -0.5932  0.2775
 1796ntf    on511815   3.722   5.512   5.368 -0.1291 -0.1534  0.0027
 1796ntf    on511816   3.507   5.776   5.338 -0.4480  0.5358  0.1947
 1796ntf    on511817   3.727   5.876   5.295 -0.0120  0.7110  0.9212
 1796ntf    fn411818   3.501   5.929   5.587 -0.1906 -0.0487 -0.3022
 1796ntf    fn411819   3.687   6.026   5.556 -0.5729  0.6809 -0.0478
 1796ntf    fn411820   3.530   6.060   5.424 -0.4740  0.2379  0.0675
 1797ntf    cn111821   3.196   0.901   6.531  0.4848 -0.1966 -0.0638
 1797ntf    sn211822   3.241   0.755   6.432 -0.1238 -0.2726 -0.2291
 1797ntf    nn311823   3.227   0.639   6.536 -0.1466  0.3475  0.4727
 1797ntf    sn211824   3.342   0.577   6.623  0.0749  0.2660  0.1249
 1797ntf    cn111825   3.415   0.454   6.510 -0.1975 -0.0175  0.2552
 1797ntf    fn411826   3.105   0.879   6.624  0.1270 -0.1644 -0.4050
 1797ntf    fn411827   3.305   0.944   6.593  0.2013 -0.3305  0.5285
 1797ntf    fn411828   3.158   1.003   6.456  0.1726 -0.1678  0.1320
 1797ntf    on511829   3.135   0.759   6.334  0.2764 -0.8906 -0.6923
 1797ntf    on511830   3.373   0.774   6.377  0.0579  0.0911  0.3243
 1797ntf    on511831   3.292   0.496   6.732 -0.2374 -0.0670 -0.2653
 1797ntf    on511832   3.451   0.664   6.660  0.1306  0.3113 -0.1477
 1797ntf    fn411833   3.432   0.502   6.388 -0.5469 -0.6947 -0.0599
 1797ntf    fn411834   3.537   0.416   6.546 -0.1498 -0.2640 -0.1652
 1797ntf    fn411835   3.346   0.342   6.504  0.0301 -0.1621  0.3279
 1798ntf    cn111836   2.978   2.494   5.294  0.5588  0.0250  0.1143
 1798ntf    sn211837   2.979   2.672   5.258  0.3179  0.0929  0.4445
 1798ntf    nn311838   3.121   2.713   5.310  0.5036 -0.2723  0.2254
 1798ntf    sn211839   3.164   2.805   5.430 -0.0063  0.1216  0.1095
 1798ntf    cn111840   3.290   2.895   5.334 -0.1253 -0.0294 -0.1895
 1798ntf    fn411841   2.971   2.480   5.425  0.0149  0.2494  0.1121
 1798ntf    fn411842   2.868   2.442   5.244  0.5167  0.0230  0.2089
 1798ntf    fn411843   3.087   2.430   5.256  0.5878  0.2299 -0.1554
 1798ntf    on511844   2.962   2.686   5.115  0.4681 -0.0829  0.4095
 1798ntf    on511845   2.872   2.720   5.342  0.0547  0.0441  0.1380
 1798ntf    on511846   3.245   2.742   5.531 -0.1907  0.0350  0.2032
 1798ntf    on511847   3.070   2.908   5.467 -0.2362 -0.0454 -0.0109
 1798ntf    fn411848   3.380   2.813   5.282  0.0033 -0.2365  0.3606
 1798ntf    fn411849   3.241   2.964   5.232 -0.1306 -0.0023 -0.1686
 1798ntf    fn411850   3.342   2.992   5.407  0.0270 -0.0100 -0.3241
 1799ntf    cn111851   5.858   2.571   6.035  0.2792 -0.3734 -0.0222
 1799ntf    sn211852   5.965   2.425   6.053  0.1446 -0.4812 -0.0917
 1799ntf    nn311853   6.044   2.474   6.180 -0.3429  0.6683 -0.2193
 1799ntf    sn211854   6.197   2.500   6.208 -0.2503  0.0119 -0.0943
 1799ntf    cn111855   6.232   2.354   6.311 -0.0493 -0.0586 -0.2621
 1799ntf    fn411856   5.930   2.680   6.052  0.6439 -0.5774 -0.2247
 1799ntf    fn411857   5.794   2.579   5.919 -0.1270  0.5384  0.2573
 1799ntf    fn411858   5.762   2.575   6.125 -0.2106  0.0076 -0.5525
 1799ntf    on511859   5.874   2.319   6.091 -0.4399  0.1054  0.1561
 1799ntf    on511860   6.028   2.419   5.923  0.5429  0.2766  0.0597
 1799ntf    on511861   6.205   2.613   6.297  0.0515 -0.0978  0.0172
 1799ntf    on511862   6.293   2.489   6.101 -0.1441 -0.3181  0.0330
 1799ntf    fn411863   6.350   2.347   6.370 -0.0460  0.1527 -0.2437
 1799ntf    fn411864   6.139   2.332   6.403 -0.2889  0.3551 -0.4004
 1799ntf    fn411865   6.226   2.243   6.239 -0.5296 -0.2715  0.0962
 1800ntf    cn111866   1.079   1.823   5.345 -0.0114  0.0619 -0.3171
 1800ntf    sn211867   1.008   1.663   5.393 -0.4105  0.3984  0.2386
 1800ntf    nn311868   1.136   1.573   5.406 -0.7818 -0.1170  0.3623
 1800ntf    sn211869   1.197   1.513   5.538 -0.0782  0.1819  0.1796
 1800ntf    cn111870   1.361   1.464   5.477 -0.3221 -0.1586 -0.2043
 1800ntf    fn411871   1.151   1.824   5.234  0.7485  0.0565  0.1682
 1800ntf    fn411872   0.978   1.906   5.326 -0.0183  0.0996 -0.1234
 1800ntf    fn411873   1.150   1.871   5.446  0.5210  0.0512 -0.6836
 1800ntf    on511874   0.932   1.685   5.513 -0.1213  0.0851  0.4787
 1800ntf    on511875   0.941   1.631   5.269  0.4928  0.3856 -0.2531
 1800ntf    on511876   1.140   1.392   5.591  0.2322 -0.2156 -0.3918
 1800ntf    on511877   1.234   1.609   5.640 -0.0533  0.1829  0.1699
 1800ntf    fn411878   1.343   1.420   5.354  0.2592 -0.1874 -0.2778
 1800ntf    fn411879   1.446   1.565   5.477 -0.3881 -0.0965  0.3891
 1800ntf    fn411880   1.418   1.367   5.546 -0.0217  0.3523  0.2699
 1801ntf    cn111881   4.976   5.227   5.465  0.0999 -0.1969 -0.3145
 1801ntf    sn211882   4.904   5.212   5.299 -0.1792 -0.2973 -0.1833
 1801ntf    nn311883   4.787   5.313   5.327  0.0268 -0.1476  0.1308
 1801ntf    sn211884   4.665   5.343   5.233 -0.0680 -0.1518  0.2525
 1801ntf    cn111885   4.738   5.463   5.117 -0.0898 -0.3417  0.0421
 1801ntf    fn411886   5.097   5.173   5.457  0.0958 -0.2247 -0.1827
 1801ntf    fn411887   4.995   5.354   5.497  0.0308 -0.1792 -0.3439
 1801ntf    fn411888   4.907   5.176   5.565 -0.1973 -0.2152 -0.5285
 1801ntf    on511889   5.015   5.254   5.218  0.4054 -0.8520  0.3235
 1801ntf    on511890   4.869   5.071   5.300 -0.3554 -0.2521  0.7077
 1801ntf    on511891   4.559   5.419   5.296  0.3715  0.6775  0.0062
 1801ntf    on511892   4.622   5.239   5.143  0.6626 -0.0799 -0.1926
 1801ntf    fn411893   4.846   5.414   5.057  0.2503  0.0296  0.3427
 1801ntf    fn411894   4.645   5.501   5.032 -0.3473  0.0548  0.4992
 1801ntf    fn411895   4.778   5.570   5.184  0.1813 -0.0069 -0.6519
 1802ntf    cn111896   2.967   3.054   0.261  0.1690 -0.1730  0.0866
 1802ntf    sn211897   2.905   3.213   0.199  0.4637 -0.0858  0.0147
 1802ntf    nn311898   2.927   3.301   0.327  0.1140 -0.1650  0.1295
 1802ntf    sn211899   3.012   3.431   0.354  0.0360 -0.0901  0.0153
 1802ntf    cn111900   3.100   3.368   0.499 -0.0881 -0.0211  0.1204
 1802ntf    fn411901   2.961   2.956   0.173 -0.1677 -0.1749  0.1116
 1802ntf    fn411902   3.093   3.062   0.300 -0.0214 -0.1651  0.7105
 1802ntf    fn411903   2.890   3.018   0.363  0.1760 -0.2991  0.0474
 1802ntf    on511904   3.006   3.226   0.096  0.1091 -0.0703 -0.3354
 1802ntf    on511905   2.766   3.202   0.161  0.6686 -0.8951 -0.5071
 1802ntf    on511906   2.932   3.537   0.409  0.1936 -0.0349  0.1365
 1802ntf    on511907   3.118   3.466   0.262  0.5227  0.0015  0.6058
 1802ntf    fn411908   3.196   3.454   0.531 -0.1239  0.0840 -0.0610
 1802ntf    fn411909   3.022   3.360   0.605 -0.2979  0.3290 -0.0094
 1802ntf    fn411910   3.162   3.252   0.484 -0.2553 -0.1662  0.5349
 1803ntf    cn111911   6.583   2.889   6.237  0.1561  0.1008  0.0978
 1803ntf    sn211912   6.546   3.067   6.236  0.1209  0.0941  0.2763
 1803ntf    nn311913   6.510   3.084   6.388 -0.2688  0.4014  0.1512
 1803ntf    sn211914   6.395   3.165   6.458 -0.3226  0.2428  0.2490
 1803ntf    cn111915   6.505   3.289   6.532 -0.3708  0.0383  0.6644
 1803ntf    fn411916   6.478   2.819   6.274  0.2004  0.1859  0.3844
 1803ntf    fn411917   6.617   2.845   6.116 -0.0541 -0.3870  0.2152
 1803ntf    fn411918   6.687   2.865   6.316 -0.1606  0.2365  0.5554
 1803ntf    on511919   6.671   3.129   6.198  0.1120  0.0159  0.1199
 1803ntf    on511920   6.434   3.084   6.148 -0.1058 -0.8959  0.3664
 1803ntf    on511921   6.337   3.093   6.568 -0.1931 -0.1344  0.0711
 1803ntf    on511922   6.315   3.250   6.373 -0.0851  0.3766  0.1554
 1803ntf    fn411923   6.622   3.301   6.470 -0.6764  0.0003  0.0785
 1803ntf    fn411924   6.453   3.410   6.518  0.4853  0.3431 -0.0313
 1803ntf    fn411925   6.535   3.268   6.659  0.1377  0.7801  0.6748
 1804ntf    cn111926   5.309   2.126   5.626  0.2654 -0.0405 -0.4053
 1804ntf    sn211927   5.143   2.189   5.584  0.0185 -0.1705  0.3753
 1804ntf    nn311928   5.067   2.161   5.719 -0.0096  0.1128  0.4178
 1804ntf    sn211929   4.931   2.087   5.748 -0.0202 -0.0693 -0.0798
 1804ntf    cn111930   4.808   2.187   5.659 -0.1910  0.0148  0.2524
 1804ntf    fn411931   5.394   2.119   5.524  0.0992  0.6527 -0.5977
 1804ntf    fn411932   5.358   2.211   5.714 -0.0796 -0.1689 -0.0882
 1804ntf    fn411933   5.306   2.009   5.687  0.1210  0.0772 -0.1865
 1804ntf    on511934   5.170   2.330   5.582  0.1550 -0.1977  0.2564
 1804ntf    on511935   5.115   2.113   5.465  0.7159 -0.0023  0.0976
 1804ntf    on511936   4.887   2.096   5.885 -0.1504  0.7714 -0.1721
 1804ntf    on511937   4.925   1.955   5.689  0.0602 -0.1202  0.0255
 1804ntf    fn411938   4.686   2.137   5.671 -0.2710  0.1726  0.0940
 1804ntf    fn411939   4.802   2.311   5.703  0.7291  0.1848 -0.0870
 1804ntf    fn411940   4.839   2.205   5.532 -0.6323  0.1185  0.1554
 1805ntf    cn111941   1.736   6.240   5.997  0.0016 -0.0180 -0.0179
 1805ntf    sn211942   1.624   6.173   6.124  0.1011 -0.0720  0.0420
 1805ntf    nn311943   1.722   6.198   6.243 -0.0285 -1.0027  0.3459
 1805ntf    sn211944   1.683   6.218   6.394 -0.2286  0.2657  0.1330
 1805ntf    cn111945   1.782   6.086   6.471  0.0727  0.5379  0.2145
 1805ntf    fn411946   1.771   6.362   6.036 -0.1875  0.2068 -0.5513
 1805ntf    fn411947   1.852   6.177   5.990  0.0977  0.1626 -0.0594
 1805ntf    fn411948   1.682   6.239   5.877  0.3972  0.5532 -0.2023
 1805ntf    on511949   1.503   6.253   6.118  0.2983  0.2366  0.1576
 1805ntf    on511950   1.617   6.031   6.101  0.0395  0.0129 -0.4817
 1805ntf    on511951   1.548   6.189   6.437 -0.0974 -0.7524 -0.1108
 1805ntf    on511952   1.758   6.332   6.440  0.6106 -0.1257 -0.2306
 1805ntf    fn411953   1.787   6.085   6.603  0.0722 -0.6671  0.2126
 1805ntf    fn411954   1.751   5.965   6.428 -0.0294  0.6154  0.0687
 1805ntf    fn411955   1.910   6.095   6.440 -0.0695  0.8685 -0.2958
 1806ntf    cn111956   3.079   5.742   2.231  0.0572 -0.0800  0.2606
 1806ntf    sn211957   3.210   5.806   2.340 -0.3307  0.7162  0.2659
 1806ntf    nn311958   3.172   5.958   2.338 -0.7099  0.6155 -0.7979
 1806ntf    sn211959   3.225   6.081   2.420 -0.0221 -0.2594  0.0890
 1806ntf    cn111960   3.068   6.147   2.483  0.1272  0.0279  0.1626
 1806ntf    fn411961   3.086   5.787   2.107  0.1982 -0.0778  0.2693
 1806ntf    fn411962   3.085   5.610   2.217  0.1573 -0.0718  0.2250
 1806ntf    fn411963   2.960   5.773   2.280 -0.1912 -0.5653 -0.0253
 1806ntf    on511964   3.181   5.745   2.467 -0.6372  0.4589  0.0745
 1806ntf    on511965   3.334   5.771   2.274 -0.5347  0.3085  0.0911
 1806ntf    on511966   3.277   6.183   2.332  0.0761 -0.4762 -0.1079
 1806ntf    on511967   3.303   6.038   2.533  0.1798 -0.5289 -0.1489
 1806ntf    fn411968   3.011   6.059   2.565  0.4560 -0.4226 -0.0884
 1806ntf    fn411969   3.079   6.259   2.552  0.0709  0.1622 -0.0470
 1806ntf    fn411970   2.991   6.177   2.380  0.0447  0.0733  0.2379
 1807ntf    cn111971   6.243   1.744   2.544  0.2256  0.1166 -0.3778
 1807ntf    sn211972   6.067   1.703   2.519  0.1995  0.0014 -0.0096
 1807ntf    nn311973   6.046   1.724   2.365  0.7449 -0.2044 -0.1140
 1807ntf    sn211974   6.046   1.618   2.249 -0.1143 -0.4593  0.1098
 1807ntf    cn111975   5.936   1.698   2.129  0.3618  0.2082  0.1133
 1807ntf    fn411976   6.265   1.869   2.506 -0.3716  0.3214 -0.0684
 1807ntf    fn411977   6.268   1.740   2.674  0.4888  0.2741 -0.4234
 1807ntf    fn411978   6.328   1.667   2.479 -0.2290 -0.2240 -0.5735
 1807ntf    on511979   6.058   1.567   2.566 -0.5593  0.2947  0.7050
 1807ntf    on511980   5.999   1.806   2.594  0.2676  0.1972 -0.2157
 1807ntf    on511981   5.983   1.494   2.285 -0.4624 -0.3471 -0.1088
 1807ntf    on511982   6.175   1.616   2.183  0.1251  0.1669  0.5561
 1807ntf    fn411983   5.811   1.675   2.165  0.4665  0.0458  0.3739
 1807ntf    fn411984   5.959   1.828   2.138  0.5940  0.1580  0.2469
 1807ntf    fn411985   5.946   1.672   1.999  0.1402 -0.1781  0.1730
 1808ntf    cn111986   3.004   5.834   3.304 -0.2861 -0.2816  0.1883
 1808ntf    sn211987   2.843   5.852   3.222 -0.1784 -0.0852  0.0187
 1808ntf    nn311988   2.786   5.718   3.281 -0.0387 -0.0691  0.1885
 1808ntf    sn211989   2.683   5.701   3.399  0.1072  0.4195  0.3903
 1808ntf    cn111990   2.526   5.742   3.318  0.3625  0.4108 -0.1172
 1808ntf    fn411991   3.069   5.721   3.281  0.1111 -0.1514  0.6612
 1808ntf    fn411992   3.091   5.930   3.279 -0.2905 -0.3110  0.0597
 1808ntf    fn411993   2.989   5.840   3.435  0.0851 -0.5712  0.2466
 1808ntf    on511994   2.797   5.970   3.291 -0.0354  0.2853 -0.5109
 1808ntf    on511995   2.879   5.849   3.082  0.6488 -0.0635  0.2259
 1808ntf    on511996   2.703   5.792   3.509  0.3644  0.6320  0.1728
 1808ntf    on511997   2.664   5.562   3.433 -0.6583  0.2021 -0.8358
 1808ntf    fn411998   2.501   5.663   3.215  0.0628  0.1762  0.1363
 1808ntf    fn411999   2.431   5.713   3.405  0.0283 -0.0538 -0.6289
 1808ntf    fn412000   2.508   5.869   3.283 -0.9514  0.3405  0.2246
 1809ntf    cn112001   2.058   3.996   2.661  0.0307 -0.2546 -0.2587
 1809ntf    sn212002   2.135   3.914   2.518  0.4984 -0.0836 -0.1077
 1809ntf    nn312003   2.184   3.781   2.587 -0.1782 -0.3035 -0.0435
 1809ntf    sn212004   2.163   3.628   2.560  0.2029 -0.3193 -0.2529
 1809ntf    cn112005   2.335   3.575   2.534  0.5252  0.5943 -0.0327
 1809ntf    fn412006   2.029   4.122   2.637 -0.2026 -0.2185  0.1911
 1809ntf    fn412007   1.950   3.936   2.707  0.2237 -0.0045  0.5497
 1809ntf    fn412008   2.139   3.996   2.766 -0.0167  0.2979 -0.2213
 1809ntf    on512009   2.018   3.897   2.436 -0.1228 -0.0472  0.7602
 1809ntf    on512010   2.236   4.010   2.481  0.8901 -0.2545  0.4919
 1809ntf    on512011   2.093   3.581   2.442 -0.0270  0.1594 -0.3075
 1809ntf    on512012   2.134   3.555   2.680 -0.0527  0.0102 -0.1132
 1809ntf    fn412013   2.352   3.444   2.547  0.0313  0.5706  0.4112
 1809ntf    fn412014   2.376   3.609   2.413 -0.7775  0.7007 -0.4601
 1809ntf    fn412015   2.416   3.627   2.624  0.1352  0.6643  0.2785
 1810ntf    cn112016   4.662   6.540   2.050 -0.1378 -0.0062  0.3237
 1810ntf    sn212017   4.570   6.697   2.039  0.0097  0.0444 -0.2438
 1810ntf    nn312018   4.592   6.744   2.187 -0.2562  0.1016 -0.2216
 1810ntf    sn212019   4.618   6.890   2.240 -0.0251 -0.0660  0.1322
 1810ntf    cn112020   4.464   6.928   2.329 -0.1962 -0.1458 -0.1280
 1810ntf    fn412021   4.754   6.543   2.145  0.3565  0.6587 -0.1680
 1810ntf    fn412022   4.575   6.443   2.071  0.1050 -0.2375  0.2634
 1810ntf    fn412023   4.727   6.505   1.940 -0.2705  0.0650  0.2221
 1810ntf    on512024   4.647   6.770   1.941  0.1679 -0.1488 -0.2652
 1810ntf    on512025   4.434   6.656   2.016 -0.2263  0.6533  0.0381
 1810ntf    on512026   4.617   6.993   2.139 -0.3966 -0.3089 -0.1160
 1810ntf    on512027   4.718   6.896   2.344  0.5324 -0.2926 -0.3892
 1810ntf    fn412028   4.443   6.839   2.426  0.5392 -0.0632  0.1132
 1810ntf    fn412029   4.483   7.046   2.385  0.6300 -0.3423  0.0105
 1810ntf    fn412030   4.353   6.935   2.258 -0.3082  0.7004  0.1235
 1811ntf    cn112031   0.231   3.347   6.536 -0.1787  0.1407  0.0229
 1811ntf    sn212032   0.126   3.494   6.515 -0.2866  0.0820  0.1488
 1811ntf    nn312033   0.046   3.504   6.649 -0.1214  0.1571  0.2408
 1811ntf    sn212034   0.006   3.632   6.731  0.3017  0.1150  0.5175
 1811ntf    cn112035  -0.109   3.551   6.846  0.0890 -0.1774  0.1010
 1811ntf    fn412036   0.172   3.231   6.516  0.0238  0.1257 -0.5143
 1811ntf    fn412037   0.329   3.347   6.447  0.0991  0.3946  0.3274
 1811ntf    fn412038   0.290   3.342   6.655  0.1431 -0.0204 -0.1420
 1811ntf    on512039   0.235   3.587   6.495  0.0710 -0.3553  0.0385
 1811ntf    on512040   0.049   3.459   6.398 -0.2047  0.0692  0.0981
 1811ntf    on512041  -0.081   3.720   6.658  0.4403  0.0167  0.2343
 1811ntf    on512042   0.110   3.685   6.817  0.0319  0.5409  0.5844
 1811ntf    fn412043  -0.042   3.480   6.935  0.0236 -0.0933  0.2174
 1811ntf    fn412044  -0.173   3.639   6.922 -0.3957 -0.3673 -0.0843
 1811ntf    fn412045  -0.195   3.480   6.776 -0.1546  0.1635  0.0520
 1812ntf    cn112046   0.107   0.328   5.568 -0.1052 -0.2192 -0.1293
 1812ntf    sn212047  -0.038   0.434   5.596 -0.0230 -0.0820 -0.2221
 1812ntf    nn312048  -0.142   0.317   5.613  0.3923 -0.4948 -0.4801
 1812ntf    sn212049  -0.249   0.281   5.505  0.1476 -0.1172 -0.3681
 1812ntf    cn112050  -0.379   0.406   5.530  0.3681  0.0269  0.0499
 1812ntf    fn412051   0.121   0.261   5.682 -0.1982  0.2346  0.1514
 1812ntf    fn412052   0.087   0.240   5.471 -0.5602 -0.1208 -0.1275
 1812ntf    fn412053   0.216   0.398   5.544 -0.2241 -0.0292 -0.1175
 1812ntf    on512054  -0.024   0.497   5.725 -0.1777 -0.6437  0.0735
 1812ntf    on512055  -0.038   0.514   5.476 -0.7123  0.5098  0.1610
 1812ntf    on512056  -0.306   0.151   5.534 -0.0189  0.0237 -0.0630
 1812ntf    on512057  -0.204   0.301   5.369 -0.0894 -0.0293 -0.4355
 1812ntf    fn412058  -0.342   0.532   5.519 -0.3170  0.2092 -0.2040
 1812ntf    fn412059  -0.476   0.394   5.441  0.2522 -0.3407  0.2220
 1812ntf    fn412060  -0.436   0.396   5.649  0.0686 -0.3654 -0.1251
 1813ntf    cn112061   2.816   3.903   6.376  0.1711  0.1730  0.1188
 1813ntf    sn212062   2.962   3.845   6.467 -0.0078 -0.0076  0.2882
 1813ntf    nn312063   2.915   3.885   6.612  0.1250 -0.0940  0.3548
 1813ntf    sn212064   2.931   4.026   6.680 -0.0793  0.1045 -0.0064
 1813ntf    cn112065   3.097   4.010   6.754 -0.0129 -0.3138 -0.2394
 1813ntf    fn412066   2.839   3.897   6.246 -0.1346  0.4198  0.0525
 1813ntf    fn412067   2.710   3.826   6.394  0.3826 -0.1173  0.1265
 1813ntf    fn412068   2.780   4.023   6.419 -0.3075 -0.0285  0.2893
 1813ntf    on512069   2.957   3.705   6.434 -0.7956 -0.0349  0.4856
 1813ntf    on512070   3.064   3.924   6.404 -0.3557  0.3159  0.1277
 1813ntf    on512071   2.846   4.041   6.794  0.4720 -0.1675  0.4468
 1813ntf    on512072   2.939   4.136   6.587 -0.3614 -0.0786 -0.2505
 1813ntf    fn412073   3.119   3.892   6.810  0.1568 -0.0879  0.1724
 1813ntf    fn412074   3.191   4.023   6.662  0.3924 -0.5466  0.1447
 1813ntf    fn412075   3.126   4.100   6.846  0.0715  0.0810 -0.6471
 1814ntf    cn112076   0.956   0.328   5.485 -0.1135  0.1580 -0.3422
 1814ntf    sn212077   1.079   0.328   5.352  0.0177 -0.0206 -0.2213
 1814ntf    nn312078   1.013   0.420   5.243 -0.6101  0.2194  0.3550
 1814ntf    sn212079   0.906   0.384   5.133  0.0122 -0.3491 -0.0763
 1814ntf    cn112080   0.923   0.511   5.005 -0.2027 -0.3664 -0.1232
 1814ntf    fn412081   0.913   0.443   5.535  0.1497 -0.1200  0.5372
 1814ntf    fn412082   0.842   0.271   5.448 -0.0565 -0.3206  0.2110
 1814ntf    fn412083   0.987   0.248   5.586 -0.1777  0.4670 -0.0755
 1814ntf    on512084   1.189   0.395   5.416 -0.0153 -0.1339 -0.0464
 1814ntf    on512085   1.098   0.187   5.328 -0.4618 -0.1552  0.1699
 1814ntf    on512086   0.774   0.405   5.188  0.0132 -0.2137 -0.1257
 1814ntf    on512087   0.941   0.265   5.059  0.3852 -0.2310 -0.0929
 1814ntf    fn412088   0.836   0.499   4.906 -0.5603  0.4403  0.0847
 1814ntf    fn412089   0.914   0.632   5.057  0.3845 -0.2994 -0.1623
 1814ntf    fn412090   1.040   0.501   4.943 -0.3031 -0.4440 -0.3012
 1815ntf    cn112091   0.751   2.163   2.900  0.2136 -0.2041  0.2731
 1815ntf    sn212092   0.598   2.065   2.909  0.1080 -0.0460  0.2238
 1815ntf    nn312093   0.514   2.161   3.000  0.4016  0.0834  0.3592
 1815ntf    sn212094   0.364   2.164   3.047  0.2688  0.1862 -0.0705
 1815ntf    cn112095   0.377   2.307   3.158 -0.2263 -0.0096  0.2376
 1815ntf    fn412096   0.738   2.282   2.843  0.3826 -0.1107  0.4262
 1815ntf    fn412097   0.817   2.185   3.012 -0.2180 -0.0636  0.5040
 1815ntf    fn412098   0.842   2.104   2.825 -0.2443 -0.3362 -0.1873
 1815ntf    on512099   0.548   2.057   2.774  0.4846 -0.7833  0.1230
 1815ntf    on512100   0.649   1.947   2.975  0.1782  0.1912  0.5984
 1815ntf    on512101   0.324   2.048   3.122 -0.5571  0.1109 -0.6228
 1815ntf    on512102   0.277   2.210   2.942 -0.2970 -0.0708  0.2871
 1815ntf    fn412103   0.397   2.419   3.091 -0.3241 -0.2719 -0.2283
 1815ntf    fn412104   0.267   2.333   3.228 -0.2806  0.4829 -0.0279
 1815ntf    fn412105   0.473   2.297   3.248 -0.4031 -0.1376  0.4132
 1816ntf    cn112106   5.220   1.983   1.779 -0.6552 -0.0946  0.0189
 1816ntf    sn212107   5.223   1.952   1.958  0.1262 -0.1247  0.0023
 1816ntf    nn312108   5.357   2.028   1.991 -0.1145  0.5556 -0.5678
 1816ntf    sn212109   5.506   1.994   1.956 -0.0131  0.2545  0.1368
 1816ntf    cn112110   5.571   1.984   2.125 -0.0090 -0.3803  0.0991
 1816ntf    fn412111   5.209   2.108   1.738 -0.1957 -0.0524  0.0234
 1816ntf    fn412112   5.332   1.936   1.725 -0.1793  0.3491  0.6118
 1816ntf    fn412113   5.125   1.921   1.710 -0.2106 -0.6109 -0.1392
 1816ntf    on512114   5.110   2.026   2.006  0.1141  0.1132 -0.3846
 1816ntf    on512115   5.218   1.808   1.970  0.2435 -0.1035  0.3011
 1816ntf    on512116   5.577   2.106   1.900 -0.2076  0.4322  0.2449
 1816ntf    on512117   5.533   1.868   1.892  0.1946  0.0553  0.6170
 1816ntf    fn412118   5.489   1.915   2.203 -0.7293  0.2050 -0.1395
 1816ntf    fn412119   5.686   1.917   2.129  0.1693 -0.1123 -0.4383
 1816ntf    fn412120   5.590   2.099   2.188  0.2259 -0.2274 -0.2483
 1817ntf    cn112121   2.500   6.137   2.927  0.0365  0.4575  0.1736
 1817ntf    sn212122   2.461   6.104   2.752 -0.0006  0.0839  0.2506
 1817ntf    nn312123   2.504   6.242   2.689 -0.3016  0.3086  0.5337
 1817ntf    sn212124   2.638   6.292   2.625 -0.3823 -0.1463 -0.0010
 1817ntf    cn112125   2.615   6.267   2.447  0.0165 -0.0681 -0.0644
 1817ntf    fn412126   2.629   6.161   2.945  0.1267  0.1678 -0.0869
 1817ntf    fn412127   2.445   6.247   2.975 -0.3081  0.1441  0.5007
 1817ntf    fn412128   2.469   6.045   3.017 -0.2568  0.2775 -0.1068
 1817ntf    on512129   2.541   5.991   2.712  0.0786  0.2425 -0.0388
 1817ntf    on512130   2.318   6.089   2.756  0.0840 -0.7065  0.4658
 1817ntf    on512131   2.750   6.211   2.665  0.0825  0.3152 -0.3509
 1817ntf    on512132   2.650   6.435   2.642 -0.4608 -0.2564  1.0344
 1817ntf    fn412133   2.501   6.318   2.403 -0.1975 -0.2857  0.2403
 1817ntf    fn412134   2.713   6.312   2.369  0.1164 -0.2969 -0.0713
 1817ntf    fn412135   2.602   6.138   2.421 -0.2339 -0.0724  0.0820
 1818ntf    cn112136   2.384   2.124   6.271 -0.1380 -0.1728  0.1233
 1818ntf    sn212137   2.545   2.058   6.326 -0.0780 -0.1525 -0.0266
 1818ntf    nn312138   2.582   2.155   6.444 -0.3003  0.1309 -0.1871
 1818ntf    sn212139   2.548   2.136   6.597  0.1976 -0.3361 -0.1289
 1818ntf    cn112140   2.714   2.089   6.654  0.2261 -0.0339  0.0404
 1818ntf    fn412141   2.285   2.115   6.358  0.1177  0.6180  0.4971
 1818ntf    fn412142   2.408   2.252   6.249  0.4267 -0.3616 -0.3932
 1818ntf    fn412143   2.343   2.071   6.157 -0.2551 -0.1898  0.1726
 1818ntf    on512144   2.512   1.921   6.356 -0.2299 -0.1887 -0.3571
 1818ntf    on512145   2.635   2.077   6.216 -0.0732 -0.6593 -0.1129
 1818ntf    on512146   2.474   2.019   6.635 -0.0091 -0.1334  0.0978
 1818ntf    on512147   2.514   2.257   6.669  0.5735 -0.4695  0.2754
 1818ntf    fn412148   2.795   2.193   6.667  0.0956  0.1003 -0.2221
 1818ntf    fn412149   2.714   2.030   6.772  0.5471 -0.0141  0.0505
 1818ntf    fn412150   2.772   2.004   6.571  0.1812 -0.0534  0.0288
 1819ntf    cn112151   4.467   1.727   4.529  0.0955  0.2600  0.1934
 1819ntf    sn212152   4.309   1.811   4.495  0.0564  0.1302  0.0524
 1819ntf    nn312153   4.215   1.703   4.561  0.2918  0.1662  0.4555
 1819ntf    sn212154   4.156   1.703   4.706  0.0238  0.3865  0.3486
 1819ntf    cn112155   3.992   1.773   4.672 -0.1743 -0.1458  0.1942
 1819ntf    fn412156   4.488   1.630   4.441  0.0076  0.1497  0.2930
 1819ntf    fn412157   4.574   1.804   4.530 -0.0949  0.5267  0.0868
 1819ntf    fn412158   4.457   1.662   4.644  0.4657 -0.1250  0.0096
 1819ntf    on512159   4.308   1.945   4.548 -0.4160  0.2750 -0.3177
 1819ntf    on512160   4.300   1.802   4.352  0.5325 -0.9453  0.0723
 1819ntf    on512161   4.215   1.802   4.793  0.1683  0.4446  0.1849
 1819ntf    on512162   4.134   1.568   4.752  0.1104  0.3296  0.2238
 1819ntf    fn412163   3.923   1.783   4.784  0.1426  0.0334  0.3780
 1819ntf    fn412164   4.007   1.898   4.631 -0.1048 -0.1628  0.1685
 1819ntf    fn412165   3.931   1.707   4.575 -0.1719 -0.0058  0.0977
 1820ntf    cn112166   1.260   4.134   0.212 -0.5171  0.0973 -0.5007
 1820ntf    sn212167   1.103   4.217   0.251 -0.6162 -0.3715  0.1083
 1820ntf    nn312168   1.093   4.201   0.407 -0.3583 -0.2002  0.1434
 1820ntf    sn212169   0.968   4.239   0.494 -0.4315 -0.0280 -0.0349
 1820ntf    cn112170   1.011   4.414   0.520  0.1590 -0.1702 -0.0361
 1820ntf    fn412171   1.362   4.187   0.277 -0.4883 -0.5399 -0.0197
 1820ntf    fn412172   1.259   4.005   0.238  0.1091  0.3249  0.7106
 1820ntf    fn412173   1.295   4.159   0.087  0.4514  0.3200 -0.1935
 1820ntf    on512174   1.129   4.353   0.212  0.1682 -0.5817 -0.1138
 1820ntf    on512175   1.016   4.137   0.168 -0.1464 -0.2855 -0.4757
 1820ntf    on512176   0.980   4.188   0.629 -0.2586 -0.2330 -0.1282
 1820ntf    on512177   0.840   4.252   0.430 -0.2477 -0.1317 -0.4256
 1820ntf    fn412178   1.117   4.437   0.596 -0.1647 -0.0138  0.3742
 1820ntf    fn412179   1.035   4.471   0.404 -0.2397  0.3906  0.1533
 1820ntf    fn412180   0.910   4.480   0.574  0.4812  0.0701  0.2737
 1821ntf    cn112181   3.597   0.803   1.375  0.0153  0.0948  0.3873
 1821ntf    sn212182   3.645   0.890   1.527  0.0080  0.1033  0.3849
 1821ntf    nn312183   3.685   0.772   1.623  0.0810 -0.0867  0.1208
 1821ntf    sn212184   3.600   0.699   1.733  0.0252 -0.3035 -0.0638
 1821ntf    cn112185   3.655   0.797   1.876 -0.4161  0.1019 -0.1682
 1821ntf    fn412186   3.566   0.890   1.280  0.3397 -0.0609  0.1366
 1821ntf    fn412187   3.692   0.732   1.315 -0.4996  0.0094 -0.3450
 1821ntf    fn412188   3.491   0.725   1.388 -0.2094  0.1192 -1.0633
 1821ntf    on512189   3.754   0.981   1.506 -0.3616  0.3347 -0.5758
 1821ntf    on512190   3.524   0.951   1.578 -0.0437  0.2033  0.1425
 1821ntf    on512191   3.650   0.569   1.770 -0.2619 -0.3841  0.0441
 1821ntf    on512192   3.457   0.717   1.737  0.0481 -0.1505  0.1063
 1821ntf    fn412193   3.584   0.909   1.880 -0.2246  0.2233 -0.1797
 1821ntf    fn412194   3.633   0.743   1.995  0.6508  0.7214  0.3208
 1821ntf    fn412195   3.785   0.819   1.878 -0.2564 -0.7704 -0.3938
 1822ntf    cn112196   1.912   3.626   3.955  0.0316  0.2014  0.0485
 1822ntf    sn212197   2.076   3.616   3.875  0.0127  0.2496  0.0037
 1822ntf    nn312198   2.081   3.760   3.814 -0.0934  0.5381  0.6663
 1822ntf    sn212199   2.201   3.845   3.760 -0.1710  0.2907  0.0982
 1822ntf    cn112200   2.220   3.970   3.891 -0.2469  0.2220  0.1744
 1822ntf    fn412201   1.899   3.718   4.049 -0.1962 -0.2655  0.4777
 1822ntf    fn412202   1.817   3.653   3.867 -0.2052  0.3789  0.3564
 1822ntf    fn412203   1.880   3.515   4.019 -0.1485  0.1616 -0.1080
 1822ntf    on512204   2.166   3.582   3.983 -0.0224  0.0275 -0.0365
 1822ntf    on512205   2.057   3.515   3.773 -0.2042  0.2961 -0.0027
 1822ntf    on512206   2.160   3.919   3.643 -0.6191  0.0129  0.0766
 1822ntf    on512207   2.331   3.783   3.757 -0.0980  0.4045  0.7348
 1822ntf    fn412208   2.121   4.057   3.891 -0.1237  0.3638 -0.1103
 1822ntf    fn412209   2.242   3.922   4.013 -0.0265 -0.1016  0.0075
 1822ntf    fn412210   2.329   4.037   3.860  0.0602 -0.3877 -0.0853
 1823ntf    cn112211   3.668   3.009   4.484  0.0806 -0.1403  0.0433
 1823ntf    sn212212   3.823   3.049   4.398 -0.0148  0.0529 -0.0403
 1823ntf    nn312213   3.842   3.200   4.436  0.0837  0.0694 -0.1545
 1823ntf    sn212214   3.894   3.318   4.347 -0.0793  0.0034 -0.3373
 1823ntf    cn112215   3.733   3.357   4.271 -0.3246 -0.4690 -0.0644
 1823ntf    fn412216   3.689   3.008   4.615 -0.3211 -0.4279  0.1065
 1823ntf    fn412217   3.577   3.100   4.454  0.3108  0.2175  0.4097
 1823ntf    fn412218   3.613   2.892   4.454  0.0729 -0.0286 -0.3794
 1823ntf    on512219   3.926   2.967   4.457  0.0321 -0.3342 -0.6448
 1823ntf    on512220   3.789   3.020   4.261 -0.3874  0.4214 -0.0254
 1823ntf    on512221   3.979   3.284   4.235  0.3535  0.1456 -0.0561
 1823ntf    on512222   3.920   3.435   4.427  0.5329 -0.2481 -0.1621
 1823ntf    fn412223   3.659   3.250   4.249 -0.1985 -0.6048  0.1597
 1823ntf    fn412224   3.665   3.442   4.346  0.1344  0.0900 -0.2718
 1823ntf    fn412225   3.744   3.428   4.161 -0.2287 -0.3213  0.0407
 1824ntf    cn112226   5.304   0.714   4.287  0.5191 -0.0041 -0.1916
 1824ntf    sn212227   5.182   0.677   4.416  0.3495 -0.0179 -0.3552
 1824ntf    nn312228   5.258   0.567   4.498 -0.2207 -0.2619 -0.1493
 1824ntf    sn212229   5.282   0.418   4.454  0.0537 -0.1744 -0.2984
 1824ntf    cn112230   5.128   0.346   4.518  0.2909 -0.3187  0.1180
 1824ntf    fn412231   5.285   0.635   4.183  0.0803 -0.2671  0.0880
 1824ntf    fn412232   5.291   0.839   4.245 -0.4721 -0.0604 -0.0725
 1824ntf    fn412233   5.431   0.704   4.324  0.5262  0.4577 -0.0839
 1824ntf    on512234   5.168   0.797   4.495  0.8366 -0.1896 -0.0066
 1824ntf    on512235   5.061   0.635   4.349  0.2708  0.0142 -0.2358
 1824ntf    on512236   5.386   0.356   4.533  0.1323 -0.2902 -0.4926
 1824ntf    on512237   5.288   0.392   4.312  0.1099 -0.1119 -0.3073
 1824ntf    fn412238   5.016   0.380   4.456  0.4338 -0.3916 -0.1826
 1824ntf    fn412239   5.135   0.214   4.508 -0.3031 -0.3742  0.3814
 1824ntf    fn412240   5.109   0.367   4.647  0.0975 -0.0846  0.0545
 1825ntf    cn112241   3.266   1.818   2.980 -0.0051  0.1536  0.3050
 1825ntf    sn212242   3.213   1.967   2.891  0.3953 -0.0222 -0.2303
 1825ntf    nn312243   3.317   2.070   2.947  0.1683  0.1720 -0.1633
 1825ntf    sn212244   3.309   2.159   3.076 -0.0754 -0.1071  0.0130
 1825ntf    cn112245   3.481   2.144   3.133  0.0196 -0.3122 -0.3284
 1825ntf    fn412246   3.396   1.799   2.968  0.1328  1.0002  0.3929
 1825ntf    fn412247   3.245   1.808   3.110  0.1472 -0.7091  0.2716
 1825ntf    fn412248   3.212   1.706   2.933  0.2773  0.0952  0.1192
 1825ntf    on512249   3.236   1.925   2.755  0.4806 -0.2442 -0.1478
 1825ntf    on512250   3.077   1.988   2.934  0.3286 -0.3807 -0.2615
 1825ntf    on512251   3.236   2.106   3.189 -0.3797  0.0038 -0.1321
 1825ntf    on512252   3.291   2.300   3.050  0.1557 -0.0025  0.4182
 1825ntf    fn412253   3.574   2.178   3.046 -0.0748  0.5257 -0.1039
 1825ntf    fn412254   3.509   2.219   3.238  0.0339 -0.0850 -0.4952
 1825ntf    fn412255   3.512   2.020   3.168 -0.2533 -0.3275 -0.1340
 1826ntf    cn112256   3.497   0.866   5.722  0.0541  0.1632  0.1819
 1826ntf    sn212257   3.316   0.864   5.733  0.0348 -0.1207 -0.1823
 1826ntf    nn312258   3.280   0.978   5.834 -0.0335 -0.1341 -0.1912
 1826ntf    sn212259   3.179   1.097   5.816  0.0291 -0.0539 -0.0189
 1826ntf    cn112260   3.024   1.027   5.879  0.2370 -0.2113  0.3176
 1826ntf    fn412261   3.542   0.781   5.631  0.1909  0.6660 -0.2241
 1826ntf    fn412262   3.557   0.981   5.695 -0.0009  0.1621  0.0588
 1826ntf    fn412263   3.550   0.832   5.839  0.0338 -0.0566  0.1276
 1826ntf    on512264   3.267   0.881   5.598  0.0074  0.1714 -0.1352
 1826ntf    on512265   3.296   0.732   5.787 -0.2023 -0.2362 -0.5451
 1826ntf    on512266   3.157   1.152   5.684 -0.1502  0.4435  0.2166
 1826ntf    on512267   3.200   1.197   5.917  0.1503 -0.4894  0.3876
 1826ntf    fn412268   2.921   1.102   5.844  0.7383  0.3815  0.0838
 1826ntf    fn412269   3.008   0.904   5.834  0.4726 -0.3810  0.6883
 1826ntf    fn412270   3.026   1.013   6.011 -0.1294 -0.5165  0.2907
 1827ntf    cn112271   6.142   4.411   6.523  0.1424 -0.0439 -0.0893
 1827ntf    sn212272   6.243   4.533   6.611  0.2617 -0.0607 -0.2024
 1827ntf    nn312273   6.192   4.658   6.531  0.1663  0.0719  0.0611
 1827ntf    sn212274   6.272   4.711   6.407  0.2076 -0.0078  0.0525
 1827ntf    cn112275   6.355   4.854   6.484  0.2460  0.1469 -0.2724
 1827ntf    fn412276   6.188   4.368   6.406 -0.2726 -0.1466 -0.2173
 1827ntf    fn412277   6.142   4.302   6.598  0.1792 -0.0980 -0.1681
 1827ntf    fn412278   6.017   4.452   6.507 -0.0043 -0.4039  0.0951
 1827ntf    on512279   6.186   4.522   6.743  0.1061 -0.4171 -0.2994
 1827ntf    on512280   6.381   4.492   6.597  0.2379 -0.2596  0.1314
 1827ntf    on512281   6.188   4.777   6.310 -0.1591  0.0696  0.4235
 1827ntf    on512282   6.382   4.634   6.354  0.5914  0.4381  0.1834
 1827ntf    fn412283   6.446   4.811   6.570  0.1905  0.0141 -0.2786
 1827ntf    fn412284   6.424   4.922   6.394  0.2061  0.0241 -0.3955
 1827ntf    fn412285   6.277   4.935   6.553  0.1811 -0.0520 -0.1115
 1828ntf    cn112286   4.134   5.470   2.656 -0.5026  0.4136  0.0410
 1828ntf    sn212287   3.995   5.584   2.630 -0.5622  0.3082 -0.1009
 1828ntf    nn312288   3.871   5.496   2.669  0.4683 -0.9877  0.3404
 1828ntf    sn212289   3.808   5.498   2.813  0.1565 -0.2712  0.2023
 1828ntf    cn112290   3.721   5.339   2.820 -0.4204  0.0259 -0.1492
 1828ntf    fn412291   4.126   5.356   2.589  0.1564  0.2869  0.1660
 1828ntf    fn412292   4.253   5.524   2.637 -0.4700  0.3786  0.1457
 1828ntf    fn412293   4.141   5.434   2.783 -0.7726  0.1265 -0.0265
 1828ntf    on512294   4.029   5.695   2.715  0.7374 -0.2460  0.1234
 1828ntf    on512295   4.006   5.617   2.490 -0.0815 -0.2619 -0.2028
 1828ntf    on512296   3.702   5.591   2.841  0.1147 -0.3708  0.3764
 1828ntf    on512297   3.899   5.466   2.921  0.4775 -0.5641 -0.1502
 1828ntf    fn412298   3.796   5.231   2.806  0.0346  0.3729 -0.3844
 1828ntf    fn412299   3.654   5.324   2.933  0.2801 -0.1560  0.2498
 1828ntf    fn412300   3.637   5.315   2.720 -0.2908  0.2181 -0.3030
 1829ntf    cn112301   3.907   3.315   0.790  0.8702 -0.1393 -0.2183
 1829ntf    sn212302   3.846   3.457   0.695  0.3309 -0.0801  0.2115
 1829ntf    nn312303   3.726   3.387   0.622  0.2230  0.0877  0.2259
 1829ntf    sn212304   3.655   3.419   0.486 -0.0935  0.0342  0.3769
 1829ntf    cn112305   3.478   3.435   0.524 -0.1107  0.2672  0.2056
 1829ntf    fn412306   3.921   3.210   0.711  0.1609 -0.3087 -0.1264
 1829ntf    fn412307   4.023   3.335   0.851  0.9314 -0.5547 -0.1993
 1829ntf    fn412308   3.821   3.266   0.877  0.2182  0.1237 -0.7098
 1829ntf    on512309   3.792   3.545   0.796  0.2623 -0.1525  0.2383
 1829ntf    on512310   3.954   3.512   0.617  0.2244 -0.0453  0.0869
 1829ntf    on512311   3.658   3.308   0.395  0.4518  0.2928  0.0701
 1829ntf    on512312   3.683   3.550   0.432  0.0525 -0.2170 -0.1597
 1829ntf    fn412313   3.399   3.388   0.430  0.4387 -0.1168 -0.0660
 1829ntf    fn412314   3.448   3.374   0.638  0.2112 -0.2009  0.0433
 1829ntf    fn412315   3.445   3.562   0.542 -0.3304  0.2704 -0.2115
 1830ntf    cn112316   0.338   1.542   1.030  0.1569  0.4339  0.4084
 1830ntf    sn212317   0.251   1.702   1.026 -0.1888  0.2366 -0.0528
 1830ntf    nn312318   0.147   1.676   0.911  0.4523 -0.7491 -0.4290
 1830ntf    sn212319   0.163   1.741   0.769 -0.2038  0.3515 -0.0133
 1830ntf    cn112320  -0.002   1.699   0.704 -0.0626 -0.1565 -0.0440
 1830ntf    fn412321   0.248   1.446   1.027  0.1223  0.4766  0.0221
 1830ntf    fn412322   0.417   1.525   0.925 -0.0291 -0.4028  0.4014
 1830ntf    fn412323   0.416   1.526   1.136  0.2331  0.2613  0.3264
 1830ntf    on512324   0.192   1.705   1.158 -0.4256 -0.1929 -0.1454
 1830ntf    on512325   0.361   1.790   0.996  0.3988 -0.4676  0.0077
 1830ntf    on512326   0.251   1.664   0.686  0.1196 -0.2180  0.8433
 1830ntf    on512327   0.159   1.885   0.764  0.4093  0.3539 -0.4235
 1830ntf    fn412328  -0.019   1.568   0.707 -0.2740 -0.1433 -0.5502
 1830ntf    fn412329  -0.096   1.748   0.783 -0.4487 -0.1308 -0.5149
 1830ntf    fn412330  -0.027   1.752   0.585  0.2242 -0.1819 -0.1167
 1831ntf    cn112331   4.089   0.473   6.107 -0.5612 -0.0178  0.0254
 1831ntf    sn212332   4.065   0.293   6.097 -0.0154 -0.0786 -0.2396
 1831ntf    nn312333   4.181   0.251   6.000  0.2657  0.0626  0.0343
 1831ntf    sn212334   4.256   0.114   5.990  0.2581  0.0452  0.2052
 1831ntf    cn112335   4.421   0.157   6.054  0.3716 -0.2573  0.1163
 1831ntf    fn412336   4.008   0.541   6.186 -0.2007  0.1326  0.2698
 1831ntf    fn412337   4.214   0.492   6.146 -0.5369  0.2085 -0.1655
 1831ntf    fn412338   4.087   0.526   5.986  0.2535  0.1702  0.0901
 1831ntf    on512339   4.086   0.249   6.233 -0.5796 -0.2223 -0.1981
 1831ntf    on512340   3.937   0.279   6.033 -0.2006 -0.1274  0.1417
 1831ntf    on512341   4.299   0.083   5.855  0.3478  1.1941 -0.0400
 1831ntf    on512342   4.213   0.006   6.075 -0.0997  0.1285  0.1294
 1831ntf    fn412343   4.498   0.049   6.051 -0.0186 -0.5422  0.2763
 1831ntf    fn412344   4.475   0.259   5.990  0.1344 -0.2339 -0.0500
 1831ntf    fn412345   4.413   0.194   6.180 -0.3809  0.1922 -0.0598
 1832ntf    cn112346   6.302   2.675   5.445 -0.0724 -0.1825  0.4048
 1832ntf    sn212347   6.199   2.824   5.443  0.2338  0.0299  0.3494
 1832ntf    nn312348   6.060   2.753   5.460 -0.0399  0.3910 -0.3390
 1832ntf    sn212349   5.937   2.747   5.363  0.0831  0.1256 -0.4799
 1832ntf    cn112350   5.807   2.751   5.490  0.0864 -0.1826 -0.4664
 1832ntf    fn412351   6.243   2.593   5.530 -0.0476 -0.5319  0.0852
 1832ntf    fn412352   6.295   2.607   5.332  0.3516 -0.0282  0.2830
 1832ntf    fn412353   6.428   2.687   5.485 -0.2050  0.1938  0.7190
 1832ntf    on512354   6.236   2.887   5.568 -0.1412  0.2886  0.3314
 1832ntf    on512355   6.223   2.888   5.316 -0.3087  0.6673  0.5595
 1832ntf    on512356   5.928   2.616   5.301  0.3194  0.1930 -0.6605
 1832ntf    on512357   5.910   2.862   5.281 -0.0193  0.4757  0.0461
 1832ntf    fn412358   5.798   2.868   5.550  0.0643 -0.1165 -0.5984
 1832ntf    fn412359   5.684   2.729   5.447 -0.0515  0.5518 -0.4486
 1832ntf    fn412360   5.826   2.664   5.588  1.0054  0.1022 -0.3797
 1833ntf    cn112361   2.357   0.881   5.204 -0.2819 -0.2548 -0.1435
 1833ntf    sn212362   2.257   0.973   5.083 -0.0717  0.2198  0.0412
 1833ntf    nn312363   2.138   1.012   5.178 -0.1552 -0.1843  0.1029
 1833ntf    sn212364   2.090   1.153   5.227  0.1897 -0.0723  0.1192
 1833ntf    cn112365   2.151   1.147   5.398 -0.0879 -0.2424  0.2133
 1833ntf    fn412366   2.378   0.953   5.313 -0.4849  0.0755 -0.3204
 1833ntf    fn412367   2.306   0.767   5.247 -0.1291 -0.2712 -0.0051
 1833ntf    fn412368   2.479   0.853   5.161  0.2824  0.3504  1.0066
 1833ntf    on512369   2.343   1.083   5.047 -0.0302  0.1121 -0.1914
 1833ntf    on512370   2.222   0.863   4.997  0.5594  0.4485 -0.5214
 1833ntf    on512371   1.946   1.152   5.231  0.1891 -0.0568  0.0969
 1833ntf    on512372   2.165   1.267   5.179 -0.2424  0.1485 -0.0302
 1833ntf    fn412373   2.275   1.194   5.410 -0.1140 -0.0881 -0.1267
 1833ntf    fn412374   2.073   1.223   5.474  0.1896 -0.0838  0.3442
 1833ntf    fn412375   2.149   1.023   5.445  0.1591 -0.4148 -0.2250
 1834ntf    cn112376   4.973   0.473   3.523 -0.2114 -0.0635  0.0663
 1834ntf    sn212377   5.073   0.363   3.628 -0.3160 -0.4355 -0.2190
 1834ntf    nn312378   5.027   0.220   3.583  0.0842 -0.5132 -0.3863
 1834ntf    sn212379   4.904   0.143   3.642 -0.2061  0.1844 -0.0733
 1834ntf    cn112380   4.833   0.053   3.501 -0.2875 -0.1888  0.2067
 1834ntf    fn412381   4.977   0.429   3.398  0.3316  0.3179 -0.0506
 1834ntf    fn412382   4.844   0.477   3.554 -0.2812  0.0244 -0.2322
 1834ntf    fn412383   5.013   0.599   3.523  0.5127 -0.2921 -0.1515
 1834ntf    on512384   5.206   0.401   3.587 -0.3567  0.3455  0.3347
 1834ntf    on512385   5.030   0.405   3.759  0.0961 -0.3669 -0.1017
 1834ntf    on512386   4.788   0.228   3.661  0.0015  0.4054  0.2134
 1834ntf    on512387   4.938   0.047   3.744  0.2853  0.1597 -0.2600
 1834ntf    fn412388   4.924  -0.022   3.440 -0.3529 -0.2203  0.1473
 1834ntf    fn412389   4.724  -0.018   3.528 -0.2748 -0.1162  0.4457
 1834ntf    fn412390   4.793   0.141   3.411  0.2507  0.3033  0.4446
 1835ntf    cn112391   3.258   6.229   5.654 -0.1406  0.2049  0.1476
 1835ntf    sn212392   3.112   6.334   5.628 -0.4024 -0.2179 -0.1083
 1835ntf    nn312393   3.117   6.419   5.760 -0.4686 -0.2173 -0.1062
 1835ntf    sn212394   3.005   6.518   5.809 -0.2264 -0.2124  0.4410
 1835ntf    cn112395   2.916   6.409   5.924 -0.3698 -0.2115  0.3323
 1835ntf    fn412396   3.372   6.295   5.643  0.2666 -0.5220 -0.0754
 1835ntf    fn412397   3.264   6.186   5.779 -0.4086  0.2527  0.1770
 1835ntf    fn412398   3.260   6.122   5.575  0.0483  0.0770  0.3231
 1835ntf    on512399   3.147   6.401   5.505 -0.5909 -0.0317 -0.0612
 1835ntf    on512400   3.007   6.236   5.615 -0.7539  0.1989 -0.4307
 1835ntf    on512401   2.904   6.559   5.715 -0.0221 -0.5160  0.0859
 1835ntf    on512402   3.052   6.622   5.896 -0.1649  0.2155 -0.1012
 1835ntf    fn412403   2.996   6.325   5.988 -0.1328 -0.4421 -0.2649
 1835ntf    fn412404   2.848   6.482   6.011 -0.5430 -0.4346  0.3860
 1835ntf    fn412405   2.836   6.333   5.851  0.5566 -0.0626 -0.8536
 1836ntf    cn112406   1.679   6.551   0.581 -0.1523 -0.2244 -0.3141
 1836ntf    sn212407   1.532   6.488   0.666 -0.0965 -0.0701 -0.1023
 1836ntf    nn312408   1.461   6.427   0.540 -0.0709  0.1518 -0.2244
 1836ntf    sn212409   1.343   6.465   0.444 -0.3245  0.3393  0.1597
 1836ntf    cn112410   1.204   6.380   0.524 -0.2430  0.0469 -0.0068
 1836ntf    fn412411   1.650   6.611   0.466 -0.1825  0.5270  0.0815
 1836ntf    fn412412   1.735   6.644   0.657 -0.5895 -0.2625  0.0554
 1836ntf    fn412413   1.779   6.467   0.557  0.0919 -0.1263  0.3426
 1836ntf    on512414   1.595   6.399   0.761  0.1769  0.3060  0.0710
 1836ntf    on512415   1.468   6.603   0.725  0.5368  0.4188 -0.3555
 1836ntf    on512416   1.346   6.386   0.324  0.5539  0.5786  0.0152
 1836ntf    on512417   1.305   6.604   0.432 -0.4522  0.2835 -0.0910
 1836ntf    fn412418   1.099   6.381   0.444 -0.5854  0.5361  0.4405
 1836ntf    fn412419   1.228   6.253   0.551 -0.3640  0.1536  0.6293
 1836ntf    fn412420   1.165   6.432   0.640 -0.2378 -0.3855  0.1905
 1837ntf    cn112421   4.861   1.334   4.807 -0.5101 -0.0295 -0.0547
 1837ntf    sn212422   5.021   1.419   4.795 -0.3064 -0.3644  0.2514
 1837ntf    nn312423   5.065   1.424   4.946 -0.5690  0.6289  0.3018
 1837ntf    sn212424   5.177   1.517   5.006 -0.3074  0.3163  0.3007
 1837ntf    cn112425   5.267   1.405   5.118  0.2168  0.3064 -0.1292
 1837ntf    fn412426   4.792   1.354   4.696 -0.1538  0.0319 -0.2664
 1837ntf    fn412427   4.880   1.204   4.820 -0.3912 -0.0039  0.0313
 1837ntf    fn412428   4.789   1.378   4.909 -0.2320 -0.2360  0.2338
 1837ntf    on512429   5.096   1.328   4.712 -0.0517  0.1769 -0.1172
 1837ntf    on512430   4.996   1.553   4.748  0.5965 -0.0656  0.5812
 1837ntf    on512431   5.116   1.607   5.101 -0.1212  0.2282  0.5031
 1837ntf    on512432   5.275   1.568   4.914 -0.2922 -0.0077  0.1337
 1837ntf    fn412433   5.181   1.343   5.198  0.3720  0.1014 -0.1214
 1837ntf    fn412434   5.344   1.315   5.060  0.3035  0.2119  0.1353
 1837ntf    fn412435   5.348   1.467   5.201  0.0194  0.2886  0.0768
 1838ntf    cn112436   1.144   3.363   4.912 -0.2705  0.3871 -0.0303
 1838ntf    sn212437   1.282   3.430   5.010 -0.2196  0.4243 -0.1277
 1838ntf    nn312438   1.235   3.395   5.156 -0.2107 -0.3332 -0.3013
 1838ntf    sn212439   1.244   3.260   5.235 -0.0383 -0.0707  0.1300
 1838ntf    cn112440   1.351   3.319   5.370  0.1915  0.1580 -0.1503
 1838ntf    fn412441   1.166   3.378   4.783 -0.0304 -0.0632 -0.0473
 1838ntf    fn412442   1.128   3.232   4.930 -0.1153  0.4301  0.4476
 1838ntf    fn412443   1.028   3.420   4.938 -0.3451  0.3946 -0.3762
 1838ntf    on512444   1.397   3.358   4.964 -0.2566  0.2048  0.1175
 1838ntf    on512445   1.288   3.573   4.990 -0.5122  0.5099  0.3606
 1838ntf    on512446   1.333   3.155   5.193  0.4018  0.4899 -0.3588
 1838ntf    on512447   1.120   3.227   5.301 -0.1824  0.1664 -0.0185
 1838ntf    fn412448   1.372   3.221   5.457 -0.1394  0.5495  0.3747
 1838ntf    fn412449   1.471   3.356   5.328  0.3455 -0.0264  0.1181
 1838ntf    fn412450   1.290   3.414   5.438  0.2654 -0.0005  0.1392
 1839ntf    cn112451   1.585   3.424   1.654  0.3439  0.3015 -0.2528
 1839ntf    sn212452   1.540   3.260   1.590  0.1996  0.1902  0.1317
 1839ntf    nn312453   1.674   3.231   1.513  0.1963 -0.0880  0.2284
 1839ntf    sn212454   1.696   3.270   1.362 -0.3299 -0.0662  0.1556
 1839ntf    cn112455   1.657   3.106   1.294 -0.0776 -0.1336  0.1753
 1839ntf    fn412456   1.487   3.456   1.737  0.4041  0.1432 -0.1198
 1839ntf    fn412457   1.703   3.431   1.713  0.1242  0.9215  0.1243
 1839ntf    fn412458   1.583   3.510   1.553  0.0158  0.2375 -0.3033
 1839ntf    on512459   1.533   3.181   1.711 -0.6314 -0.4975 -0.3579
 1839ntf    on512460   1.422   3.268   1.508 -0.0776  0.4955  0.5572
 1839ntf    on512461   1.833   3.279   1.318 -0.5129  0.7766 -0.2547
 1839ntf    on512462   1.602   3.361   1.301 -0.6628 -0.5989 -0.1303
 1839ntf    fn412463   1.672   3.110   1.163 -0.0195 -0.1922  0.1798
 1839ntf    fn412464   1.742   3.014   1.338  0.0803 -0.2551 -0.3782
 1839ntf    fn412465   1.536   3.060   1.319 -0.1408 -0.2855 -0.3862
 1840ntf    cn112466   4.374   5.919   1.445  0.1995 -0.4064  0.0447
 1840ntf    sn212467   4.235   5.911   1.561  0.1859  0.1491  0.0704
 1840ntf    nn312468   4.312   5.903   1.698  0.0162 -0.1882  0.1488
 1840ntf    sn212469   4.296   5.999   1.821  0.0198  0.0889 -0.0658
 1840ntf    cn112470   4.445   6.103   1.806  0.0169  0.0947 -0.0656
 1840ntf    fn412471   4.454   5.814   1.457  0.5652 -0.1630 -0.2298
 1840ntf    fn412472   4.341   5.921   1.317 -0.2697 -0.6903  0.1609
 1840ntf    fn412473   4.443   6.029   1.471 -0.0212 -0.2831  0.1129
 1840ntf    on512474   4.159   6.032   1.539 -0.0087  0.0375  0.1227
 1840ntf    on512475   4.170   5.785   1.533 -0.0936  0.2742  0.1505
 1840ntf    on512476   4.318   5.931   1.946  0.2421  0.4086  0.0701
 1840ntf    on512477   4.188   6.095   1.822  0.3114  0.4150  0.4427
 1840ntf    fn412478   4.450   6.196   1.899 -0.6813 -0.7030  0.7865
 1840ntf    fn412479   4.554   6.028   1.818 -0.3747 -0.4280  0.2626
 1840ntf    fn412480   4.454   6.171   1.693 -0.7138  0.3699  0.0367
 1841ntf    cn112481   1.930   2.389   2.326  0.0763  0.3942  0.0402
 1841ntf    sn212482   1.807   2.505   2.260 -0.0394  0.1803 -0.1210
 1841ntf    nn312483   1.727   2.548   2.388 -0.1188 -0.3104 -0.0035
 1841ntf    sn212484   1.601   2.477   2.449 -0.1899 -0.2015 -0.0240
 1841ntf    cn112485   1.470   2.572   2.365 -0.0875  0.0056  0.0479
 1841ntf    fn412486   1.878   2.301   2.409  0.6248  0.0732  0.0494
 1841ntf    fn412487   2.002   2.328   2.233  0.1643  0.0409  0.3380
 1841ntf    fn412488   2.018   2.452   2.402 -0.1710  0.0573  0.6081
 1841ntf    on512489   1.889   2.609   2.203 -0.2219  0.4419  0.0879
 1841ntf    on512490   1.726   2.429   2.169  0.1494  0.5919 -0.6393
 1841ntf    on512491   1.581   2.526   2.583 -0.5082  0.0296 -0.1550
 1841ntf    on512492   1.579   2.338   2.420  0.0250 -0.4055  0.7859
 1841ntf    fn412493   1.498   2.701   2.368 -0.3311  0.0614 -0.0657
 1841ntf    fn412494   1.470   2.539   2.237  0.0487  0.1782  0.0051
 1841ntf    fn412495   1.349   2.554   2.418  0.0057 -0.0427  0.2469
 1842ntf    cn112496   1.874   5.087   4.130 -0.2809  0.1497  0.0369
 1842ntf    sn212497   1.698   5.056   4.101 -0.2066 -0.1552 -0.0933
 1842ntf    nn312498   1.644   5.139   4.223  0.2758  0.2700 -0.1652
 1842ntf    sn212499   1.548   5.263   4.229  0.2903  0.2694  0.0899
 1842ntf    cn112500   1.662   5.397   4.275  0.5487  0.1701 -0.2552
 1842ntf    fn412501   1.907   5.213   4.107 -0.5589  0.2380  0.1198
 1842ntf    fn412502   1.920   5.047   4.248 -0.8661 -0.6860 -0.0154
 1842ntf    fn412503   1.948   5.021   4.043 -0.1299  0.2598  0.0814
 1842ntf    on512504   1.664   5.109   3.971 -0.7588 -0.8215 -0.2231
 1842ntf    on512505   1.674   4.916   4.121 -0.9278  0.0354  0.4355
 1842ntf    on512506   1.449   5.264   4.334  0.1597  0.8058 -0.0371
 1842ntf    on512507   1.495   5.311   4.104 -0.2171  1.1438  0.6277
 1842ntf    fn412508   1.593   5.507   4.300 -0.0887 -0.2372 -0.1800
 1842ntf    fn412509   1.731   5.381   4.387  0.0417 -0.2225  0.0065
 1842ntf    fn412510   1.758   5.416   4.186 -0.0278  0.5931 -0.7904
 1843ntf    cn112511   0.885   3.015   4.697  0.3371 -0.2426 -0.2699
 1843ntf    sn212512   0.764   2.989   4.831  0.2738 -0.0391 -0.2867
 1843ntf    nn312513   0.676   3.115   4.799  0.7903  0.3280 -0.2766
 1843ntf    sn212514   0.616   3.208   4.910  0.4911 -0.4023  0.1811
 1843ntf    cn112515   0.759   3.316   4.939  0.0789  0.3092 -0.3998
 1843ntf    fn412516   0.985   2.929   4.708  0.4175 -0.0556  0.5567
 1843ntf    fn412517   0.830   3.004   4.577  0.2427 -0.5364 -0.2020
 1843ntf    fn412518   0.942   3.134   4.696  0.3841 -0.2619  0.0122
 1843ntf    on512519   0.697   2.867   4.795  0.1213 -0.0593  0.0626
 1843ntf    on512520   0.848   2.991   4.948 -0.0514 -0.2166 -0.0495
 1843ntf    on512521   0.592   3.147   5.039  1.1430  0.2050  0.5946
 1843ntf    on512522   0.510   3.292   4.858  0.5794 -0.4831 -0.1329
 1843ntf    fn412523   0.848   3.251   5.012 -0.5024 -0.3254 -0.2479
 1843ntf    fn412524   0.819   3.362   4.830 -0.1369 -0.1946 -0.7370
 1843ntf    fn412525   0.732   3.426   5.008  0.0214 -0.3022  0.5669
 1844ntf    cn112526   5.377   3.742   4.945  0.3016  0.1817  0.1246
 1844ntf    sn212527   5.285   3.684   5.090  0.1410 -0.0178 -0.0558
 1844ntf    nn312528   5.309   3.785   5.208  0.2785 -0.0267 -0.0761
 1844ntf    sn212529   5.314   3.755   5.362 -0.2078  0.3201  0.0065
 1844ntf    cn112530   5.492   3.742   5.393 -0.3004  0.1437  0.4787
 1844ntf    fn412531   5.330   3.859   4.906  0.7687  0.2175 -0.3519
 1844ntf    fn412532   5.507   3.757   4.969  0.4065  0.0853 -0.3678
 1844ntf    fn412533   5.365   3.663   4.839 -0.2811  0.2760  0.1190
 1844ntf    on512534   5.149   3.701   5.044  0.2481  0.2334 -0.2837
 1844ntf    on512535   5.335   3.552   5.117 -0.6569 -0.2187  0.4777
 1844ntf    on512536   5.267   3.627   5.409  0.3228  0.2863  0.4592
 1844ntf    on512537   5.276   3.872   5.438  0.0560  0.5371 -0.1939
 1844ntf    fn412538   5.514   3.719   5.521 -0.6558 -0.4547  0.4322
 1844ntf    fn412539   5.542   3.638   5.327 -0.5523  0.1828  0.2255
 1844ntf    fn412540   5.560   3.850   5.357 -0.3475  0.0008 -0.0511
 1845ntf    cn112541   4.805   2.829   5.088  0.0323  0.5875  0.0753
 1845ntf    sn212542   4.624   2.849   5.076 -0.0050  0.1158 -0.1454
 1845ntf    nn312543   4.613   2.858   4.919  0.6170  0.0038 -0.1993
 1845ntf    sn212544   4.532   2.969   4.844  0.0771 -0.1866  0.0996
 1845ntf    cn112545   4.367   2.898   4.874  0.0479 -0.2095 -0.1139
 1845ntf    fn412546   4.847   2.733   5.008 -0.2656  0.3956  0.1470
 1845ntf    fn412547   4.880   2.935   5.063 -0.1412  0.6181 -0.3190
 1845ntf    fn412548   4.846   2.781   5.204 -0.2982 -0.3628 -0.1912
 1845ntf    on512549   4.579   2.727   5.138  0.1566  0.0324 -0.1920
 1845ntf    on512550   4.605   2.973   5.147 -0.5208  0.4161 -0.7946
 1845ntf    on512551   4.547   2.963   4.701  0.0102 -0.2510  0.0951
 1845ntf    on512552   4.545   3.103   4.897 -0.5669 -0.1229  0.1133
 1845ntf    fn412553   4.278   2.973   4.811 -0.2660 -0.4117  0.0818
 1845ntf    fn412554   4.354   2.784   4.809 -0.1696 -0.4908  0.4179
 1845ntf    fn412555   4.323   2.893   4.999 -0.4498  0.6685 -0.2432
 1846ntf    cn112556   4.980   1.759   0.079  0.3956  0.4081  0.4154
 1846ntf    sn212557   5.028   1.634   0.201 -0.2339 -0.1080  0.1379
 1846ntf    nn312558   5.109   1.537   0.107 -0.2862 -0.0773  0.0615
 1846ntf    sn212559   5.265   1.520   0.114 -0.2853 -0.0268  0.1667
 1846ntf    cn112560   5.285   1.422   0.266  0.0145  0.0054  0.1492
 1846ntf    fn412561   4.910   1.858   0.132 -0.0037  0.2375  0.2095
 1846ntf    fn412562   5.083   1.817   0.020 -0.0755  0.1436 -0.6799
 1846ntf    fn412563   4.903   1.717  -0.020  1.1647 -0.2029  0.0737
 1846ntf    on512564   5.104   1.694   0.308 -0.1094 -0.3845  0.2086
 1846ntf    on512565   4.899   1.577   0.233 -0.4671  0.3941  0.0947
 1846ntf    on512566   5.346   1.638   0.130  0.0836 -0.2353 -0.1441
 1846ntf    on512567   5.306   1.427   0.011 -0.0737  0.3299 -0.0737
 1846ntf    fn412568   5.223   1.305   0.263 -0.1712  0.0977  0.4181
 1846ntf    fn412569   5.409   1.383   0.289 -0.1943 -0.5938  0.2975
 1846ntf    fn412570   5.233   1.485   0.370  0.2298 -0.0037  0.2609
 1847ntf    cn112571   6.227   2.129   2.206 -0.3507  0.4968 -0.1526
 1847ntf    sn212572   6.319   2.226   2.083 -0.0077  0.1930 -0.1404
 1847ntf    nn312573   6.238   2.189   1.953  0.1752 -0.1170 -0.1649
 1847ntf    sn212574   6.167   2.281   1.848 -0.0360 -0.0024  0.0780
 1847ntf    cn112575   6.262   2.215   1.708 -0.1350 -0.3168  0.1578
 1847ntf    fn412576   6.266   2.146   2.331 -0.6472 -0.0155  0.0153
 1847ntf    fn412577   6.102   2.170   2.195 -0.4610  0.2779  0.2751
 1847ntf    fn412578   6.224   1.998   2.188  0.3828  0.4950 -0.2854
 1847ntf    on512579   6.313   2.366   2.119  0.3964  0.2547 -0.3043
 1847ntf    on512580   6.450   2.167   2.088 -0.0160  0.1779 -0.1056
 1847ntf    on512581   6.207   2.419   1.852 -0.4052  0.0944  0.5215
 1847ntf    on512582   6.030   2.244   1.823  0.0148  0.2718 -0.6193
 1847ntf    fn412583   6.235   2.273   1.592 -0.0007 -0.3085  0.1299
 1847ntf    fn412584   6.391   2.226   1.736 -0.2356 -0.1078  0.5524
 1847ntf    fn412585   6.236   2.086   1.693 -0.8587 -0.1208 -0.3248
 1848ntf    cn112586   6.703   1.611   5.216  0.0016  0.2964 -0.1637
 1848ntf    sn212587   6.756   1.759   5.125  0.2056  0.1093 -0.3511
 1848ntf    nn312588   6.826   1.842   5.239  0.3241 -0.3945 -0.0553
 1848ntf    sn212589   6.759   1.955   5.325  0.2525 -0.4702 -0.0115
 1848ntf    cn112590   6.883   2.014   5.444  0.2454 -0.6536  0.0874
 1848ntf    fn412591   6.609   1.645   5.303  0.0217  0.8772 -0.3647
 1848ntf    fn412592   6.652   1.518   5.136  0.5140 -0.3660  0.2740
 1848ntf    fn412593   6.801   1.550   5.279 -0.3917 -0.1001  0.0726
 1848ntf    on512594   6.853   1.712   5.029  0.0169  0.0178 -0.4978
 1848ntf    on512595   6.638   1.825   5.076  0.4257  0.1634 -0.8109
 1848ntf    on512596   6.663   1.894   5.414  0.3507 -0.1797  0.2962
 1848ntf    on512597   6.724   2.071   5.247 -0.1324 -0.5543  0.0328
 1848ntf    fn412598   6.934   1.917   5.519  0.3742 -0.2437  0.5350
 1848ntf    fn412599   6.990   2.068   5.389 -0.2857  0.7468  0.4027
 1848ntf    fn412600   6.834   2.111   5.519  0.1648 -0.5273 -0.1300
 1849ntf    cn112601   2.149   3.030   2.403 -0.2077  0.1761  0.3089
 1849ntf    sn212602   2.233   2.973   2.253  0.0924  0.0209  0.5344
 1849ntf    nn312603   2.273   3.111   2.190  0.1432 -0.0601  0.3880
 1849ntf    sn212604   2.417   3.169   2.165 -0.0376  0.2033 -0.0590
 1849ntf    cn112605   2.369   3.342   2.192 -0.1860  0.2384 -0.5347
 1849ntf    fn412606   2.047   3.109   2.371  0.0327  0.0572 -0.7932
 1849ntf    fn412607   2.100   2.926   2.469 -0.4524  0.2903  0.3106
 1849ntf    fn412608   2.235   3.102   2.473  0.1778  0.3491 -0.3412
 1849ntf    on512609   2.333   2.879   2.297 -0.4210 -1.0448 -0.5258
 1849ntf    on512610   2.123   2.912   2.183  0.1674  0.0737  0.3686
 1849ntf    on512611   2.457   3.149   2.028  0.6792 -0.2724  0.2145
 1849ntf    on512612   2.514   3.142   2.268 -0.2187  0.6980  0.2440
 1849ntf    fn412613   2.304   3.399   2.092 -0.3476  0.3953 -0.3436
 1849ntf    fn412614   2.297   3.356   2.303  0.4399 -0.8898  0.0360
 1849ntf    fn412615   2.482   3.410   2.207  0.0119 -0.2693  0.3721
 1850ntf    cn112616   1.897   2.494   5.137 -0.1840  0.1209  0.1106
 1850ntf    sn212617   1.780   2.612   5.064 -0.2137  0.0665  0.0696
 1850ntf    nn312618   1.652   2.589   5.151 -0.1228 -0.1045  0.1576
 1850ntf    sn212619   1.515   2.526   5.107 -0.0077 -0.0927 -0.2287
 1850ntf    cn112620   1.452   2.510   5.277  0.0317  0.5003 -0.1564
 1850ntf    fn412621   1.908   2.528   5.264 -0.6466  0.1142  0.1545
 1850ntf    fn412622   1.848   2.371   5.140  0.4151 -0.1251  0.0542
 1850ntf    fn412623   2.019   2.483   5.086 -0.4540 -0.5457 -0.4238
 1850ntf    on512624   1.843   2.740   5.088  0.2699 -0.2007  0.2405
 1850ntf    on512625   1.772   2.575   4.925 -0.3413  0.4790 -0.0361
 1850ntf    on512626   1.522   2.390   5.061  0.2237  0.0789 -0.6995
 1850ntf    on512627   1.414   2.612   5.051  0.1418  0.0990 -0.2051
 1850ntf    fn412628   1.455   2.625   5.343 -0.1228  0.4772 -0.1078
 1850ntf    fn412629   1.328   2.466   5.283  0.0557  0.4054 -0.3415
 1850ntf    fn412630   1.519   2.424   5.353 -0.6252 -0.3005 -0.4769
 1851ntf    cn112631   1.737   3.822   3.380 -0.0756  0.2833  0.1944
 1851ntf    sn212632   1.615   3.832   3.246  0.0438  0.0652  0.0691
 1851ntf    nn312633   1.680   3.944   3.156  0.5904 -0.1636  0.1766
 1851ntf    sn212634   1.605   4.064   3.089  0.1943 -0.5777 -0.1335
 1851ntf    cn112635   1.587   4.007   2.917  0.0801  0.1139 -0.3552
 1851ntf    fn412636   1.730   3.929   3.458 -0.3299  0.1918  0.2974
 1851ntf    fn412637   1.722   3.713   3.454  0.5588  0.0377 -0.0342
 1851ntf    fn412638   1.860   3.810   3.334 -0.0403 -0.2364  0.4197
 1851ntf    on512639   1.622   3.702   3.186 -0.1782  0.1593 -0.1617
 1851ntf    on512640   1.495   3.868   3.319 -0.0863  0.3516 -0.2812
 1851ntf    on512641   1.697   4.175   3.078 -0.0692 -0.3357  0.1254
 1851ntf    on512642   1.465   4.094   3.103  0.2378 -0.1816 -0.5021
 1851ntf    fn412643   1.702   3.995   2.852  0.0523 -0.0894 -0.3680
 1851ntf    fn412644   1.527   3.889   2.917  0.5194 -0.1112 -0.6187
 1851ntf    fn412645   1.511   4.087   2.844  0.5645  1.0375  0.1299
 1852ntf    cn112646   0.777   1.953   4.262 -0.4963  0.1394 -0.2655
 1852ntf    sn212647   0.837   1.976   4.432  0.0386 -0.1516 -0.4129
 1852ntf    nn312648   0.861   2.131   4.434 -0.3374 -0.0990  0.6648
 1852ntf    sn212649   0.983   2.221   4.473 -0.1165 -0.0929 -0.0298
 1852ntf    cn112650   0.894   2.335   4.583 -0.1422 -0.0863 -0.0567
 1852ntf    fn412651   0.688   2.043   4.225 -0.6545  0.2117  0.2858
 1852ntf    fn412652   0.879   1.970   4.178 -0.2338 -0.0033  0.0216
 1852ntf    fn412653   0.729   1.834   4.232 -0.1328  0.0120 -0.3587
 1852ntf    on512654   0.739   1.928   4.526  0.5005  0.1107  0.2124
 1852ntf    on512655   0.962   1.903   4.427 -0.2350 -0.6677  0.0871
 1852ntf    on512656   1.031   2.314   4.373 -0.3654  0.0434 -0.0236
 1852ntf    on512657   1.084   2.165   4.558  0.0568  0.3329  0.0491
 1852ntf    fn412658   0.801   2.400   4.515  0.1823  0.4276 -0.0185
 1852ntf    fn412659   0.828   2.272   4.679  0.1497 -0.3195 -0.0069
 1852ntf    fn412660   0.973   2.425   4.640 -0.2551  0.3505 -0.5837
 1853ntf    cn112661   3.289   2.601   0.184 -0.5413  0.0138 -0.1821
 1853ntf    sn212662   3.262   2.497   0.037  0.1274 -0.0133 -0.2875
 1853ntf    nn312663   3.372   2.561  -0.054 -0.0041  0.3504 -0.1915
 1853ntf    sn212664   3.371   2.579  -0.210 -0.1979 -0.0194 -0.2338
 1853ntf    cn112665   3.334   2.757  -0.218 -0.0617  0.0226  0.0594
 1853ntf    fn412666   3.262   2.727   0.154  0.2566  0.2716  0.1531
 1853ntf    fn412667   3.214   2.575   0.289  0.1329 -0.7478  0.1160
 1853ntf    fn412668   3.416   2.603   0.218 -0.5783 -0.0788 -0.0426
 1853ntf    on512669   3.291   2.362   0.080  0.4617 -0.0096 -0.4959
 1853ntf    on512670   3.128   2.531  -0.002  0.1488 -0.3769 -0.6882
 1853ntf    on512671   3.264   2.519  -0.285  0.0604 -0.6529 -0.1052
 1853ntf    on512672   3.503   2.570  -0.268 -0.1765 -0.7559 -0.0749
 1853ntf    fn412673   3.219   2.779  -0.158 -0.3912  0.4076 -0.7039
 1853ntf    fn412674   3.425   2.831  -0.157  0.1785  0.0863 -0.3710
 1853ntf    fn412675   3.315   2.799  -0.342  0.0890  0.1021  0.0625
 1854ntf    cn112676   6.566   1.126   4.664 -0.0817 -0.7027  0.0518
 1854ntf    sn212677   6.597   1.031   4.512  0.1059 -0.3146 -0.1545
 1854ntf    nn312678   6.690   1.125   4.426  0.0129 -0.1137 -0.0372
 1854ntf    sn212679   6.732   1.100   4.277 -0.0996  0.1090 -0.1075
 1854ntf    cn112680   6.639   1.228   4.189 -0.0026  0.0172 -0.3453
 1854ntf    fn412681   6.459   1.092   4.734  0.0407 -0.1223  0.5319
 1854ntf    fn412682   6.663   1.101   4.750 -0.0748  0.0524  0.2749
 1854ntf    fn412683   6.556   1.256   4.640 -0.2417 -0.7943 -0.3944
 1854ntf    on512684   6.668   0.915   4.561  0.6917 -0.2307 -0.7832
 1854ntf    on512685   6.469   1.013   4.449 -0.1450 -0.2399  0.3290
 1854ntf    on512686   6.675   0.982   4.216  0.4267 -0.1583 -0.0903
 1854ntf    on512687   6.874   1.121   4.260  0.1239 -0.6897  0.6804
 1854ntf    fn412688   6.513   1.225   4.229  0.0848 -0.2589 -0.0902
 1854ntf    fn412689   6.686   1.350   4.212  0.4740 -0.1343 -0.5033
 1854ntf    fn412690   6.636   1.212   4.058  0.3457 -0.1200 -0.3372
 1855ntf    cn112691   4.723   0.860   2.067  0.1057 -0.4247  0.3351
 1855ntf    sn212692   4.734   0.856   1.886  0.0607  0.1343  0.3200
 1855ntf    nn312693   4.836   0.975   1.870  0.3249 -0.1777 -0.3368
 1855ntf    sn212694   4.892   1.048   1.743  0.5796  0.0023 -0.1210
 1855ntf    cn112695   4.783   1.193   1.743  0.3620 -0.1618  0.3050
 1855ntf    fn412696   4.686   0.742   2.116  0.0118 -0.4891  0.1104
 1855ntf    fn412697   4.838   0.895   2.122 -0.0395 -0.0145  0.3812
 1855ntf    fn412698   4.630   0.948   2.100  0.0201 -0.2710 -0.3031
 1855ntf    on512699   4.784   0.724   1.856 -0.3724  0.1975 -0.7191
 1855ntf    on512700   4.602   0.888   1.839  0.2135  0.5303  0.1516
 1855ntf    on512701   4.872   0.982   1.616 -0.2826 -0.3698  0.2023
 1855ntf    on512702   5.021   1.109   1.767  0.5610  0.0812 -0.2184
 1855ntf    fn412703   4.781   1.262   1.857 -0.3521  0.1554  0.1072
 1855ntf    fn412704   4.821   1.275   1.646  0.1676 -0.4898 -0.0486
 1855ntf    fn412705   4.660   1.158   1.709  0.4101  0.3036 -0.3761
 1856ntf    cn112706   0.670   4.037   4.352 -0.1505  0.2322  0.4441
 1856ntf    sn212707   0.738   3.925   4.478  0.2261  0.2289  0.2382
 1856ntf    nn312708   0.791   4.034   4.577 -0.3550  0.3365  0.4327
 1856ntf    sn212709   0.933   4.082   4.624 -0.0361 -0.0903 -0.0904
 1856ntf    cn112710   0.891   4.228   4.724 -0.0900 -0.0608 -0.1554
 1856ntf    fn412711   0.740   4.147   4.330 -0.2965  0.2478  0.0529
 1856ntf    fn412712   0.660   3.979   4.234  0.3006  0.3673  0.3397
 1856ntf    fn412713   0.550   4.088   4.378 -0.1977  0.4292 -0.1432
 1856ntf    on512714   0.618   3.855   4.518 -0.3318  1.1206  0.1470
 1856ntf    on512715   0.843   3.852   4.412 -0.3085 -0.6275  0.3211
 1856ntf    on512716   1.021   4.131   4.522 -0.2020 -0.8810 -0.6278
 1856ntf    on512717   0.990   3.991   4.721  0.0195  0.7372  0.6671
 1856ntf    fn412718   0.854   4.332   4.652 -0.1109  0.0341 -0.0069
 1856ntf    fn412719   0.801   4.204   4.819 -0.1382  0.2410 -0.1254
 1856ntf    fn412720   0.997   4.272   4.790 -0.2270  0.0043  0.0218
 1857ntf    cn112721   3.471   5.496   6.259  0.0822 -0.0557  0.1553
 1857ntf    sn212722   3.452   5.317   6.233 -0.0433 -0.0090 -0.0779
 1857ntf    nn312723   3.333   5.323   6.131  0.1363  0.0819 -0.2817
 1857ntf    sn212724   3.181   5.333   6.169  0.2217  0.1196  0.0506
 1857ntf    cn112725   3.131   5.159   6.179  0.1519  0.1488  0.2104
 1857ntf    fn412726   3.356   5.556   6.287  0.0919 -0.1581  0.4167
 1857ntf    fn412727   3.552   5.512   6.363 -0.3142  0.4632  0.3910
 1857ntf    fn412728   3.522   5.556   6.153 -0.5687  0.4992  0.1511
 1857ntf    on512729   3.576   5.285   6.166 -0.1120 -0.6422  0.0878
 1857ntf    on512730   3.429   5.244   6.355 -0.0750 -0.6350 -0.4535
 1857ntf    on512731   3.110   5.390   6.058  0.1171 -0.1602 -0.0254
 1857ntf    on512732   3.133   5.391   6.292  0.3859  0.6332 -0.1240
 1857ntf    fn412733   3.000   5.142   6.167  0.2163  0.0881 -0.4757
 1857ntf    fn412734   3.194   5.094   6.082 -0.1283  0.7417 -0.3749
 1857ntf    fn412735   3.169   5.095   6.288  0.5268 -0.6853 -0.4009
 1858ntf    cn112736   5.653   6.453   2.674  0.4619 -0.1619 -0.2358
 1858ntf    sn212737   5.644   6.463   2.855  0.0736  0.1916 -0.2724
 1858ntf    nn312738   5.570   6.330   2.896 -0.5096  0.7445  0.4964
 1858ntf    sn212739   5.416   6.304   2.901 -0.4015 -0.0229  0.0277
 1858ntf    cn112740   5.399   6.324   3.081 -0.2020  0.1377  0.0292
 1858ntf    fn412741   5.736   6.549   2.638  0.7351 -0.0671  0.6331
 1858ntf    fn412742   5.705   6.340   2.627  0.4369 -0.5754  0.7115
 1858ntf    fn412743   5.537   6.466   2.612  0.0837 -0.4275  0.4063
 1858ntf    on512744   5.784   6.448   2.887 -0.1317 -0.4286  0.3826
 1858ntf    on512745   5.584   6.592   2.877 -0.1617  0.0490 -0.0742
 1858ntf    on512746   5.390   6.166   2.870 -0.2035 -0.0725  0.0821
 1858ntf    on512747   5.341   6.413   2.842  0.8089  0.7546 -0.1210
 1858ntf    fn412748   5.476   6.422   3.124 -0.2277  0.1062  0.1462
 1858ntf    fn412749   5.276   6.352   3.120 -0.1018  0.4938  0.0910
 1858ntf    fn412750   5.437   6.217   3.149  0.5063  0.1312 -0.3640
 1859ntf    cn112751   0.455   4.112   3.069  0.1913  0.1648 -0.0454
 1859ntf    sn212752   0.589   4.228   3.110  0.0801  0.1990  0.2287
 1859ntf    nn312753   0.686   4.132   3.188 -0.1351 -0.1072  0.1221
 1859ntf    sn212754   0.806   4.172   3.281 -0.0149  0.1010 -0.1180
 1859ntf    cn112755   0.729   4.160   3.446 -0.0717 -0.0701 -0.1567
 1859ntf    fn412756   0.493   4.036   2.968  0.0261 -0.0815  0.0764
 1859ntf    fn412757   0.411   4.023   3.157 -0.6578  0.6930  0.0754
 1859ntf    fn412758   0.349   4.180   3.028  0.1831  0.2698  0.1454
 1859ntf    on512759   0.642   4.279   2.986  0.4310  0.0400  0.3105
 1859ntf    on512760   0.526   4.316   3.205 -0.1089 -0.0229  0.3113
 1859ntf    on512761   0.841   4.311   3.271 -0.0524  0.1496  0.3664
 1859ntf    on512762   0.914   4.076   3.282  0.7977  1.0055  0.2004
 1859ntf    fn412763   0.681   4.039   3.469  0.6386 -0.2458  0.4417
 1859ntf    fn412764   0.809   4.186   3.548  0.2040  0.6420 -0.5476
 1859ntf    fn412765   0.626   4.240   3.466  0.1630  0.1466  0.1822
 1860ntf    cn112766   6.508   6.423   0.449  0.1933 -0.2580  0.1100
 1860ntf    sn212767   6.339   6.366   0.481  0.0420  0.0462 -0.1428
 1860ntf    nn312768   6.352   6.239   0.390  0.0264  0.0240 -0.1141
 1860ntf    sn212769   6.229   6.155   0.342 -0.0801 -0.0273  0.2489
 1860ntf    cn112770   6.265   6.009   0.445 -0.4025  0.1978  0.6863
 1860ntf    fn412771   6.535   6.524   0.530  0.0116  0.1566 -0.3404
 1860ntf    fn412772   6.605   6.333   0.459  0.4434  0.0037  0.0763
 1860ntf    fn412773   6.517   6.469   0.325 -0.0275  0.0471  0.2072
 1860ntf    on512774   6.340   6.341   0.623 -0.0391 -0.1219 -0.1710
 1860ntf    on512775   6.257   6.473   0.430 -0.7223 -0.2968  0.3461
 1860ntf    on512776   6.242   6.107   0.207  0.2102 -0.1622  0.3245
 1860ntf    on512777   6.097   6.191   0.389 -0.1052 -0.0669  0.2086
 1860ntf    fn412778   6.361   5.935   0.391 -0.6521  0.1329  0.3262
 1860ntf    fn412779   6.307   6.039   0.566  0.4467  0.2909  0.3774
 1860ntf    fn412780   6.161   5.928   0.454  0.0025 -0.4000  0.1499
 1861ntf    cn112781   2.860   3.501   1.752  0.1266  0.2076 -0.4650
 1861ntf    sn212782   2.789   3.409   1.612 -0.0274  0.1605 -0.3574
 1861ntf    nn312783   2.683   3.513   1.561 -0.4501  0.0775  0.3346
 1861ntf    sn212784   2.646   3.557   1.415 -0.2601 -0.2759  0.1771
 1861ntf    cn112785   2.481   3.484   1.396 -0.3472 -0.0436  0.0374
 1861ntf    fn412786   2.767   3.551   1.832  0.5410 -0.2479  0.3188
 1861ntf    fn412787   2.948   3.437   1.828  0.1258  0.1233 -0.5347
 1861ntf    fn412788   2.930   3.603   1.706  0.2136  0.6043  0.5041
 1861ntf    on512789   2.904   3.394   1.525  0.0255 -0.2581 -0.2161
 1861ntf    on512790   2.726   3.296   1.674  0.5304 -0.0361 -0.1395
 1861ntf    on512791   2.717   3.498   1.304 -0.1541  0.5323 -0.1906
 1861ntf    on512792   2.620   3.698   1.400  0.5684 -0.0749  0.5622
 1861ntf    fn412793   2.489   3.355   1.424 -0.5965 -0.0873 -0.0848
 1861ntf    fn412794   2.401   3.536   1.487 -0.0075  0.3931  0.0893
 1861ntf    fn412795   2.423   3.510   1.280 -0.3265 -0.3060 -0.0337
 1862ntf    cn112796   2.411   0.459   2.194  0.0399  0.0107  0.1336
 1862ntf    sn212797   2.471   0.298   2.255 -0.1427 -0.0788  0.0790
 1862ntf    nn312798   2.588   0.264   2.155  0.0970  0.3193  0.2213
 1862ntf    sn212799   2.742   0.289   2.169  0.1278  0.0085  0.4443
 1862ntf    cn112800   2.780   0.267   1.993  0.4987  0.4123  0.4728
 1862ntf    fn412801   2.361   0.443   2.072 -0.0301 -0.5350  0.2290
 1862ntf    fn412802   2.316   0.513   2.269 -0.1224  0.0716 -0.1123
 1862ntf    fn412803   2.512   0.544   2.186  0.1746 -0.1668 -0.0687
 1862ntf    on512804   2.507   0.326   2.391  0.0323  0.6552 -0.1144
 1862ntf    on512805   2.353   0.218   2.233 -0.0786 -0.1961  0.1597
 1862ntf    on512806   2.812   0.178   2.229  0.3539  0.0234  0.2076
 1862ntf    on512807   2.788   0.425   2.188  0.9554 -0.1097 -0.6659
 1862ntf    fn412808   2.706   0.169   1.944  0.4227  0.7436 -0.0855
 1862ntf    fn412809   2.746   0.374   1.923 -0.1520 -0.0821  0.0188
 1862ntf    fn412810   2.908   0.245   1.967  0.3871  0.2609  0.0428
 1863ntf    cn112811   2.927   0.006   0.394  0.3084 -0.0994  0.2387
 1863ntf    sn212812   2.899   0.134   0.268  0.1735 -0.2652  0.0990
 1863ntf    nn312813   2.744   0.157   0.279  0.2150  0.1396 -0.1269
 1863ntf    sn212814   2.673   0.296   0.299 -0.3533 -0.1331 -0.2312
 1863ntf    cn112815   2.729   0.381   0.148 -0.0194  0.1438  0.0490
 1863ntf    fn412816   3.055  -0.024   0.403  0.1580 -0.6071  0.7087
 1863ntf    fn412817   2.888   0.040   0.516 -0.6195  0.0482 -0.0897
 1863ntf    fn412818   2.863  -0.108   0.373  0.0555  0.0376  0.2591
 1863ntf    on512819   2.983   0.243   0.312 -0.5175  0.0334  0.7188
 1863ntf    on512820   2.936   0.062   0.149  0.7784 -0.1152  0.1922
 1863ntf    on512821   2.724   0.371   0.410 -0.4954 -0.4903  0.0798
 1863ntf    on512822   2.529   0.282   0.297 -0.3461 -0.2687  0.1947
 1863ntf    fn412823   2.853   0.427   0.156 -0.0670  0.2414  0.2513
 1863ntf    fn412824   2.723   0.297   0.047  0.2961  0.5969 -0.3508
 1863ntf    fn412825   2.650   0.486   0.128 -0.7227 -0.3019  0.4286
 1864ntf    cn112826   6.602   6.758   2.398  0.1077  0.1568  0.4077
 1864ntf    sn212827   6.755   6.820   2.475  0.4905 -0.1126 -0.1355
 1864ntf    nn312828   6.808   6.694   2.553 -0.1886 -0.0510  0.4370
 1864ntf    sn212829   6.941   6.614   2.528 -0.3037 -0.1739  0.2148
 1864ntf    cn112830   6.891   6.496   2.399 -0.3635  0.2096 -0.1121
 1864ntf    fn412831   6.632   6.658   2.317 -0.3608 -0.0041  0.4265
 1864ntf    fn412832   6.514   6.722   2.491  0.0074  0.2259  0.3400
 1864ntf    fn412833   6.532   6.841   2.323 -0.1290 -0.4815 -0.0886
 1864ntf    on512834   6.826   6.866   2.358  0.5350 -0.0053 -0.0659
 1864ntf    on512835   6.700   6.912   2.571 -0.1470 -0.3045 -0.3079
 1864ntf    on512836   6.976   6.543   2.649  0.6913  0.1371  0.1152
 1864ntf    on512837   7.051   6.683   2.466  0.1250 -0.6229  0.4701
 1864ntf    fn412838   6.791   6.415   2.426  0.1869 -0.1930  0.7693
 1864ntf    fn412839   6.867   6.556   2.283  0.1242  0.0058 -0.3227
 1864ntf    fn412840   6.987   6.410   2.370 -0.1986  0.0813  0.8005
 1865ntf    cn112841   3.220   4.716   1.281 -0.0903 -0.0740 -0.2036
 1865ntf    sn212842   3.389   4.783   1.286 -0.0977 -0.0992  0.3709
 1865ntf    nn312843   3.385   4.939   1.276 -0.1211 -0.1481 -0.4199
 1865ntf    sn212844   3.366   5.041   1.394 -0.0595 -0.4396 -0.1563
 1865ntf    cn112845   3.541   5.072   1.431 -0.1375 -0.1359 -0.0330
 1865ntf    fn412846   3.146   4.754   1.384 -0.2351  0.1503 -0.3871
 1865ntf    fn412847   3.157   4.742   1.167 -0.2138  0.2678 -0.0596
 1865ntf    fn412848   3.222   4.584   1.286 -0.2129 -0.0943 -0.6094
 1865ntf    on512849   3.457   4.725   1.400  0.3252 -0.6094 -0.1392
 1865ntf    on512850   3.428   4.733   1.157 -0.4626 -0.3897  0.3726
 1865ntf    on512851   3.309   4.995   1.518 -0.1081 -0.0575 -0.0359
 1865ntf    on512852   3.322   5.172   1.351  0.2970 -0.3060 -0.1164
 1865ntf    fn412853   3.554   5.171   1.517  0.3552 -0.5199  0.3448
 1865ntf    fn412854   3.595   4.964   1.486  0.3009  0.1136  0.0299
 1865ntf    fn412855   3.618   5.100   1.327  0.1532 -0.2879  0.1399
 1866ntf    cn112856   1.771   4.313   1.121 -0.0532 -0.1931 -0.5486
 1866ntf    sn212857   1.599   4.338   1.066 -0.2733 -0.1895  0.1311
 1866ntf    nn312858   1.605   4.308   0.912  0.0617  0.1473  0.0763
 1866ntf    sn212859   1.611   4.412   0.795 -0.3508  0.4632  0.3345
 1866ntf    cn112860   1.434   4.429   0.756 -0.3471 -0.2141  0.0058
 1866ntf    fn412861   1.814   4.188   1.118  0.5022 -0.0227 -0.0157
 1866ntf    fn412862   1.865   4.371   1.048  0.2729 -0.1579 -0.1067
 1866ntf    fn412863   1.782   4.351   1.248  0.2474  0.0503 -0.6463
 1866ntf    on512864   1.541   4.225   1.134 -0.4234 -0.1520  0.0644
 1866ntf    on512865   1.562   4.472   1.103  0.8075  0.1467  0.0302
 1866ntf    on512866   1.661   4.355   0.672  0.1756  0.5563  0.5061
 1866ntf    on512867   1.651   4.545   0.831 -0.0716  0.2761  0.7213
 1866ntf    fn412868   1.381   4.310   0.731 -1.0181  0.0430  0.1749
 1866ntf    fn412869   1.365   4.476   0.859 -0.2867  0.1240 -0.1061
 1866ntf    fn412870   1.403   4.506   0.653  0.0311 -0.0671  0.0009
 1867ntf    cn112871   5.100   5.453   1.626 -0.0762  0.3253  0.1665
 1867ntf    sn212872   5.068   5.289   1.697  0.0094  0.2059 -0.0710
 1867ntf    nn312873   4.921   5.313   1.748  0.0933 -0.0223  0.2841
 1867ntf    sn212874   4.859   5.252   1.878 -0.2671 -0.0125  0.1165
 1867ntf    cn112875   4.837   5.405   1.973 -0.4865 -0.1024  0.2115
 1867ntf    fn412876   5.019   5.478   1.525  0.0613 -0.1678 -0.0687
 1867ntf    fn412877   5.083   5.535   1.729 -0.2386 -0.0908  0.4733
 1867ntf    fn412878   5.225   5.468   1.584 -0.0618 -0.2902 -0.0172
 1867ntf    on512879   5.076   5.213   1.575 -0.0210 -0.4313  0.3191
 1867ntf    on512880   5.180   5.267   1.785  0.1152  0.6553 -0.0937
 1867ntf    on512881   4.944   5.168   1.958  0.3043 -0.3250 -0.7993
 1867ntf    on512882   4.721   5.215   1.856 -0.3556  0.6707 -0.5156
 1867ntf    fn412883   4.955   5.459   1.999 -0.1870 -0.6208 -0.0598
 1867ntf    fn412884   4.776   5.495   1.897 -0.0934  0.0747  0.1045
 1867ntf    fn412885   4.769   5.404   2.086 -0.0096  0.1133  0.5035
 1868ntf    cn112886   5.045   0.256   6.581 -0.3401  0.1913 -0.1729
 1868ntf    sn212887   5.160   0.265   6.440 -0.0084  0.3527  0.1032
 1868ntf    nn312888   5.254   0.378   6.494  0.0376  0.1329  0.4837
 1868ntf    sn212889   5.248   0.534   6.477 -0.2036  0.0856  0.1137
 1868ntf    cn112890   5.393   0.561   6.370 -0.2209 -0.0264  0.0616
 1868ntf    fn412891   5.105   0.246   6.698  0.1661  0.2670 -0.4212
 1868ntf    fn412892   4.967   0.362   6.587 -0.0884  0.4111 -0.6792
 1868ntf    fn412893   4.962   0.154   6.575 -0.2119  0.0702  0.1144
 1868ntf    on512894   5.215   0.132   6.438 -0.3656  0.1969  0.4675
 1868ntf    on512895   5.078   0.298   6.325  0.3295 -0.0014 -0.2410
 1868ntf    on512896   5.284   0.604   6.598 -0.1271 -0.4481  0.4012
 1868ntf    on512897   5.140   0.584   6.396 -0.1344  0.0967  0.0285
 1868ntf    fn412898   5.506   0.558   6.438 -0.2070  0.0060  0.0401
 1868ntf    fn412899   5.410   0.464   6.282  0.4215 -0.2779  0.4539
 1868ntf    fn412900   5.402   0.679   6.312 -0.1743 -0.1944 -0.2739
 1869ntf    cn112901   6.275   6.142   3.458 -0.0337  0.1520  0.0035
 1869ntf    sn212902   6.195   6.305   3.469  0.0779  0.1992  0.1031
 1869ntf    nn312903   6.137   6.345   3.329 -0.0859 -0.3619  0.0092
 1869ntf    sn212904   5.993   6.313   3.277 -0.1150 -0.3032  0.0535
 1869ntf    cn112905   5.916   6.461   3.349 -0.0200 -0.3369  0.2225
 1869ntf    fn412906   6.211   6.047   3.393 -0.0956 -0.0790  0.3939
 1869ntf    fn412907   6.388   6.154   3.391 -0.4266 -0.3723 -0.7593
 1869ntf    fn412908   6.307   6.093   3.577  0.2331  0.4814  0.0691
 1869ntf    on512909   6.093   6.282   3.568 -0.1163  0.0099 -0.1406
 1869ntf    on512910   6.311   6.385   3.501  0.2988 -0.0876  0.0149
 1869ntf    on512911   5.921   6.201   3.331 -0.4431 -0.3412 -0.4491
 1869ntf    on512912   5.970   6.334   3.136  0.2444 -0.2908 -0.0030
 1869ntf    fn412913   5.787   6.472   3.323  0.0502  0.6612  0.2228
 1869ntf    fn412914   5.925   6.460   3.481 -0.0515 -0.1488  0.2272
 1869ntf    fn412915   5.969   6.576   3.310 -0.2436 -0.3085  0.0014
 1870ntf    cn112916   2.044   1.442   1.729  0.2543  0.3763 -0.0806
 1870ntf    sn212917   2.220   1.464   1.772  0.3263 -0.2400 -0.0585
 1870ntf    nn312918   2.252   1.555   1.648 -0.0327  0.3625  0.2857
 1870ntf    sn212919   2.263   1.710   1.628 -0.1483  0.3092 -0.1949
 1870ntf    cn112920   2.232   1.730   1.450  0.0903  0.3280 -0.2341
 1870ntf    fn412921   1.978   1.555   1.714 -0.3166  0.0157 -0.3063
 1870ntf    fn412922   2.038   1.380   1.612 -0.1391 -0.5923  0.4478
 1870ntf    fn412923   1.978   1.366   1.814  0.1664  0.3899 -0.1365
 1870ntf    on512924   2.210   1.538   1.895  0.0712 -0.7187  0.2128
 1870ntf    on512925   2.263   1.326   1.768 -0.1338 -0.3857 -0.1135
 1870ntf    on512926   2.395   1.760   1.654  0.0099  0.1412 -0.6591
 1870ntf    on512927   2.156   1.788   1.686 -0.1299  0.3816 -0.2590
 1870ntf    fn412928   2.215   1.857   1.416  0.0531  0.4388  0.1887
 1870ntf    fn412929   2.343   1.688   1.391  0.1788  0.8310 -0.4321
 1870ntf    fn412930   2.130   1.659   1.406  0.3395  0.0758 -0.4058
 1871ntf    cn112931   4.547   5.072   6.724  0.2405 -0.3475 -0.0990
 1871ntf    sn212932   4.502   4.949   6.598  0.2105 -0.1640 -0.2675
 1871ntf    nn312933   4.355   4.989   6.562  0.1558 -0.3601 -0.2631
 1871ntf    sn212934   4.215   4.922   6.584 -0.0315  0.2038  0.2903
 1871ntf    cn112935   4.166   4.873   6.416 -0.3554 -0.0634  0.4609
 1871ntf    fn412936   4.540   5.199   6.690 -0.0817 -0.3497 -0.0356
 1871ntf    fn412937   4.472   5.055   6.832 -0.1419 -0.2829 -0.3541
 1871ntf    fn412938   4.671   5.054   6.769  0.1819  0.2616  0.3151
 1871ntf    on512939   4.595   4.982   6.493 -0.0523  0.4040 -0.3213
 1871ntf    on512940   4.523   4.818   6.656  0.4281 -0.0030  0.0212
 1871ntf    on512941   4.116   5.021   6.616 -0.2876  0.2293 -0.5518
 1871ntf    on512942   4.208   4.799   6.660  0.2077  0.3409  0.5365
 1871ntf    fn412943   4.145   4.981   6.343 -1.0494 -0.4853  0.0206
 1871ntf    fn412944   4.262   4.800   6.361 -0.3953  0.0672  0.2195
 1871ntf    fn412945   4.056   4.800   6.406 -0.5412  0.2850 -0.0434
 1872ntf    cn112946   5.047   3.593   2.626 -0.1839 -0.2439 -0.0803
 1872ntf    sn212947   5.151   3.481   2.724  0.0317 -0.2416 -0.3031
 1872ntf    nn312948   5.154   3.567   2.856 -0.1940 -0.5049 -0.1257
 1872ntf    sn212949   5.264   3.565   2.968 -0.3809  0.1678  0.0723
 1872ntf    cn112950   5.159   3.525   3.112 -0.2902 -0.4758 -0.0367
 1872ntf    fn412951   5.018   3.558   2.501 -0.0243 -0.0107 -0.1835
 1872ntf    fn412952   4.930   3.602   2.686 -0.2295 -0.2177 -0.1736
 1872ntf    fn412953   5.091   3.717   2.615  0.3753 -0.4399 -0.0808
 1872ntf    on512954   5.074   3.359   2.733 -0.2773 -0.0166  0.1517
 1872ntf    on512955   5.275   3.484   2.650  0.1708 -0.0109 -0.0628
 1872ntf    on512956   5.307   3.701   2.989  0.3139  0.0177 -0.3754
 1872ntf    on512957   5.362   3.460   2.962 -0.2884  0.2210  0.5858
 1872ntf    fn412958   5.226   3.503   3.225  0.4383 -0.1679 -0.3986
 1872ntf    fn412959   5.078   3.628   3.133  0.1853 -0.1776  0.3827
 1872ntf    fn412960   5.079   3.423   3.089 -0.1729 -0.5690 -0.0332
 1873ntf    cn112961   2.091   4.806   4.665  0.3888  0.0241 -0.0309
 1873ntf    sn212962   2.242   4.887   4.604  0.5446 -0.1028  0.1845
 1873ntf    nn312963   2.359   4.806   4.670 -0.2089 -0.3456  1.2465
 1873ntf    sn212964   2.431   4.673   4.630 -0.2339  0.0449 -0.1309
 1873ntf    cn112965   2.572   4.741   4.536 -0.0544  0.0975  0.1742
 1873ntf    fn412966   2.032   4.875   4.761 -0.3922 -0.1119 -0.4056
 1873ntf    fn412967   2.007   4.794   4.563  0.3990  0.0029 -0.0364
 1873ntf    fn412968   2.099   4.685   4.718  0.5070  0.0088 -0.0829
 1873ntf    on512969   2.223   4.870   4.462  0.0417  0.6085  0.1622
 1873ntf    on512970   2.238   5.022   4.654  0.2297 -0.0581  0.0395
 1873ntf    on512971   2.354   4.582   4.549 -0.2676 -0.0468  0.0041
 1873ntf    on512972   2.499   4.611   4.742 -0.0618  0.1206 -0.1922
 1873ntf    fn412973   2.642   4.638   4.491 -0.3569  0.0336 -0.1570
 1873ntf    fn412974   2.526   4.807   4.431  0.2555 -0.6609 -0.4494
 1873ntf    fn412975   2.655   4.820   4.601  0.0764  0.2911 -0.2243
 1874ntf    cn112976   4.577   1.345   2.883 -0.0726 -0.2264 -0.0635
 1874ntf    sn212977   4.710   1.458   2.833 -0.1035 -0.1062  0.1270
 1874ntf    nn312978   4.684   1.569   2.942  0.3458  0.3983 -0.2729
 1874ntf    sn212979   4.738   1.578   3.089 -0.1437 -0.3591 -0.0419
 1874ntf    cn112980   4.581   1.626   3.167 -0.0028  0.2014 -0.1046
 1874ntf    fn412981   4.581   1.243   2.800 -0.3059  0.4082 -0.8758
 1874ntf    fn412982   4.586   1.294   3.004 -0.5440 -0.0719  0.0390
 1874ntf    fn412983   4.460   1.407   2.885  0.0879  0.1310 -1.0259
 1874ntf    on512984   4.834   1.384   2.838 -0.2108 -0.3246 -0.4140
 1874ntf    on512985   4.658   1.506   2.708 -0.0226 -0.6110 -0.1036
 1874ntf    on512986   4.823   1.692   3.109 -0.1616 -0.2017 -0.8254
 1874ntf    on512987   4.782   1.456   3.153  0.1165  0.1611  0.7765
 1874ntf    fn412988   4.540   1.750   3.142 -0.1520  0.2418  0.3473
 1874ntf    fn412989   4.483   1.547   3.126  0.0700 -0.3048  0.6745
 1874ntf    fn412990   4.587   1.618   3.299  0.6025 -0.3155 -0.1588
 1875ntf    cn112991   2.264   6.173   3.264 -0.3617  0.3396  0.0412
 1875ntf    sn212992   2.175   6.253   3.401 -0.1367  0.2213  0.2552
 1875ntf    nn312993   2.228   6.400   3.386  0.0048  0.1675  0.2209
 1875ntf    sn212994   2.151   6.527   3.334 -0.1239  0.0600  0.1483
 1875ntf    cn112995   2.038   6.552   3.474 -0.5237 -0.3805 -0.0923
 1875ntf    fn412996   2.212   6.061   3.217  0.2524 -0.0378  0.2625
 1875ntf    fn412997   2.284   6.253   3.160 -0.3373  0.0291 -0.1948
 1875ntf    fn412998   2.385   6.141   3.305 -0.2817 -0.0749 -0.5111
 1875ntf    on512999   2.036   6.234   3.371 -0.0206  0.3296 -0.3579
 1875ntf    on513000   2.229   6.180   3.514  0.3165 -0.0011 -0.1015
 1875ntf    on513001   2.073   6.493   3.217  0.5197 -0.6282 -0.0872
 1875ntf    on513002   2.235   6.644   3.328 -0.1702  0.0754 -0.2621
 1875ntf    fn413003   2.101   6.582   3.586 -0.3274 -0.1785 -0.2576
 1875ntf    fn413004   1.953   6.651   3.454 -0.1671 -0.0128  0.2078
 1875ntf    fn413005   1.958   6.449   3.499 -0.4444 -0.3209  0.4191
 1876ntf    cn113006   3.672   4.658   4.693  0.0168  0.2879 -0.1183
 1876ntf    sn213007   3.787   4.753   4.797 -0.1499  0.2151  0.1337
 1876ntf    nn313008   3.782   4.675   4.933  0.0779 -0.2493 -0.1210
 1876ntf    sn213009   3.771   4.733   5.079 -0.3293 -0.2655 -0.1421
 1876ntf    cn113010   3.595   4.775   5.091 -0.4429 -0.6437 -0.4676
 1876ntf    fn413011   3.554   4.650   4.753  0.4701  0.0247  0.7596
 1876ntf    fn413012   3.657   4.705   4.570  0.0033 -0.0292 -0.2392
 1876ntf    fn413013   3.707   4.532   4.673 -0.1013  0.2596 -0.1471
 1876ntf    on513014   3.908   4.734   4.721 -0.1477 -0.2227  0.2428
 1876ntf    on513015   3.728   4.884   4.789  0.7257  0.6334  0.4140
 1876ntf    on513016   3.833   4.862   5.099 -0.0352 -0.4032 -0.1606
 1876ntf    on513017   3.792   4.641   5.187 -0.0280  0.0561  0.0757
 1876ntf    fn413018   3.562   4.833   5.205  0.1033 -0.1006 -0.5843
 1876ntf    fn413019   3.551   4.861   5.001 -0.2883  0.0069  0.0679
 1876ntf    fn413020   3.521   4.665   5.089 -0.3368 -0.7395  0.3231
 1877ntf    cn113021   5.235   6.285   3.902 -0.0785 -0.4228  0.1753
 1877ntf    sn213022   5.251   6.172   3.761 -0.1293 -0.1728 -0.0305
 1877ntf    nn313023   5.105   6.162   3.704  0.0630 -0.1742 -0.5329
 1877ntf    sn213024   4.996   6.059   3.748  0.0946  0.1111  0.2290
 1877ntf    cn113025   5.029   5.922   3.634 -0.0388  0.3036 -0.0426
 1877ntf    fn413026   5.342   6.276   3.979  0.0659 -0.1515  0.0099
 1877ntf    fn413027   5.220   6.410   3.862  0.4492 -0.3629  0.1502
 1877ntf    fn413028   5.130   6.258   3.978 -0.7327  0.0723 -0.5370
 1877ntf    on513029   5.333   6.250   3.671  0.1941 -0.8207 -0.3132
 1877ntf    on513030   5.310   6.050   3.809  0.4519 -0.0027 -0.2969
 1877ntf    on513031   4.860   6.097   3.718 -0.0316 -0.2919  0.2815
 1877ntf    on513032   5.014   6.004   3.880 -0.1779 -0.5137  0.0102
 1877ntf    fn413033   4.926   5.839   3.637  0.2413 -0.0556 -0.2898
 1877ntf    fn413034   5.037   5.969   3.510  0.1687  0.0814 -0.1148
 1877ntf    fn413035   5.137   5.852   3.664 -0.2895 -0.1989 -0.2978
 1878ntf    cn113036   1.818   5.429   1.281  0.2041  0.1049 -0.3811
 1878ntf    sn213037   1.917   5.285   1.331  0.0105  0.0972 -0.0183
 1878ntf    nn313038   1.979   5.350   1.459  0.2287 -0.0822 -0.0312
 1878ntf    sn213039   2.124   5.402   1.491  0.1362 -0.0325  0.3242
 1878ntf    cn113040   2.093   5.526   1.619  0.0483  0.2787  0.0023
 1878ntf    fn413041   1.741   5.467   1.381  0.0281 -0.1919 -0.4045
 1878ntf    fn413042   1.887   5.537   1.248  0.3057  0.1438 -0.0427
 1878ntf    fn413043   1.742   5.398   1.177  0.2598 -0.2813 -0.3076
 1878ntf    on513044   1.820   5.182   1.360  0.3201 -0.2026 -0.0401
 1878ntf    on513045   2.009   5.259   1.223 -0.0726 -0.8053  0.1265
 1878ntf    on513046   2.189   5.483   1.391 -0.1463 -0.1277  0.0613
 1878ntf    on513047   2.204   5.304   1.561  0.3038 -0.0640  0.0899
 1878ntf    fn413048   2.202   5.587   1.662  0.2747  0.1076 -0.3215
 1878ntf    fn413049   2.013   5.623   1.576  0.2377  0.1432 -0.6591
 1878ntf    fn413050   2.034   5.477   1.727 -0.2598  0.1786 -0.2103
 1879ntf    cn113051   2.575   4.337   5.790  0.0806  0.1821 -0.4940
 1879ntf    sn213052   2.401   4.382   5.817  0.1579  0.1463  0.0830
 1879ntf    nn313053   2.363   4.287   5.936 -0.0343 -0.0731 -0.1525
 1879ntf    sn213054   2.221   4.248   5.989 -0.0372  0.2066  0.0490
 1879ntf    cn113055   2.208   4.088   5.903 -0.3344  0.1787  0.1450
 1879ntf    fn413056   2.636   4.348   5.907  0.2750 -0.6218 -0.5163
 1879ntf    fn413057   2.601   4.213   5.753 -0.1815 -0.1766  0.4991
 1879ntf    fn413058   2.638   4.418   5.707  0.4778  0.7465  0.3429
 1879ntf    on513059   2.404   4.520   5.858 -0.0728  0.2162 -0.1312
 1879ntf    on513060   2.337   4.343   5.694 -0.0936  0.2548  0.1778
 1879ntf    on513061   2.107   4.316   5.931  0.1427  0.0589 -0.4868
 1879ntf    on513062   2.207   4.201   6.124  0.0448  0.4967  0.1587
 1879ntf    fn413063   2.239   4.088   5.775 -0.6467 -0.4683  0.0655
 1879ntf    fn413064   2.285   3.995   5.957 -0.0512  0.3853  0.0968
 1879ntf    fn413065   2.089   4.030   5.905 -0.0766 -0.3509  0.4867
 1880ntf    cn113066   1.993   2.694   3.045 -0.4148  0.4226 -0.1456
 1880ntf    sn213067   2.055   2.863   3.064 -0.0401  0.2503  0.1925
 1880ntf    nn313068   1.961   2.928   3.172  0.4164  0.5622  0.4083
 1880ntf    sn213069   1.828   3.011   3.158  0.0427 -0.0762  0.0977
 1880ntf    cn113070   1.830   3.099   3.317 -0.7242 -0.6738  0.4408
 1880ntf    fn413071   1.954   2.638   3.159  0.5518 -0.1600 -0.0925
 1880ntf    fn413072   1.877   2.694   2.980 -0.3832  0.4490 -0.2017
 1880ntf    fn413073   2.072   2.610   2.980 -0.4575  0.1823  0.1077
 1880ntf    on513074   2.188   2.850   3.118  0.0759 -0.0621 -0.1635
 1880ntf    on513075   2.046   2.927   2.935  0.4188  0.1038  0.0876
 1880ntf    on513076   1.700   2.947   3.171 -0.0306 -0.0433 -0.4283
 1880ntf    on513077   1.840   3.114   3.057 -0.2785 -0.1350  0.0007
 1880ntf    fn413078   1.727   3.180   3.334 -0.1811  0.1343 -0.0815
 1880ntf    fn413079   1.837   3.016   3.420  0.0966 -0.7802  0.3082
 1880ntf    fn413080   1.936   3.178   3.320 -0.5028 -0.9376 -0.2197
 1881ntf    cn113081   5.853   2.607   1.370  0.0745  0.0323  0.1378
 1881ntf    sn213082   5.901   2.713   1.230  0.1551 -0.0602  0.0952
 1881ntf    nn313083   5.775   2.804   1.216  0.1644 -0.0297  0.2105
 1881ntf    sn213084   5.648   2.815   1.123  0.1306  0.1087  0.2716
 1881ntf    cn113085   5.687   2.953   1.012  0.0510 -0.1051 -0.0233
 1881ntf    fn413086   5.854   2.674   1.483 -0.2078  0.3461 -0.0425
 1881ntf    fn413087   5.729   2.567   1.347  0.1077  0.1105 -0.1891
 1881ntf    fn413088   5.941   2.509   1.384  0.4398  0.4142  0.5083
 1881ntf    on513089   6.010   2.791   1.283 -0.1248  0.1269  0.3950
 1881ntf    on513090   5.931   2.626   1.119  0.0407 -0.1625  0.1442
 1881ntf    on513091   5.529   2.864   1.187  0.0080 -0.2713  0.3366
 1881ntf    on513092   5.620   2.703   1.037 -0.3356  0.4749 -0.0567
 1881ntf    fn413093   5.618   2.950   0.899  0.2982 -0.2927 -0.1700
 1881ntf    fn413094   5.664   3.070   1.070  0.2119  0.0051 -0.1799
 1881ntf    fn413095   5.815   2.954   0.977  0.0882  0.3051  0.1177
 1882ntf    cn113096   3.553   4.278   2.504  0.1835  0.1008 -0.1386
 1882ntf    sn213097   3.726   4.322   2.468  0.2090  0.2535  0.1685
 1882ntf    nn313098   3.698   4.415   2.344  0.4569  0.0791 -0.0187
 1882ntf    sn213099   3.762   4.399   2.202  0.1347  0.2576 -0.1840
 1882ntf    cn113100   3.651   4.286   2.112  0.0846  0.0303  0.1601
 1882ntf    fn413101   3.539   4.191   2.602  0.4348  0.4919  0.2489
 1882ntf    fn413102   3.481   4.382   2.543  0.0713 -0.0602  0.0857
 1882ntf    fn413103   3.485   4.233   2.400  0.3196 -0.6797  0.1015
 1882ntf    on513104   3.768   4.397   2.584  0.1662 -0.2136  0.4904
 1882ntf    on513105   3.788   4.195   2.442 -0.1257 -0.0043  0.6079
 1882ntf    on513106   3.894   4.345   2.184  0.0092 -0.1995  0.2548
 1882ntf    on513107   3.725   4.512   2.120 -0.2994 -0.0588 -0.4363
 1882ntf    fn413108   3.525   4.300   2.149 -0.1033 -0.6413 -0.2103
 1882ntf    fn413109   3.650   4.316   1.983  0.1439 -0.2170  0.1019
 1882ntf    fn413110   3.683   4.160   2.135  0.0445 -0.0710 -0.3194
 1883ntf    cn113111   3.202   2.482   4.380 -0.2366 -0.2064 -0.2367
 1883ntf    sn213112   3.073   2.607   4.406 -0.0252 -0.0985  0.3049
 1883ntf    nn313113   2.954   2.505   4.413 -0.1207  0.0066  0.2186
 1883ntf    sn213114   2.875   2.459   4.541  0.0217  0.1311  0.3509
 1883ntf    cn113115   2.747   2.588   4.546  0.1801  0.3165 -0.2852
 1883ntf    fn413116   3.204   2.396   4.481 -0.0402 -0.1572 -0.1976
 1883ntf    fn413117   3.183   2.413   4.269  0.1845 -0.1296 -0.3560
 1883ntf    fn413118   3.324   2.531   4.362 -0.1622 -0.0913  0.5441
 1883ntf    on513119   3.112   2.682   4.523  0.2349  0.0477  0.1249
 1883ntf    on513120   3.073   2.677   4.280  0.3947 -0.8280 -0.1068
 1883ntf    on513121   2.939   2.471   4.670 -0.0912 -0.7208  0.4892
 1883ntf    on513122   2.804   2.335   4.524  0.1046  0.2068 -0.6133
 1883ntf    fn413123   2.696   2.605   4.667  0.0235 -0.1854 -0.2744
 1883ntf    fn413124   2.798   2.703   4.506  0.1933  0.3655 -0.1274
 1883ntf    fn413125   2.646   2.574   4.461  0.1358  0.3133 -0.2323
 1884ntf    cn113126   0.815   2.832   6.289 -0.0360 -0.1895  0.0345
 1884ntf    sn213127   0.790   2.717   6.149  0.2167 -0.1293 -0.0613
 1884ntf    nn313128   0.923   2.748   6.071  0.3804  0.3037  0.3798
 1884ntf    sn213129   0.962   2.702   5.926  0.0795 -0.3114  0.4913
 1884ntf    cn113130   0.901   2.837   5.821 -0.0874 -0.9768 -0.2786
 1884ntf    fn413131   0.908   2.798   6.376 -0.0770 -0.7624 -0.1368
 1884ntf    fn413132   0.850   2.950   6.242  0.1607 -0.1962  0.1612
 1884ntf    fn413133   0.703   2.842   6.358  0.2208 -0.3794  0.4780
 1884ntf    on513134   0.780   2.590   6.216 -0.0011 -0.1719 -0.1762
 1884ntf    on513135   0.677   2.777   6.084  0.2842 -0.0559 -0.1110
 1884ntf    on513136   0.893   2.589   5.869 -0.2372  0.0070  0.2406
 1884ntf    on513137   1.104   2.711   5.904 -0.0111  0.3364  0.1740
 1884ntf    fn413138   0.769   2.849   5.819 -0.0432 -0.4331 -0.0355
 1884ntf    fn413139   0.954   2.952   5.859  0.3218 -1.3731  0.3696
 1884ntf    fn413140   0.937   2.819   5.695  0.3875 -0.7561 -0.1784
 1885ntf    cn113141   0.765   6.578   1.994  0.0885 -0.2086 -0.4861
 1885ntf    sn213142   0.855   6.709   2.082 -0.5096 -0.1644  0.0731
 1885ntf    nn313143   0.823   6.832   1.989 -0.1075 -0.1581 -0.0591
 1885ntf    sn213144   0.915   6.958   1.970 -0.1763 -0.1650 -0.4604
 1885ntf    cn113145   0.788   7.085   1.995 -0.3037 -0.3077 -0.3815
 1885ntf    fn413146   0.782   6.590   1.863 -0.2108  0.9372 -0.4363
 1885ntf    fn413147   0.801   6.453   2.014  0.0389 -0.0396  0.7892
 1885ntf    fn413148   0.635   6.582   2.019  0.2187 -0.6887  0.2954
 1885ntf    on513149   0.793   6.713   2.212 -0.6986 -0.0453 -0.0213
 1885ntf    on513150   0.990   6.656   2.079 -0.2023  0.5835  0.3335
 1885ntf    on513151   0.949   6.984   1.833  0.4737  0.1293 -0.2461
 1885ntf    on513152   1.014   6.984   2.072 -0.3173  0.1015 -0.3915
 1885ntf    fn413153   0.830   7.208   1.973 -0.0731 -0.3281 -0.0698
 1885ntf    fn413154   0.677   7.067   1.926 -0.3267  0.3554 -0.5250
 1885ntf    fn413155   0.748   7.090   2.121 -0.0387 -0.7333 -0.2774
 1886ntf    cn113156   5.311   4.675   3.943  0.1014  0.2959 -0.1750
 1886ntf    sn213157   5.129   4.677   3.944  0.1047  0.4316  0.1568
 1886ntf    nn313158   5.100   4.723   4.092  0.0055  0.3050  0.1774
 1886ntf    sn213159   5.086   4.638   4.223  0.1830 -0.4380 -0.2755
 1886ntf    cn113160   4.906   4.648   4.241  0.2139 -0.3591 -0.0032
 1886ntf    fn413161   5.358   4.581   4.024 -0.1036  0.1489 -0.2240
 1886ntf    fn413162   5.368   4.664   3.824 -0.5540 -0.0988 -0.4606
 1886ntf    fn413163   5.357   4.782   4.005 -0.3751  0.5902 -0.3197
 1886ntf    on513164   5.083   4.774   3.848  0.3165  0.2427 -0.1346
 1886ntf    on513165   5.094   4.540   3.917  0.1406  0.3376  0.5722
 1886ntf    on513166   5.145   4.705   4.337 -0.6594  0.4023 -0.3201
 1886ntf    on513167   5.111   4.496   4.214  0.2832 -0.4067 -0.4968
 1886ntf    fn413168   4.848   4.620   4.125  0.1044 -0.2570  0.0258
 1886ntf    fn413169   4.864   4.567   4.336 -0.2386 -0.4124 -0.2468
 1886ntf    fn413170   4.869   4.771   4.273  0.3282 -0.2776 -0.1809
 1887ntf    cn113171   4.368   4.370   5.192 -0.1488 -0.0350  0.0462
 1887ntf    sn213172   4.468   4.260   5.088 -0.0815  0.0522  0.0177
 1887ntf    nn313173   4.475   4.139   5.187 -0.0859 -0.0704 -0.1315
 1887ntf    sn213174   4.599   4.046   5.213 -0.1282 -0.1742 -0.2968
 1887ntf    cn113175   4.575   3.904   5.102  0.1753 -0.3400 -0.1512
 1887ntf    fn413176   4.436   4.417   5.296  0.1725  0.2201 -0.2778
 1887ntf    fn413177   4.326   4.473   5.120 -0.1351 -0.0532  0.0123
 1887ntf    fn413178   4.256   4.315   5.238  0.0505 -0.2034  0.3336
 1887ntf    on513179   4.376   4.249   4.978 -0.1931 -0.3084  0.1467
 1887ntf    on513180   4.586   4.340   5.063  0.0190 -0.1101 -0.0253
 1887ntf    on513181   4.596   3.979   5.341  0.0594  0.3594 -0.0095
 1887ntf    on513182   4.729   4.094   5.173 -0.1109  0.1527  0.1387
 1887ntf    fn413183   4.655   3.802   5.127 -0.3995 -0.9097 -0.5867
 1887ntf    fn413184   4.450   3.862   5.112 -0.0806  0.4736  0.1440
 1887ntf    fn413185   4.592   3.929   4.973  0.2727 -0.8159 -0.2297
 1888ntf    cn113186   5.638   3.194   6.451  0.0234 -0.2035  0.4719
 1888ntf    sn213187   5.600   3.282   6.606 -0.2779  0.2610  0.1360
 1888ntf    nn313188   5.460   3.342   6.565 -0.4126  0.2197  0.5298
 1888ntf    sn213189   5.322   3.268   6.575 -0.2775 -0.0873  0.1903
 1888ntf    cn113190   5.250   3.340   6.726 -0.1298 -0.0629  0.2494
 1888ntf    fn413191   5.770   3.190   6.444  0.0051 -0.1933  0.1014
 1888ntf    fn413192   5.586   3.073   6.446 -0.5760  0.0340  0.8122
 1888ntf    fn413193   5.590   3.248   6.340  0.1056 -0.2841  0.3977
 1888ntf    on513194   5.598   3.182   6.710 -0.2226 -0.0889 -0.1981
 1888ntf    on513195   5.703   3.383   6.606 -0.0871  0.0741 -0.5752
 1888ntf    on513196   5.318   3.126   6.596  0.1538 -0.1545 -0.1699
 1888ntf    on513197   5.232   3.312   6.471  0.0354  0.5767  0.1951
 1888ntf    fn413198   5.319   3.304   6.833  0.3285  0.1732  0.0371
 1888ntf    fn413199   5.258   3.472   6.733  0.3325 -0.0653 -0.1857
 1888ntf    fn413200   5.123   3.308   6.742 -0.0517 -0.3670  0.2629
 1889ntf    cn113201   2.318   1.326   5.923 -0.2627 -0.1773  0.0503
 1889ntf    sn213202   2.285   1.290   6.098 -0.0842 -0.3079  0.0573
 1889ntf    nn313203   2.404   1.362   6.171 -0.0414  0.1028 -0.4131
 1889ntf    sn213204   2.534   1.299   6.233 -0.1591  0.1822 -0.0792
 1889ntf    cn113205   2.466   1.251   6.394 -0.2325 -0.1774 -0.2154
 1889ntf    fn413206   2.326   1.457   5.906 -0.5368 -0.2026 -0.2615
 1889ntf    fn413207   2.435   1.283   5.878 -0.4157 -0.6113  0.0624
 1889ntf    fn413208   2.222   1.271   5.851  0.1572 -0.2034 -0.4896
 1889ntf    on513209   2.167   1.368   6.122 -0.0934 -0.4220  0.3945
 1889ntf    on513210   2.273   1.146   6.104  0.2203 -0.3256  0.3039
 1889ntf    on513211   2.627   1.404   6.265 -0.0153  0.1103 -0.2582
 1889ntf    on513212   2.588   1.178   6.175  0.3613  0.0907  0.5835
 1889ntf    fn413213   2.569   1.241   6.477 -0.0129  0.7401 -0.3604
 1889ntf    fn413214   2.386   1.342   6.449 -0.3615 -0.3505 -0.1159
 1889ntf    fn413215   2.400   1.137   6.386  0.3887 -0.5281 -0.4491
 1890ntf    cn113216   4.605   2.204   4.407  0.1048  0.3313 -0.1542
 1890ntf    sn213217   4.574   2.269   4.574  0.0877  0.0715 -0.0559
 1890ntf    nn313218   4.706   2.219   4.644 -0.2771 -0.3011  0.3705
 1890ntf    sn213219   4.732   2.154   4.784  0.0881 -0.2442  0.3298
 1890ntf    cn113220   4.779   2.290   4.895  0.4188  0.1056 -0.2343
 1890ntf    fn413221   4.728   2.221   4.362  0.0286  0.4658 -0.3107
 1890ntf    fn413222   4.595   2.072   4.407 -0.4108  0.3701 -0.2827
 1890ntf    fn413223   4.521   2.253   4.318 -0.0948 -0.2729 -0.3007
 1890ntf    on513224   4.558   2.412   4.572 -0.0388  0.0514 -0.4173
 1890ntf    on513225   4.455   2.203   4.620  0.1265  0.2835  0.3560
 1890ntf    on513226   4.854   2.076   4.784  0.4532  0.3123 -0.4933
 1890ntf    on513227   4.613   2.098   4.844 -0.3012  0.0411 -0.1709
 1890ntf    fn413228   4.675   2.347   4.952  0.3315  0.0247 -0.3126
 1890ntf    fn413229   4.857   2.248   4.994 -0.2682 -0.1767  0.1916
 1890ntf    fn413230   4.837   2.392   4.835  0.3776 -0.1562 -0.7216
 1891ntf    cn113231   4.103   1.058   2.895 -0.2253  0.2747  0.2158
 1891ntf    sn213232   4.260   0.973   2.930 -0.5002 -0.2652  0.1508
 1891ntf    nn313233   4.267   1.000   3.084 -0.1978  0.0898  0.0760
 1891ntf    sn213234   4.265   0.905   3.209  0.3270  0.1129  0.1023
 1891ntf    cn113235   4.101   0.932   3.283  0.2064 -0.3513  0.0096
 1891ntf    fn413236   4.091   1.169   2.965 -0.1477  0.2017  0.3450
 1891ntf    fn413237   4.100   1.097   2.768  0.5898  0.3538  0.2186
 1891ntf    fn413238   3.997   0.984   2.927 -0.4873  0.3506 -0.4601
 1891ntf    on513239   4.241   0.836   2.889 -0.3199 -0.0924 -0.5369
 1891ntf    on513240   4.356   1.052   2.857  0.1274 -0.3333  0.8996
 1891ntf    on513241   4.363   0.937   3.310  0.4208 -0.1070  0.0826
 1891ntf    on513242   4.256   0.765   3.174  0.2468  0.2290 -0.3587
 1891ntf    fn413243   4.082   0.869   3.397  0.1645  0.0029  0.2010
 1891ntf    fn413244   4.084   1.062   3.299  0.3174 -0.3958  0.4926
 1891ntf    fn413245   4.007   0.887   3.202 -0.1877  0.4929 -0.0083
 1892ntf    cn113246   5.644   0.586   1.792 -0.4240  0.1876  0.2966
 1892ntf    sn213247   5.753   0.701   1.703 -0.5477  0.0865  0.0124
 1892ntf    nn313248   5.808   0.782   1.826  0.1029  0.3512 -0.4476
 1892ntf    sn213249   5.943   0.767   1.906  0.1312  0.1316 -0.5369
 1892ntf    cn113250   6.051   0.884   1.819  0.0601  0.2337 -0.4879
 1892ntf    fn413251   5.712   0.510   1.877  0.0346  0.2911  0.0226
 1892ntf    fn413252   5.552   0.654   1.858 -0.0747  0.6944  0.2679
 1892ntf    fn413253   5.573   0.506   1.715 -0.3494 -0.1776  0.6022
 1892ntf    on513254   5.851   0.621   1.634 -0.5185  0.1101  0.0263
 1892ntf    on513255   5.662   0.786   1.631 -0.4280  0.4774  0.3178
 1892ntf    on513256   6.011   0.640   1.898 -0.0220  0.0120 -0.0079
 1892ntf    on513257   5.922   0.824   2.037  0.3551 -0.5811 -0.1855
 1892ntf    fn413258   6.048   0.861   1.689 -0.6202  0.2139 -0.4724
 1892ntf    fn413259   6.029   1.012   1.845 -0.2528  0.1176 -0.1737
 1892ntf    fn413260   6.176   0.858   1.855 -0.1323  0.0257  0.0475
 1893ntf    cn113261   5.112   6.276   2.050 -0.0544  0.2146  0.1027
 1893ntf    sn213262   5.246   6.343   1.948 -0.0023 -0.1743 -0.0866
 1893ntf    nn313263   5.353   6.376   2.058 -0.1762  0.5791 -0.1375
 1893ntf    sn213264   5.424   6.514   2.085  0.0178  0.4772 -0.1268
 1893ntf    cn113265   5.542   6.450   2.207 -0.1759 -0.2479 -0.3096
 1893ntf    fn413266   5.085   6.348   2.158 -0.1959  0.1342  0.1219
 1893ntf    fn413267   4.998   6.271   1.983  0.2020 -0.1574 -0.3141
 1893ntf    fn413268   5.132   6.149   2.083  0.0014  0.0654 -0.4987
 1893ntf    on513269   5.292   6.224   1.881 -0.3511  0.1293 -0.8809
 1893ntf    on513270   5.190   6.455   1.876 -0.3138  0.0230  0.4584
 1893ntf    on513271   5.343   6.598   2.168 -0.0222 -0.3517  0.6882
 1893ntf    on513272   5.510   6.566   1.981 -0.2027  0.3605 -0.3704
 1893ntf    fn413273   5.638   6.377   2.152 -0.1590 -0.3958 -0.0870
 1893ntf    fn413274   5.610   6.549   2.264 -0.2071 -0.1755 -0.3974
 1893ntf    fn413275   5.476   6.390   2.305 -0.0852  0.7117  0.3547
 1894ntf    cn113276   6.597   1.048   0.549 -0.4082  0.1882  0.0025
 1894ntf    sn213277   6.576   0.939   0.405 -0.0707  0.1076  0.0118
 1894ntf    nn313278   6.532   0.805   0.474 -0.1452 -0.1392 -0.5080
 1894ntf    sn213279   6.608   0.675   0.516  0.2151  0.2285 -0.0087
 1894ntf    cn113280   6.533   0.572   0.386  0.1228  0.3239 -0.0307
 1894ntf    fn413281   6.478   1.086   0.592 -0.5281  0.1103 -0.2629
 1894ntf    fn413282   6.653   0.985   0.651  0.5003  0.2313 -0.4550
 1894ntf    fn413283   6.669   1.156   0.524 -0.2986  0.0574 -0.2488
 1894ntf    on513284   6.470   1.002   0.329 -0.1271 -0.2894 -0.2422
 1894ntf    on513285   6.706   0.927   0.344 -0.0946  0.0684 -0.0308
 1894ntf    on513286   6.556   0.617   0.638  0.5006  0.5135  0.2510
 1894ntf    on513287   6.751   0.661   0.501  0.1897 -0.4872  0.3836
 1894ntf    fn413288   6.402   0.570   0.398  0.1224  0.2288 -0.0467
 1894ntf    fn413289   6.557   0.607   0.261 -0.6145  0.1613 -0.2193
 1894ntf    fn413290   6.575   0.447   0.391  0.0384  0.2939 -0.0910
 1895ntf    cn113291   2.625   4.724   3.421  0.0009 -0.2999  0.1109
 1895ntf    sn213292   2.461   4.766   3.487  0.1031 -0.1739  0.2864
 1895ntf    nn313293   2.492   4.909   3.542 -0.0688  0.0804 -0.2715
 1895ntf    sn213294   2.465   4.974   3.683  0.0450 -0.3830 -0.0359
 1895ntf    cn113295   2.617   4.910   3.760  0.0295 -0.1293  0.2055
 1895ntf    fn413296   2.623   4.609   3.355  0.0331 -0.3115  0.1300
 1895ntf    fn413297   2.679   4.814   3.340 -0.0926 -0.6253 -0.3170
 1895ntf    fn413298   2.706   4.700   3.523 -0.4120  0.0472  0.5247
 1895ntf    on513299   2.384   4.765   3.365 -0.4030  0.2162  0.5989
 1895ntf    on513300   2.435   4.666   3.588 -0.3039 -0.3758 -0.0107
 1895ntf    on513301   2.352   4.921   3.755  0.1219  0.1044  0.4432
 1895ntf    on513302   2.485   5.116   3.693 -0.2241 -0.3981  0.7462
 1895ntf    fn413303   2.718   4.956   3.688 -0.0774 -0.2358 -0.0115
 1895ntf    fn413304   2.634   4.943   3.887 -0.2445 -0.5737  0.3632
 1895ntf    fn413305   2.624   4.778   3.762  0.6397 -0.0947  0.4106
 1896ntf    cn113306   5.997   4.520   3.478  0.4460  0.1382  0.2651
 1896ntf    sn213307   5.896   4.368   3.477  0.3298  0.2155 -0.1985
 1896ntf    nn313308   5.814   4.383   3.345  0.2684  0.2636 -0.1546
 1896ntf    sn213309   5.673   4.449   3.322  0.1297  0.0930  0.2006
 1896ntf    cn113310   5.560   4.308   3.310 -0.4370  0.5896 -0.3289
 1896ntf    fn413311   6.078   4.521   3.582 -0.1896  0.0526  0.7675
 1896ntf    fn413312   6.081   4.518   3.376 -0.0401  0.2602 -0.1443
 1896ntf    fn413313   5.940   4.639   3.467  0.4342  0.1263  0.1928
 1896ntf    on513314   5.987   4.256   3.475 -0.0360 -0.1173  0.7971
 1896ntf    on513315   5.819   4.372   3.599  0.0893  0.6114 -0.3629
 1896ntf    on513316   5.663   4.503   3.189  0.2339  0.2725  0.2649
 1896ntf    on513317   5.617   4.528   3.429 -0.8812  0.1861 -0.3881
 1896ntf    fn413318   5.561   4.241   3.424  0.3674  0.5734 -0.3432
 1896ntf    fn413319   5.432   4.331   3.285 -0.6653  0.1377  0.3927
 1896ntf    fn413320   5.597   4.224   3.215 -0.6675  0.4625 -0.3079
 1897ntf    cn113321   5.550   6.349   1.134  0.0819  0.0789  0.3114
 1897ntf    sn213322   5.468   6.494   1.061  0.2665  0.1939  0.3308
 1897ntf    nn313323   5.527   6.476   0.917 -0.3557  0.1893  0.0717
 1897ntf    sn213324   5.455   6.536   0.791 -0.3157  0.1213  0.0163
 1897ntf    cn113325   5.346   6.394   0.756  0.2084 -0.2940  0.0634
 1897ntf    fn413326   5.474   6.294   1.227  0.2623 -0.3144  0.2286
 1897ntf    fn413327   5.583   6.261   1.040  0.1490  0.4189  0.0128
 1897ntf    fn413328   5.664   6.372   1.197  0.0721  0.5049  0.1740
 1897ntf    on513329   5.331   6.450   1.074  0.3535 -0.3491 -0.4847
 1897ntf    on513330   5.517   6.605   1.138  0.0665  0.7773 -0.3782
 1897ntf    on513331   5.532   6.542   0.669 -0.3493  0.2822  0.0026
 1897ntf    on513332   5.365   6.647   0.810 -0.3212  0.1810 -0.3452
 1897ntf    fn413333   5.248   6.380   0.843  0.2340  0.1225  0.1625
 1897ntf    fn413334   5.285   6.384   0.639  0.2436  0.1792  0.0047
 1897ntf    fn413335   5.413   6.280   0.764  0.4158 -0.1449  0.4892
 1898ntf    cn113336   6.220   1.412   4.648  0.1186 -0.0661 -0.0559
 1898ntf    sn213337   6.081   1.496   4.731  0.0513 -0.2498  0.0179
 1898ntf    nn313338   5.966   1.393   4.700 -0.1984  0.0907 -0.1863
 1898ntf    sn213339   5.856   1.395   4.588 -0.2377  0.1872 -0.1475
 1898ntf    cn113340   5.737   1.508   4.666 -0.0116  0.3012  0.0334
 1898ntf    fn413341   6.238   1.288   4.692  0.0805  0.2752  0.9475
 1898ntf    fn413342   6.195   1.399   4.519  0.0146 -0.3030 -0.0137
 1898ntf    fn413343   6.337   1.472   4.663  0.0858 -0.0762  0.2568
 1898ntf    on513344   6.115   1.491   4.871 -0.3064 -0.0909  0.1100
 1898ntf    on513345   6.072   1.624   4.666 -0.2026 -0.0429  0.4621
 1898ntf    on513346   5.776   1.275   4.578 -0.0521  0.0247  0.2979
 1898ntf    on513347   5.901   1.461   4.468  0.0748  0.3488  0.0591
 1898ntf    fn413348   5.625   1.519   4.597 -0.0591 -0.3763 -0.0063
 1898ntf    fn413349   5.694   1.454   4.779  0.2834 -0.0091 -0.0020
 1898ntf    fn413350   5.780   1.630   4.691 -0.2859  0.2865  0.6067
 1899ntf    cn113351   2.323   4.685   2.817 -0.0931 -0.5389 -0.3593
 1899ntf    sn213352   2.342   4.813   2.690 -0.1970 -0.0755  0.0850
 1899ntf    nn313353   2.206   4.804   2.611  0.0857  0.4076 -0.4685
 1899ntf    sn213354   2.169   4.699   2.501  0.1507 -0.0482 -0.0603
 1899ntf    cn113355   2.214   4.803   2.359  0.2272 -0.1194 -0.0876
 1899ntf    fn413356   2.221   4.714   2.897  0.1865  0.1756 -0.2542
 1899ntf    fn413357   2.301   4.568   2.760 -0.1576 -0.5646 -0.2823
 1899ntf    fn413358   2.432   4.668   2.890  0.1113  0.3966 -0.4282
 1899ntf    on513359   2.346   4.930   2.774 -0.1149  0.1244 -0.1923
 1899ntf    on513360   2.465   4.779   2.621 -0.3142  0.3918 -0.3627
 1899ntf    on513361   2.025   4.694   2.491  0.1198  0.1389  0.2981
 1899ntf    on513362   2.243   4.576   2.487 -0.3976 -0.3403 -0.4384
 1899ntf    fn413363   2.201   4.933   2.377  0.3452 -0.2150  0.6924
 1899ntf    fn413364   2.341   4.783   2.324  0.2828 -0.1007  0.1034
 1899ntf    fn413365   2.145   4.769   2.251 -0.4125  0.6122  0.0866
 1900ntf    cn113366   3.103   6.003   6.626  0.4409 -0.1528  0.1394
 1900ntf    sn213367   3.122   6.172   6.690  0.2939  0.0186 -0.2676
 1900ntf    nn313368   3.124   6.261   6.561 -0.4642  0.1811 -0.1688
 1900ntf    sn213369   3.069   6.406   6.537 -0.1859  0.2863 -0.1741
 1900ntf    cn113370   2.941   6.373   6.412 -0.3870 -0.1084  0.1336
 1900ntf    fn413371   2.983   5.998   6.570  0.4066 -0.4433  0.2340
 1900ntf    fn413372   3.196   5.961   6.542  0.4116  0.4551 -0.1976
 1900ntf    fn413373   3.101   5.909   6.719 -0.4553 -0.3817 -0.1011
 1900ntf    on513374   3.005   6.175   6.775  0.6980  0.3700  0.2876
 1900ntf    on513375   3.252   6.172   6.753  0.1633 -0.5396  0.0113
 1900ntf    on513376   3.170   6.483   6.468  0.0652 -0.3152 -0.4842
 1900ntf    on513377   2.999   6.465   6.649  0.7508  0.0219  0.5603
 1900ntf    fn413378   2.895   6.484   6.357  0.2431  0.3064  0.4290
 1900ntf    fn413379   2.986   6.287   6.322 -0.1062  0.2912 -0.1153
 1900ntf    fn413380   2.849   6.296   6.468 -0.2097 -0.1707  0.3398
 1901ntf    cn113381   2.419   1.799   1.001  0.1598  0.2481  0.1107
 1901ntf    sn213382   2.500   1.894   0.868 -0.2824 -0.1506 -0.4483
 1901ntf    nn313383   2.640   1.915   0.936 -0.4870  0.1407 -0.1136
 1901ntf    sn213384   2.715   2.051   0.960  0.0815 -0.2119  0.1202
 1901ntf    cn113385   2.791   2.083   0.798 -0.1986 -0.1006  0.0108
 1901ntf    fn413386   2.431   1.851   1.122 -0.3496  0.6723 -0.0212
 1901ntf    fn413387   2.289   1.786   0.982  0.2017 -0.1839  0.0995
 1901ntf    fn413388   2.474   1.679   1.010  0.2474  0.2910  0.1494
 1901ntf    on513389   2.515   1.811   0.751  0.6818 -0.1064 -0.3622
 1901ntf    on513390   2.421   2.014   0.859  0.0695  0.1554  0.4307
 1901ntf    on513391   2.834   2.022   1.036 -0.2968  0.0616  0.8223
 1901ntf    on513392   2.637   2.167   0.995 -0.2507 -0.2146 -0.5877
 1901ntf    fn413393   2.707   2.080   0.695  0.4775  0.4271 -0.5647
 1901ntf    fn413394   2.835   2.208   0.794 -0.6599  0.0666  0.0537
 1901ntf    fn413395   2.890   2.003   0.763  0.1838  0.3745  0.0008
 1902ntf    cn113396   3.963   4.935   0.452 -0.2038 -0.2880  0.0290
 1902ntf    sn213397   4.088   5.067   0.454 -0.3748 -0.1236 -0.0904
 1902ntf    nn313398   4.016   5.183   0.530 -0.2018  0.1286 -0.3101
 1902ntf    sn213399   4.012   5.196   0.687 -0.1557  0.1183 -0.3080
 1902ntf    cn113400   3.850   5.273   0.718 -0.1662  0.0640 -0.2287
 1902ntf    fn413401   3.837   4.974   0.451 -0.0973  0.0552 -0.0006
 1902ntf    fn413402   3.981   4.866   0.340  0.0209 -0.2634  0.0492
 1902ntf    fn413403   3.980   4.848   0.550  0.4077  0.1453  0.3157
 1902ntf    on513404   4.210   5.015   0.511 -0.3172 -0.0358 -0.1345
 1902ntf    on513405   4.095   5.092   0.312  0.1482  0.0219 -0.0434
 1902ntf    on513406   4.105   5.295   0.736 -0.2386  0.1623 -0.2389
 1902ntf    on513407   4.003   5.065   0.747  0.1095  0.3338  0.2028
 1902ntf    fn413408   3.819   5.292   0.846  0.0730  0.0386 -0.1676
 1902ntf    fn413409   3.848   5.389   0.656 -0.2124  0.0844 -0.1889
 1902ntf    fn413410   3.750   5.198   0.673 -0.0940 -0.3359  0.2646
 1903ntf    cn113411   2.034   4.516   1.532  0.1190  0.6616 -0.4112
 1903ntf    sn213412   1.918   4.517   1.672  0.2833  0.6580 -0.2754
 1903ntf    nn313413   1.810   4.613   1.612 -0.1461  0.2605 -0.1378
 1903ntf    sn213414   1.718   4.704   1.700  0.0684 -0.1166  0.4775
 1903ntf    cn113415   1.792   4.866   1.668  0.0284 -0.1425  0.2545
 1903ntf    fn413416   2.126   4.422   1.544 -0.4641  0.1052 -0.2181
 1903ntf    fn413417   1.982   4.502   1.411 -0.2212  0.2611 -0.2242
 1903ntf    fn413418   2.105   4.627   1.521  0.4049  0.5451  0.2184
 1903ntf    on513419   1.879   4.379   1.683 -0.2442  0.8509  0.3224
 1903ntf    on513420   2.004   4.569   1.776 -0.3868  0.0592  0.5885
 1903ntf    on513421   1.719   4.693   1.844  0.5125 -0.0307  0.4801
 1903ntf    on513422   1.591   4.706   1.632  0.3086 -0.7852  0.0037
 1903ntf    fn413423   1.753   4.919   1.553  0.6113 -0.1439  0.0516
 1903ntf    fn413424   1.751   4.963   1.749 -0.5712 -0.2620  0.0966
 1903ntf    fn413425   1.924   4.857   1.671  0.0680  0.1740 -0.3535
 1904ntf    cn113426   3.903   2.768   4.857 -0.7007  0.2828  0.2421
 1904ntf    sn213427   3.859   2.695   5.018 -0.4757  0.3369  0.3289
 1904ntf    nn313428   3.917   2.551   4.997 -0.9530  0.0884  0.7147
 1904ntf    sn213429   3.858   2.414   4.948 -0.0864 -0.2303  0.5523
 1904ntf    cn113430   3.821   2.336   5.108 -0.0647 -0.3218  0.5132
 1904ntf    fn413431   3.848   2.697   4.759 -0.5789 -0.2601  0.5591
 1904ntf    fn413432   3.870   2.895   4.849  0.0033  0.4603  0.0502
 1904ntf    fn413433   4.034   2.757   4.839 -0.8004 -0.4085 -0.0950
 1904ntf    on513434   3.927   2.774   5.118 -0.1601  0.2909  0.1506
 1904ntf    on513435   3.716   2.706   5.029 -0.5873 -0.4672 -0.2303
 1904ntf    on513436   3.956   2.332   4.880 -0.2028  0.4484 -0.4608
 1904ntf    on513437   3.726   2.428   4.890  0.1055 -0.3099  0.0858
 1904ntf    fn413438   3.926   2.321   5.186  0.4553 -0.7850 -0.2635
 1904ntf    fn413439   3.738   2.413   5.176 -0.2352  0.0475 -0.0964
 1904ntf    fn413440   3.771   2.214   5.098 -0.3490 -0.1522 -0.2553
 1905ntf    cn113441   5.462   3.825   1.553 -0.0439 -0.0295  0.2403
 1905ntf    sn213442   5.445   3.731   1.398  0.3039 -0.2364  0.3275
 1905ntf    nn313443   5.559   3.624   1.410  0.4468 -0.1335 -0.1030
 1905ntf    sn213444   5.544   3.477   1.355 -0.4132 -0.1392  0.1353
 1905ntf    cn113445   5.651   3.491   1.209 -0.0666  0.1712  0.4172
 1905ntf    fn413446   5.444   3.750   1.660  0.0875  0.0651  0.3303
 1905ntf    fn413447   5.578   3.885   1.578 -0.1681  0.2486  0.1522
 1905ntf    fn413448   5.368   3.918   1.556 -0.1660 -0.1469  0.0622
 1905ntf    on513449   5.307   3.690   1.398  0.1605  0.2383  0.6179
 1905ntf    on513450   5.488   3.829   1.301 -0.7271  0.2556  0.3579
 1905ntf    on513451   5.415   3.450   1.296  0.0056  0.0772 -0.9144
 1905ntf    on513452   5.607   3.383   1.444  0.4878  0.4887  0.1735
 1905ntf    fn413453   5.638   3.379   1.140  0.1100  0.5943 -0.3150
 1905ntf    fn413454   5.610   3.592   1.133  0.1748  0.0759  0.1604
 1905ntf    fn413455   5.777   3.505   1.246 -0.1103  0.3223  0.5132
 1906ntf    cn113456   4.732   3.335   5.733 -0.0881 -0.3666  0.0409
 1906ntf    sn213457   4.564   3.275   5.702 -0.2183  0.1127 -0.1939
 1906ntf    nn313458   4.599   3.130   5.651 -0.2993  0.1117 -0.2489
 1906ntf    sn213459   4.570   2.999   5.733  0.1341 -0.0116 -0.2923
 1906ntf    cn113460   4.631   2.885   5.605  0.0499  0.1218 -0.4516
 1906ntf    fn413461   4.739   3.467   5.736  0.0672 -0.3689 -0.1218
 1906ntf    fn413462   4.790   3.289   5.842  0.3314  0.1008  0.0231
 1906ntf    fn413463   4.803   3.294   5.628 -0.3218  0.1523 -0.3253
 1906ntf    on513464   4.502   3.287   5.832  0.0301  0.6273 -0.1219
 1906ntf    on513465   4.524   3.360   5.593  0.1244  0.2066 -0.2470
 1906ntf    on513466   4.430   2.968   5.746  0.1429  0.0869  0.0367
 1906ntf    on513467   4.655   2.982   5.848  0.0175  0.2059 -0.1731
 1906ntf    fn413468   4.642   2.759   5.642  0.4362  0.2885  0.0142
 1906ntf    fn413469   4.562   2.883   5.492 -0.4061 -0.6505 -0.1630
 1906ntf    fn413470   4.751   2.918   5.561  0.0953  0.1615 -0.2995
 1907ntf    cn113471   3.079   5.599   0.371 -0.1295 -0.1140 -0.2084
 1907ntf    sn213472   3.055   5.514   0.213 -0.0696 -0.2915 -0.1216
 1907ntf    nn313473   2.965   5.390   0.248 -0.2997  0.0296  0.4338
 1907ntf    sn213474   2.810   5.368   0.240 -0.2694  0.0703 -0.3339
 1907ntf    cn113475   2.795   5.305   0.070  0.1558  0.0250 -0.3553
 1907ntf    fn413476   2.970   5.653   0.425 -0.4377 -0.4730 -0.4737
 1907ntf    fn413477   3.127   5.513   0.460  0.6566 -0.3543 -0.8606
 1907ntf    fn413478   3.162   5.702   0.367 -0.0360 -0.1932 -0.2790
 1907ntf    on513479   2.993   5.618   0.136  0.3301  0.2770  0.3157
 1907ntf    on513480   3.188   5.476   0.172  0.0857 -0.0039  0.1191
 1907ntf    on513481   2.733   5.489   0.254  0.3878  0.4770 -0.2050
 1907ntf    on513482   2.769   5.257   0.322  0.1060  0.3465  0.2366
 1907ntf    fn413483   2.863   5.373  -0.021 -0.4608 -0.2476 -1.0271
 1907ntf    fn413484   2.839   5.180   0.061 -0.6599 -0.2717 -0.2846
 1907ntf    fn413485   2.667   5.317   0.036  0.0273 -0.1747  0.0576
 1908ntf    cn113486   3.686   1.281   0.356 -0.0373  0.1918 -0.2654
 1908ntf    sn213487   3.620   1.121   0.300 -0.1335  0.0490  0.2535
 1908ntf    nn313488   3.756   1.042   0.308 -0.1654 -0.0083  0.2315
 1908ntf    sn213489   3.847   0.971   0.201 -0.2249 -0.1528  0.2762
 1908ntf    cn113490   3.799   0.796   0.198 -0.1151 -0.1822  0.2513
 1908ntf    fn413491   3.728   1.354   0.254  0.0849  0.0238 -0.3365
 1908ntf    fn413492   3.593   1.357   0.411  0.1224  0.1870  0.0159
 1908ntf    fn413493   3.787   1.268   0.441 -0.4403 -0.4138  0.1310
 1908ntf    on513494   3.527   1.079   0.402 -0.2437  0.2287  0.2258
 1908ntf    on513495   3.563   1.146   0.171 -0.8713 -0.0165  0.5614
 1908ntf    on513496   3.985   0.960   0.240 -0.3335 -0.0364  0.7077
 1908ntf    on513497   3.830   1.026   0.069 -0.8349  0.4017  0.5769
 1908ntf    fn413498   3.812   0.737   0.316 -0.3317 -0.0881  0.3225
 1908ntf    fn413499   3.674   0.778   0.160 -0.1126  0.6712 -0.1720
 1908ntf    fn413500   3.862   0.720   0.109 -0.0634  0.0227  0.1121
 1909ntf    cn113501   6.519   4.435   5.752  0.0534  0.0487 -0.3142
 1909ntf    sn213502   6.411   4.335   5.859  0.2061  0.1577 -0.0581
 1909ntf    nn313503   6.490   4.200   5.859  0.0783  0.0834 -0.0912
 1909ntf    sn213504   6.468   4.071   5.772  0.2180  0.1089 -0.1650
 1909ntf    cn113505   6.443   3.956   5.910  0.1365 -0.0171 -0.2834
 1909ntf    fn413506   6.473   4.558   5.743 -1.0534 -0.2654  0.8350
 1909ntf    fn413507   6.642   4.438   5.801  0.0338  0.0330 -0.2660
 1909ntf    fn413508   6.532   4.393   5.627 -0.4394  0.0610 -0.3685
 1909ntf    on513509   6.419   4.405   5.985  0.4791  0.0348 -0.0056
 1909ntf    on513510   6.284   4.339   5.792  0.0613  0.2398  0.2224
 1909ntf    on513511   6.590   4.028   5.708  0.3032 -0.0723  0.1194
 1909ntf    on513512   6.348   4.060   5.694 -0.1459  0.1103  0.3883
 1909ntf    fn413513   6.548   3.957   5.991  0.1988 -0.2274 -0.3606
 1909ntf    fn413514   6.333   3.982   5.978 -0.1540 -0.6794 -0.4885
 1909ntf    fn413515   6.426   3.828   5.880  0.1071 -0.1193  0.1533
 1910ntf    cn113516   0.917   5.692   0.517 -0.0103 -0.1153  0.2732
 1910ntf    sn213517   0.844   5.732   0.355  0.1135  0.0527  0.2582
 1910ntf    nn313518   0.890   5.880   0.332 -0.0432  0.0597 -0.0196
 1910ntf    sn213519   0.997   5.937   0.233  0.0143  0.1234  0.0788
 1910ntf    cn113520   1.045   6.063   0.355  0.3179  0.0210  0.0679
 1910ntf    fn413521   0.893   5.784   0.609 -0.3511 -0.3159  0.3874
 1910ntf    fn413522   0.869   5.579   0.566 -0.2604 -0.0968  0.0783
 1910ntf    fn413523   1.048   5.678   0.509  0.0147  0.1705  0.1509
 1910ntf    on513524   0.893   5.640   0.255  0.2122  0.1356  0.2311
 1910ntf    on513525   0.703   5.723   0.385  0.2128 -0.2320  0.6378
 1910ntf    on513526   0.949   6.010   0.118  1.0279 -0.1292 -0.5236
 1910ntf    on513527   1.112   5.851   0.214 -0.2657 -0.2935  0.2561
 1910ntf    fn413528   1.106   6.164   0.297 -0.0118  0.1308 -0.0912
 1910ntf    fn413529   0.940   6.109   0.422 -0.1233 -0.9107  0.0462
 1910ntf    fn413530   1.124   6.011   0.448  0.0532  0.2510  0.4251
 1911ntf    cn113531   1.350   6.767   4.568 -0.5439 -0.1451  0.0363
 1911ntf    sn213532   1.195   6.813   4.485 -0.4809  0.4496  0.2406
 1911ntf    nn313533   1.135   6.670   4.464  0.3418  0.2057 -0.5349
 1911ntf    sn213534   1.024   6.616   4.367 -0.1161 -0.0750  0.1386
 1911ntf    cn113535   0.897   6.557   4.484 -0.2445 -0.1190 -0.0240
 1911ntf    fn413536   1.420   6.687   4.491 -0.3391  0.2772 -0.2207
 1911ntf    fn413537   1.417   6.881   4.580 -0.9321  0.1084 -0.1395
 1911ntf    fn413538   1.338   6.708   4.686  0.5523 -0.5606 -0.0535
 1911ntf    on513539   1.125   6.892   4.584 -0.0435  0.4730  0.5317
 1911ntf    on513540   1.238   6.882   4.365  0.3040  0.3324  0.4535
 1911ntf    on513541   1.072   6.500   4.297 -0.2174  0.0557 -0.1452
 1911ntf    on513542   0.952   6.712   4.288 -0.4183  0.2527  0.8035
 1911ntf    fn413543   0.779   6.540   4.427 -0.2791 -0.2723  0.0954
 1911ntf    fn413544   0.940   6.441   4.530 -0.4400 -0.2055 -0.0592
 1911ntf    fn413545   0.885   6.646   4.581 -0.3314 -0.1060 -0.0460
 1912ntf    cn113546   6.649   2.445   0.238 -0.1165 -0.0167 -0.0333
 1912ntf    sn213547   6.624   2.578   0.359 -0.1579  0.0895 -0.1587
 1912ntf    nn313548   6.656   2.704   0.272 -0.6571 -0.0217 -0.5073
 1912ntf    sn213549   6.683   2.852   0.318  0.0135 -0.1331 -0.5318
 1912ntf    cn113550   6.515   2.919   0.303  0.1655  0.3259 -0.2064
 1912ntf    fn413551   6.591   2.475   0.123  0.6276 -0.4269 -0.5234
 1912ntf    fn413552   6.777   2.435   0.205 -0.0215  0.1166  0.2939
 1912ntf    fn413553   6.615   2.324   0.282 -0.0813 -0.0446 -0.0822
 1912ntf    on513554   6.484   2.562   0.387 -0.1010 -0.6927 -0.2898
 1912ntf    on513555   6.718   2.540   0.461  0.3367 -0.2131 -0.7177
 1912ntf    on513556   6.760   2.927   0.222  0.2410 -0.2612 -0.4499
 1912ntf    on513557   6.726   2.864   0.455 -0.0462 -0.6476 -0.4644
 1912ntf    fn413558   6.492   3.042   0.348 -0.0280  0.3261 -0.3030
 1912ntf    fn413559   6.476   2.922   0.177 -0.2381 -0.0917 -0.0960
 1912ntf    fn413560   6.427   2.841   0.364  0.2455  0.1811 -0.2772
 1913ntf    cn113561   1.891   6.711   2.641  0.5760  0.1311  0.1213
 1913ntf    sn213562   1.845   6.606   2.500  0.1244  0.3748  0.0829
 1913ntf    nn313563   1.862   6.464   2.565 -0.3434  0.2117 -0.1506
 1913ntf    sn213564   1.762   6.358   2.623  0.1463 -0.1833 -0.0184
 1913ntf    cn113565   1.743   6.273   2.464 -0.2466  0.1302 -0.1397
 1913ntf    fn413566   2.015   6.687   2.679  0.5137 -0.0178  0.2326
 1913ntf    fn413567   1.884   6.842   2.618 -0.0264  0.0851  0.0084
 1913ntf    fn413568   1.817   6.691   2.749  0.2639  0.2256 -0.0707
 1913ntf    on513569   1.711   6.639   2.458  0.0629 -0.3910 -0.3404
 1913ntf    on513570   1.947   6.630   2.400  0.2106  0.2670  0.1447
 1913ntf    on513571   1.628   6.403   2.652  0.3128  0.3056 -0.0008
 1913ntf    on513572   1.822   6.255   2.703 -0.2705 -0.4460 -0.0420
 1913ntf    fn413573   1.658   6.173   2.479 -0.2003  0.1306  0.1317
 1913ntf    fn413574   1.704   6.354   2.367  0.3171  0.5254 -0.0414
 1913ntf    fn413575   1.851   6.211   2.419 -0.3409 -0.0386 -0.1356
 1914ntf    cn113576   5.161   5.416   6.544  0.2429  0.4154 -0.1756
 1914ntf    sn213577   5.281   5.527   6.623  0.3468  0.0998  0.1136
 1914ntf    nn313578   5.209   5.665   6.603  0.0106 -0.0616  0.2097
 1914ntf    sn213579   5.074   5.711   6.669 -0.0942  0.0356 -0.0690
 1914ntf    cn113580   5.140   5.810   6.807  0.2835  0.1085 -0.3003
 1914ntf    fn413581   5.087   5.488   6.461  0.1908  0.2597 -0.2654
 1914ntf    fn413582   5.219   5.320   6.474  0.5328  0.3320  0.1769
 1914ntf    fn413583   5.081   5.357   6.632  0.3772  0.0528 -0.2944
 1914ntf    on513584   5.291   5.483   6.760  0.9295 -0.1960 -0.0197
 1914ntf    on513585   5.397   5.509   6.540  0.1128 -0.5913 -0.0713
 1914ntf    on513586   4.993   5.611   6.734 -0.1026  0.0171 -0.1083
 1914ntf    on513587   5.012   5.803   6.578 -0.0890 -0.3671 -0.4809
 1914ntf    fn413588   5.210   5.741   6.896  0.6065  0.0425 -0.6070
 1914ntf    fn413589   5.218   5.911   6.772 -0.6289  0.6702 -0.7662
 1914ntf    fn413590   5.043   5.868   6.877 -0.0959 -0.4786 -0.3308
 1915ntf    cn113591   0.652   5.055   3.561  0.1611  0.2355 -0.1366
 1915ntf    sn213592   0.533   4.997   3.437 -0.0814 -0.1431  0.2701
 1915ntf    nn313593   0.573   5.102   3.326  0.1381  0.1088  0.5875
 1915ntf    sn213594   0.486   5.211   3.256 -0.1727 -0.2995  0.3330
 1915ntf    cn113595   0.434   5.118   3.108  0.0922 -0.1006  0.1131
 1915ntf    fn413596   0.617   5.174   3.606  0.6103  0.4619 -0.3722
 1915ntf    fn413597   0.657   4.977   3.668 -0.1764 -0.1126 -0.3728
 1915ntf    fn413598   0.778   5.064   3.520  0.3257 -0.4822  0.1948
 1915ntf    on513599   0.577   4.863   3.407  0.3269  0.1202 -0.3387
 1915ntf    on513600   0.408   5.008   3.508 -0.0572  0.0054  0.2897
 1915ntf    on513601   0.558   5.323   3.200 -0.0155 -0.3343  0.4672
 1915ntf    on513602   0.358   5.235   3.317 -0.4296  0.4590 -0.4771
 1915ntf    fn413603   0.347   5.022   3.134  0.1866 -0.2593 -0.1496
 1915ntf    fn413604   0.374   5.194   3.017  0.1230 -0.0835  0.1072
 1915ntf    fn413605   0.533   5.056   3.045  0.1860 -0.3004  0.4555
 1916ntf    cn113606   5.146   3.021   3.083 -0.0503  0.0616  0.0301
 1916ntf    sn213607   5.242   3.055   3.233  0.0504  0.0227 -0.0261
 1916ntf    nn313608   5.363   2.957   3.210  0.2109  0.1952  0.0771
 1916ntf    sn213609   5.512   2.969   3.256  0.3021  0.3442 -0.2522
 1916ntf    cn113610   5.515   2.944   3.436  0.0231  0.2136 -0.2661
 1916ntf    fn413611   5.200   3.060   2.968  0.2958  0.4429  0.3220
 1916ntf    fn413612   5.126   2.892   3.064 -0.3958  0.0797  0.2651
 1916ntf    fn413613   5.026   3.077   3.088  0.0325  0.2365  0.0696
 1916ntf    on513614   5.261   3.198   3.222 -0.0027  0.0317 -0.0008
 1916ntf    on513615   5.148   3.013   3.333  0.0568  0.0470 -0.0101
 1916ntf    on513616   5.561   3.103   3.237  0.2042  0.2887 -0.9376
 1916ntf    on513617   5.595   2.863   3.202 -0.0878 -0.0671 -0.0459
 1916ntf    fn413618   5.631   2.965   3.496 -0.0764 -0.8305  0.3322
 1916ntf    fn413619   5.431   3.027   3.496  0.2408  0.1752  0.0942
 1916ntf    fn413620   5.467   2.824   3.468 -0.4748  0.4746 -0.0314
 1917ntf    cn113621   4.487   2.327   0.999 -0.0423  0.1556 -0.1353
 1917ntf    sn213622   4.455   2.152   0.963  0.0875  0.0737  0.1486
 1917ntf    nn313623   4.331   2.132   1.058  0.0427  0.4386  0.1700
 1917ntf    sn213624   4.177   2.123   1.029  0.0705 -0.1969  0.2046
 1917ntf    cn113625   4.162   1.960   0.949  0.1005 -0.2626  0.3311
 1917ntf    fn413626   4.382   2.405   0.978 -0.4603 -0.4240 -0.2014
 1917ntf    fn413627   4.508   2.344   1.128  0.0792 -0.1681 -0.1127
 1917ntf    fn413628   4.593   2.375   0.936  0.3207 -0.0436  0.3227
 1917ntf    on513629   4.433   2.146   0.821  0.4585 -0.4316  0.1096
 1917ntf    on513630   4.570   2.080   1.012 -0.0004 -0.0496  0.1745
 1917ntf    on513631   4.126   2.207   0.924 -0.2356  0.6363  1.0113
 1917ntf    on513632   4.109   2.109   1.155 -0.1421 -0.7780  0.0311
 1917ntf    fn413633   4.035   1.925   0.959  0.0753 -0.2184  0.1785
 1917ntf    fn413634   4.199   1.958   0.821 -0.7798 -0.2379  0.0709
 1917ntf    fn413635   4.219   1.858   1.009  0.1327  0.0658  0.8628
 1918ntf    cn113636   1.951   3.870   0.543 -0.0248  0.4314  0.4324
 1918ntf    sn213637   1.874   3.729   0.626 -0.0150  0.1351 -0.0540
 1918ntf    nn313638   1.874   3.619   0.514  0.1276 -0.1334  0.2053
 1918ntf    sn213639   1.976   3.509   0.469  0.1586 -0.0361  0.0356
 1918ntf    cn113640   2.023   3.576   0.306  0.0327 -0.0230  0.0047
 1918ntf    fn413641   1.911   3.898   0.419  0.0669 -0.0467  0.2920
 1918ntf    fn413642   1.936   3.983   0.610  0.3897  0.7616 -0.0213
 1918ntf    fn413643   2.082   3.851   0.534 -0.1290 -0.3336  0.4993
 1918ntf    on513644   1.954   3.688   0.739  0.8252  0.3930 -0.5477
 1918ntf    on513645   1.740   3.771   0.660 -0.0347  0.1211 -0.1158
 1918ntf    on513646   1.925   3.378   0.438 -0.0351  0.0694 -0.0984
 1918ntf    on513647   2.107   3.519   0.530  0.1666  0.0812  0.0006
 1918ntf    fn413648   2.113   3.497   0.250  0.5889  0.4977  0.1522
 1918ntf    fn413649   1.916   3.586   0.229  0.0448 -0.5665 -0.0864
 1918ntf    fn413650   2.076   3.697   0.310 -0.2117  0.1046 -0.6431
 1919ntf    cn113651   3.870   0.144   4.690 -0.0772  0.0058  0.1989
 1919ntf    sn213652   3.894   0.319   4.733 -0.0004  0.0253  0.0750
 1919ntf    nn313653   3.789   0.329   4.849  0.2250  0.3632  0.2526
 1919ntf    sn213654   3.813   0.334   5.004  0.3833  0.4342  0.2260
 1919ntf    cn113655   3.696   0.205   5.058  0.1749  0.5863  0.1413
 1919ntf    fn413656   3.742   0.110   4.680 -0.1859  0.5104 -0.2035
 1919ntf    fn413657   3.930   0.110   4.577 -0.1385  0.1119  0.1332
 1919ntf    fn413658   3.918   0.069   4.787  0.5699  0.0462 -0.0859
 1919ntf    on513659   4.030   0.337   4.777  0.1167  0.0390 -0.2910
 1919ntf    on513660   3.856   0.398   4.618  0.8801  0.0251 -0.2222
 1919ntf    on513661   3.757   0.456   5.056 -0.0950  0.1991  0.2741
 1919ntf    on513662   3.938   0.286   5.058  0.3639 -0.4226 -0.4692
 1919ntf    fn413663   3.569   0.237   5.039  0.0722  0.2049  0.1960
 1919ntf    fn413664   3.719   0.088   5.000 -0.0091  0.7446 -0.2581
 1919ntf    fn413665   3.698   0.178   5.187 -0.0768 -0.5239 -0.0787
 1920ntf    cn113666   2.859   5.434   3.120 -0.2951  0.1906 -0.3919
 1920ntf    sn213667   2.947   5.289   3.056  0.2627  0.2400  0.2491
 1920ntf    nn313668   3.067   5.264   3.154 -0.0463 -0.5608  0.4297
 1920ntf    sn213669   3.203   5.191   3.120  0.1448  0.0278 -0.0818
 1920ntf    cn113670   3.307   5.330   3.065 -0.3075  0.6002  0.4797
 1920ntf    fn413671   2.813   5.423   3.243 -0.0999  0.3834 -0.2995
 1920ntf    fn413672   2.933   5.544   3.125  0.0487 -0.0777  0.5703
 1920ntf    fn413673   2.758   5.463   3.040 -0.2421  0.5129 -0.3437
 1920ntf    on513674   2.853   5.181   3.076  0.5410  0.1162  0.8841
 1920ntf    on513675   2.979   5.331   2.921  0.0292 -0.5102 -0.0476
 1920ntf    on513676   3.203   5.100   3.009  0.1771 -0.1265  0.0449
 1920ntf    on513677   3.264   5.142   3.241  0.0768 -0.2828 -0.1734
 1920ntf    fn413678   3.425   5.332   3.124 -0.1721 -0.0630  0.2414
 1920ntf    fn413679   3.325   5.328   2.934  0.3145  0.1524  0.5663
 1920ntf    fn413680   3.247   5.446   3.084  0.0831  0.9055 -0.1152
 1921ntf    cn113681   0.423   1.079   0.980 -0.1001 -0.3432 -0.4334
 1921ntf    sn213682   0.481   0.919   0.918  0.1781 -0.3849 -0.0706
 1921ntf    nn313683   0.586   0.891   1.031 -0.3012 -0.5454  0.3369
 1921ntf    sn213684   0.741   0.913   1.024 -0.3848 -0.1008 -0.1287
 1921ntf    cn113685   0.793   0.748   0.967  0.3485 -0.0297  0.3192
 1921ntf    fn413686   0.336   1.056   1.077 -0.1106  0.1463 -0.3238
 1921ntf    fn413687   0.517   1.156   1.032 -0.0613 -0.4513 -0.3437
 1921ntf    fn413688   0.366   1.156   0.889 -0.1727 -0.2485 -0.3103
 1921ntf    on513689   0.365   0.835   0.934  0.1163 -0.3725 -0.4439
 1921ntf    on513690   0.534   0.937   0.785  0.6001  0.3273  0.1869
 1921ntf    on513691   0.805   0.920   1.153  0.0676  0.0018 -0.3564
 1921ntf    on513692   0.801   0.999   0.924 -0.0009  0.0655  0.2368
 1921ntf    fn413693   0.920   0.726   0.998  0.3808 -0.3696 -0.0515
 1921ntf    fn413694   0.722   0.650   1.020  0.2465  0.0151  0.2673
 1921ntf    fn413695   0.787   0.734   0.836 -0.5740 -0.0561  0.3563
 1922ntf    cn113696   1.492   0.502   4.816  0.1251  0.1501 -0.2441
 1922ntf    sn213697   1.651   0.416   4.830 -0.1363 -0.2800  0.1267
 1922ntf    nn313698   1.632   0.328   4.702 -0.4791  0.0102 -0.0234
 1922ntf    sn213699   1.739   0.221   4.659 -0.3255  0.2461 -0.2280
 1922ntf    cn113700   1.692   0.077   4.759 -0.0105  0.0873 -0.3069
 1922ntf    fn413701   1.480   0.599   4.906 -0.1924 -0.3745  0.2892
 1922ntf    fn413702   1.481   0.551   4.694 -0.2799  0.4353 -0.0959
 1922ntf    fn413703   1.390   0.418   4.828  0.6421 -0.4149  0.3314
 1922ntf    on513704   1.748   0.521   4.815 -0.4827  0.0264  0.0273
 1922ntf    on513705   1.640   0.346   4.956  0.1768  0.2878  0.4763
 1922ntf    on513706   1.870   0.257   4.706 -0.2679  0.2642 -0.4015
 1922ntf    on513707   1.726   0.179   4.522  0.5322  0.1797 -0.2904
 1922ntf    fn413708   1.734   0.085   4.884 -0.0092 -0.7953 -0.2465
 1922ntf    fn413709   1.560   0.072   4.770  0.0485 -0.2574  0.2714
 1922ntf    fn413710   1.739  -0.032   4.701 -0.1365  0.0705 -0.3799
 1923ntf    cn113711   0.911   1.966   3.840  0.2611  0.2454  0.3310
 1923ntf    sn213712   0.895   1.786   3.818 -0.2413  0.3520 -0.2116
 1923ntf    nn313713   1.046   1.744   3.831 -0.2618  0.3757  0.1186
 1923ntf    sn213714   1.152   1.742   3.716 -0.2350 -0.3128  0.1532
 1923ntf    cn113715   1.123   1.577   3.646 -0.0036 -0.2723 -0.0405
 1923ntf    fn413716   0.954   1.994   3.962 -0.0914 -0.4702  0.6283
 1923ntf    fn413717   0.986   2.031   3.753 -0.2640 -0.0240 -0.3329
 1923ntf    fn413718   0.791   2.021   3.834 -0.0088 -0.3529  0.1447
 1923ntf    on513719   0.812   1.748   3.930 -0.3018 -0.1807 -0.4323
 1923ntf    on513720   0.838   1.767   3.687  0.1746 -0.3277 -0.2964
 1923ntf    on513721   1.287   1.725   3.764  0.0132 -0.5572 -0.6175
 1923ntf    on513722   1.128   1.836   3.609  0.3477 -0.2896  0.0371
 1923ntf    fn413723   1.226   1.532   3.576 -0.0665 -0.1218 -0.2293
 1923ntf    fn413724   1.095   1.482   3.734  0.1339 -0.1867  0.0978
 1923ntf    fn413725   1.016   1.585   3.569  0.3284  0.1613 -0.4667
 1924ntf    cn113726   5.620   0.127   5.847  0.2704 -0.2901 -0.3041
 1924ntf    sn213727   5.517   0.003   5.932  0.2433 -0.1143 -0.0820
 1924ntf    nn313728   5.603  -0.128   5.928  0.3790 -0.0399  0.3202
 1924ntf    sn213729   5.596  -0.241   5.820 -0.1605 -0.0294  0.3445
 1924ntf    cn113730   5.770  -0.291   5.837 -0.1852 -0.2598 -0.0468
 1924ntf    fn413731   5.595   0.250   5.887  0.2722 -0.4259  0.1104
 1924ntf    fn413732   5.749   0.109   5.867  0.3181 -0.0651 -0.4114
 1924ntf    fn413733   5.599   0.122   5.716 -0.4596 -0.4227 -0.1911
 1924ntf    on513734   5.529   0.058   6.065 -0.2630 -0.3088  0.0464
 1924ntf    on513735   5.390   0.011   5.865  0.5242  0.2555 -0.5761
 1924ntf    on513736   5.588  -0.191   5.685  0.0809  0.1364  0.3924
 1924ntf    on513737   5.511  -0.351   5.860 -0.4055  0.1073  0.2017
 1924ntf    fn413738   5.852  -0.190   5.817 -0.1255 -0.4047 -0.5367
 1924ntf    fn413739   5.796  -0.341   5.957 -0.4578 -0.1996  0.0392
 1924ntf    fn413740   5.804  -0.386   5.752  0.2148  0.2474 -0.4497
 1925ntf    cn113741   5.207   5.832   2.329 -0.0690  0.0004  0.0035
 1925ntf    sn213742   5.073   5.798   2.447 -0.0940 -0.1893 -0.0786
 1925ntf    nn313743   5.083   5.642   2.457 -0.4128 -0.2411 -0.5240
 1925ntf    sn213744   5.044   5.555   2.582 -0.2300  0.2292 -0.1377
 1925ntf    cn113745   5.202   5.468   2.603 -0.1897  0.3936  0.2588
 1925ntf    fn413746   5.326   5.797   2.373 -0.1303 -0.7612 -0.4158
 1925ntf    fn413747   5.180   5.753   2.226 -0.1943 -0.1065  0.1180
 1925ntf    fn413748   5.213   5.958   2.289  0.0974 -0.0854 -0.2500
 1925ntf    on513749   5.113   5.878   2.560  0.0284 -0.7488  0.2797
 1925ntf    on513750   4.960   5.850   2.374 -0.2778 -0.0112  0.3289
 1925ntf    on513751   4.950   5.452   2.545 -0.4483  0.3535  0.0700
 1925ntf    on513752   5.026   5.617   2.711 -0.1559  0.0114 -0.0243
 1925ntf    fn413753   5.190   5.378   2.699 -0.0261 -0.4831 -0.5244
 1925ntf    fn413754   5.236   5.404   2.492 -0.2794  0.4906  0.1744
 1925ntf    fn413755   5.305   5.542   2.638  0.6199 -0.2711 -0.6638
 1926ntf    cn113756   0.750   5.158   1.620 -0.0235 -0.0300  0.1624
 1926ntf    sn213757   0.828   5.292   1.715  0.0872 -0.0408  0.0876
 1926ntf    nn313758   0.795   5.414   1.621 -0.1720 -0.2060 -0.0358
 1926ntf    sn213759   0.887   5.476   1.510 -0.0958 -0.4010 -0.0828
 1926ntf    cn113760   0.924   5.639   1.581  0.1527 -0.7403  0.5771
 1926ntf    fn413761   0.620   5.170   1.602 -0.0542 -0.1499  0.3106
 1926ntf    fn413762   0.806   5.153   1.500  0.0864 -0.5853  0.2327
 1926ntf    fn413763   0.759   5.039   1.676 -0.0047 -0.0352  0.1488
 1926ntf    on513764   0.737   5.285   1.827  0.6281 -0.4341  0.5090
 1926ntf    on513765   0.967   5.263   1.736  0.2410  0.4459 -0.2511
 1926ntf    on513766   0.816   5.516   1.391 -0.0867  0.4776  0.1970
 1926ntf    on513767   1.016   5.416   1.487  0.1818  0.1915 -0.0892
 1926ntf    fn413768   0.827   5.729   1.585  0.4551 -0.3460 -0.6563
 1926ntf    fn413769   0.974   5.614   1.701  0.2236 -0.6699  0.5623
 1926ntf    fn413770   1.018   5.701   1.511 -0.1162 -0.1904  0.6899
 1927ntf    cn113771   4.878   1.218   0.866 -0.1760  0.5670 -0.0098
 1927ntf    sn213772   4.698   1.214   0.891 -0.1599  0.2337  0.0658
 1927ntf    nn313773   4.696   1.313   1.013 -0.0055 -0.0468  0.2954
 1927ntf    sn213774   4.672   1.467   1.034  0.1286  0.0602 -0.3066
 1927ntf    cn113775   4.608   1.468   1.205 -0.0385  0.3008 -0.3703
 1927ntf    fn413776   4.904   1.151   0.754  0.0905 -0.1585  0.4805
 1927ntf    fn413777   4.924   1.341   0.859 -0.3942  0.6633  0.2229
 1927ntf    fn413778   4.929   1.152   0.968  0.1754 -0.0310 -0.5571
 1927ntf    on513779   4.645   1.263   0.766 -0.3721 -0.3257 -0.0677
 1927ntf    on513780   4.663   1.080   0.930 -0.2992  0.3187  0.2356
 1927ntf    on513781   4.560   1.516   0.958 -0.3964 -0.2030  0.2773
 1927ntf    on513782   4.796   1.538   1.050  0.2467 -0.1892 -0.0998
 1927ntf    fn413783   4.600   1.590   1.254  0.5639  0.1035  0.2331
 1927ntf    fn413784   4.487   1.415   1.214  0.1001  0.0510  0.0098
 1927ntf    fn413785   4.690   1.405   1.287 -0.1393  0.2320 -0.3218
 1928ntf    cn113786   5.896   6.655   2.183  0.0131 -0.0621 -0.1176
 1928ntf    sn213787   5.999   6.785   2.110  0.1769 -0.0817  0.0777
 1928ntf    nn313788   6.115   6.702   2.045  0.4357  0.5278 -0.2525
 1928ntf    sn213789   6.134   6.654   1.897 -0.2086 -0.4318 -0.0373
 1928ntf    cn113790   6.266   6.767   1.842 -0.4230 -0.0930  0.1413
 1928ntf    fn413791   5.864   6.567   2.090 -0.2638  0.5835 -0.6431
 1928ntf    fn413792   5.956   6.599   2.287 -0.3860 -0.0559  0.1218
 1928ntf    fn413793   5.781   6.703   2.227 -0.0176 -0.3914  0.1668
 1928ntf    on513794   5.916   6.857   2.016  0.4088  0.4329  0.2583
 1928ntf    on513795   6.043   6.863   2.224 -0.0628  0.1330  0.0246
 1928ntf    on513796   6.024   6.686   1.809 -0.3602 -0.0482  0.2890
 1928ntf    on513797   6.196   6.525   1.881  0.3364 -0.1158 -0.5821
 1928ntf    fn413798   6.294   6.750   1.714  0.4586 -0.7957  0.4173
 1928ntf    fn413799   6.238   6.896   1.853 -0.4514 -0.1042  0.1994
 1928ntf    fn413800   6.378   6.746   1.909 -0.2420 -0.1483 -0.1779
 1929ntf    cn113801   5.776   5.821   0.636 -0.1970 -0.2151 -0.4889
 1929ntf    sn213802   5.625   5.805   0.737  0.1036  0.3198  0.0457
 1929ntf    nn313803   5.519   5.826   0.623 -0.1463  0.2195  0.2598
 1929ntf    sn213804   5.377   5.762   0.608 -0.0962  0.2024 -0.1683
 1929ntf    cn113805   5.268   5.907   0.599  0.0443  0.3465  0.3987
 1929ntf    fn413806   5.796   5.945   0.596 -0.2021 -0.0538  0.0134
 1929ntf    fn413807   5.882   5.792   0.709 -0.6528  0.3317  0.4068
 1929ntf    fn413808   5.778   5.742   0.529  0.0956 -0.3841 -0.3588
 1929ntf    on513809   5.631   5.672   0.792  0.4329  0.5364  0.5467
 1929ntf    on513810   5.640   5.919   0.824  0.1729  0.5422 -0.2566
 1929ntf    on513811   5.320   5.687   0.718 -0.5580  0.2887 -0.3464
 1929ntf    on513812   5.360   5.706   0.476  0.2993  0.0975 -0.1760
 1929ntf    fn413813   5.284   5.979   0.488 -0.3321 -0.3559 -0.1201
 1929ntf    fn413814   5.144   5.863   0.589  0.2153 -0.0832  0.1546
 1929ntf    fn413815   5.283   5.989   0.702 -0.1809  0.2682  0.4930
 1930ntf    cn113816   3.249   6.359   3.246  0.1709  0.5751 -0.1203
 1930ntf    sn213817   3.423   6.316   3.274  0.1214  0.2133 -0.3754
 1930ntf    nn313818   3.410   6.160   3.259 -0.2026  0.2527 -0.5171
 1930ntf    sn213819   3.506   6.055   3.192 -0.0179  0.0983 -0.0151
 1930ntf    cn113820   3.478   5.907   3.294  0.1079  0.1383  0.0782
 1930ntf    fn413821   3.216   6.355   3.118 -0.1943 -0.2307 -0.0072
 1930ntf    fn413822   3.158   6.283   3.305  0.5780  0.0174 -0.2092
 1930ntf    fn413823   3.216   6.482   3.283 -0.1252  0.5852 -0.4090
 1930ntf    on513824   3.502   6.392   3.180 -0.1750  0.3361 -0.5276
 1930ntf    on513825   3.449   6.341   3.413  0.2262 -0.2266 -0.3140
 1930ntf    on513826   3.645   6.083   3.215 -0.0680  0.5274 -0.2175
 1930ntf    on513827   3.466   6.009   3.061 -0.0465  0.0767  0.0013
 1930ntf    fn413828   3.540   5.800   3.247  0.4657  0.4919 -0.2646
 1930ntf    fn413829   3.520   5.920   3.418 -0.4046  0.3757  0.2282
 1930ntf    fn413830   3.350   5.874   3.298  0.2449 -0.4441 -0.1941
 1931ntf    cn113831   4.298   5.070   4.232 -0.0197 -0.0561  0.0332
 1931ntf    sn213832   4.462   5.082   4.311 -0.1259 -0.2685  0.2877
 1931ntf    nn313833   4.466   4.939   4.377 -0.2931 -0.4617 -0.1129
 1931ntf    sn213834   4.482   4.892   4.526 -0.0678 -0.0308  0.0017
 1931ntf    cn113835   4.659   4.851   4.541 -0.0175  0.1140 -0.1866
 1931ntf    fn413836   4.255   5.188   4.194  0.2983 -0.1486 -0.6446
 1931ntf    fn413837   4.294   4.988   4.128 -0.0471 -0.1853  0.1352
 1931ntf    fn413838   4.208   5.031   4.320 -0.0437 -0.1123 -0.0160
 1931ntf    on513839   4.553   5.096   4.199  0.0808  0.5503  0.5575
 1931ntf    on513840   4.460   5.179   4.417  0.1376 -0.3363  0.3538
 1931ntf    on513841   4.412   4.766   4.536 -0.7031  0.3597  0.4697
 1931ntf    on513842   4.459   4.992   4.627  0.4695  0.1232 -0.0227
 1931ntf    fn413843   4.689   4.829   4.668  0.0063  0.2318 -0.1708
 1931ntf    fn413844   4.700   4.748   4.470 -0.1600 -0.1855  0.1658
 1931ntf    fn413845   4.734   4.950   4.494  0.0767  0.4571  0.6653
 1932ntf    cn113846   6.211   1.096   1.395 -0.1689  0.0151 -0.1884
 1932ntf    sn213847   6.048   1.160   1.344 -0.2098 -0.1354 -0.2468
 1932ntf    nn313848   6.075   1.314   1.357 -0.3773 -0.1013 -0.3038
 1932ntf    sn213849   6.005   1.424   1.445 -0.0371 -0.1199 -0.0080
 1932ntf    cn113850   6.109   1.428   1.594 -0.0354  0.0907 -0.0143
 1932ntf    fn413851   6.213   0.965   1.374  0.0991  0.0894 -0.6466
 1932ntf    fn413852   6.312   1.150   1.329 -0.1767  0.1140 -0.1194
 1932ntf    fn413853   6.242   1.121   1.521 -0.1038  0.5358 -0.3040
 1932ntf    on513854   6.035   1.117   1.207 -0.2387 -0.2208 -0.2170
 1932ntf    on513855   5.959   1.099   1.440  0.2734 -0.1798  0.1774
 1932ntf    on513856   5.875   1.391   1.497  0.0524 -0.6050 -0.0939
 1932ntf    on513857   6.025   1.552   1.381 -0.8337 -0.0074 -0.0356
 1932ntf    fn413858   6.047   1.473   1.702  0.2159  0.3435  0.0236
 1932ntf    fn413859   6.159   1.311   1.628  0.8689  0.3508 -0.4330
 1932ntf    fn413860   6.216   1.505   1.583  0.5328 -0.6701  0.1146
 1933ntf    cn113861   0.807   6.497   3.661 -0.0280  0.3300  0.0663
 1933ntf    sn213862   0.915   6.426   3.534 -0.0262 -0.0418  0.2755
 1933ntf    nn313863   0.802   6.368   3.441  0.3251  0.0915 -0.2417
 1933ntf    sn213864   0.732   6.443   3.322 -0.3620  0.1718  0.2068
 1933ntf    cn113865   0.849   6.395   3.191 -0.2456 -0.0444  0.3879
 1933ntf    fn413866   0.738   6.405   3.726  0.1018  0.2696  0.1180
 1933ntf    fn413867   0.871   6.566   3.754  0.5701  0.1404 -0.2014
 1933ntf    fn413868   0.722   6.578   3.599 -0.2733  0.1707  0.1898
 1933ntf    on513869   0.993   6.534   3.479 -0.6027  0.3482  0.2182
 1933ntf    on513870   0.992   6.325   3.604  0.1307  0.4110  0.7590
 1933ntf    on513871   0.743   6.587   3.316 -0.3802  0.1599 -0.1111
 1933ntf    on513872   0.609   6.384   3.276 -0.1222 -0.0078 -0.2105
 1933ntf    fn413873   0.886   6.270   3.210 -0.5179 -0.1361  0.3114
 1933ntf    fn413874   0.790   6.399   3.072 -0.0320  0.2858  0.2911
 1933ntf    fn413875   0.953   6.476   3.183 -0.0964 -0.2567  0.1838
 1934ntf    cn113876   1.046   1.038   3.723 -0.4749 -0.1634 -0.1049
 1934ntf    sn213877   1.055   0.952   3.563  0.2766 -0.0632 -0.1197
 1934ntf    nn313878   0.917   0.998   3.504  0.1470  0.1243  0.3277
 1934ntf    sn213879   0.777   0.926   3.508  0.3849 -0.3361  0.3697
 1934ntf    cn113880   0.666   1.065   3.543  0.4659 -0.1963  0.0714
 1934ntf    fn413881   1.053   1.169   3.712  0.0656 -0.1822 -0.0267
 1934ntf    fn413882   0.935   1.008   3.789  0.2850 -0.1621  1.2082
 1934ntf    fn413883   1.139   0.997   3.808 -0.2561 -0.1412 -0.3307
 1934ntf    on513884   1.167   1.022   3.505  0.5592 -0.3289  0.1055
 1934ntf    on513885   1.068   0.813   3.597 -0.1115  0.0156  0.3557
 1934ntf    on513886   0.761   0.823   3.608 -0.1722 -0.6536 -0.0383
 1934ntf    on513887   0.736   0.891   3.374 -0.2276  0.3718  0.3703
 1934ntf    fn413888   0.556   1.030   3.606  0.5083  0.0618  0.2910
 1934ntf    fn413889   0.726   1.166   3.604 -0.1674  0.5071 -0.4464
 1934ntf    fn413890   0.634   1.124   3.428  0.2606 -0.4412  0.0026
 1935ntf    cn113891   1.377   1.108   6.637 -0.0632 -0.1790  0.1411
 1935ntf    sn213892   1.441   1.085   6.468 -0.0018 -0.0541  0.1474
 1935ntf    nn313893   1.532   1.212   6.456  0.0735 -0.1591 -0.4272
 1935ntf    sn213894   1.688   1.214   6.473  0.0234 -0.1094  0.0293
 1935ntf    cn113895   1.707   1.393   6.446  0.3395 -0.0968  0.3317
 1935ntf    fn413896   1.283   1.026   6.680 -0.0160 -0.2951  0.0262
 1935ntf    fn413897   1.466   1.095   6.734  0.3782  0.5965 -0.1496
 1935ntf    fn413898   1.340   1.233   6.656  0.0897 -0.0375 -0.4522
 1935ntf    on513899   1.512   0.961   6.485 -0.2646 -0.1822  0.3069
 1935ntf    on513900   1.317   1.092   6.394  0.2772  0.3182 -0.2889
 1935ntf    on513901   1.750   1.150   6.360  0.3269  0.3027 -0.0410
 1935ntf    on513902   1.738   1.197   6.607 -0.3351 -0.1648  0.1576
 1935ntf    fn413903   1.833   1.433   6.443  0.3847 -0.2795 -0.5161
 1935ntf    fn413904   1.651   1.447   6.339 -0.3385 -0.3151  0.5695
 1935ntf    fn413905   1.651   1.453   6.550 -0.5062  0.0953 -0.2288
 1936ntf    cn113906   5.071   3.784   6.699 -0.2898  0.4942 -0.1832
 1936ntf    sn213907   5.127   3.955   6.724  0.4680  0.2090  0.0775
 1936ntf    nn313908   5.045   3.986   6.854  0.1518 -0.3704  0.0179
 1936ntf    sn213909   5.098   3.976   7.001 -0.0982 -0.1094  0.1272
 1936ntf    cn113910   5.152   4.147   7.030  0.1459 -0.1206 -0.2539
 1936ntf    fn413911   4.942   3.788   6.667 -0.3496 -0.0733 -0.0202
 1936ntf    fn413912   5.132   3.725   6.599  0.1656 -0.4060  0.6097
 1936ntf    fn413913   5.087   3.705   6.804  0.1967  0.3067 -0.4014
 1936ntf    on513914   5.271   3.943   6.734  0.4278 -0.5344 -0.1799
 1936ntf    on513915   5.063   4.025   6.615  0.2699 -0.2945 -0.1319
 1936ntf    on513916   5.217   3.898   7.024  0.2144  0.4203  0.3111
 1936ntf    on513917   4.989   3.956   7.093 -0.2812  0.1356 -0.0360
 1936ntf    fn413918   5.049   4.228   7.017 -0.2352 -0.5971 -0.2328
 1936ntf    fn413919   5.199   4.170   7.152 -0.1951 -0.1271 -0.1190
 1936ntf    fn413920   5.239   4.197   6.945 -0.0830 -0.2697 -0.5752
 1937ntf    cn113921   3.437   1.244   4.629 -0.1220  0.0430 -0.2046
 1937ntf    sn213922   3.485   1.074   4.674 -0.2802  0.0220 -0.1130
 1937ntf    nn313923   3.538   1.093   4.821 -0.1237 -0.4909 -0.1032
 1937ntf    sn213924   3.462   1.095   4.958 -0.1425  0.0773 -0.1232
 1937ntf    cn113925   3.503   0.933   5.028 -0.2319  0.0513 -0.1305
 1937ntf    fn413926   3.542   1.324   4.632 -0.1910  0.1360 -0.2565
 1937ntf    fn413927   3.378   1.257   4.511 -0.1958  0.2874 -0.1413
 1937ntf    fn413928   3.340   1.290   4.707  0.1884  0.7924 -0.2558
 1937ntf    on513929   3.377   0.982   4.653 -0.2906 -0.0056  0.0650
 1937ntf    on513930   3.602   1.051   4.593  0.2714 -0.5977  0.8434
 1937ntf    on513931   3.318   1.092   4.952 -0.1370 -0.3847 -0.0292
 1937ntf    on513932   3.525   1.193   5.043  0.3011 -0.1227 -0.2197
 1937ntf    fn413933   3.434   0.904   5.137 -0.1125  0.0107 -0.0647
 1937ntf    fn413934   3.483   0.835   4.942 -0.1138  0.0573 -0.1646
 1937ntf    fn413935   3.630   0.933   5.065 -0.3170  0.0997  0.1647
 1938ntf    cn113936   0.032   5.729   0.919  0.2171 -0.1159 -0.0535
 1938ntf    sn213937   0.149   5.655   0.802  0.2685  0.0982 -0.1381
 1938ntf    nn313938   0.245   5.587   0.907 -0.1872  0.3393  0.4384
 1938ntf    sn213939   0.248   5.439   0.959  0.0100  0.1334 -0.1525
 1938ntf    cn113940   0.428   5.414   0.967 -0.0640 -0.1483  0.6907
 1938ntf    fn413941  -0.031   5.637   0.991  0.0712  0.4489  0.5536
 1938ntf    fn413942   0.084   5.813   1.007  0.0553 -0.2440  0.1670
 1938ntf    fn413943  -0.064   5.792   0.854  0.4139 -0.0454 -0.2770
 1938ntf    on513944   0.066   5.573   0.717 -0.5538  0.6049  0.1653
 1938ntf    on513945   0.210   5.771   0.742  0.3718  0.2867  0.3262
 1938ntf    on513946   0.222   5.342   0.855 -0.7903 -0.2713  0.4145
 1938ntf    on513947   0.202   5.426   1.095 -0.5411  0.5678 -0.2957
 1938ntf    fn413948   0.476   5.479   1.072  0.1033  0.1750  0.4169
 1938ntf    fn413949   0.461   5.287   0.977 -0.1500 -0.2173  0.1409
 1938ntf    fn413950   0.481   5.463   0.856 -0.4304  0.1813  0.6607
 1939ntf    cn113951   1.250   4.424   2.377  0.2651 -0.1989  0.0641
 1939ntf    sn213952   1.347   4.296   2.292  0.1483 -0.3077  0.0955
 1939ntf    nn313953   1.290   4.171   2.368 -0.3116  0.1756  0.5574
 1939ntf    sn213954   1.187   4.060   2.325  0.0186  0.0797  0.0071
 1939ntf    cn113955   1.295   3.923   2.275  0.0837  0.1819 -0.1359
 1939ntf    fn413956   1.119   4.406   2.366  0.2146  0.1071  0.1453
 1939ntf    fn413957   1.275   4.415   2.506  0.1122 -0.6878  0.0606
 1939ntf    fn413958   1.273   4.550   2.343  0.4228 -0.1479  0.3553
 1939ntf    on513959   1.309   4.323   2.156  0.0853 -0.4652  0.0811
 1939ntf    on513960   1.484   4.327   2.326  0.0250 -0.1337  0.4330
 1939ntf    on513961   1.097   4.088   2.216  0.1258 -0.5702 -0.2511
 1939ntf    on513962   1.123   4.002   2.440 -0.1240  0.0263 -0.1001
 1939ntf    fn413963   1.223   3.825   2.221  0.4567  0.0232 -0.3549
 1939ntf    fn413964   1.382   3.964   2.184  0.1090  0.5946  0.0740
 1939ntf    fn413965   1.360   3.878   2.381  0.4941  0.1783 -0.3843
 1940ntf    cn113966   6.476   2.911   4.617 -0.6033  0.4155 -0.3007
 1940ntf    sn213967   6.608   3.028   4.659 -0.0905 -0.3575  0.2505
 1940ntf    nn313968   6.603   3.119   4.531  0.1417 -0.3213  0.2659
 1940ntf    sn213969   6.708   3.226   4.485 -0.3761  0.0502 -0.0588
 1940ntf    cn113970   6.798   3.280   4.633  0.1326 -0.2664 -0.2487
 1940ntf    fn413971   6.506   2.837   4.512 -0.5860 -0.5033  0.3392
 1940ntf    fn413972   6.446   2.830   4.717  0.1680  0.5997  0.0816
 1940ntf    fn413973   6.365   2.978   4.591 -0.6619  0.3726 -0.1650
 1940ntf    on513974   6.563   3.089   4.781  0.1315  0.1797  0.0641
 1940ntf    on513975   6.725   2.943   4.670  0.5002  0.3753 -0.2420
 1940ntf    on513976   6.648   3.352   4.449  0.4791  0.5631  0.3007
 1940ntf    on513977   6.806   3.165   4.398 -0.3897  0.2953 -0.2483
 1940ntf    fn413978   6.715   3.349   4.710  0.0863 -0.1016 -0.4477
 1940ntf    fn413979   6.856   3.185   4.705  0.1090 -0.0464  0.0633
 1940ntf    fn413980   6.895   3.364   4.602  0.0733 -0.0222  0.2207
 1941ntf    cn113981   2.849   5.630   5.415  0.1145  0.5485  0.3891
 1941ntf    sn213982   2.787   5.507   5.533  0.0043  0.1174 -0.1124
 1941ntf    nn313983   2.632   5.506   5.511 -0.0898 -0.1505  0.5172
 1941ntf    sn213984   2.516   5.589   5.578  0.1120  0.2813  0.3378
 1941ntf    cn113985   2.441   5.651   5.425 -0.1968  0.1570  0.4387
 1941ntf    fn413986   2.794   5.750   5.420 -0.3077  0.4209 -0.8201
 1941ntf    fn413987   2.980   5.639   5.431  0.2558 -0.2154 -0.2592
 1941ntf    fn413988   2.833   5.591   5.289  0.1008  0.2759  0.4735
 1941ntf    on513989   2.847   5.383   5.491  0.4626  0.4070 -0.3187
 1941ntf    on513990   2.820   5.555   5.665 -0.4304  0.7534 -0.2334
 1941ntf    on513991   2.553   5.711   5.646 -0.0001  0.6135 -0.1948
 1941ntf    on513992   2.405   5.512   5.630  0.1017 -0.0953 -0.2364
 1941ntf    fn413993   2.419   5.553   5.339  0.1639  0.2902  0.1908
 1941ntf    fn413994   2.331   5.722   5.443 -0.6504 -0.4217 -0.0147
 1941ntf    fn413995   2.526   5.725   5.356  0.0091 -0.1751  0.3342
 1942ntf    cn113996   5.906   5.289   5.450  0.6232 -0.1168  0.2827
 1942ntf    sn213997   5.969   5.360   5.606  0.0978 -0.0224  0.4524
 1942ntf    nn313998   6.120   5.377   5.569 -0.0657 -0.0925 -0.2748
 1942ntf    sn213999   6.239   5.278   5.598  0.0248  0.1765  0.2908
 1942ntf    cn114000   6.381   5.383   5.642  0.0487  0.2611  0.0129
 1942ntf    fn414001   5.946   5.164   5.430 -0.0452 -0.1721 -0.7640
 1942ntf    fn414002   5.775   5.296   5.438  0.6886  0.3975 -0.1535
 1942ntf    fn414003   5.956   5.353   5.346 -0.5966  0.3188 -0.0476
 1942ntf    on514004   5.896   5.484   5.608 -0.1701 -0.1719  0.1541
 1942ntf    on514005   5.935   5.257   5.701 -0.3042  0.0482  0.3885
 1942ntf    on514006   6.293   5.206   5.486 -0.1017  0.0375  0.3190
 1942ntf    on514007   6.238   5.203   5.721  0.1028 -0.2843  0.0096
 1942ntf    fn414008   6.406   5.468   5.543 -0.2829 -0.3496 -0.6105
 1942ntf    fn414009   6.369   5.454   5.753  0.8711  0.1159  0.2001
 1942ntf    fn414010   6.489   5.309   5.656 -0.0605  0.0494 -0.2521
 1943ntf    cn114011   4.137   2.225   2.854  0.0569 -0.1910 -0.1826
 1943ntf    sn214012   4.115   2.185   2.678  0.0992 -0.0513 -0.2194
 1943ntf    nn314013   4.047   2.044   2.691 -0.2979  0.1528 -0.0296
 1943ntf    sn214014   4.102   1.899   2.666  0.1171  0.2511  0.2893
 1943ntf    cn114015   4.026   1.860   2.505  0.3599  0.2193  0.1819
 1943ntf    fn414016   4.153   2.113   2.923  0.0830  0.1210  0.3250
 1943ntf    fn414017   4.236   2.310   2.879 -0.0975 -0.0230 -0.1436
 1943ntf    fn414018   4.027   2.279   2.903  0.0952 -0.2211 -0.0626
 1943ntf    on514019   4.018   2.282   2.631 -0.0220 -0.1705 -0.2154
 1943ntf    on514020   4.248   2.191   2.625  0.2382  0.6538  0.1816
 1943ntf    on514021   4.038   1.806   2.756  0.3923 -0.5321 -0.3110
 1943ntf    on514022   4.244   1.885   2.649  0.0060 -0.5462 -0.0243
 1943ntf    fn414023   4.036   1.731   2.474  0.1698  0.3300 -0.3397
 1943ntf    fn414024   3.896   1.882   2.515  0.3113  0.1929 -0.4078
 1943ntf    fn414025   4.074   1.927   2.402 -0.1464 -0.1244 -0.2799
 1944ntf    cn114026   2.388   5.798   1.348  0.1362  0.4490  0.1436
 1944ntf    sn214027   2.424   5.931   1.229  0.1923  0.3178  0.0128
 1944ntf    nn314028   2.285   6.004   1.238 -0.2358 -0.5625  0.7561
 1944ntf    sn214029   2.156   6.001   1.149  0.1097 -0.0941  0.2301
 1944ntf    cn114030   2.027   5.958   1.270 -0.1942 -0.0014 -0.0573
 1944ntf    fn414031   2.270   5.745   1.320  0.3755  0.1229 -0.2761
 1944ntf    fn414032   2.478   5.701   1.345 -0.2054  0.1321  0.0816
 1944ntf    fn414033   2.380   5.835   1.475 -0.5662  0.2913  0.1464
 1944ntf    on514034   2.531   6.008   1.287  0.1797  0.1107  0.3146
 1944ntf    on514035   2.451   5.862   1.105  0.3717 -0.4279  0.4625
 1944ntf    on514036   2.130   5.895   1.055 -0.3952 -0.2155  0.5043
 1944ntf    on514037   2.115   6.132   1.103  0.1169 -0.0524  0.3432
 1944ntf    fn414038   1.977   6.062   1.334 -0.1732  0.2480 -0.4440
 1944ntf    fn414039   1.925   5.890   1.221  0.0110 -0.2442 -0.1491
 1944ntf    fn414040   2.075   5.870   1.357  0.2637  0.1445 -0.1561
 1945ntf    cn114041   2.413   3.799   1.721  0.1507  0.0075  0.3029
 1945ntf    sn214042   2.250   3.825   1.645  0.2157  0.0971  0.1948
 1945ntf    nn314043   2.192   3.679   1.638 -0.8804  0.5629 -0.9185
 1945ntf    sn214044   2.073   3.626   1.725 -0.0074 -0.2889 -0.2172
 1945ntf    cn114045   2.007   3.493   1.621 -0.4327 -0.4411  0.2438
 1945ntf    fn414046   2.397   3.738   1.838 -0.5775 -0.0407  0.1863
 1945ntf    fn414047   2.494   3.719   1.654 -0.0331  0.1948 -0.1483
 1945ntf    fn414048   2.491   3.902   1.745  0.2255 -0.0050  0.1125
 1945ntf    on514049   2.177   3.912   1.734 -0.1873 -0.1640  0.1247
 1945ntf    on514050   2.283   3.886   1.518 -0.2651 -0.1034 -0.0317
 1945ntf    on514051   1.958   3.711   1.741  0.5657  0.5329 -0.3719
 1945ntf    on514052   2.122   3.551   1.838 -0.0930 -0.1712 -0.1009
 1945ntf    fn414053   1.949   3.534   1.509 -0.0104 -0.0884  0.1522
 1945ntf    fn414054   2.093   3.399   1.587  0.3959  0.2880  0.2901
 1945ntf    fn414055   1.912   3.431   1.689 -0.2122 -0.7984  0.2282
 1946ntf    cn114056   5.987   4.174   0.101  0.0161  0.2640  0.2769
 1946ntf    sn214057   6.034   4.075   0.246  0.0230  0.0493  0.1293
 1946ntf    nn314058   6.029   3.926   0.197  0.2425  0.2028 -0.3578
 1946ntf    sn214059   5.909   3.825   0.195  0.1978  0.2502 -0.0584
 1946ntf    cn114060   5.932   3.747   0.357 -0.0549  0.0609 -0.1124
 1946ntf    fn414061   6.075   4.149   0.005  0.0415 -0.1242  0.3994
 1946ntf    fn414062   5.869   4.135   0.055  0.1962  0.4619 -0.3685
 1946ntf    fn414063   5.980   4.305   0.119 -0.8399  0.2685 -0.0274
 1946ntf    on514064   6.170   4.110   0.277  0.1765 -0.2228 -0.2296
 1946ntf    on514065   5.936   4.119   0.343  0.3288  0.6765  0.1596
 1946ntf    on514066   5.920   3.722   0.095  0.4373  0.3342 -0.1194
 1946ntf    on514067   5.778   3.885   0.184  0.1132  0.0229 -0.3217
 1946ntf    fn414068   6.045   3.679   0.366 -0.3081 -0.3130  0.2962
 1946ntf    fn414069   5.926   3.837   0.455  0.6379  0.1318 -0.1266
 1946ntf    fn414070   5.835   3.660   0.378  0.1006 -0.0899 -0.0086
 1947ntf    cn114071   2.468   2.596   5.846  0.3880 -0.2997 -0.2067
 1947ntf    sn214072   2.434   2.701   5.702 -0.0034 -0.0052  0.0981
 1947ntf    nn314073   2.298   2.764   5.752 -0.0325  0.0985 -0.1081
 1947ntf    sn214074   2.254   2.913   5.765  0.0093  0.1287 -0.3174
 1947ntf    cn114075   2.300   2.946   5.937 -0.1479 -0.4772 -0.1571
 1947ntf    fn414076   2.592   2.551   5.841  0.4282 -0.2526  0.2860
 1947ntf    fn414077   2.456   2.672   5.954 -0.1207 -0.2144 -0.3195
 1947ntf    fn414078   2.374   2.504   5.865  0.2153 -0.0076  0.3956
 1947ntf    on514079   2.539   2.798   5.680  0.3974 -0.4784 -0.0735
 1947ntf    on514080   2.409   2.611   5.593  0.2855  0.1102 -0.0621
 1947ntf    on514081   2.110   2.926   5.764 -0.0121 -0.1068 -0.2150
 1947ntf    on514082   2.321   3.007   5.678  0.2768 -0.4706 -0.7608
 1947ntf    fn414083   2.295   3.073   5.976  0.3090 -0.6316  0.4289
 1947ntf    fn414084   2.226   2.885   6.028  0.1842 -0.4492  0.1379
 1947ntf    fn414085   2.423   2.902   5.960 -0.0626 -0.3890 -0.4444
 1948ntf    cn114086   6.106   4.945   1.397 -0.1776 -0.1946 -0.1023
 1948ntf    sn214087   6.056   5.007   1.234  0.1065 -0.2824 -0.2238
 1948ntf    nn314088   5.914   5.061   1.272  0.0469 -0.3330 -0.3722
 1948ntf    sn214089   5.851   5.196   1.222  0.2177 -0.1504 -0.0955
 1948ntf    cn114090   5.760   5.131   1.079  0.1065  0.0062 -0.0967
 1948ntf    fn414091   6.022   4.858   1.450 -0.1146  0.2102  0.6868
 1948ntf    fn414092   6.223   4.883   1.391 -0.0145  0.1354 -0.3599
 1948ntf    fn414093   6.113   5.041   1.488 -0.2493 -0.3030  0.0172
 1948ntf    on514094   6.162   5.095   1.193  0.1412 -0.1931  0.0560
 1948ntf    on514095   6.045   4.883   1.161  0.1010 -0.0019 -0.7018
 1948ntf    on514096   5.935   5.306   1.182 -0.2127  0.3805  0.4414
 1948ntf    on514097   5.748   5.233   1.316  0.2642  0.2177 -0.1886
 1948ntf    fn414098   5.687   5.023   1.104 -0.0988  0.0625 -0.4520
 1948ntf    fn414099   5.688   5.226   1.022 -0.2445 -0.3375 -0.2349
 1948ntf    fn414100   5.843   5.092   0.983 -0.1237 -0.0429 -0.2768
 1949ntf    cn114101   3.624   5.096   2.452  0.1669 -0.2594 -0.2552
 1949ntf    sn214102   3.543   5.052   2.295 -0.5095 -0.0505  0.0345
 1949ntf    nn314103   3.515   5.195   2.238 -0.4053  0.0619  0.2668
 1949ntf    sn214104   3.503   5.240   2.088  0.4243 -0.4112  0.0525
 1949ntf    cn114105   3.324   5.271   2.082  0.4380 -0.2661  0.3763
 1949ntf    fn414106   3.744   5.151   2.438  0.0688 -0.0345 -0.2111
 1949ntf    fn414107   3.563   5.188   2.525  0.5050 -0.5050  0.3443
 1949ntf    fn414108   3.642   4.994   2.533 -0.1448 -0.1234 -0.0126
 1949ntf    on514109   3.645   4.978   2.226 -0.3993  0.3410 -0.2251
 1949ntf    on514110   3.415   4.993   2.328 -0.5139  0.2675  0.6047
 1949ntf    on514111   3.528   5.137   1.989  0.4431  0.0421 -0.4189
 1949ntf    on514112   3.553   5.371   2.054  0.3569 -0.2347  0.6260
 1949ntf    fn414113   3.293   5.342   2.189  0.9910  0.2231  0.2135
 1949ntf    fn414114   3.294   5.340   1.972 -0.1801 -0.4281  0.4383
 1949ntf    fn414115   3.252   5.160   2.085 -0.1381  0.0816 -0.1232
 1950ntf    cn114116   3.900   1.227   3.756 -0.1964 -0.3085  0.3121
 1950ntf    sn214117   3.868   1.311   3.914 -0.2002 -0.1146  0.2075
 1950ntf    nn314118   3.940   1.199   3.997  0.1835 -0.1142 -0.1199
 1950ntf    sn214119   3.877   1.074   4.069  0.1858 -0.1391 -0.1606
 1950ntf    cn114120   4.029   1.012   4.148  0.0593 -0.0039  0.1926
 1950ntf    fn414121   3.829   1.274   3.655  0.2335  0.0662  0.1809
 1950ntf    fn414122   4.026   1.251   3.723 -0.3832 -0.1008 -0.2614
 1950ntf    fn414123   3.888   1.095   3.756 -0.2331 -0.3057 -0.1268
 1950ntf    on514124   3.946   1.429   3.887 -0.2674 -0.1950 -0.3395
 1950ntf    on514125   3.724   1.316   3.913 -0.1991 -0.0821 -0.6024
 1950ntf    on514126   3.844   0.968   3.978 -0.1366  0.0442 -0.2579
 1950ntf    on514127   3.798   1.089   4.189  0.4586  0.3929 -0.0412
 1950ntf    fn414128   4.003   0.927   4.246 -0.1964  0.0413  0.1648
 1950ntf    fn414129   4.099   0.941   4.061  0.2320  0.0764  0.2653
 1950ntf    fn414130   4.108   1.104   4.200  0.3980 -0.1423 -0.0735
 1951ntf    cn114131   4.229   5.346   5.164 -0.1586  0.0242 -0.0197
 1951ntf    sn214132   4.082   5.444   5.207 -0.0762  0.1974 -0.1304
 1951ntf    nn314133   4.062   5.537   5.082 -0.3633  0.2355 -0.0570
 1951ntf    sn214134   4.101   5.688   5.070  0.1059  0.1617  0.4737
 1951ntf    cn114135   4.123   5.689   4.890  0.1692  0.2350  0.4811
 1951ntf    fn414136   4.321   5.411   5.095 -0.1612 -0.2847 -0.3178
 1951ntf    fn414137   4.300   5.297   5.265  0.0280  0.0462 -0.1394
 1951ntf    fn414138   4.195   5.241   5.090 -0.5113 -0.1259  0.3529
 1951ntf    on514139   3.979   5.344   5.224 -0.1558  0.2882 -0.0728
 1951ntf    on514140   4.133   5.508   5.326 -0.7995  0.2209  0.1712
 1951ntf    on514141   4.234   5.722   5.115  0.3866  0.3387 -0.4648
 1951ntf    on514142   3.994   5.781   5.097 -0.0239  0.0690  0.2844
 1951ntf    fn414143   4.242   5.646   4.851 -0.3832 -0.4497 -0.4890
 1951ntf    fn414144   4.032   5.624   4.819  0.2814  0.2332  0.3370
 1951ntf    fn414145   4.117   5.810   4.838  0.1244 -0.1257 -0.3665
 1952ntf    cn114146   5.265   4.896   2.555  0.2298 -0.0618 -0.0024
 1952ntf    sn214147   5.128   4.807   2.634 -0.0236 -0.1031 -0.4829
 1952ntf    nn314148   5.109   4.680   2.544 -0.0883 -0.7335  0.4112
 1952ntf    sn214149   5.037   4.686   2.405  0.1440 -0.4144  0.3047
 1952ntf    cn114150   4.865   4.658   2.456 -0.1494  0.0790 -0.3995
 1952ntf    fn414151   5.296   5.004   2.625  0.0910 -0.0778  0.0829
 1952ntf    fn414152   5.379   4.830   2.542  0.0612 -0.3835  0.1289
 1952ntf    fn414153   5.243   4.945   2.434 -0.5952 -0.1176  0.1217
 1952ntf    on514154   5.188   4.775   2.761 -0.4744 -0.0636 -0.2594
 1952ntf    on514155   5.019   4.901   2.632 -0.4401 -0.5559  0.2471
 1952ntf    on514156   5.073   4.568   2.332  0.0197 -0.2274 -0.0603
 1952ntf    on514157   5.033   4.818   2.346 -0.1862 -0.4611  0.2223
 1952ntf    fn414158   4.840   4.532   2.490  0.2871  0.1684  0.2458
 1952ntf    fn414159   4.812   4.744   2.540  0.8785  0.6086 -0.2913
 1952ntf    fn414160   4.793   4.682   2.347 -0.2905 -0.1998 -0.3697
 1953ntf    cn114161   3.606   6.080   0.028  0.0021  0.1641  0.2799
 1953ntf    sn214162   3.782   6.038   0.038  0.0404  0.2049 -0.2056
 1953ntf    nn314163   3.831   6.157   0.127 -0.4133  0.1874  0.0685
 1953ntf    sn214164   3.847   6.156   0.284 -0.1500 -0.2679  0.0395
 1953ntf    cn114165   4.020   6.100   0.298  0.0227  0.2246 -0.1127
 1953ntf    fn414166   3.545   6.078   0.145 -0.3940 -0.8372  0.0652
 1953ntf    fn414167   3.575   6.198  -0.024  0.3978  0.1609  0.0356
 1953ntf    fn414168   3.537   5.985  -0.035 -0.5499  0.3299  0.6249
 1953ntf    on514169   3.797   5.905   0.091 -0.1421 -0.0141 -0.6923
 1953ntf    on514170   3.829   6.053  -0.098 -0.7066 -0.3252 -0.5281
 1953ntf    on514171   3.774   6.054   0.355 -0.1110  0.0776  0.5802
 1953ntf    on514172   3.829   6.288   0.338  0.4652  0.2557 -1.0010
 1953ntf    fn414173   4.050   6.044   0.414 -0.0516 -0.1394 -0.2688
 1953ntf    fn414174   4.045   6.003   0.212 -0.2680 -0.0498  0.1092
 1953ntf    fn414175   4.113   6.194   0.286  0.2476  0.0220  0.0435
 1954ntf    cn114176   6.047   5.841   2.515 -0.1064 -0.4115 -0.1742
 1954ntf    sn214177   5.904   5.862   2.625  0.2788 -0.0791  0.2655
 1954ntf    nn314178   5.887   5.711   2.665 -0.1581 -0.0901  0.0377
 1954ntf    sn214179   5.766   5.614   2.640 -0.0492 -0.1707 -0.1807
 1954ntf    cn114180   5.855   5.458   2.612  0.0980  0.0451 -0.9481
 1954ntf    fn414181   6.013   5.756   2.419 -0.5601 -0.3520 -0.0685
 1954ntf    fn414182   6.075   5.955   2.454 -0.3141 -0.1355  0.2469
 1954ntf    fn414183   6.158   5.790   2.566 -0.1653 -0.0939  0.2717
 1954ntf    on514184   5.960   5.952   2.723 -0.3127  0.4428  0.1298
 1954ntf    on514185   5.803   5.922   2.542  0.1324 -0.5234  0.1236
 1954ntf    on514186   5.693   5.642   2.519  0.0795 -0.0677 -0.2348
 1954ntf    on514187   5.687   5.593   2.759  0.3221  0.0259  0.1032
 1954ntf    fn414188   5.767   5.365   2.579 -0.0410 -0.3345  0.4286
 1954ntf    fn414189   5.955   5.475   2.527  0.7385 -0.1526 -0.2464
 1954ntf    fn414190   5.905   5.412   2.726 -0.4671  0.6939 -0.4271
 1955ntf    cn114191   1.446   6.575   1.547 -0.0162 -0.0067 -0.2160
 1955ntf    sn214192   1.619   6.539   1.590 -0.0647  0.1623  0.1247
 1955ntf    nn314193   1.644   6.644   1.704 -0.5692  0.3251  0.0896
 1955ntf    sn214194   1.723   6.779   1.688  0.0347 -0.0243  0.0812
 1955ntf    cn114195   1.890   6.727   1.638 -0.0518 -0.2170 -0.0110
 1955ntf    fn414196   1.427   6.705   1.533  0.8294  0.2311  0.7061
 1955ntf    fn414197   1.422   6.526   1.426 -0.1136 -0.0227 -0.1904
 1955ntf    fn414198   1.353   6.526   1.627 -0.3264  0.1871 -0.4597
 1955ntf    on514199   1.601   6.408   1.649  0.2783  0.3375  0.6230
 1955ntf    on514200   1.698   6.554   1.470  0.1056 -0.0769  0.2058
 1955ntf    on514201   1.756   6.829   1.819  0.0296 -0.4393  0.2444
 1955ntf    on514202   1.676   6.869   1.586  0.1559 -0.1191 -0.0583
 1955ntf    fn414203   1.902   6.687   1.513  1.0940 -0.1133  0.0544
 1955ntf    fn414204   1.973   6.830   1.650 -0.1136 -0.1312 -0.3251
 1955ntf    fn414205   1.945   6.634   1.715 -0.2763 -0.7030 -0.4360
 1956ntf    cn114206   3.684   1.663   1.033 -0.0903  0.0425  0.4433
 1956ntf    sn214207   3.731   1.498   0.973  0.4310  0.2635  0.2388
 1956ntf    nn314208   3.622   1.410   1.045  0.3756  0.3019  0.2017
 1956ntf    sn214209   3.643   1.266   1.104 -0.0650  0.0043 -0.3635
 1956ntf    cn114210   3.537   1.171   0.991 -0.2228 -0.0021 -0.2103
 1956ntf    fn414211   3.566   1.698   0.986  0.0145 -0.3065 -0.0783
 1956ntf    fn414212   3.679   1.657   1.166  0.1176 -0.3825  0.4345
 1956ntf    fn414213   3.762   1.761   0.993 -0.3764 -0.0114 -0.2576
 1956ntf    on514214   3.714   1.498   0.830 -0.4820 -0.2512  0.3356
 1956ntf    on514215   3.863   1.481   1.029  0.5164  0.1443  0.0016
 1956ntf    on514216   3.580   1.254   1.233 -0.1046  0.4946 -0.3358
 1956ntf    on514217   3.771   1.202   1.083  0.0711  0.2281 -0.2172
 1956ntf    fn414218   3.592   1.170   0.871 -0.1372  0.5735 -0.1781
 1956ntf    fn414219   3.516   1.045   1.028 -0.0319 -0.0532 -0.2757
 1956ntf    fn414220   3.416   1.224   0.981 -0.3102 -0.2515 -0.5002
 1957ntf    cn114221   4.524   3.696   0.902 -0.1142  0.0576 -0.0443
 1957ntf    sn214222   4.623   3.848   0.899 -0.1838  0.1007 -0.1432
 1957ntf    nn314223   4.590   3.909   1.040 -0.0135 -0.2963  0.0702
 1957ntf    sn214224   4.654   4.034   1.111  0.1455 -0.2920 -0.0795
 1957ntf    cn114225   4.508   4.140   1.138  0.6118  0.3176  0.0632
 1957ntf    fn414226   4.399   3.711   0.941 -0.1250 -0.6511  0.2080
 1957ntf    fn414227   4.510   3.636   0.785  0.5574 -0.1924 -0.0026
 1957ntf    fn414228   4.571   3.606   0.987 -0.3684  0.3007  0.3562
 1957ntf    on514229   4.757   3.797   0.880  0.0564  0.4203  0.6482
 1957ntf    on514230   4.573   3.928   0.790 -0.3537 -0.0394 -0.1672
 1957ntf    on514231   4.750   4.111   1.035 -0.2189  0.0511 -0.1989
 1957ntf    on514232   4.698   4.008   1.246  0.1777  0.4334  0.0550
 1957ntf    fn414233   4.431   4.076   1.224  0.1463  0.3447 -0.3313
 1957ntf    fn414234   4.535   4.255   1.198 -0.4510  0.4006  0.4023
 1957ntf    fn414235   4.438   4.167   1.029  0.5371  0.9046  0.2528
 1958ntf    cn114236   5.519   5.534   5.551  0.5237  0.0591 -0.0111
 1958ntf    sn214237   5.436   5.695   5.540  0.2331 -0.0850  0.0432
 1958ntf    nn314238   5.299   5.653   5.476  0.1709 -0.1523  0.2212
 1958ntf    sn214239   5.201   5.742   5.393  0.2500  0.1188  0.4175
 1958ntf    cn114240   5.054   5.752   5.500 -0.2643  0.0937 -0.2726
 1958ntf    fn414241   5.437   5.433   5.576  0.4838 -0.0452 -0.5514
 1958ntf    fn414242   5.579   5.499   5.439 -0.1184  0.0604 -0.3610
 1958ntf    fn414243   5.614   5.534   5.643  0.6262  0.0800 -0.1171
 1958ntf    on514244   5.413   5.743   5.674 -0.3907  0.4475 -0.2480
 1958ntf    on514245   5.523   5.774   5.455 -0.2007  0.2482 -0.0974
 1958ntf    on514246   5.142   5.671   5.282  0.0963  0.1240  0.4948
 1958ntf    on514247   5.245   5.877   5.367  0.1261  0.0278 -0.3066
 1958ntf    fn414248   4.980   5.858   5.474 -0.2107  0.1514 -0.1896
 1958ntf    fn414249   4.978   5.644   5.498 -0.3462  0.1493 -0.1426
 1958ntf    fn414250   5.083   5.766   5.629 -0.2892  0.2683 -0.2854
 1959ntf    cn114251   5.104   2.249   1.375 -0.0849 -0.0934 -0.1450
 1959ntf    sn214252   5.011   2.336   1.245 -0.2685 -0.0036  0.0469
 1959ntf    nn314253   5.046   2.486   1.275  0.0689  0.0280 -0.4938
 1959ntf    sn214254   4.965   2.589   1.361  0.1291 -0.3498  0.0211
 1959ntf    cn114255   4.883   2.686   1.231 -0.1257 -0.0900  0.3714
 1959ntf    fn414256   5.233   2.277   1.382 -0.1097  0.1396 -0.5616
 1959ntf    fn414257   5.063   2.284   1.495 -0.0013 -0.7770  0.0906
 1959ntf    fn414258   5.095   2.117   1.368 -0.1927 -0.1243  0.5329
 1959ntf    on514259   5.074   2.299   1.121  0.2754 -0.0064  0.3187
 1959ntf    on514260   4.875   2.292   1.261 -0.1554 -0.3147  0.1569
 1959ntf    on514261   5.053   2.691   1.410 -0.6091  0.4322 -0.2519
 1959ntf    on514262   4.863   2.530   1.445 -0.1712  0.1633  0.0224
 1959ntf    fn414263   4.978   2.713   1.143 -0.4983 -0.1044 -0.0387
 1959ntf    fn414264   4.802   2.610   1.159  0.3532 -0.2026 -0.0568
 1959ntf    fn414265   4.825   2.801   1.263  0.1080  0.1384 -0.0131
 1960ntf    cn114266   5.443   0.736   0.595 -0.2701  0.1716 -0.0298
 1960ntf    sn214267   5.503   0.840   0.732 -0.2418  0.0692  0.0351
 1960ntf    nn314268   5.394   0.807   0.840 -0.0177  0.0140  0.2454
 1960ntf    sn214269   5.259   0.880   0.874  0.0082  0.1957 -0.0447
 1960ntf    cn114270   5.325   0.989   1.004 -0.0816  0.1604  0.0298
 1960ntf    fn414271   5.319   0.755   0.552 -0.2854  0.2156  0.0329
 1960ntf    fn414272   5.523   0.753   0.491 -0.0818 -0.4769  0.0068
 1960ntf    fn414273   5.459   0.610   0.629  0.1746  0.2898  0.2127
 1960ntf    on514274   5.629   0.778   0.765  0.0475  0.6641  0.0513
 1960ntf    on514275   5.508   0.976   0.684 -0.3069  0.1651  0.2964
 1960ntf    on514276   5.175   0.786   0.943 -0.2811  0.6042  0.1674
 1960ntf    on514277   5.201   0.974   0.781  0.5771  0.5511 -0.0520
 1960ntf    fn414278   5.395   1.096   0.971 -0.3524  0.4178  0.2790
 1960ntf    fn414279   5.225   1.032   1.080 -0.3420  0.1138 -0.2868
 1960ntf    fn414280   5.405   0.921   1.083  0.3208  0.0889 -0.4384
 1961ntf    cn114281   0.404   4.622   1.658 -0.0543  0.1278  0.1891
 1961ntf    sn214282   0.496   4.776   1.690  0.6293 -0.2094 -0.1231
 1961ntf    nn314283   0.638   4.729   1.645  0.6581 -0.5450  0.3058
 1961ntf    sn214284   0.725   4.761   1.518  0.0437 -0.1615 -0.0224
 1961ntf    cn114285   0.770   4.588   1.485  0.0046 -0.1837  0.0403
 1961ntf    fn414286   0.440   4.556   1.549  0.3989  0.3807  0.1841
 1961ntf    fn414287   0.419   4.540   1.761  0.0734  0.1692  0.2035
 1961ntf    fn414288   0.273   4.634   1.644 -0.0515  0.0722  0.1134
 1961ntf    on514289   0.439   4.874   1.601 -0.1716 -0.4287  0.1363
 1961ntf    on514290   0.482   4.797   1.832  0.2657  0.3714 -0.2412
 1961ntf    on514291   0.851   4.825   1.545 -0.3404  0.4290  0.3850
 1961ntf    on514292   0.655   4.804   1.399 -0.2140  0.4983  0.3641
 1961ntf    fn414293   0.685   4.502   1.537 -0.2331  0.1721  0.2461
 1961ntf    fn414294   0.784   4.566   1.355  0.1526 -0.6815  0.1401
 1961ntf    fn414295   0.887   4.559   1.541  0.0733  0.1945  0.0957
 1962ntf    cn114296   5.001   0.215   3.207 -0.0162 -0.1133  0.3659
 1962ntf    sn214297   5.123   0.137   3.097  0.0348  0.0500  0.3057
 1962ntf    nn314298   5.048   0.173   2.964  0.5382  0.4045  0.1136
 1962ntf    sn214299   5.083   0.129   2.818  0.1294 -0.2122  0.1929
 1962ntf    cn114300   4.969  -0.010   2.799  0.0522 -0.1079 -0.1208
 1962ntf    fn414301   5.024   0.201   3.337 -0.2714  0.3174  0.4577
 1962ntf    fn414302   4.998   0.346   3.189 -0.1446 -0.1421  0.1790
 1962ntf    fn414303   4.879   0.170   3.183  0.0581  0.2251 -0.6800
 1962ntf    on514304   5.251   0.199   3.122  0.5357 -0.6712 -0.4466
 1962ntf    on514305   5.099  -0.001   3.133  0.1128 -0.1505 -0.4037
 1962ntf    on514306   5.215   0.074   2.797  0.3187  0.3510 -0.1422
 1962ntf    on514307   5.046   0.230   2.721  0.4036 -0.3029 -0.0082
 1962ntf    fn414308   4.842   0.020   2.820 -0.0043 -0.2458 -0.2559
 1962ntf    fn414309   4.974  -0.068   2.680  0.0619 -0.5290  0.0831
 1962ntf    fn414310   4.998  -0.099   2.893  0.2427  0.3319  0.2424
 1963ntf    cn114311   3.317   4.121   2.136 -0.1225 -0.3443  0.0490
 1963ntf    sn214312   3.187   3.998   2.106 -0.2503 -0.1711 -0.1085
 1963ntf    nn314313   3.161   4.022   1.953  0.6425  0.5751 -0.1527
 1963ntf    sn214314   3.235   3.984   1.820  0.1811 -0.3828 -0.1433
 1963ntf    cn114315   3.127   3.855   1.750 -0.1632 -0.1619 -0.0260
 1963ntf    fn414316   3.402   4.148   2.038 -0.2050 -0.2179  0.0123
 1963ntf    fn414317   3.271   4.238   2.175 -0.2191 -0.2628 -0.3089
 1963ntf    fn414318   3.404   4.082   2.228  0.0481 -0.4396 -0.1522
 1963ntf    on514319   3.248   3.873   2.143 -0.5600 -0.2353  0.1925
 1963ntf    on514320   3.078   4.043   2.189  0.2974  0.3805  0.3218
 1963ntf    on514321   3.368   3.931   1.837  0.0313 -0.7756 -0.1769
 1963ntf    on514322   3.227   4.096   1.730 -0.1805 -0.2830  0.0119
 1963ntf    fn414323   3.141   3.746   1.824 -0.1925 -0.0766  0.1046
 1963ntf    fn414324   2.999   3.888   1.752 -0.1792 -0.2011 -0.3389
 1963ntf    fn414325   3.159   3.821   1.626 -0.0975 -0.7884  0.1564
 1964ntf    cn114326   1.722   1.159   4.320 -0.1269  0.4100 -0.1978
 1964ntf    sn214327   1.774   1.027   4.206  0.0357  0.0872  0.2509
 1964ntf    nn314328   1.668   0.919   4.247 -0.2227  0.4804  0.6353
 1964ntf    sn214329   1.605   0.817   4.145 -0.0816  0.5931  0.4362
 1964ntf    cn114330   1.722   0.678   4.155 -0.3018  0.3798  0.0928
 1964ntf    fn414331   1.795   1.269   4.307 -0.2554  0.5200  0.0030
 1964ntf    fn414332   1.594   1.193   4.308 -0.2768 -0.0543  0.0812
 1964ntf    fn414333   1.739   1.113   4.442  0.1319 -0.1042 -0.4259
 1964ntf    on514334   1.748   1.095   4.082  0.0571 -0.2629  0.0524
 1964ntf    on514335   1.908   0.996   4.249  0.1000  0.3436  0.2338
 1964ntf    on514336   1.604   0.845   4.003  0.7311 -0.3611  0.2272
 1964ntf    on514337   1.489   0.758   4.207  0.1008  0.3456  0.5428
 1964ntf    fn414338   1.701   0.580   4.069  0.3578  0.3587 -0.0486
 1964ntf    fn414339   1.850   0.711   4.143 -0.3147  0.3020 -0.2730
 1964ntf    fn414340   1.710   0.627   4.277  0.3363  0.2387  0.1031
 1965ntf    cn114341   4.615   6.427   4.404  0.1569  0.1089  0.2571
 1965ntf    sn214342   4.717   6.561   4.335  0.1862  0.0956  0.2754
 1965ntf    nn314343   4.699   6.669   4.447  0.1814 -0.2927  0.6506
 1965ntf    sn214344   4.581   6.768   4.476  0.0745 -0.0761 -0.4904
 1965ntf    cn114345   4.655   6.845   4.623 -0.2580 -0.0281 -0.3470
 1965ntf    fn414346   4.637   6.409   4.534  0.1047  0.1861  0.2763
 1965ntf    fn414347   4.486   6.447   4.388  0.2730  0.3613 -0.3636
 1965ntf    fn414348   4.645   6.312   4.345 -0.2511  0.0501  0.1600
 1965ntf    on514349   4.854   6.517   4.330  0.1329 -0.0057 -0.3614
 1965ntf    on514350   4.656   6.594   4.209 -0.0560  0.5429  0.5067
 1965ntf    on514351   4.461   6.708   4.528 -0.0761  0.5136 -0.1487
 1965ntf    on514352   4.569   6.872   4.377 -0.5839 -0.0207 -0.3588
 1965ntf    fn414353   4.738   6.942   4.587  0.0792 -0.2863 -0.2704
 1965ntf    fn414354   4.561   6.898   4.700 -0.1965 -0.2971 -0.0824
 1965ntf    fn414355   4.728   6.773   4.706  0.2459  0.5105 -0.3115
 1966ntf    cn114356   2.534   6.140   1.969  0.1523  0.3393  0.0838
 1966ntf    sn214357   2.375   6.227   1.977  0.0384  0.1508 -0.1075
 1966ntf    nn314358   2.371   6.254   1.823 -0.4257 -0.1954 -0.1609
 1966ntf    sn214359   2.295   6.366   1.743 -0.2541  0.0799  0.0601
 1966ntf    cn114360   2.430   6.488   1.734 -0.0160 -0.2029 -0.2262
 1966ntf    fn414361   2.633   6.217   1.929  0.2448 -0.0324 -0.4122
 1966ntf    fn414362   2.577   6.086   2.083  0.6718 -0.3834 -0.4418
 1966ntf    fn414363   2.532   6.044   1.878  0.5992  0.3297  0.0835
 1966ntf    on514364   2.278   6.128   2.017  0.1723 -0.0670 -0.3196
 1966ntf    on514365   2.395   6.343   2.060 -0.1385  0.1076 -0.0023
 1966ntf    on514366   2.184   6.443   1.794 -0.3087  0.1058 -0.0999
 1966ntf    on514367   2.286   6.328   1.605  0.5210 -0.1058  0.0556
 1966ntf    fn414368   2.386   6.599   1.675  0.1009 -0.3667 -0.6213
 1966ntf    fn414369   2.471   6.537   1.850 -0.1977 -0.1051 -0.2023
 1966ntf    fn414370   2.531   6.439   1.665  0.2309  0.3761 -0.2881
 1967ntf    cn114371   0.249   4.497   2.112  0.1852  0.2254 -0.1247
 1967ntf    sn214372   0.396   4.421   2.188 -0.1043 -0.0865  0.1256
 1967ntf    nn314373   0.348   4.417   2.337  0.5549 -0.6480  0.3268
 1967ntf    sn214374   0.426   4.472   2.462 -0.2038 -0.2182  0.6211
 1967ntf    cn114375   0.430   4.652   2.443 -0.3802 -0.2738  0.0119
 1967ntf    fn414376   0.284   4.572   2.008  0.0668  0.5524  0.0709
 1967ntf    fn414377   0.161   4.408   2.069  0.2605  0.1554 -0.1357
 1967ntf    fn414378   0.184   4.590   2.179 -0.3595 -0.2802  0.0580
 1967ntf    on514379   0.404   4.291   2.127 -0.1765 -0.0134 -0.0413
 1967ntf    on514380   0.499   4.517   2.154 -0.1139 -0.2781 -0.4599
 1967ntf    on514381   0.566   4.441   2.479 -0.0548  0.3151  0.3686
 1967ntf    on514382   0.354   4.453   2.585 -0.5514  0.6215  0.5478
 1967ntf    fn414383   0.316   4.696   2.392 -0.3200  0.1765  0.2570
 1967ntf    fn414384   0.437   4.713   2.561 -0.0303 -0.4019  0.0584
 1967ntf    fn414385   0.532   4.704   2.377 -0.1230  0.1026  0.6871
 1968ntf    cn114386   2.971   0.470   3.491  0.0508 -0.0566  0.2008
 1968ntf    sn214387   2.907   0.337   3.597  0.0696 -0.1774  0.0603
 1968ntf    nn314388   2.922   0.217   3.497 -0.1760 -0.4173  0.3083
 1968ntf    sn214389   3.045   0.123   3.474  0.0953  0.0069  0.0176
 1968ntf    cn114390   2.971  -0.039   3.511 -0.0155  0.0702  0.0721
 1968ntf    fn414391   3.102   0.463   3.478  0.0561 -0.3585  0.3948
 1968ntf    fn414392   2.916   0.465   3.371  0.7772  0.2729 -0.1557
 1968ntf    fn414393   2.954   0.592   3.539  0.5915 -0.1703  0.6925
 1968ntf    on514394   2.988   0.330   3.716  0.6493  0.2089 -0.3077
 1968ntf    on514395   2.770   0.376   3.621  0.1939  0.1615  0.2300
 1968ntf    on514396   3.150   0.130   3.573 -0.2921  0.3395  0.4058
 1968ntf    on514397   3.080   0.113   3.334 -0.0341  0.2317 -0.0307
 1968ntf    fn414398   3.068  -0.129   3.507 -0.2070 -0.1362  0.0656
 1968ntf    fn414399   2.912  -0.055   3.628  0.1764  0.0030  0.1607
 1968ntf    fn414400   2.885  -0.081   3.420  0.1386  0.1370 -0.1062
 1969ntf    cn114401   2.943   1.756   0.479 -0.1968  0.0158 -0.0394
 1969ntf    sn214402   3.075   1.647   0.420 -0.0610  0.0757  0.1535
 1969ntf    nn314403   2.993   1.516   0.391 -0.4280  0.3059  0.1540
 1969ntf    sn214404   2.971   1.388   0.479 -0.2969  0.3154  0.2011
 1969ntf    cn114405   2.789   1.380   0.482 -0.2827 -0.0696  0.0531
 1969ntf    fn414406   2.881   1.708   0.586 -0.2659 -0.0356 -0.1024
 1969ntf    fn414407   2.989   1.875   0.514 -0.8167  0.3355 -0.2768
 1969ntf    fn414408   2.856   1.790   0.384 -0.1892  0.0577 -0.0312
 1969ntf    on514409   3.127   1.707   0.300 -0.3292 -0.4625 -0.2356
 1969ntf    on514410   3.160   1.639   0.537  0.1953 -0.5484 -0.0681
 1969ntf    on514411   3.001   1.393   0.620  0.0377  0.1386  0.1356
 1969ntf    on514412   3.017   1.266   0.417 -0.1137  0.1838  0.5954
 1969ntf    fn414413   2.764   1.263   0.538  0.6705 -0.2343  0.1500
 1969ntf    fn414414   2.728   1.476   0.548  0.3681  0.2780  0.1588
 1969ntf    fn414415   2.736   1.380   0.361 -0.3499  0.3118  0.0820
 1970ntf    cn114416   1.472   5.445   4.737  0.0637 -0.0216  0.1537
 1970ntf    sn214417   1.495   5.320   4.867  0.1316 -0.0751  0.0901
 1970ntf    nn314418   1.397   5.384   4.972  0.0118 -0.4890  0.2305
 1970ntf    sn214419   1.432   5.478   5.092  0.2296 -0.1046 -0.1346
 1970ntf    cn114420   1.277   5.574   5.088  0.1654 -0.1890  0.2599
 1970ntf    fn414421   1.505   5.571   4.762  0.0330  0.0159  0.0027
 1970ntf    fn414422   1.538   5.410   4.628  0.1868  0.2877  0.1300
 1970ntf    fn414423   1.345   5.440   4.701  0.0261 -0.1734  0.3055
 1970ntf    on514424   1.434   5.202   4.811  0.1762 -0.0839  0.0603
 1970ntf    on514425   1.636   5.321   4.896  0.1919 -0.2702 -0.1915
 1970ntf    on514426   1.525   5.586   5.072  0.1633 -0.1658 -0.8031
 1970ntf    on514427   1.422   5.411   5.220  0.8097 -0.1727 -0.1194
 1970ntf    fn414428   1.255   5.627   4.969  0.0774 -0.1717  0.2838
 1970ntf    fn414429   1.175   5.497   5.121  0.1824 -0.4176 -0.2093
 1970ntf    fn414430   1.278   5.675   5.173  0.4489  0.6588 -0.7277
 1971ntf    cn114431   4.426   5.095   3.500  0.1206 -0.0127  0.1500
 1971ntf    sn214432   4.310   5.122   3.637  0.1202 -0.1892  0.1850
 1971ntf    nn314433   4.405   5.184   3.744  0.0182 -0.0085  0.1719
 1971ntf    sn214434   4.469   5.328   3.743 -0.0462  0.0193  0.1138
 1971ntf    cn114435   4.377   5.407   3.878 -0.5415 -0.4496  0.0554
 1971ntf    fn414436   4.464   5.215   3.460  0.4814 -0.1158  0.1794
 1971ntf    fn414437   4.533   5.028   3.541  0.0335 -0.5034 -0.4118
 1971ntf    fn414438   4.382   5.030   3.393  0.1440 -0.0574  0.1677
 1971ntf    on514439   4.204   5.205   3.583  0.5761  0.2434 -0.0479
 1971ntf    on514440   4.269   4.992   3.683  0.4729 -0.3372  0.0787
 1971ntf    on514441   4.445   5.426   3.640 -0.1641 -0.2292 -0.0966
 1971ntf    on514442   4.603   5.325   3.795 -0.3171 -0.0609  0.8247
 1971ntf    fn414443   4.423   5.361   3.993 -0.1025  0.3285  0.1989
 1971ntf    fn414444   4.391   5.539   3.883  0.1566 -0.5132 -0.1347
 1971ntf    fn414445   4.248   5.378   3.876 -0.6196 -0.0852 -0.1999
 1972ntf    cn114446   4.299   1.903   5.908 -0.1472 -0.3850  0.4216
 1972ntf    sn214447   4.278   2.006   6.057  0.1061  0.2833  0.0020
 1972ntf    nn314448   4.189   1.903   6.136  0.5083  0.2094  0.3649
 1972ntf    sn214449   4.228   1.790   6.238  0.3664 -0.3129 -0.1551
 1972ntf    cn114450   4.225   1.878   6.396  0.2202 -0.3179 -0.1552
 1972ntf    fn414451   4.339   1.779   5.930  0.5712 -0.2127  0.1118
 1972ntf    fn414452   4.186   1.885   5.842  0.1310  0.2712 -0.2464
 1972ntf    fn414453   4.393   1.958   5.833 -0.5314 -0.0067  0.2136
 1972ntf    on514454   4.410   2.025   6.113  0.1211 -0.3728  0.2016
 1972ntf    on514455   4.193   2.116   6.021 -0.2232  0.1421  0.3370
 1972ntf    on514456   4.364   1.744   6.228  0.5876  0.4100 -0.4936
 1972ntf    on514457   4.123   1.695   6.264 -0.0777  0.2021 -0.0495
 1972ntf    fn414458   4.237   1.808   6.508  0.1997 -0.1295 -0.0330
 1972ntf    fn414459   4.321   1.969   6.398 -0.3032  0.2422 -0.0812
 1972ntf    fn414460   4.114   1.950   6.398  0.2654 -0.2459 -0.2707
 1973ntf    cn114461   0.599   5.944   2.517  0.1456  0.1767  0.0366
 1973ntf    sn214462   0.682   5.968   2.676  0.2522  0.1521 -0.0156
 1973ntf    nn314463   0.718   6.121   2.678  0.0110  0.2057  0.3907
 1973ntf    sn214464   0.848   6.188   2.622 -0.0414 -0.0673 -0.0651
 1973ntf    cn114465   0.973   6.157   2.750 -0.0803  0.2644  0.0541
 1973ntf    fn414466   0.531   5.830   2.525  0.6924 -0.1343  0.2762
 1973ntf    fn414467   0.515   6.041   2.486 -0.2499 -0.0197  0.4853
 1973ntf    fn414468   0.685   5.926   2.417  0.6358  1.1771  0.2694
 1973ntf    on514469   0.578   5.945   2.773  0.1633  0.2462 -0.0898
 1973ntf    on514470   0.788   5.870   2.666 -0.1317 -0.1959 -0.7009
 1973ntf    on514471   0.847   6.332   2.624  0.4211 -0.0617 -0.0919
 1973ntf    on514472   0.904   6.126   2.504 -0.4425 -0.1165 -0.2322
 1973ntf    fn414473   1.084   6.227   2.728 -0.1451  0.4333  0.2647
 1973ntf    fn414474   0.929   6.179   2.873  0.2405  0.0533  0.2072
 1973ntf    fn414475   1.015   6.032   2.750 -0.0145  0.2861  0.4000
 1974ntf    cn114476   1.307   1.980   0.720 -0.0805 -0.4585  0.1123
 1974ntf    sn214477   1.444   2.081   0.655 -0.5477  0.1598  0.0734
 1974ntf    nn314478   1.562   1.977   0.655 -0.0263  0.7433  0.1216
 1974ntf    sn214479   1.677   1.969   0.761 -0.0247  0.3609  0.0935
 1974ntf    cn114480   1.811   2.045   0.665  0.1292  0.4446  0.3715
 1974ntf    fn414481   1.240   1.914   0.627  0.2842 -0.3913 -0.2028
 1974ntf    fn414482   1.335   1.898   0.820 -0.0984 -0.1831  0.3458
 1974ntf    fn414483   1.220   2.060   0.779  0.3323  0.1509 -0.0907
 1974ntf    on514484   1.391   2.101   0.522  0.3655  0.6536 -0.2216
 1974ntf    on514485   1.452   2.196   0.741  0.1277  0.4836 -0.4116
 1974ntf    on514486   1.727   1.838   0.795  0.1185  0.4177  0.1028
 1974ntf    on514487   1.664   2.052   0.878  0.3279 -0.5353  0.7835
 1974ntf    fn414488   1.783   2.171   0.638  0.0712  0.3707  0.0866
 1974ntf    fn414489   1.922   2.044   0.737  0.2457 -0.0024  0.1941
 1974ntf    fn414490   1.842   1.987   0.550  0.5541  0.1058  0.6505
 1975ntf    cn114491   1.152   1.208   2.917 -0.1437 -0.3215  0.1487
 1975ntf    sn214492   1.223   1.078   2.812  0.1788 -0.3179  0.3625
 1975ntf    nn314493   1.353   1.072   2.900  0.1529 -0.0647  0.4185
 1975ntf    sn214494   1.447   0.952   2.938 -0.0407 -0.3539 -0.0041
 1975ntf    cn114495   1.599   1.008   2.855 -0.0643  0.0316  0.2057
 1975ntf    fn414496   1.025   1.235   2.886 -0.1831 -0.1022  0.4942
 1975ntf    fn414497   1.144   1.174   3.044 -0.4511 -0.0514  0.2042
 1975ntf    fn414498   1.223   1.320   2.910  0.0370 -0.4531 -0.1273
 1975ntf    on514499   1.128   0.969   2.810 -0.0014 -0.1490 -0.6057
 1975ntf    on514500   1.250   1.137   2.683 -0.2427 -0.0609  0.3911
 1975ntf    on514501   1.422   0.825   2.875 -0.1344 -0.3773  0.0800
 1975ntf    on514502   1.484   0.949   3.077 -0.6586 -0.3432  0.1630
 1975ntf    fn414503   1.631   1.133   2.884  0.1067  0.0071  0.1218
 1975ntf    fn414504   1.703   0.937   2.894  0.2589  0.4773  0.1530
 1975ntf    fn414505   1.602   0.997   2.723  0.2420  0.2094  0.1972
 1976ntf    cn114506   1.948   3.030   4.691  0.0356  0.0326 -0.1944
 1976ntf    sn214507   2.019   3.196   4.670 -0.0333  0.1077  0.1496
 1976ntf    nn314508   2.120   3.215   4.788  0.4459  0.1345 -0.2592
 1976ntf    sn214509   2.083   3.256   4.935 -0.2396 -0.3963 -0.2798
 1976ntf    cn114510   2.161   3.420   4.933 -0.2008 -0.4168 -0.4752
 1976ntf    fn414511   2.034   2.941   4.738 -0.0147  0.0319 -0.1035
 1976ntf    fn414512   1.837   3.041   4.763  0.2106  0.2062  0.0495
 1976ntf    fn414513   1.910   2.984   4.573  0.2013 -0.0340 -0.2207
 1976ntf    on514514   2.090   3.182   4.544 -0.1236 -0.4923  0.1621
 1976ntf    on514515   1.910   3.290   4.671 -0.2734 -0.1720  0.2028
 1976ntf    on514516   2.167   3.180   5.024  0.3388  0.3619 -0.1702
 1976ntf    on514517   1.944   3.279   4.968 -0.0403  0.0132  0.2909
 1976ntf    fn414518   2.148   3.490   4.822 -0.1316  0.1762 -0.1111
 1976ntf    fn414519   2.117   3.497   5.031 -0.7352 -0.2382 -0.8520
 1976ntf    fn414520   2.293   3.411   4.940 -0.1677  0.3357  0.0417
 1977ntf    cn114521   6.345   5.641   0.605 -0.0946  0.1085 -0.2376
 1977ntf    sn214522   6.265   5.490   0.544 -0.2639  0.0988  0.0079
 1977ntf    nn314523   6.342   5.459   0.410 -0.0238  0.4648  0.0615
 1977ntf    sn214524   6.466   5.366   0.390 -0.3004  0.1301 -0.0961
 1977ntf    cn114525   6.400   5.196   0.388  0.3328 -0.1210  0.0494
 1977ntf    fn414526   6.286   5.671   0.720 -0.1219 -0.4393 -0.1078
 1977ntf    fn414527   6.476   5.633   0.624 -0.1327 -0.1950 -0.1102
 1977ntf    fn414528   6.321   5.746   0.527 -0.3330  0.4922  0.3496
 1977ntf    on514529   6.286   5.390   0.646  0.0407  0.3383  0.1808
 1977ntf    on514530   6.126   5.522   0.524 -0.2249  0.2745  0.0176
 1977ntf    on514531   6.561   5.348   0.498 -0.5274  0.2611  0.1270
 1977ntf    on514532   6.523   5.381   0.259  0.1927  0.3123  0.1374
 1977ntf    fn414533   6.296   5.183   0.308  0.1609 -0.2116  0.2853
 1977ntf    fn414534   6.493   5.111   0.349 -0.1233 -0.3766 -0.4894
 1977ntf    fn414535   6.356   5.165   0.509 -0.1455 -0.0280 -0.0977
 1978ntf    cn114536   0.451   5.043   0.385  0.3159  0.1028 -0.0479
 1978ntf    sn214537   0.505   4.973   0.226 -0.0782 -0.0765 -0.1048
 1978ntf    nn314538   0.470   4.820   0.243  0.1315 -0.0734  0.3820
 1978ntf    sn214539   0.502   4.708   0.138 -0.3021  0.3036 -0.1586
 1978ntf    cn114540   0.613   4.603   0.236 -0.3775  0.0990 -0.2918
 1978ntf    fn414541   0.336   4.987   0.421  0.2466  0.4106  0.2091
 1978ntf    fn414542   0.525   5.023   0.493 -0.3566  0.3088  0.4635
 1978ntf    fn414543   0.420   5.171   0.378  0.1507  0.0648 -0.0159
 1978ntf    on514544   0.423   5.040   0.129 -0.0503 -0.0050 -0.0788
 1978ntf    on514545   0.644   5.005   0.242 -0.0679 -0.1814  0.0223
 1978ntf    on514546   0.576   4.742   0.019 -0.1205  0.3007 -0.0458
 1978ntf    on514547   0.391   4.618   0.117  0.0149 -0.0494 -0.3260
 1978ntf    fn414548   0.719   4.670   0.279 -0.0822 -0.5305 -0.0243
 1978ntf    fn414549   0.555   4.547   0.341  0.1612  0.3049  0.1165
 1978ntf    fn414550   0.661   4.500   0.168 -0.3459  0.0158 -0.1442
 1979ntf    cn114551   2.057   5.349   4.666  0.5032 -0.4307  0.1443
 1979ntf    sn214552   2.027   5.520   4.720  0.0493 -0.4130 -0.1556
 1979ntf    nn314553   2.038   5.509   4.876  0.2883 -0.5844 -0.1840
 1979ntf    sn214554   2.164   5.489   4.968 -0.0162 -0.4699  0.2572
 1979ntf    cn114555   2.166   5.646   5.060 -0.0729 -0.1939 -0.2094
 1979ntf    fn414556   2.071   5.346   4.534  0.5554  0.0893  0.1355
 1979ntf    fn414557   2.171   5.296   4.706  0.4440 -0.7519 -0.1116
 1979ntf    fn414558   1.961   5.264   4.698  0.1182  0.0419  0.2607
 1979ntf    on514559   2.132   5.597   4.657 -0.0458 -0.1134  0.0500
 1979ntf    on514560   1.895   5.548   4.670  0.2409 -0.6438 -0.7990
 1979ntf    on514561   2.287   5.484   4.894 -0.1659  0.4921 -0.0755
 1979ntf    on514562   2.146   5.388   5.069  0.0359 -0.6548  0.0811
 1979ntf    fn414563   2.063   5.658   5.143  0.4793 -0.6343  0.5516
 1979ntf    fn414564   2.281   5.665   5.122  0.0673 -0.4685 -0.3845
 1979ntf    fn414565   2.156   5.748   4.977  0.1392  0.0362  0.0459
 1980ntf    cn114566   3.956   5.148   1.538 -0.1556 -0.0875 -0.1558
 1980ntf    sn214567   4.115   5.061   1.557 -0.0529  0.0958 -0.1670
 1980ntf    nn314568   4.183   5.099   1.421 -0.0416  0.5002 -0.0504
 1980ntf    sn214569   4.205   5.012   1.292 -0.3908  0.1559  0.1192
 1980ntf    cn114570   4.190   5.139   1.162  0.0917  0.1645  0.0705
 1980ntf    fn414571   3.889   5.145   1.652 -0.4098  0.4130 -0.2885
 1980ntf    fn414572   3.969   5.273   1.496  0.0084 -0.1894 -0.4124
 1980ntf    fn414573   3.880   5.087   1.448 -0.3659 -0.0846  0.0201
 1980ntf    on514574   4.178   5.123   1.671  0.1096 -0.4815  0.0590
 1980ntf    on514575   4.083   4.921   1.574  0.0992  0.0108 -0.5827
 1980ntf    on514576   4.100   4.930   1.237  0.2044 -0.0960 -0.6597
 1980ntf    on514577   4.340   4.963   1.282 -0.3707  0.1902  0.2232
 1980ntf    fn414578   4.269   5.245   1.169  0.0502  0.2287 -0.4116
 1980ntf    fn414579   4.217   5.079   1.048  0.5962 -0.0355  0.2906
 1980ntf    fn414580   4.067   5.185   1.152  0.1889  0.4457  0.1638
 1981ntf    cn114581   2.859   1.228   2.052 -0.0320 -0.0520 -0.0093
 1981ntf    sn214582   2.835   1.152   2.216  0.0370  0.2436  0.1375
 1981ntf    nn314583   2.938   1.033   2.210  0.0941  0.3020 -0.0421
 1981ntf    sn214584   3.011   0.968   2.332 -0.0548 -0.3267 -0.2842
 1981ntf    cn114585   3.173   1.051   2.319 -0.1585 -0.0736  0.0266
 1981ntf    fn414586   2.792   1.341   2.044  0.3004  0.1830  0.4730
 1981ntf    fn414587   2.987   1.257   2.034  0.2593 -0.8212  0.7235
 1981ntf    fn414588   2.815   1.140   1.964 -0.3257 -0.2167  0.3005
 1981ntf    on514589   2.876   1.262   2.301 -0.0224  0.5162 -0.1844
 1981ntf    on514590   2.699   1.107   2.224 -0.0391  0.3114 -0.7094
 1981ntf    on514591   3.036   0.828   2.308 -0.3208 -0.3291 -0.5438
 1981ntf    on514592   2.961   1.009   2.460  0.2574  0.6542 -0.4642
 1981ntf    fn414593   3.175   1.176   2.361  0.2229  0.0890 -0.4736
 1981ntf    fn414594   3.268   0.985   2.383 -0.3864 -0.6718 -0.2437
 1981ntf    fn414595   3.212   1.059   2.193  0.4388  0.2426  0.2276
 1982ntf    cn114596   1.250   4.310   5.693 -0.2636 -0.0026  0.0621
 1982ntf    sn214597   1.132   4.190   5.763 -0.1027 -0.1463  0.0894
 1982ntf    nn314598   1.001   4.212   5.679  0.3039  0.0498 -0.5050
 1982ntf    sn214599   0.908   4.101   5.618  0.0583 -0.1589  0.2292
 1982ntf    cn114600   0.940   4.114   5.439 -0.1003 -0.0104  0.2114
 1982ntf    fn414601   1.377   4.274   5.696 -0.2100  0.1834  0.0129
 1982ntf    fn414602   1.230   4.315   5.563  0.1249 -0.4492 -0.0176
 1982ntf    fn414603   1.244   4.432   5.742 -0.1228  0.2656 -0.5880
 1982ntf    on514604   1.197   4.066   5.731  0.5182  0.3052 -0.4276
 1982ntf    on514605   1.115   4.226   5.902 -0.0493 -0.4321  0.1685
 1982ntf    on514606   0.768   4.126   5.637 -0.1326 -0.6173 -0.5433
 1982ntf    on514607   0.954   3.965   5.639  0.0316 -0.1363  0.4349
 1982ntf    fn414608   0.892   4.221   5.378  0.0140  0.1596  0.4186
 1982ntf    fn414609   1.071   4.104   5.424 -0.1314  0.0272 -0.0905
 1982ntf    fn414610   0.888   4.008   5.379 -0.0842 -0.1443  0.4316
 1983ntf    cn114611   4.800   5.182   1.143  0.1379  0.4719 -0.4150
 1983ntf    sn214612   4.851   5.043   1.037 -0.0246  0.2664 -0.2251
 1983ntf    nn314613   4.733   4.941   1.055 -0.0140  0.3852  0.5567
 1983ntf    sn214614   4.711   4.843   1.175 -0.2233 -0.0548  0.1629
 1983ntf    cn114615   4.792   4.697   1.104  0.0318  0.0852  0.1658
 1983ntf    fn414616   4.676   5.219   1.113 -0.2011 -0.2999  0.0019
 1983ntf    fn414617   4.791   5.141   1.268 -0.4340 -0.3919 -0.7303
 1983ntf    fn414618   4.882   5.285   1.137  0.0765  0.5370 -0.1480
 1983ntf    on514619   4.847   5.098   0.903 -0.0789  1.1462  0.1271
 1983ntf    on514620   4.983   5.007   1.083 -0.3650 -0.2037  0.3956
 1983ntf    on514621   4.573   4.801   1.175 -0.3986  0.5201 -0.0048
 1983ntf    on514622   4.781   4.863   1.299  0.3215  0.3093 -0.2016
 1983ntf    fn414623   4.771   4.598   1.189  0.3045  0.0483  0.1917
 1983ntf    fn414624   4.743   4.654   0.989 -0.1629  0.2908  0.1718
 1983ntf    fn414625   4.924   4.708   1.094  0.0641 -0.0831  0.3875
 1984ntf    cn114626   3.567   2.350   4.184  0.3331  0.3664  0.0908
 1984ntf    sn214627   3.729   2.271   4.158  0.2203  0.1611  0.0073
 1984ntf    nn314628   3.794   2.312   4.295 -0.0991  0.1267  0.1688
 1984ntf    sn214629   3.890   2.225   4.384  0.1687 -0.0955 -0.3383
 1984ntf    cn114630   3.779   2.134   4.495 -0.2081  0.3652 -0.3336
 1984ntf    fn414631   3.528   2.327   4.309  0.2158  0.5383  0.0860
 1984ntf    fn414632   3.570   2.479   4.154  0.1441  0.1002 -1.1070
 1984ntf    fn414633   3.472   2.299   4.108  0.6555 -0.5450  0.2772
 1984ntf    on514634   3.691   2.133   4.144  0.5995  0.0532  0.0256
 1984ntf    on514635   3.779   2.349   4.047  0.3307  0.1859  0.0739
 1984ntf    on514636   3.971   2.312   4.465 -0.2047 -0.1386  0.0796
 1984ntf    on514637   3.963   2.126   4.308  0.0002  0.0667 -0.7152
 1984ntf    fn414638   3.726   2.026   4.441  0.0343  0.0824 -0.0177
 1984ntf    fn414639   3.848   2.091   4.599 -0.0835 -0.3093 -0.6915
 1984ntf    fn414640   3.678   2.208   4.537 -0.2117  0.0132  0.2948
 1985ntf    cn114641   4.813   2.660   4.077 -0.3686 -0.1441  0.1668
 1985ntf    sn214642   4.785   2.795   3.959 -0.5011 -0.0791  0.2718
 1985ntf    nn314643   4.700   2.709   3.859  0.4754 -0.5152 -0.1963
 1985ntf    sn214644   4.613   2.753   3.736  0.1429 -0.1624  0.1606
 1985ntf    cn114645   4.455   2.671   3.772 -0.2044  0.3291 -0.2352
 1985ntf    fn414646   4.693   2.610   4.101 -0.4721 -0.1046 -0.2629
 1985ntf    fn414647   4.889   2.562   4.033 -0.0190  0.1821  0.0355
 1985ntf    fn414648   4.860   2.693   4.196 -0.1508 -0.0414  0.0534
 1985ntf    on514649   4.703   2.889   4.031 -0.3066 -0.1317  0.5618
 1985ntf    on514650   4.913   2.836   3.906 -0.4718  0.1413  0.5079
 1985ntf    on514651   4.660   2.687   3.617 -0.0887  0.3099 -0.1981
 1985ntf    on514652   4.571   2.890   3.716 -0.3649 -0.2759  0.4346
 1985ntf    fn414653   4.404   2.695   3.892 -0.0159 -0.0665 -0.0770
 1985ntf    fn414654   4.360   2.708   3.687 -0.4631 -0.3087 -0.2318
 1985ntf    fn414655   4.463   2.540   3.757 -0.0291  0.2683  0.3720
 1986ntf    cn114656   4.380   1.023   4.247  0.0674  0.0491  0.1552
 1986ntf    sn214657   4.530   0.984   4.151 -0.0525 -0.4016  0.1506
 1986ntf    nn314658   4.563   0.838   4.199 -0.2227 -0.3747  0.3528
 1986ntf    sn214659   4.583   0.708   4.113  0.2065 -0.0206 -0.0877
 1986ntf    cn114660   4.753   0.671   4.164  0.1866  0.0772  0.0473
 1986ntf    fn414661   4.278   0.941   4.231 -0.0286  0.1786  0.1044
 1986ntf    fn414662   4.404   1.022   4.377  0.0847 -0.0371  0.1513
 1986ntf    fn414663   4.331   1.143   4.223  0.2088  0.0462 -0.1640
 1986ntf    on514664   4.491   1.005   4.014 -0.3674 -0.0851  0.2880
 1986ntf    on514665   4.628   1.078   4.200  0.1306 -0.5772  0.1249
 1986ntf    on514666   4.595   0.723   3.970 -0.3006 -0.0314 -0.1349
 1986ntf    on514667   4.509   0.592   4.157 -0.2037  0.2116 -0.1595
 1986ntf    fn414668   4.838   0.772   4.148  0.3412 -0.0584  0.0035
 1986ntf    fn414669   4.753   0.643   4.293  0.2485  0.1490  0.0630
 1986ntf    fn414670   4.806   0.566   4.104  0.0269 -0.1135  0.2356
 1987ntf    cn114671   0.587   2.423   1.242  0.0709  0.0416 -0.3498
 1987ntf    sn214672   0.498   2.386   1.396  0.0905  0.1359 -0.3158
 1987ntf    nn314673   0.371   2.478   1.381  0.0192  0.0866 -0.0202
 1987ntf    sn214674   0.223   2.439   1.346  0.0927 -0.1623 -0.0556
 1987ntf    cn114675   0.127   2.593   1.336 -0.3740 -0.4425  0.0914
 1987ntf    fn414676   0.644   2.542   1.241 -0.2193  0.1810 -0.0982
 1987ntf    fn414677   0.684   2.334   1.224  0.0997  0.0063 -0.0343
 1987ntf    fn414678   0.511   2.411   1.135 -0.3306  0.1580 -0.0803
 1987ntf    on514679   0.488   2.243   1.406  0.1756  0.1043 -0.6743
 1987ntf    on514680   0.582   2.443   1.499  0.1715  0.2419 -0.4407
 1987ntf    on514681   0.151   2.362   1.444  1.0852 -0.7281  0.2423
 1987ntf    on514682   0.209   2.392   1.211  0.1414 -0.7496  0.1409
 1987ntf    fn414683  -0.001   2.564   1.325 -0.3978 -0.1946 -0.2645
 1987ntf    fn414684   0.151   2.676   1.437 -0.1129  0.0424 -0.3667
 1987ntf    fn414685   0.151   2.664   1.227  0.1037 -0.0424  0.4466
 1988ntf    cn114686   6.202   6.520   2.639  0.1177  0.1176  0.2225
 1988ntf    sn214687   6.257   6.453   2.799  0.2523  0.0115  0.1324
 1988ntf    nn314688   6.285   6.585   2.881  0.0564  0.4531 -0.5096
 1988ntf    sn214689   6.177   6.662   2.965 -0.0183 -0.0102 -0.1747
 1988ntf    cn114690   6.254   6.664   3.129 -0.2756  0.2799 -0.0559
 1988ntf    fn414691   6.132   6.428   2.574  0.0511  0.2736  0.0755
 1988ntf    fn414692   6.114   6.617   2.659  0.4447  0.4759 -0.0735
 1988ntf    fn414693   6.298   6.571   2.565  0.1451  0.0404  0.2049
 1988ntf    on514694   6.149   6.369   2.842 -0.3614  0.5085 -0.4256
 1988ntf    on514695   6.379   6.380   2.774 -0.0665 -0.4092 -0.1846
 1988ntf    on514696   6.049   6.597   2.979  0.0587 -0.1197  0.0162
 1988ntf    on514697   6.175   6.803   2.935 -0.5861 -0.1270 -0.7059
 1988ntf    fn414698   6.172   6.698   3.227 -0.2597  0.7232 -0.1932
 1988ntf    fn414699   6.289   6.540   3.157 -0.2381  0.2878 -0.0675
 1988ntf    fn414700   6.363   6.739   3.142  0.4186 -0.7148 -0.0095
 1989ntf    cn114701   2.763   4.462   2.830  0.2879 -0.1796  0.0972
 1989ntf    sn214702   2.944   4.464   2.821  0.2794 -0.0761 -0.0537
 1989ntf    nn314703   2.968   4.407   2.676  0.7411  0.2794 -0.1181
 1989ntf    sn214704   2.979   4.475   2.535 -0.0430  0.0996 -0.2706
 1989ntf    cn114705   3.158   4.502   2.558 -0.0976  0.0611  0.2160
 1989ntf    fn414706   2.727   4.338   2.859  0.0903 -0.2389 -0.3986
 1989ntf    fn414707   2.702   4.535   2.922 -0.0923 -0.3919  0.0157
 1989ntf    fn414708   2.696   4.492   2.720  0.1720 -0.2130  0.1577
 1989ntf    on514709   2.989   4.598   2.847  0.5563  0.0088 -0.9424
 1989ntf    on514710   2.979   4.363   2.918 -0.7172 -0.1063  0.2874
 1989ntf    on514711   2.922   4.607   2.520  0.0813  0.0608 -1.1246
 1989ntf    on514712   2.966   4.383   2.426  0.2382  0.0894 -0.2975
 1989ntf    fn414713   3.174   4.598   2.648  0.4093  0.3352 -0.1584
 1989ntf    fn414714   3.231   4.400   2.599 -0.3303  0.1952  0.9779
 1989ntf    fn414715   3.217   4.548   2.449  0.1604 -0.6365  0.0605
 1990ntf    cn114716   5.475   1.652   4.011 -0.2352 -0.2032 -0.2910
 1990ntf    sn214717   5.366   1.643   4.156 -0.0643 -0.0269 -0.1516
 1990ntf    nn314718   5.406   1.772   4.237 -0.9223  0.0356  0.1848
 1990ntf    sn214719   5.355   1.919   4.219 -0.1522  0.2712 -0.0956
 1990ntf    cn114720   5.518   1.998   4.204 -0.0306  0.0721  0.1675
 1990ntf    fn414721   5.460   1.552   3.926  0.0539 -0.0171 -0.5612
 1990ntf    fn414722   5.438   1.759   3.944 -0.4490  0.5332  0.9640
 1990ntf    fn414723   5.603   1.661   4.044 -0.3558 -0.1860  0.1774
 1990ntf    on514724   5.233   1.642   4.100 -0.0705 -0.1871 -0.1355
 1990ntf    on514725   5.407   1.524   4.227  0.0012  0.0463 -0.0676
 1990ntf    on514726   5.296   1.971   4.340 -0.0941  0.4646 -0.1498
 1990ntf    on514727   5.290   1.954   4.095 -0.5065  0.1855  0.0664
 1990ntf    fn414728   5.567   1.987   4.081 -0.0493  0.0120  0.1650
 1990ntf    fn414729   5.513   2.129   4.223  0.1108  0.0653  0.2506
 1990ntf    fn414730   5.609   1.943   4.282 -0.3149 -0.0908  0.3844
 1991ntf    cn114731   3.636   3.286   6.336  0.2150 -0.4446  0.3941
 1991ntf    sn214732   3.719   3.268   6.496  0.4801  0.0287  0.3122
 1991ntf    nn314733   3.849   3.354   6.475  0.4951 -0.0663  0.0077
 1991ntf    sn214734   3.876   3.509   6.487  0.2896 -0.0400  0.1566
 1991ntf    cn114735   3.936   3.530   6.657  0.0743  0.3019  0.1900
 1991ntf    fn414736   3.642   3.410   6.289  0.5217 -0.3416  0.7012
 1991ntf    fn414737   3.682   3.208   6.239 -0.4672 -0.7542  0.3200
 1991ntf    fn414738   3.505   3.269   6.339  0.1502 -0.1335 -0.3557
 1991ntf    on514739   3.629   3.332   6.589 -0.1305  0.1751 -0.3676
 1991ntf    on514740   3.744   3.127   6.510  0.4191 -0.0142 -0.0207
 1991ntf    on514741   3.754   3.584   6.483  0.4109  0.1537  0.0793
 1991ntf    on514742   3.985   3.546   6.400  0.0376  0.2725 -0.0282
 1991ntf    fn414743   3.833   3.533   6.739  0.0134  0.1097  0.1198
 1991ntf    fn414744   4.015   3.431   6.692 -0.0465  0.0701 -0.1873
 1991ntf    fn414745   3.993   3.647   6.684 -0.2001  0.5648 -0.3347
 1992ntf    cn114746   1.993   4.001   5.427  0.3919  0.1781  0.0370
 1992ntf    sn214747   1.815   3.965   5.418  0.3923  0.1041  0.3112
 1992ntf    nn314748   1.765   4.070   5.523  0.0270  0.0469  0.1964
 1992ntf    sn214749   1.777   4.068   5.680  0.0190  0.2185  0.1985
 1992ntf    cn114750   1.617   3.996   5.728 -0.0550  0.3884  0.2089
 1992ntf    fn414751   2.053   3.995   5.309  0.2626  0.3006 -0.0348
 1992ntf    fn414752   2.014   4.127   5.459 -0.2430  0.2840  0.0458
 1992ntf    fn414753   2.064   3.929   5.512 -0.1584 -0.1329  0.2410
 1992ntf    on514754   1.779   3.998   5.282 -0.0255  0.1030  0.4209
 1992ntf    on514755   1.787   3.827   5.449  0.2540  0.1883  0.5660
 1992ntf    on514756   1.767   4.198   5.743 -0.0614  0.1537  0.3203
 1992ntf    on514757   1.882   3.984   5.731 -0.0042  0.2668  0.3274
 1992ntf    fn414758   1.522   4.085   5.705  0.3033  0.7824  0.2256
 1992ntf    fn414759   1.602   3.888   5.653 -0.4338  0.3012  0.4092
 1992ntf    fn414760   1.611   3.961   5.855 -0.3876 -0.1547  0.0468
 1993ntf    cn114761   0.922   4.438   5.104 -0.3258  0.3113  0.0986
 1993ntf    sn214762   0.952   4.612   5.061 -0.1465  0.2508 -0.0247
 1993ntf    nn314763   1.108   4.628   5.072 -0.0673 -0.6555  0.2152
 1993ntf    sn214764   1.208   4.647   5.191  0.0812  0.1126 -0.0279
 1993ntf    cn114765   1.285   4.484   5.166  0.1069  0.1040  0.1108
 1993ntf    fn414766   0.943   4.418   5.233  0.1056  0.1672  0.0091
 1993ntf    fn414767   0.800   4.393   5.081 -0.2693 -0.0477  0.4892
 1993ntf    fn414768   0.993   4.357   5.027 -0.4365  0.0944  0.2246
 1993ntf    on514769   0.918   4.613   4.921 -0.0792 -0.2346 -0.0459
 1993ntf    on514770   0.868   4.689   5.149 -0.0229  0.4162 -0.0525
 1993ntf    on514771   1.147   4.635   5.321 -0.0157 -0.5173 -0.1282
 1993ntf    on514772   1.321   4.734   5.168 -0.3722  0.6702 -0.1754
 1993ntf    fn414773   1.204   4.387   5.206  0.2216 -0.0849 -0.1142
 1993ntf    fn414774   1.310   4.458   5.039  0.6920  0.0511  0.2316
 1993ntf    fn414775   1.399   4.470   5.233  0.1084  0.6172  0.2168
 1994ntf    cn114776   5.075   3.165   1.900 -0.0085 -0.4971 -0.1879
 1994ntf    sn214777   5.204   3.290   1.871 -0.1454 -0.2753  0.1557
 1994ntf    nn314778   5.159   3.408   1.965 -0.4237 -0.0250 -0.2897
 1994ntf    sn214779   5.054   3.520   1.932 -0.0840  0.4639  0.2691
 1994ntf    cn114780   4.956   3.515   2.085 -0.0808  0.0228  0.2590
 1994ntf    fn414781   5.077   3.115   2.022  0.3856  0.0724  0.0447
 1994ntf    fn414782   4.954   3.219   1.891  0.2714  0.2190  0.2606
 1994ntf    fn414783   5.074   3.065   1.814  0.2716 -0.3510 -0.3615
 1994ntf    on514784   5.329   3.234   1.916  0.3611  0.4129 -0.3628
 1994ntf    on514785   5.192   3.325   1.732  0.4009 -0.2378  0.1176
 1994ntf    on514786   4.955   3.480   1.834  0.0694 -0.1159  0.3432
 1994ntf    on514787   5.116   3.648   1.915 -0.4163  0.6173  0.1991
 1994ntf    fn414788   4.853   3.598   2.082  0.0838  0.2083 -0.5268
 1994ntf    fn414789   4.904   3.398   2.120  0.6516 -0.3165  0.2187
 1994ntf    fn414790   5.038   3.552   2.182 -0.2742  0.4925  0.2487
 1995ntf    cn114791   4.397   0.576   1.081 -0.0931 -0.0792  0.0886
 1995ntf    sn214792   4.326   0.695   1.199  0.3284  0.2013  0.0643
 1995ntf    nn314793   4.424   0.682   1.321  0.7363 -0.9202 -0.3706
 1995ntf    sn214794   4.407   0.604   1.456 -0.0503 -0.0290  0.0574
 1995ntf    cn114795   4.342   0.740   1.556 -0.0566  0.0833 -0.0992
 1995ntf    fn414796   4.512   0.618   1.028 -0.2342 -0.0639 -0.2102
 1995ntf    fn414797   4.434   0.465   1.142  0.0279 -0.0903 -0.0029
 1995ntf    fn414798   4.311   0.546   0.985  0.0206  0.1407 -0.0843
 1995ntf    on514799   4.342   0.820   1.129 -0.6983  0.0372 -0.4925
 1995ntf    on514800   4.189   0.654   1.216  0.3107  0.2624  0.0683
 1995ntf    on514801   4.534   0.573   1.517 -0.1084 -0.3751  0.0044
 1995ntf    on514802   4.308   0.499   1.450 -0.2010  0.0848  0.4897
 1995ntf    fn414803   4.212   0.761   1.541 -0.0261  0.2889 -0.0890
 1995ntf    fn414804   4.363   0.716   1.685  0.5728  0.1010 -0.1963
 1995ntf    fn414805   4.401   0.856   1.533 -0.4307  0.1971 -0.5048
 1996ntf    cn114806   6.714   6.603   4.627 -0.0515  0.0225 -0.0087
 1996ntf    sn214807   6.548   6.629   4.556 -0.1852 -0.0950  0.2583
 1996ntf    nn314808   6.529   6.784   4.570  0.1764  0.0092 -0.3562
 1996ntf    sn214809   6.478   6.884   4.460 -0.2328 -0.2696 -0.4222
 1996ntf    cn114810   6.630   6.954   4.390 -0.0860 -0.2249 -0.0591
 1996ntf    fn414811   6.753   6.479   4.602  0.1215  0.0778 -0.0158
 1996ntf    fn414812   6.802   6.679   4.565 -0.2580  0.0316 -0.2926
 1996ntf    fn414813   6.715   6.621   4.758 -0.2388 -0.4711  0.0654
 1996ntf    on514814   6.563   6.574   4.423  0.3991  0.5585  0.0450
 1996ntf    on514815   6.464   6.556   4.647 -0.0591  0.1559  0.5753
 1996ntf    on514816   6.415   7.004   4.510 -0.0187 -0.2648 -0.1627
 1996ntf    on514817   6.415   6.831   4.341 -0.3403 -0.2947 -0.3544
 1996ntf    fn414818   6.608   7.009   4.271  0.2589 -0.3159 -0.1663
 1996ntf    fn414819   6.687   7.046   4.467  0.6896 -0.4422 -0.3575
 1996ntf    fn414820   6.718   6.857   4.370 -0.0481 -0.2205  0.0797
 1997ntf    cn114821   3.946   6.627   1.296  0.3333 -0.0099  0.1269
 1997ntf    sn214822   3.879   6.461   1.267  0.0367  0.0818  0.2740
 1997ntf    nn314823   3.990   6.411   1.167 -0.0942 -0.1286  0.2318
 1997ntf    sn214824   3.989   6.410   1.010 -0.2635 -0.1758  0.2325
 1997ntf    cn114825   4.161   6.469   0.995 -0.2844 -0.1011  0.2870
 1997ntf    fn414826   4.062   6.624   1.358  0.2913 -0.1936  0.1963
 1997ntf    fn414827   3.971   6.690   1.183 -0.2774 -0.1329 -0.0819
 1997ntf    fn414828   3.860   6.705   1.360 -0.2312 -0.0037 -0.6229
 1997ntf    on514829   3.877   6.398   1.397 -0.1945 -0.0619  0.2029
 1997ntf    on514830   3.748   6.481   1.211  0.0142  0.1450  0.3498
 1997ntf    on514831   3.909   6.518   0.958 -0.5719 -0.7479 -0.4870
 1997ntf    on514832   3.984   6.277   0.954  0.1574 -0.1262  0.0749
 1997ntf    fn414833   4.193   6.501   0.871  0.3717  0.2551  0.5488
 1997ntf    fn414834   4.185   6.575   1.070  0.5689 -0.0879  0.0028
 1997ntf    fn414835   4.254   6.378   1.016 -0.0729  0.1991  0.6470
 1998ntf    cn114836   5.096   3.852   3.797  0.1946  0.1284  0.0748
 1998ntf    sn214837   5.270   3.826   3.753  0.1086  0.1844 -0.3047
 1998ntf    nn314838   5.246   3.691   3.676 -0.4339 -0.1760  0.4865
 1998ntf    sn214839   5.342   3.568   3.665 -0.1402  0.0577  0.4237
 1998ntf    cn114840   5.299   3.475   3.816  0.0151  0.2764  0.6034
 1998ntf    fn414841   5.070   3.953   3.879  0.0656  0.2742 -0.1442
 1998ntf    fn414842   5.029   3.885   3.688  0.3989  0.0288 -0.0800
 1998ntf    fn414843   5.041   3.743   3.849 -0.2663  0.1480 -0.3644
 1998ntf    on514844   5.310   3.944   3.680  0.1807  0.5648  0.3396
 1998ntf    on514845   5.319   3.809   3.888  0.4646  0.0466 -0.4501
 1998ntf    on514846   5.485   3.582   3.681  0.0056 -0.4668 -0.3463
 1998ntf    on514847   5.307   3.476   3.560 -0.0982  0.1466  0.3323
 1998ntf    fn414848   5.181   3.416   3.803  0.2849 -0.1390 -0.0192
 1998ntf    fn414849   5.393   3.384   3.837  0.1879  0.2845 -0.1056
 1998ntf    fn414850   5.293   3.548   3.925 -0.0195  0.8033  0.2528
 1999ntf    cn114851   6.520   4.240   4.222 -0.0860  0.2655 -0.0702
 1999ntf    sn214852   6.647   4.124   4.283 -0.1172  0.1858 -0.1582
 1999ntf    nn314853   6.679   4.046   4.151  1.0218 -0.1883  0.3286
 1999ntf    sn214854   6.621   3.907   4.107  0.2747  0.2625 -0.1334
 1999ntf    cn114855   6.732   3.794   4.197 -0.2191  0.1340  0.3249
 1999ntf    fn414856   6.428   4.188   4.144  0.2736  0.2714 -0.5027
 1999ntf    fn414857   6.453   4.300   4.319 -0.0488  0.2281 -0.0209
 1999ntf    fn414858   6.562   4.333   4.138 -0.4617  0.1012 -0.4391
 1999ntf    on514859   6.754   4.203   4.338  0.2013 -0.2451 -0.1553
 1999ntf    on514860   6.579   4.044   4.382  0.4276 -0.1433 -0.0467
 1999ntf    on514861   6.655   3.883   3.969 -0.3452  0.0983 -0.2618
 1999ntf    on514862   6.486   3.878   4.150  0.4299  0.3887  0.4418
 1999ntf    fn414863   6.723   3.670   4.151  0.2438  0.1880  0.0747
 1999ntf    fn414864   6.858   3.833   4.184 -0.2019  0.1237  0.4689
 1999ntf    fn414865   6.713   3.783   4.327 -0.2408  0.5110  0.3545
 2000ntf    cn114866   6.553   2.379   4.513  0.2684  0.0434 -0.2083
 2000ntf    sn214867   6.602   2.466   4.361  0.0803  0.0939 -0.2401
 2000ntf    nn314868   6.561   2.366   4.248  0.1682  0.3300 -0.4806
 2000ntf    sn214869   6.422   2.369   4.175  0.0590  0.1564 -0.2806
 2000ntf    cn114870   6.447   2.505   4.057 -0.0268  0.7359  0.3654
 2000ntf    fn414871   6.424   2.355   4.530  0.2369 -0.0427 -0.5639
 2000ntf    fn414872   6.619   2.265   4.516 -0.1060 -0.1734  0.0507
 2000ntf    fn414873   6.593   2.447   4.619 -0.4463 -0.0373  0.1231
 2000ntf    on514874   6.525   2.588   4.367  0.1455  0.1340 -0.2195
 2000ntf    on514875   6.745   2.480   4.374  0.1154 -0.7995  0.4780
 2000ntf    on514876   6.307   2.410   4.251  0.3095 -0.0416  0.2076
 2000ntf    on514877   6.400   2.251   4.096 -0.5965 -0.0890  0.2595
 2000ntf    fn414878   6.525   2.464   3.959 -0.4538  0.2586  0.2221
 2000ntf    fn414879   6.338   2.535   3.988 -0.1454 -0.5500 -0.0308
 2000ntf    fn414880   6.484   2.622   4.108 -0.0410  1.0221 -0.2723
 2001ntf    cn114881   2.303   5.983   5.776  0.0045 -0.0270 -0.0628
 2001ntf    sn214882   2.183   6.108   5.719  0.0320 -0.1245 -0.3380
 2001ntf    nn314883   2.106   6.010   5.623 -0.2463  0.1937 -0.4387
 2001ntf    sn214884   2.043   6.040   5.482 -0.3833  0.1145 -0.3951
 2001ntf    cn114885   1.968   5.879   5.444  0.0111 -0.2646  0.3954
 2001ntf    fn414886   2.336   5.895   5.683 -0.1259  0.0223 -0.1559
 2001ntf    fn414887   2.415   6.036   5.822 -0.3445  0.5132  0.1674
 2001ntf    fn414888   2.262   5.917   5.883 -0.2010  0.2216  0.0127
 2001ntf    on514889   2.112   6.147   5.838  0.4760  0.0131 -0.1164
 2001ntf    on514890   2.274   6.205   5.663  0.1782 -0.1038 -0.0667
 2001ntf    on514891   2.139   6.062   5.377 -0.1347  0.4403 -0.1051
 2001ntf    on514892   1.935   6.135   5.493 -0.0159  0.4696  0.2683
 2001ntf    fn414893   1.975   5.842   5.317 -0.2506 -0.5966  0.4786
 2001ntf    fn414894   2.016   5.777   5.513  0.3320 -0.6900 -0.4483
 2001ntf    fn414895   1.841   5.885   5.479 -0.0634  0.4546  0.0269
 2002ntf    cn114896   1.915   5.737   3.276 -0.2056 -0.1557 -0.0248
 2002ntf    sn214897   1.875   5.571   3.337  0.3028 -0.2981 -0.0734
 2002ntf    nn314898   2.007   5.540   3.416  0.1404  0.0093  0.3222
 2002ntf    sn214899   2.052   5.403   3.479  0.3681 -0.1053 -0.0815
 2002ntf    cn114900   2.189   5.357   3.369  0.3078  0.2829 -0.3205
 2002ntf    fn414901   1.930   5.826   3.373 -0.2156 -0.0549 -0.1147
 2002ntf    fn414902   2.034   5.748   3.218 -0.2719 -0.2275 -0.1724
 2002ntf    fn414903   1.825   5.793   3.198 -0.0308  0.3831  0.1524
 2002ntf    on514904   1.762   5.585   3.425  0.1977 -0.2477 -0.2141
 2002ntf    on514905   1.858   5.490   3.219 -0.4056  0.0899 -0.2447
 2002ntf    on514906   1.952   5.300   3.468  0.1117  0.1655 -0.2951
 2002ntf    on514907   2.116   5.418   3.607  0.6780  0.3815 -0.2918
 2002ntf    fn414908   2.160   5.350   3.240 -0.1133  0.2470 -0.2276
 2002ntf    fn414909   2.284   5.448   3.384  0.3601  0.1585  0.1172
 2002ntf    fn414910   2.244   5.241   3.399 -0.3616 -0.0900 -0.5192
 2003ntf    cn114911   1.008   4.777   5.978 -0.1140 -0.7323 -0.0647
 2003ntf    sn214912   1.171   4.769   6.058  0.0428 -0.2953 -0.3376
 2003ntf    nn314913   1.134   4.735   6.207  0.2328 -0.5971 -0.3562
 2003ntf    sn214914   1.210   4.649   6.314  0.2386  0.0946  0.2037
 2003ntf    cn114915   1.254   4.771   6.442  0.3224 -0.2111  0.4677
 2003ntf    fn414916   0.931   4.670   5.989 -0.0851 -0.7506 -0.0400
 2003ntf    fn414917   0.932   4.876   6.022  0.8570 -0.2442  0.5559
 2003ntf    fn414918   1.022   4.805   5.850  0.1641  0.4063  0.2067
 2003ntf    on514919   1.233   4.663   5.982  0.5319 -0.5134  0.3523
 2003ntf    on514920   1.224   4.900   6.030  0.1917 -0.1683  0.5101
 2003ntf    on514921   1.341   4.601   6.282 -0.1412 -0.6637 -0.2300
 2003ntf    on514922   1.121   4.561   6.386  0.4690 -0.2726  0.0419
 2003ntf    fn414923   1.346   4.853   6.395  0.0686 -0.2855 -0.1733
 2003ntf    fn414924   1.150   4.844   6.478  0.2290 -0.1910  0.1666
 2003ntf    fn414925   1.302   4.719   6.553  0.0962  0.4829  0.8942
 2004ntf    cn114926   3.091   1.383   1.376 -0.0053  0.1364 -0.4182
 2004ntf    sn214927   3.027   1.436   1.538  0.1344  0.1188 -0.3569
 2004ntf    nn314928   3.148   1.496   1.618 -0.3091  0.1589  0.2964
 2004ntf    sn214929   3.218   1.635   1.594  0.0308 -0.0232  0.2251
 2004ntf    cn114930   3.395   1.599   1.614  0.0559 -0.1563 -0.2121
 2004ntf    fn414931   3.182   1.289   1.398 -0.0633  0.2802  0.4999
 2004ntf    fn414932   2.998   1.337   1.294  0.2061  0.3050 -0.7562
 2004ntf    fn414933   3.150   1.483   1.312  0.2194  0.2817  0.0086
 2004ntf    on514934   2.924   1.534   1.514  0.4600  0.4526 -0.3938
 2004ntf    on514935   2.988   1.310   1.596 -0.1271  0.6975  0.7466
 2004ntf    on514936   3.190   1.734   1.694 -0.0986  0.0077  0.1590
 2004ntf    on514937   3.219   1.689   1.460  0.0063  0.1298  0.2861
 2004ntf    fn414938   3.467   1.709   1.629 -0.0032 -0.2211  0.5788
 2004ntf    fn414939   3.423   1.516   1.713 -0.0242 -0.1283 -0.1659
 2004ntf    fn414940   3.437   1.533   1.508 -0.1389 -0.3665 -0.1607
 2005ntf    cn114941   4.472   1.614   5.582 -0.2610  0.7378  0.0161
 2005ntf    sn214942   4.492   1.738   5.451 -0.0374  0.2721 -0.3931
 2005ntf    nn314943   4.449   1.651   5.328  0.0219 -0.2229 -0.0681
 2005ntf    sn214944   4.347   1.699   5.218 -0.1450  0.0867  0.2192
 2005ntf    cn114945   4.392   1.580   5.088 -0.2547  0.4314 -0.1336
 2005ntf    fn414946   4.345   1.577   5.590  0.0935 -0.4193  0.6074
 2005ntf    fn414947   4.548   1.510   5.553 -0.6412  0.6154 -0.5607
 2005ntf    fn414948   4.514   1.652   5.702 -0.0259  0.8614 -0.1040
 2005ntf    on514949   4.410   1.850   5.491  0.5271  0.4836  0.2050
 2005ntf    on514950   4.634   1.764   5.442 -0.0579  0.3663 -0.4532
 2005ntf    on514951   4.379   1.829   5.163 -0.2013  0.2650  0.6071
 2005ntf    on514952   4.208   1.681   5.252 -0.2491 -0.0783 -0.2877
 2005ntf    fn414953   4.511   1.601   5.034 -0.3192  0.5586 -0.2299
 2005ntf    fn414954   4.390   1.456   5.132 -0.5568  0.5642  0.2324
 2005ntf    fn414955   4.301   1.587   4.991 -0.4301 -0.3025 -0.0251
 2006ntf    cn114956   2.874   5.344   4.375 -0.4224 -0.2197 -0.0565
 2006ntf    sn214957   2.999   5.257   4.275  0.0782  0.2919  0.1234
 2006ntf    nn314958   2.967   5.108   4.314  0.4816  0.1950  0.0904
 2006ntf    sn214959   3.033   5.024   4.428  0.2427  0.0821  0.1454
 2006ntf    cn114960   2.885   4.935   4.485  0.1361 -0.2230 -0.5996
 2006ntf    fn414961   2.747   5.344   4.338 -0.4668  0.2231  0.0919
 2006ntf    fn414962   2.861   5.304   4.500  0.6016  0.7081  0.3545
 2006ntf    fn414963   2.912   5.470   4.377 -0.7104 -0.1342  0.0662
 2006ntf    on514964   2.956   5.275   4.139  0.2681 -0.6222 -0.0610
 2006ntf    on514965   3.126   5.311   4.318  0.3737 -0.1293 -0.2153
 2006ntf    on514966   3.073   5.101   4.544  0.3722 -0.1285  0.2419
 2006ntf    on514967   3.115   4.916   4.378  0.0062 -0.1320  0.2133
 2006ntf    fn414968   2.804   5.002   4.566  0.9418 -0.1137  0.1233
 2006ntf    fn414969   2.802   4.896   4.389  0.3522  0.4473 -1.0687
 2006ntf    fn414970   2.911   4.827   4.556 -0.0677 -0.1250 -0.3749
 2007ntf    cn114971   4.813   6.753   5.351 -0.1524 -0.0674  0.0812
 2007ntf    sn214972   4.742   6.665   5.209  0.1645 -0.0259 -0.1039
 2007ntf    nn314973   4.703   6.528   5.275 -0.4249 -0.4472 -1.2913
 2007ntf    sn214974   4.556   6.504   5.327 -0.0972  0.2394  0.0080
 2007ntf    cn114975   4.483   6.421   5.182 -0.2944 -0.5309  0.5418
 2007ntf    fn414976   4.909   6.680   5.406  0.3238  0.3002 -0.2538
 2007ntf    fn414977   4.861   6.873   5.325  0.4886 -0.3197  0.0766
 2007ntf    fn414978   4.730   6.765   5.453 -0.0887 -0.3213  0.1649
 2007ntf    on514979   4.639   6.752   5.158 -0.2077 -0.0087  0.6680
 2007ntf    on514980   4.862   6.642   5.132  0.4055 -0.2004  0.3216
 2007ntf    on514981   4.474   6.619   5.355 -0.5295  0.0150 -0.3269
 2007ntf    on514982   4.551   6.397   5.424 -0.4860  0.1563 -0.1044
 2007ntf    fn414983   4.351   6.425   5.180 -0.2569  0.4854 -0.7574
 2007ntf    fn414984   4.522   6.485   5.073 -0.2527 -0.4821  0.5851
 2007ntf    fn414985   4.516   6.294   5.168  0.0598 -0.3354 -0.4658
 2008ntf    cn114986   0.379   6.603   3.752  0.1115  0.5629 -0.0079
 2008ntf    sn214987   0.349   6.485   3.616  0.0696  0.3873  0.1535
 2008ntf    nn314988   0.210   6.428   3.663  0.0179  0.0057 -0.4551
 2008ntf    sn214989   0.068   6.478   3.620 -0.3406 -0.2565  0.4056
 2008ntf    cn114990   0.027   6.360   3.487  0.4059  0.2679 -0.2973
 2008ntf    fn414991   0.278   6.688   3.759 -0.1158  0.3333 -0.4501
 2008ntf    fn414992   0.372   6.538   3.867 -0.1797  0.0329 -0.3209
 2008ntf    fn414993   0.489   6.677   3.742  0.2237  0.3583 -0.3092
 2008ntf    on514994   0.363   6.559   3.493 -0.0382  0.1544  0.0006
 2008ntf    on514995   0.448   6.382   3.634  0.0719  0.2549 -0.5844
 2008ntf    on514996   0.061   6.603   3.549 -0.8210 -0.4638  0.0771
 2008ntf    on514997  -0.031   6.447   3.721 -0.3068 -0.0013  0.5180
 2008ntf    fn414998   0.106   6.381   3.383  0.4774  0.0131 -0.2956
 2008ntf    fn414999   0.042   6.233   3.522  0.1683  0.3136 -0.0217
 2008ntf    fn415000  -0.098   6.368   3.444  0.2521 -0.3389  0.0201
 2009ntf    cn115001   3.320   0.114   5.724 -0.1650  0.2821 -0.0840
 2009ntf    sn215002   3.413   0.160   5.575 -0.3201  0.0100 -0.2674
 2009ntf    nn315003   3.515   0.041   5.567  0.2594  0.4802 -0.0152
 2009ntf    sn215004   3.665   0.031   5.612  0.2537  0.0269 -0.0919
 2009ntf    cn115005   3.765   0.074   5.467 -0.0832 -0.0601 -0.3507
 2009ntf    fn415006   3.224   0.198   5.755  0.2107  0.7061 -0.0587
 2009ntf    fn415007   3.264  -0.006   5.712 -0.3303  0.2392  1.0409
 2009ntf    fn415008   3.397   0.105   5.831  0.3235  0.0945 -0.4420
 2009ntf    on515009   3.309   0.147   5.476  0.0026  0.0520 -0.6171
 2009ntf    on515010   3.460   0.294   5.600  0.0151 -0.1722  0.0963
 2009ntf    on515011   3.706  -0.105   5.638 -0.2357 -0.1440 -0.2045
 2009ntf    on515012   3.700   0.124   5.717 -0.2692 -0.3402  0.4191
 2009ntf    fn415013   3.755   0.203   5.439 -0.4363 -0.0144 -0.0269
 2009ntf    fn415014   3.892   0.044   5.488 -0.0232  0.2003 -0.3308
 2009ntf    fn415015   3.725   0.013   5.357 -0.3919  0.0271 -0.2870
 2010ntf    cn115016   0.505   6.217   0.956  0.2595 -0.1777 -0.1095
 2010ntf    sn215017   0.592   6.203   1.115 -0.1086 -0.1868  0.0914
 2010ntf    nn315018   0.481   6.145   1.210  0.1649 -0.6963  0.1038
 2010ntf    sn215019   0.432   6.189   1.352 -0.0844 -0.1048 -0.1604
 2010ntf    cn115020   0.282   6.087   1.368 -0.0717 -0.1616 -0.3981
 2010ntf    fn415021   0.593   6.257   0.865  0.0484  0.1895 -0.1562
 2010ntf    fn415022   0.457   6.106   0.904  0.0218 -0.0888 -0.0772
 2010ntf    fn415023   0.403   6.301   0.955  0.1578 -0.3012  0.1256
 2010ntf    on515024   0.699   6.110   1.085  0.4464  0.4920 -0.0629
 2010ntf    on515025   0.626   6.339   1.148 -0.1591 -0.0347 -0.4736
 2010ntf    on515026   0.383   6.324   1.363  0.0440 -0.0446 -0.3185
 2010ntf    on515027   0.520   6.135   1.453  0.3302  0.2773 -0.3164
 2010ntf    fn415028   0.304   5.958   1.353  0.4616 -0.1221  0.0025
 2010ntf    fn415029   0.231   6.095   1.490  0.4152 -0.2762 -0.1836
 2010ntf    fn415030   0.190   6.135   1.286 -0.0318  0.3094 -0.1737
 2011ntf    cn115031   2.031   0.832   2.411 -0.0281 -0.4065  0.2039
 2011ntf    sn215032   2.132   0.977   2.451 -0.4405 -0.0972  0.1307
 2011ntf    nn315033   2.201   0.922   2.581 -0.2899 -0.6491 -0.1814
 2011ntf    sn215034   2.169   0.926   2.734 -0.2008  0.5594 -0.1840
 2011ntf    cn115035   2.206   0.750   2.761 -0.6430  0.4452 -0.3120
 2011ntf    fn415036   2.120   0.735   2.397  0.0835 -0.2431 -0.2325
 2011ntf    fn415037   1.939   0.805   2.503 -0.1268 -0.5182  0.0734
 2011ntf    fn415038   1.963   0.833   2.297  0.1616  0.5824  0.0968
 2011ntf    on515039   2.221   0.987   2.338 -0.3422 -0.1395  0.2045
 2011ntf    on515040   2.037   1.083   2.472 -0.5555 -0.2245  0.2549
 2011ntf    on515041   2.027   0.935   2.755 -0.2107  0.0229  0.0122
 2011ntf    on515042   2.272   0.994   2.809  0.5349  0.0022 -0.6788
 2011ntf    fn415043   2.166   0.662   2.671  0.5810 -0.1128 -0.3408
 2011ntf    fn415044   2.338   0.738   2.771 -0.7011 -0.1762 -0.2134
 2011ntf    fn415045   2.148   0.709   2.873  0.0234  0.2145 -0.0474
 2012ntf    cn115046   4.446   3.854   4.228  0.1616  0.0464  0.1452
 2012ntf    sn215047   4.485   3.859   4.406 -0.0771  0.0163  0.2001
 2012ntf    nn315048   4.642   3.862   4.394 -0.0794  0.2108  0.2131
 2012ntf    sn215049   4.735   3.986   4.417  0.2092  0.0254  0.0487
 2012ntf    cn115050   4.792   4.013   4.246 -0.0651 -0.0408 -0.0546
 2012ntf    fn415051   4.479   3.968   4.170  0.2482 -0.0114  0.0812
 2012ntf    fn415052   4.502   3.755   4.162  0.0547  0.2187 -0.2058
 2012ntf    fn415053   4.315   3.842   4.213  0.2174 -0.6274  0.1584
 2012ntf    on515054   4.413   3.974   4.453 -0.2164  0.1521 -0.3417
 2012ntf    on515055   4.439   3.732   4.455 -0.3253  0.0785  0.1288
 2012ntf    on515056   4.855   3.960   4.492  0.0976 -0.3664  0.0948
 2012ntf    on515057   4.669   4.111   4.442  0.0360 -0.1136  0.2884
 2012ntf    fn415058   4.915   3.966   4.228 -0.2278 -0.6129  0.3243
 2012ntf    fn415059   4.717   3.964   4.149  0.0626 -0.6281  0.1370
 2012ntf    fn415060   4.807   4.142   4.223  0.0637 -0.0675 -0.1244
 2013ntf    cn115061   1.294   3.199   3.886  0.0399 -0.1705  0.1129
 2013ntf    sn215062   1.171   3.205   3.752  0.0525  0.0323  0.1099
 2013ntf    nn315063   1.252   3.268   3.633 -0.4506  0.2090 -0.1417
 2013ntf    sn215064   1.200   3.352   3.512 -0.1003  0.1411 -0.3396
 2013ntf    cn115065   1.309   3.278   3.386  0.1013 -0.2368  0.0528
 2013ntf    fn415066   1.254   3.133   3.993  0.0104 -0.4303 -0.0588
 2013ntf    fn415067   1.407   3.135   3.860  0.3658  0.2546  0.4614
 2013ntf    fn415068   1.331   3.319   3.929  0.2501 -0.2602  0.1848
 2013ntf    on515069   1.136   3.067   3.728 -0.2660  0.2224 -0.5151
 2013ntf    on515070   1.063   3.283   3.806  0.1705  0.3544 -0.1127
 2013ntf    on515071   1.236   3.492   3.517  0.8746 -0.1255  0.4226
 2013ntf    on515072   1.068   3.317   3.467  0.0937 -0.4867 -0.4326
 2013ntf    fn415073   1.326   3.369   3.291  0.1185 -0.2061  0.0853
 2013ntf    fn415074   1.428   3.257   3.439  0.1684  0.0153  0.0074
 2013ntf    fn415075   1.265   3.164   3.336 -0.5218  0.0610 -0.0890
 2014ntf    cn115076   0.477   6.368   4.782  0.2601 -0.0247 -0.2446
 2014ntf    sn215077   0.571   6.309   4.637  0.7639 -0.1707  0.1389
 2014ntf    nn315078   0.489   6.368   4.517  0.4328 -0.4597  0.2217
 2014ntf    sn215079   0.424   6.299   4.392 -0.1555  0.0148  0.2581
 2014ntf    cn115080   0.260   6.269   4.465 -0.2986  0.0483 -0.0478
 2014ntf    fn415081   0.477   6.498   4.804 -0.1966 -0.0936  0.1817
 2014ntf    fn415082   0.354   6.318   4.778  0.2636 -0.0561  0.0420
 2014ntf    fn415083   0.525   6.318   4.894  0.2660 -0.2661 -0.3536
 2014ntf    on515084   0.697   6.377   4.656  1.0532 -0.4846 -0.6454
 2014ntf    on515085   0.568   6.166   4.658 -0.0998 -0.2803 -0.6414
 2014ntf    on515086   0.477   6.168   4.360  0.0413  0.3850 -0.9920
 2014ntf    on515087   0.400   6.389   4.282 -0.0694 -0.1582  0.0949
 2014ntf    fn415088   0.207   6.380   4.512 -0.0395  0.1483  0.0108
 2014ntf    fn415089   0.185   6.213   4.371 -0.1289 -0.1511 -0.0655
 2014ntf    fn415090   0.259   6.177   4.560  0.3346  0.1622  0.0789
 2015ntf    cn115091   6.053   1.906   6.167  0.1522 -0.0801 -0.0955
 2015ntf    sn215092   5.900   1.947   6.257 -0.1087 -0.4900 -0.3489
 2015ntf    nn315093   5.885   1.815   6.341 -0.1199 -0.3468 -0.1276
 2015ntf    sn215094   5.762   1.723   6.371 -0.1410 -0.2839 -0.0193
 2015ntf    cn115095   5.796   1.678   6.543 -0.0729 -0.4025 -0.0637
 2015ntf    fn415096   6.151   1.888   6.254  0.0346  0.1671  0.0888
 2015ntf    fn415097   6.042   1.796   6.093  0.3473 -0.4692  0.4510
 2015ntf    fn415098   6.085   2.007   6.087  0.5964 -0.1269  0.0197
 2015ntf    on515099   5.929   2.070   6.327  0.4825 -0.1535 -1.1663
 2015ntf    on515100   5.793   1.950   6.161 -0.2389 -0.1938 -0.1937
 2015ntf    on515101   5.765   1.604   6.289 -0.3492 -0.2798 -0.0336
 2015ntf    on515102   5.633   1.788   6.383  0.1496  0.3576 -0.3609
 2015ntf    fn415103   5.688   1.638   6.608 -0.0702 -0.4170 -0.0683
 2015ntf    fn415104   5.879   1.576   6.559  0.0807 -0.2955 -0.1715
 2015ntf    fn415105   5.836   1.786   6.608 -0.3699 -0.0907 -0.4036
 2016ntf    cn115106   5.174   4.794   6.243 -0.4612 -0.1884  0.4009
 2016ntf    sn215107   5.144   4.615   6.227 -0.0611 -0.2116 -0.1455
 2016ntf    nn315108   5.040   4.629   6.110 -0.2481  0.0532  0.0507
 2016ntf    sn215109   5.060   4.587   5.960 -0.1695 -0.1234  0.1100
 2016ntf    cn115110   4.986   4.421   5.957  0.0983 -0.2430  0.1346
 2016ntf    fn415111   5.095   4.856   6.328 -0.6047 -0.0016  0.1336
 2016ntf    fn415112   5.295   4.814   6.292 -0.3417  0.3825 -0.1166
 2016ntf    fn415113   5.184   4.862   6.130  0.0726  0.3607  0.7762
 2016ntf    on515114   5.272   4.557   6.199  0.2401  0.4695 -0.1927
 2016ntf    on515115   5.074   4.583   6.349 -0.5105  0.1115 -0.3161
 2016ntf    on515116   5.195   4.564   5.916 -0.0472  0.3056  0.2558
 2016ntf    on515117   4.978   4.658   5.864  0.3453 -0.1684 -0.3662
 2016ntf    fn415118   5.061   4.331   6.019  0.6135  0.3665  0.4038
 2016ntf    fn415119   4.870   4.409   6.021  0.2352  0.5747  0.5402
 2016ntf    fn415120   4.960   4.376   5.835 -0.4983 -0.0663  0.1922
 2017ntf    cn115121   5.943   3.546   2.952 -0.0832  0.1864 -0.0975
 2017ntf    sn215122   5.871   3.440   2.823 -0.2650  0.2966 -0.0882
 2017ntf    nn315123   5.959   3.311   2.805  0.3790  0.6900  0.1950
 2017ntf    sn215124   6.091   3.306   2.720  0.0470 -0.3248 -0.2795
 2017ntf    cn115125   6.170   3.147   2.757  0.2323 -0.1957 -0.1187
 2017ntf    fn415126   5.966   3.474   3.061  0.1726  0.2330 -0.1204
 2017ntf    fn415127   6.055   3.607   2.916 -0.0645  0.4233  0.3563
 2017ntf    fn415128   5.870   3.649   2.990 -0.0418  0.0959  0.2265
 2017ntf    on515129   5.743   3.407   2.880 -0.0922 -0.1629  0.0382
 2017ntf    on515130   5.866   3.524   2.706  0.2799  0.4051 -0.0376
 2017ntf    on515131   6.188   3.400   2.771 -0.2668 -0.1939  0.0814
 2017ntf    on515132   6.073   3.298   2.577  0.3681  0.0378 -0.3401
 2017ntf    fn415133   6.285   3.126   2.695  0.0754 -0.1804 -0.4130
 2017ntf    fn415134   6.193   3.137   2.887 -0.4977 -0.0455  0.0293
 2017ntf    fn415135   6.087   3.048   2.726  0.0510 -0.0646 -0.0560
 2018ntf    cn115136   3.474   3.627   5.950 -0.1884  0.2482  0.0144
 2018ntf    sn215137   3.391   3.479   5.885 -0.1901  0.1563  0.2237
 2018ntf    nn315138   3.314   3.549   5.767  0.0428  0.2138  0.1064
 2018ntf    sn215139   3.196   3.495   5.680  0.4217 -0.3761 -0.0478
 2018ntf    cn115140   3.268   3.502   5.513  0.1491  0.0314 -0.1508
 2018ntf    fn415141   3.560   3.612   6.050 -0.1376 -0.8090 -0.1748
 2018ntf    fn415142   3.548   3.689   5.860  0.2119 -0.4567 -0.1544
 2018ntf    fn415143   3.391   3.720   5.993  0.1831  0.5360  0.1247
 2018ntf    on515144   3.498   3.391   5.848 -0.2029  0.1390  0.2287
 2018ntf    on515145   3.309   3.437   5.996 -0.5424 -0.1407 -0.1447
 2018ntf    on515146   3.083   3.585   5.687  0.2016 -0.6582  0.0437
 2018ntf    on515147   3.175   3.354   5.704 -0.2258 -0.2055  0.4303
 2018ntf    fn415148   3.380   3.431   5.509  0.1774  0.0447  0.3212
 2018ntf    fn415149   3.188   3.448   5.423  0.0218  0.4312 -0.2779
 2018ntf    fn415150   3.284   3.626   5.471 -0.1725  0.2006  0.2237
 2019ntf    cn115151   2.778   6.725   1.744 -0.3094 -0.0250  0.0876
 2019ntf    sn215152   2.746   6.779   1.573 -0.2689 -0.1898  0.0276
 2019ntf    nn315153   2.872   6.718   1.503 -0.0578 -0.7095  0.8481
 2019ntf    sn215154   3.013   6.787   1.499 -0.3060 -0.2340  0.1000
 2019ntf    cn115155   3.115   6.669   1.592 -0.0096 -0.0517  0.0071
 2019ntf    fn415156   2.845   6.611   1.753  0.4474  0.3782 -0.3740
 2019ntf    fn415157   2.847   6.813   1.816 -0.4379  0.0517  0.1165
 2019ntf    fn415158   2.675   6.697   1.822  0.0882 -0.2630  0.5299
 2019ntf    on515159   2.626   6.711   1.531 -0.0882 -0.4130 -0.1283
 2019ntf    on515160   2.739   6.922   1.589  0.5021 -0.1527  0.0992
 2019ntf    on515161   3.034   6.909   1.573 -0.1028 -0.4893  0.4668
 2019ntf    on515162   3.074   6.782   1.369 -0.0446  0.1287  0.2050
 2019ntf    fn415163   3.132   6.550   1.537  0.0765  0.0394 -0.1649
 2019ntf    fn415164   3.238   6.713   1.617  0.0064 -0.1342  0.0780
 2019ntf    fn415165   3.062   6.651   1.712  0.0172 -0.1006  0.0116
 2020ntf    cn115166   0.603   5.652   4.004  0.1049  0.0780 -0.0394
 2020ntf    sn215167   0.746   5.540   4.007  0.0164 -0.0401 -0.2114
 2020ntf    nn315168   0.821   5.593   4.134 -0.3759 -0.1364  0.0639
 2020ntf    sn215169   0.823   5.537   4.280 -0.1154 -0.5379 -0.0893
 2020ntf    cn115170   0.904   5.671   4.372 -0.5101 -0.0941 -0.3842
 2020ntf    fn415171   0.546   5.645   4.123  0.6335 -0.3555  0.1945
 2020ntf    fn415172   0.635   5.778   3.981 -0.0949  0.0942 -0.2385
 2020ntf    fn415173   0.502   5.631   3.921  0.0316 -0.0915  0.0924
 2020ntf    on515174   0.689   5.407   4.013  0.0316 -0.0126  0.5876
 2020ntf    on515175   0.818   5.569   3.885 -0.2855 -0.6309 -0.5382
 2020ntf    on515176   0.909   5.422   4.291 -0.0377 -0.4657  0.0589
 2020ntf    on515177   0.698   5.529   4.351 -0.1843 -0.4904 -0.2047
 2020ntf    fn415178   1.017   5.716   4.321 -0.2249 -0.1783  0.1642
 2020ntf    fn415179   0.826   5.777   4.386 -0.3731 -0.0401 -0.0090
 2020ntf    fn415180   0.937   5.628   4.493  0.1492  0.2047 -0.4529
 2021ntf    cn115181   3.748   0.764   3.235  0.2125  0.2054 -0.2094
 2021ntf    sn215182   3.569   0.742   3.252  0.2512  0.1044  0.0760
 2021ntf    nn315183   3.537   0.655   3.125 -0.1386  0.1624  0.1312
 2021ntf    sn215184   3.477   0.712   2.992  0.0104  0.2354  0.0954
 2021ntf    cn115185   3.513   0.581   2.871  0.2336  0.0404  0.3715
 2021ntf    fn415186   3.778   0.844   3.134  0.1107  0.4618 -0.0372
 2021ntf    fn415187   3.805   0.812   3.345 -0.0532  0.2876 -0.1061
 2021ntf    fn415188   3.808   0.648   3.213  0.4765  0.4981 -1.0685
 2021ntf    on515189   3.556   0.669   3.376  0.3680 -0.0386  0.0039
 2021ntf    on515190   3.517   0.876   3.244 -0.0287  0.0082  0.2615
 2021ntf    on515191   3.546   0.828   2.941  0.4211 -0.1410 -0.2148
 2021ntf    on515192   3.333   0.718   2.994 -0.0134 -0.0843 -0.6102
 2021ntf    fn415193   3.448   0.470   2.903  0.0546  0.2373  0.7057
 2021ntf    fn415194   3.471   0.620   2.752 -0.0405 -0.0377  0.4435
 2021ntf    fn415195   3.641   0.552   2.851  0.1451 -0.0584 -0.0594
 2022ntf    cn115196   0.906   5.131   0.858 -0.2214 -0.1610  0.2451
 2022ntf    sn215197   0.987   4.969   0.852  0.1253  0.0207  0.0377
 2022ntf    nn315198   1.135   5.020   0.838  0.2022 -0.1893  0.0861
 2022ntf    sn215199   1.222   5.036   0.708  0.1111  0.0260  0.0527
 2022ntf    cn115200   1.294   5.196   0.756  0.1997  0.0750 -0.2378
 2022ntf    fn415201   0.774   5.133   0.848 -0.2178 -0.0335  0.2148
 2022ntf    fn415202   0.936   5.195   0.971 -0.1101 -0.4571  0.3840
 2022ntf    fn415203   0.958   5.216   0.772 -0.2646 -0.7471 -0.3618
 2022ntf    on515204   0.966   4.915   0.984  0.3965  0.3444  0.2170
 2022ntf    on515205   0.932   4.899   0.738 -0.1692  0.1568  0.0971
 2022ntf    on515206   1.154   5.083   0.589  0.0379 -0.3406 -0.0492
 2022ntf    on515207   1.338   4.951   0.699 -0.0784 -0.2508  0.2199
 2022ntf    fn415208   1.363   5.189   0.868 -0.5711  0.4633  0.2743
 2022ntf    fn415209   1.377   5.242   0.665  0.0576  0.5130 -0.1484
 2022ntf    fn415210   1.202   5.290   0.771  0.0837 -0.1201  0.3222
 2023ntf    cn115211   1.144   2.072   6.270 -0.1461  0.0413  0.0355
 2023ntf    sn215212   1.153   2.047   6.449  0.2047 -0.2223 -0.0187
 2023ntf    nn315213   1.299   1.988   6.444  0.1860 -0.2879  0.1875
 2023ntf    sn215214   1.385   1.917   6.555  0.0844 -0.0305  0.4333
 2023ntf    cn115215   1.518   2.036   6.589  0.1972 -0.0919  0.2073
 2023ntf    fn415216   1.247   2.145   6.231 -0.0375  0.1110  0.4521
 2023ntf    fn415217   1.147   1.962   6.196 -0.1401  0.2260 -0.2398
 2023ntf    fn415218   1.033   2.137   6.239  0.1501  0.1788 -0.7642
 2023ntf    on515219   1.136   2.179   6.504 -0.2899 -0.2873 -0.0092
 2023ntf    on515220   1.051   1.949   6.478  0.3592 -0.4922 -0.3792
 2023ntf    on515221   1.450   1.796   6.512  0.3215  0.2804 -0.0875
 2023ntf    on515222   1.313   1.913   6.680 -0.2926  0.0629  0.2230
 2023ntf    fn415223   1.599   2.004   6.688  0.1781  0.2100  0.3210
 2023ntf    fn415224   1.591   2.066   6.483  0.0986 -0.6641 -0.0248
 2023ntf    fn415225   1.466   2.153   6.623  0.0126 -0.0506 -0.1982
 2024ntf    cn115226   3.786   3.569   2.981 -0.3322  0.0224  0.2728
 2024ntf    sn215227   3.681   3.714   2.954 -0.3232 -0.0349 -0.0785
 2024ntf    nn315228   3.748   3.760   2.819  0.4520 -0.0612  0.2936
 2024ntf    sn215229   3.852   3.877   2.807  0.0441  0.2248 -0.4712
 2024ntf    cn115230   3.747   4.020   2.766 -0.0963  0.2141 -0.1526
 2024ntf    fn415231   3.813   3.503   2.869  0.0682 -0.1807  0.4847
 2024ntf    fn415232   3.900   3.592   3.045 -0.0112 -0.1162 -0.2359
 2024ntf    fn415233   3.726   3.479   3.056 -0.3668 -0.1392  0.0541
 2024ntf    on515234   3.547   3.663   2.945 -0.4121  0.2264 -0.2678
 2024ntf    on515235   3.704   3.796   3.071 -0.4774 -0.1459  0.0282
 2024ntf    on515236   3.933   3.856   2.689 -0.1160  0.2547 -0.5870
 2024ntf    on515237   3.924   3.921   2.924 -0.2596  0.2994 -0.3114
 2024ntf    fn415238   3.676   4.007   2.655  0.0129 -0.7810 -0.1130
 2024ntf    fn415239   3.661   4.033   2.865  0.0177  0.4827 -0.0876
 2024ntf    fn415240   3.818   4.132   2.756 -0.0458  0.2052  0.0982
 2025ntf    cn115241   4.310   5.799   0.383  0.1693 -0.0572  0.1539
 2025ntf    sn215242   4.452   5.765   0.492  0.2885 -0.3308 -0.0861
 2025ntf    nn315243   4.562   5.861   0.434 -0.3654  0.3766 -0.1770
 2025ntf    sn215244   4.656   5.962   0.507 -0.1079  0.0564 -0.0606
 2025ntf    cn115245   4.572   6.121   0.476 -0.0477  0.1184  0.0872
 2025ntf    fn415246   4.291   5.930   0.383  0.0541 -0.0732 -0.2020
 2025ntf    fn415247   4.330   5.761   0.258 -0.0195 -0.2721  0.1893
 2025ntf    fn415248   4.195   5.746   0.421 -0.4332  0.4514 -0.9073
 2025ntf    on515249   4.388   5.797   0.618  0.4004  0.2106 -0.1653
 2025ntf    on515250   4.474   5.624   0.471 -0.2824 -0.4202 -0.1147
 2025ntf    on515251   4.778   5.972   0.431  0.2034 -0.0737  0.4201
 2025ntf    on515252   4.657   5.947   0.650 -0.4824 -0.0686 -0.0702
 2025ntf    fn415253   4.450   6.110   0.525 -0.0873  0.1384 -0.0072
 2025ntf    fn415254   4.633   6.230   0.519 -0.1971  0.1812  0.1412
 2025ntf    fn415255   4.552   6.148   0.348 -0.4561  0.6455  0.2593
 2026ntf    cn115256   3.800   3.961   3.759  0.2669 -0.1361 -0.0208
 2026ntf    sn215257   3.790   3.787   3.707  0.2737 -0.2296  0.2877
 2026ntf    nn315258   3.642   3.755   3.748  0.1912 -0.3918 -0.1217
 2026ntf    sn215259   3.513   3.784   3.663  0.1408  0.0661  0.1066
 2026ntf    cn115260   3.510   3.633   3.563 -0.1905  0.3304 -0.2870
 2026ntf    fn415261   3.919   4.015   3.741  0.0536  0.0576 -0.8966
 2026ntf    fn415262   3.708   4.038   3.703  0.2704  0.0926  0.2855
 2026ntf    fn415263   3.780   3.978   3.888  0.2558 -0.2412 -0.0082
 2026ntf    on515264   3.823   3.786   3.566 -0.6856  0.1037  0.0530
 2026ntf    on515265   3.884   3.722   3.794  1.0640 -0.1055 -0.4545
 2026ntf    on515266   3.521   3.896   3.573  0.3426 -0.0791 -0.0557
 2026ntf    on515267   3.397   3.778   3.749  0.0019  0.7201 -0.0292
 2026ntf    fn415268   3.605   3.637   3.471  0.3291 -0.6287  0.1901
 2026ntf    fn415269   3.544   3.528   3.636  0.0755  0.5008 -0.1607
 2026ntf    fn415270   3.397   3.605   3.501 -0.0375 -0.1027 -0.3785
 2027ntf    cn115271   5.333   6.170   5.026 -0.6932  0.1469  0.1721
 2027ntf    sn215272   5.362   6.348   5.004 -0.2647  0.0580  0.0149
 2027ntf    nn315273   5.457   6.351   4.879 -0.4535 -0.7409 -0.1483
 2027ntf    sn215274   5.448   6.425   4.741  0.0662 -0.1525  0.1317
 2027ntf    cn115275   5.526   6.306   4.629 -0.4559 -0.4013  0.0336
 2027ntf    fn415276   5.435   6.108   5.082  0.0665  0.5737 -0.7022
 2027ntf    fn415277   5.233   6.143   5.109 -0.6052 -0.3957  0.1048
 2027ntf    fn415278   5.298   6.117   4.910  0.2832 -0.1696  0.0204
 2027ntf    on515279   5.237   6.413   4.974 -0.3506  0.0066  0.2589
 2027ntf    on515280   5.427   6.396   5.124 -0.1736  0.5672 -0.2324
 2027ntf    on515281   5.528   6.545   4.732 -0.4619  0.1898 -0.0421
 2027ntf    on515282   5.317   6.432   4.682  0.0459 -0.6749  0.1136
 2027ntf    fn415283   5.641   6.259   4.675  0.0245  0.2306 -0.5003
 2027ntf    fn415284   5.446   6.200   4.621 -0.9029 -0.0573 -0.1117
 2027ntf    fn415285   5.539   6.350   4.505 -0.4079 -0.2003  0.1095
 2028ntf    cn115286   1.247   2.942   4.368  0.2716  0.3041 -0.5290
 2028ntf    sn215287   1.403   2.971   4.457 -0.0844 -0.2906  0.2988
 2028ntf    nn315288   1.491   2.957   4.327  0.1058 -0.3651  0.4346
 2028ntf    sn215289   1.626   3.026   4.287 -0.2234  0.0025 -0.0477
 2028ntf    cn115290   1.567   3.095   4.129 -0.3295  0.1671  0.0630
 2028ntf    fn415291   1.222   3.019   4.263 -0.4603  0.4234 -0.2752
 2028ntf    fn415292   1.234   2.819   4.322 -0.0286  0.0224  0.2900
 2028ntf    fn415293   1.151   2.955   4.458  0.0786  0.1393 -0.7108
 2028ntf    on515294   1.377   3.107   4.497  0.1414 -0.0396 -0.3845
 2028ntf    on515295   1.418   2.864   4.552 -0.0000 -0.5806 -0.0394
 2028ntf    on515296   1.720   2.932   4.232  0.2147  0.7208 -0.5493
 2028ntf    on515297   1.664   3.143   4.363  0.0477 -0.0930 -0.0384
 2028ntf    fn415298   1.669   3.144   4.060 -0.1335 -0.1253  0.1436
 2028ntf    fn415299   1.508   3.003   4.054  0.0346  0.3414 -0.4423
 2028ntf    fn415300   1.487   3.199   4.147 -0.3469  0.2630 -0.5576
 2029ntf    cn115301   2.599   0.791   5.806  0.0489  0.4266 -0.0374
 2029ntf    sn215302   2.527   0.626   5.829  0.1480  0.3247 -0.4512
 2029ntf    nn315303   2.531   0.619   5.986 -0.1700 -0.1928 -0.4622
 2029ntf    sn215304   2.571   0.500   6.081  0.0998  0.0629 -0.2536
 2029ntf    cn115305   2.446   0.506   6.213  0.2559  0.1811 -0.1103
 2029ntf    fn415306   2.731   0.793   5.818  0.0116  0.0213  0.4803
 2029ntf    fn415307   2.574   0.837   5.684 -0.0131 -0.4441 -0.3594
 2029ntf    fn415308   2.555   0.886   5.887 -0.2187  0.6738 -0.4681
 2029ntf    on515309   2.396   0.647   5.773 -0.0848  0.1667  0.0267
 2029ntf    on515310   2.620   0.539   5.761  0.1335  0.3181 -0.4623
 2029ntf    on515311   2.697   0.514   6.151 -0.4831 -0.3442  0.9018
 2029ntf    on515312   2.531   0.377   6.018 -0.2465 -0.0242  0.1307
 2029ntf    fn415313   2.325   0.536   6.168  0.2050  0.0889 -0.0342
 2029ntf    fn415314   2.431   0.392   6.278 -0.3036 -0.0840 -0.6959
 2029ntf    fn415315   2.481   0.594   6.305  0.3063  0.0027  0.0410
 2030ntf    cn115316   6.229   3.953   1.114 -0.4124 -0.1422 -0.1068
 2030ntf    sn215317   6.243   3.989   1.292  0.2088 -0.3550 -0.1095
 2030ntf    nn315318   6.313   3.862   1.353  0.0626 -0.2823  0.2126
 2030ntf    sn215319   6.467   3.835   1.344  0.0656 -0.2479  0.1703
 2030ntf    cn115320   6.462   3.674   1.260  0.5249 -0.1858  0.0235
 2030ntf    fn415321   6.164   3.840   1.093 -0.3539 -0.1497 -0.2450
 2030ntf    fn415322   6.157   4.048   1.058  0.0825  0.3333  0.0601
 2030ntf    fn415323   6.346   3.939   1.053 -0.1929 -0.4147  0.3700
 2030ntf    on515324   6.312   4.114   1.304 -0.2862 -0.1027  0.1447
 2030ntf    on515325   6.104   3.996   1.331  0.1657 -0.0354 -0.3225
 2030ntf    on515326   6.525   3.797   1.471  0.3467 -0.0489  0.1018
 2030ntf    on515327   6.548   3.909   1.252 -0.1090 -0.3644 -0.0772
 2030ntf    fn415328   6.413   3.678   1.137 -0.2159  0.2456  0.3318
 2030ntf    fn415329   6.585   3.626   1.244  0.4683 -0.3749  0.1532
 2030ntf    fn415330   6.389   3.582   1.321 -0.0866  0.2150 -0.0924
 2031ntf    cn115331   1.952   4.138   4.759  0.1947  0.3218  0.3645
 2031ntf    sn215332   1.935   4.310   4.704  0.1703  0.1638 -0.1336
 2031ntf    nn315333   1.822   4.304   4.596 -0.0931  0.6068  0.1120
 2031ntf    sn215334   1.667   4.308   4.622 -0.1083 -0.0225  0.1395
 2031ntf    cn115335   1.637   4.487   4.611  0.2489  0.0405  0.1978
 2031ntf    fn415336   1.850   4.084   4.823  0.0036  0.0552 -0.1578
 2031ntf    fn415337   1.978   4.068   4.650  0.3832 -0.1314  0.6976
 2031ntf    fn415338   2.060   4.116   4.833  0.4029  0.4103  0.0897
 2031ntf    on515339   1.899   4.378   4.827  0.4006  0.6169 -0.3118
 2031ntf    on515340   2.056   4.335   4.630 -0.1359  0.2137 -0.6154
 2031ntf    on515341   1.623   4.268   4.753  0.0904  0.4187  0.3416
 2031ntf    on515342   1.587   4.254   4.515  0.0371  0.0915 -0.0264
 2031ntf    fn415343   1.676   4.546   4.499 -0.1784 -0.2650 -0.1175
 2031ntf    fn415344   1.507   4.509   4.623  0.2537  0.0164  0.2997
 2031ntf    fn415345   1.703   4.552   4.705  0.0246  0.9131 -0.2439
 2032ntf    cn115346   2.223   3.384   6.374  0.1701  0.0426  0.1625
 2032ntf    sn215347   2.192   3.549   6.445 -0.2096  0.1443 -0.2372
 2032ntf    nn315348   2.231   3.641   6.324 -0.1500  0.4761  0.0346
 2032ntf    sn215349   2.337   3.756   6.307  0.4030 -0.0494 -0.1170
 2032ntf    cn115350   2.361   3.760   6.127  0.3411  0.5383 -0.1129
 2032ntf    fn415351   2.157   3.357   6.263  0.4788  0.6202 -0.1696
 2032ntf    fn415352   2.351   3.372   6.340 -0.0049  0.3335 -0.6315
 2032ntf    fn415353   2.190   3.287   6.456 -0.2393 -0.2783 -0.3780
 2032ntf    on515354   2.051   3.550   6.477 -0.2823 -0.1622 -0.5368
 2032ntf    on515355   2.280   3.549   6.559 -0.2387 -0.3185 -0.2102
 2032ntf    on515356   2.470   3.722   6.349  0.3313 -0.1091  0.0663
 2032ntf    on515357   2.287   3.889   6.334  0.1545 -0.2209  0.2845
 2032ntf    fn415358   2.246   3.755   6.061  0.5959 -0.2850 -0.4989
 2032ntf    fn415359   2.435   3.859   6.080  0.4587  0.3268 -0.3711
 2032ntf    fn415360   2.422   3.646   6.101  0.3333  0.3908  0.4890
 2033ntf    cn115361   5.493   4.073   1.864  0.2039 -0.0629 -0.1240
 2033ntf    sn215362   5.542   4.005   2.025  0.1250 -0.1508 -0.1369
 2033ntf    nn315363   5.408   3.973   2.099  0.0493  0.4149 -0.0274
 2033ntf    sn215364   5.311   4.055   2.192 -0.1097  0.0492  0.1275
 2033ntf    cn115365   5.343   3.989   2.359  0.5019  0.2811  0.1039
 2033ntf    fn415366   5.452   4.198   1.880  0.0447 -0.2056  0.6236
 2033ntf    fn415367   5.596   4.080   1.780  0.4722 -0.8952  0.1274
 2033ntf    fn415368   5.399   4.001   1.805  0.2278 -0.2890  0.1163
 2033ntf    on515369   5.602   3.878   1.992  0.5520 -0.0080  0.0747
 2033ntf    on515370   5.636   4.102   2.076  0.2219 -0.2827 -0.0618
 2033ntf    on515371   5.172   4.031   2.159  0.0404 -0.4035 -0.1933
 2033ntf    on515372   5.356   4.190   2.210  0.3421 -0.0624 -0.1464
 2033ntf    fn415373   5.238   4.009   2.438  0.2835  0.2304 -0.1708
 2033ntf    fn415374   5.373   3.860   2.353 -1.3593 -0.1912  0.0703
 2033ntf    fn415375   5.441   4.048   2.424  0.8800 -0.0863 -0.1322
 2034ntf    cn115376   3.262   2.367   0.867 -0.0431 -0.1056 -0.4852
 2034ntf    sn215377   3.443   2.360   0.876 -0.0385  0.2633 -0.2752
 2034ntf    nn315378   3.464   2.514   0.900  0.0362  0.1253  0.5846
 2034ntf    sn215379   3.498   2.634   0.804 -0.0382 -0.1043  0.2698
 2034ntf    cn115380   3.679   2.637   0.818 -0.0076 -0.2424 -0.0885
 2034ntf    fn415381   3.217   2.443   0.769 -0.0680  0.1385 -0.2855
 2034ntf    fn415382   3.208   2.247   0.849 -0.7532  0.1486 -0.1194
 2034ntf    fn415383   3.213   2.417   0.980  0.1431  0.2160 -0.5449
 2034ntf    on515384   3.467   2.283   0.995 -0.0571  0.0195 -0.4296
 2034ntf    on515385   3.477   2.299   0.750  0.0400 -0.2291 -0.0157
 2034ntf    on515386   3.455   2.758   0.862 -0.2531 -0.3330  0.6048
 2034ntf    on515387   3.484   2.613   0.662 -0.0075  0.1696  0.2265
 2034ntf    fn415388   3.741   2.522   0.797  0.5699  0.0258  0.1146
 2034ntf    fn415389   3.734   2.720   0.731  0.6275 -0.6221 -0.0548
 2034ntf    fn415390   3.717   2.682   0.936  0.2156 -0.0819 -0.2201
 2035ntf    cn115391   2.995   5.557   0.967 -0.2808 -0.1015  0.3251
 2035ntf    sn215392   2.871   5.445   1.039 -0.2003 -0.2372  0.2539
 2035ntf    nn315393   2.909   5.303   0.983 -0.0079 -0.2327  0.3714
 2035ntf    sn215394   3.018   5.204   1.036  0.1462 -0.2126  0.0918
 2035ntf    cn115395   2.914   5.062   1.083 -0.0984 -0.2470 -0.5337
 2035ntf    fn415396   3.024   5.515   0.845  0.0703 -0.1162  0.4119
 2035ntf    fn415397   2.958   5.683   0.957 -0.4584 -0.1961 -0.2244
 2035ntf    fn415398   3.111   5.546   1.031  0.0972  1.0180 -0.1443
 2035ntf    on515399   2.895   5.467   1.180  0.6761  0.2101  0.0449
 2035ntf    on515400   2.742   5.494   1.000 -0.1294 -0.1785  0.0941
 2035ntf    on515401   3.086   5.241   1.158  0.0749 -0.4044  0.1903
 2035ntf    on515402   3.106   5.146   0.937  0.1197  0.3982 -0.2939
 2035ntf    fn415403   2.816   5.108   1.159  0.1727 -0.2630 -0.1712
 2035ntf    fn415404   2.864   4.995   0.981 -0.2499 -0.4692 -0.3150
 2035ntf    fn415405   2.975   4.966   1.151 -0.2060 -0.1812 -0.3444
 2036ntf    cn115406   5.700   4.778   1.582  0.0258 -0.1731 -0.0950
 2036ntf    sn215407   5.535   4.748   1.653  0.0119 -0.3151 -0.1848
 2036ntf    nn315408   5.470   4.660   1.541 -0.2241 -0.2576 -0.0936
 2036ntf    sn215409   5.480   4.506   1.516 -0.3976 -0.2656 -0.1166
 2036ntf    cn115410   5.384   4.442   1.656  0.0392 -0.4166  0.1175
 2036ntf    fn415411   5.769   4.858   1.661 -0.0031  0.3726 -0.6154
 2036ntf    fn415412   5.770   4.667   1.568  0.5155  0.1434 -0.1784
 2036ntf    fn415413   5.699   4.842   1.466 -0.1893 -0.1785 -0.0971
 2036ntf    on515414   5.554   4.686   1.782  0.3365  0.5588  0.1999
 2036ntf    on515415   5.477   4.881   1.655 -0.8648 -0.6965  0.4561
 2036ntf    on515416   5.615   4.454   1.518 -0.5262 -0.5867  0.4417
 2036ntf    on515417   5.404   4.467   1.400 -0.1177 -0.5069 -0.2213
 2036ntf    fn415418   5.382   4.309   1.655  0.3025 -0.4182 -0.1882
 2036ntf    fn415419   5.443   4.467   1.772 -0.3461  0.0574  0.2121
 2036ntf    fn415420   5.261   4.489   1.664  0.1981  0.0531 -0.1568
 2037ntf    cn115421   2.935   5.243   1.960 -0.3719  0.1110  0.2344
 2037ntf    sn215422   2.782   5.315   1.893 -0.1876 -0.0927 -0.4139
 2037ntf    nn315423   2.848   5.439   1.821  0.4726  0.1769  0.6178
 2037ntf    sn215424   2.805   5.590   1.820  0.3588  0.1466 -0.5522
 2037ntf    cn115425   2.892   5.653   1.966 -0.3839 -0.3823  0.1319
 2037ntf    fn415426   3.022   5.216   1.864 -0.4185 -0.3217  0.3100
 2037ntf    fn415427   2.992   5.336   2.035  0.1442 -0.0525  0.0500
 2037ntf    fn415428   2.912   5.130   2.024  0.4196 -0.2685 -0.1390
 2037ntf    on515429   2.743   5.209   1.805 -0.0693 -0.4013 -0.0977
 2037ntf    on515430   2.705   5.334   2.013 -0.0229 -0.4716 -0.2479
 2037ntf    on515431   2.667   5.616   1.853  0.5890  0.3990  0.2459
 2037ntf    on515432   2.867   5.662   1.712  0.5718  0.5677 -0.1534
 2037ntf    fn415433   2.856   5.777   1.994 -0.1611 -0.2828 -0.0179
 2037ntf    fn415434   2.883   5.573   2.071 -0.5471 -0.3743  0.1233
 2037ntf    fn415435   3.023   5.655   1.943 -0.3671  0.1511  0.2509
 2038ntf    cn115436   0.155   3.924   1.951  0.2846 -0.1868  0.3575
 2038ntf    sn215437   0.091   3.762   2.004 -0.2815 -0.0803 -0.0005
 2038ntf    nn315438  -0.045   3.806   2.071 -0.1505  0.0964  0.1522
 2038ntf    sn215439  -0.093   3.761   2.213  0.0412  0.1101  0.2219
 2038ntf    cn115440  -0.272   3.769   2.180  0.1244  0.0924 -0.2280
 2038ntf    fn415441   0.174   4.011   2.049  0.1817 -0.1101  0.3091
 2038ntf    fn415442   0.267   3.912   1.882  0.2427  0.5908  0.1468
 2038ntf    fn415443   0.070   3.979   1.866  0.4201  0.4990  0.6574
 2038ntf    on515444   0.076   3.694   1.878  0.2385  0.3142 -0.2791
 2038ntf    on515445   0.198   3.718   2.090  0.2463 -0.0758 -0.6482
 2038ntf    on515446  -0.070   3.858   2.318  0.3941  0.0322  0.2178
 2038ntf    on515447  -0.075   3.622   2.248  0.4088  0.2378  0.5403
 2038ntf    fn415448  -0.355   3.747   2.280  0.4370  0.2391  0.0671
 2038ntf    fn415449  -0.304   3.889   2.135  0.1996  0.2822  0.2235
 2038ntf    fn415450  -0.315   3.690   2.083 -0.2740 -0.0726  0.0793
 2039ntf    cn115451   1.693   3.141   6.132  0.0996  0.2637 -0.2270
 2039ntf    sn215452   1.665   3.234   5.979  0.2722  0.1267 -0.3418
 2039ntf    nn315453   1.509   3.217   5.979  0.2671  0.1629  0.0024
 2039ntf    sn215454   1.404   3.198   5.864  0.1214 -0.1533  0.1878
 2039ntf    cn115455   1.322   3.360   5.866 -0.4428 -0.4243 -0.3131
 2039ntf    fn415456   1.618   3.031   6.132  0.4366  0.0337 -0.0115
 2039ntf    fn415457   1.819   3.102   6.144 -0.2293 -0.8235 -0.1255
 2039ntf    fn415458   1.655   3.209   6.239  0.1747  0.1520 -0.1282
 2039ntf    on515459   1.710   3.368   6.011  0.0182  0.2828 -0.6317
 2039ntf    on515460   1.739   3.161   5.879  0.0960  0.1507 -0.4909
 2039ntf    on515461   1.290   3.118   5.903 -0.1286  0.4339  0.6841
 2039ntf    on515462   1.452   3.182   5.729 -0.3560 -0.4248  0.0457
 2039ntf    fn415463   1.283   3.395   5.988  0.2015  0.1858 -0.2730
 2039ntf    fn415464   1.397   3.463   5.829  0.0358 -0.6344  0.0521
 2039ntf    fn415465   1.213   3.355   5.792 -0.7803  0.2472  0.1193
 2040ntf    cn115466   2.819   3.585   2.554 -0.2219  0.1368  0.2038
 2040ntf    sn215467   2.984   3.521   2.515 -0.4164 -0.3695  0.1930
 2040ntf    nn315468   3.018   3.471   2.660 -0.7374 -0.1237  0.3547
 2040ntf    sn215469   3.092   3.546   2.776  0.6319 -0.4640 -0.2776
 2040ntf    cn115470   3.247   3.450   2.772  0.4123 -0.8368  0.0161
 2040ntf    fn415471   2.773   3.640   2.443 -0.6680  0.4394  0.5309
 2040ntf    fn415472   2.726   3.497   2.589 -0.1997 -0.0295 -0.1536
 2040ntf    fn415473   2.814   3.679   2.647 -0.6948  0.1599  0.1585
 2040ntf    on515474   2.961   3.414   2.422  0.5919 -0.7229  0.3330
 2040ntf    on515475   3.046   3.639   2.459 -0.4592 -0.2346  0.4276
 2040ntf    on515476   3.032   3.517   2.904  0.3879 -0.8692 -0.4788
 2040ntf    on515477   3.127   3.683   2.748 -0.4707 -0.1205 -0.0410
 2040ntf    fn415478   3.327   3.499   2.865  0.1727 -0.3216 -0.0421
 2040ntf    fn415479   3.222   3.325   2.806 -0.1812 -0.8457 -0.4355
 2040ntf    fn415480   3.309   3.454   2.656  0.5655 -0.0260  0.1167
 2041ntf    cn115481   1.403   4.200   4.066  0.1253  0.2757  0.0060
 2041ntf    sn215482   1.442   4.327   3.942  0.2280  0.1018 -0.1391
 2041ntf    nn315483   1.306   4.353   3.869  0.3357 -0.0088 -0.3814
 2041ntf    sn215484   1.214   4.476   3.902  0.2221 -0.1514 -0.1697
 2041ntf    cn115485   1.273   4.610   3.795  0.2014  0.1314  0.1695
 2041ntf    fn415486   1.512   4.163   4.132  0.0234 -0.5953 -0.3067
 2041ntf    fn415487   1.321   4.244   4.160 -0.1803  0.1016 -0.1802
 2041ntf    fn415488   1.342   4.092   4.020  0.1666 -0.0360  0.6642
 2041ntf    on515489   1.496   4.437   4.017  0.2290  0.1281 -0.1788
 2041ntf    on515490   1.536   4.260   3.855 -0.2607 -0.2974 -0.3659
 2041ntf    on515491   1.220   4.537   4.033 -0.2160 -0.2457 -0.1031
 2041ntf    on515492   1.081   4.450   3.851 -0.1154  0.4315  0.4004
 2041ntf    fn415493   1.325   4.560   3.684  0.7663  0.2734  0.3691
 2041ntf    fn415494   1.175   4.689   3.753  0.5335  0.4394 -0.0246
 2041ntf    fn415495   1.370   4.682   3.848  0.5989 -0.4849  0.2916
 2042ntf    cn115496   3.784   0.020   3.162 -0.0572  0.1472  0.0933
 2042ntf    sn215497   3.952   0.089   3.164 -0.0403  0.1089  0.0090
 2042ntf    nn315498   4.020  -0.002   3.273  0.0231 -0.2150 -0.2947
 2042ntf    sn215499   4.167  -0.055   3.271  0.1893  0.2202  0.1487
 2042ntf    cn115500   4.173  -0.105   3.446 -0.0674 -0.1467  0.0516
 2042ntf    fn415501   3.783  -0.103   3.114 -0.2014  0.0369  0.3812
 2042ntf    fn415502   3.728   0.019   3.282  0.3940  0.1125  0.3076
 2042ntf    fn415503   3.703   0.095   3.088 -0.4631 -0.5115 -0.1365
 2042ntf    on515504   4.002   0.061   3.031 -0.4251  0.3902 -0.1964
 2042ntf    on515505   3.940   0.227   3.203  0.0468  0.2882 -0.5799
 2042ntf    on515506   4.263   0.051   3.254 -0.1923  0.5465  0.0177
 2042ntf    on515507   4.187  -0.182   3.207 -0.7228  0.1733 -0.0467
 2042ntf    fn415508   4.266  -0.044   3.517 -0.0026 -0.3995  0.1858
 2042ntf    fn415509   4.058  -0.066   3.500  0.0315  0.3044 -0.0639
 2042ntf    fn415510   4.187  -0.234   3.472  0.2118 -0.0891  0.1833
 2043ntf    cn115511   0.846   5.036   6.534 -0.2661 -0.0750  0.1938
 2043ntf    sn215512   0.909   5.127   6.390  0.1738 -0.2950  0.2471
 2043ntf    nn315513   0.802   5.241   6.377  0.2741 -0.1965  0.2761
 2043ntf    sn215514   0.808   5.378   6.453 -0.5073  0.1057 -0.1919
 2043ntf    cn115515   0.896   5.481   6.331  0.0464  0.0192  0.1339
 2043ntf    fn415516   0.922   4.932   6.561 -0.0609 -0.1299 -0.5556
 2043ntf    fn415517   0.846   5.111   6.643 -0.1883  0.4845 -0.1843
 2043ntf    fn415518   0.728   4.982   6.509 -0.5704  0.4633  0.4421
 2043ntf    on515519   1.043   5.168   6.425  0.2410 -0.4437  0.1634
 2043ntf    on515520   0.891   5.040   6.276  0.1060  0.0156  0.0163
 2043ntf    on515521   0.886   5.390   6.574  0.2324 -0.0856 -0.6412
 2043ntf    on515522   0.673   5.427   6.462 -0.2497  0.8532 -0.3270
 2043ntf    fn415523   0.825   5.495   6.220  0.3404 -0.4336 -0.1141
 2043ntf    fn415524   0.915   5.602   6.381 -0.4441  0.2929 -0.3383
 2043ntf    fn415525   1.015   5.429   6.304 -0.1095 -0.3382  0.1368
 2044ntf    cn115526   0.202   6.532   5.050 -0.0872  0.6158 -0.1674
 2044ntf    sn215527   0.283   6.469   5.200 -0.3941  0.1503 -0.1971
 2044ntf    nn315528   0.401   6.573   5.204 -0.7153  0.5161 -0.2496
 2044ntf    sn215529   0.424   6.671   5.324  0.0696 -0.2128  0.2052
 2044ntf    cn115530   0.605   6.684   5.328  0.0764 -0.3417  0.3397
 2044ntf    fn415531   0.146   6.651   5.071 -0.0268  0.6120  0.0179
 2044ntf    fn415532   0.275   6.542   4.940 -0.1002 -0.2571 -0.2648
 2044ntf    fn415533   0.098   6.457   5.019 -0.0304  0.6432 -0.4313
 2044ntf    on515534   0.180   6.481   5.299 -0.5372 -0.3482 -0.2812
 2044ntf    on515535   0.334   6.335   5.181  0.0889  0.2632  0.2944
 2044ntf    on515536   0.401   6.613   5.454  0.2484  0.2780  0.4578
 2044ntf    on515537   0.387   6.808   5.295  0.3664 -0.1013  0.3460
 2044ntf    fn415538   0.660   6.566   5.307  0.3613 -0.0261 -0.7883
 2044ntf    fn415539   0.651   6.760   5.230  0.2733  0.2174  0.8613
 2044ntf    fn415540   0.653   6.738   5.439  0.1624 -0.1927  0.2314
 2045ntf    cn115541   3.863   3.170   4.928  0.0812  0.0675  0.0984
 2045ntf    sn215542   3.848   3.295   5.060 -0.2166  0.0414  0.0906
 2045ntf    nn315543   3.941   3.405   4.998  0.1040 -0.2123  0.1124
 2045ntf    sn215544   4.058   3.482   5.069 -0.1619  0.2845  0.0207
 2045ntf    cn115545   4.199   3.383   5.010 -0.3780 -0.1505  0.2301
 2045ntf    fn415546   3.844   3.215   4.804 -0.0492  0.1122  0.1353
 2045ntf    fn415547   3.981   3.111   4.939 -0.0624 -0.1212  0.6504
 2045ntf    fn415548   3.776   3.073   4.949 -0.0446  0.1939  0.1681
 2045ntf    on515549   3.707   3.322   5.048 -0.2395 -0.1733 -0.1549
 2045ntf    on515550   3.895   3.224   5.176  0.1903  0.0957 -0.0378
 2045ntf    on515551   4.071   3.485   5.212  0.1457 -0.1486  0.0058
 2045ntf    on515552   4.089   3.599   4.990 -0.4662  0.0113 -0.5108
 2045ntf    fn415553   4.278   3.442   4.921 -0.2499  0.0774  0.4942
 2045ntf    fn415554   4.281   3.336   5.103  0.0467 -0.2799 -0.2066
 2045ntf    fn415555   4.157   3.272   4.951 -0.2625 -0.1995  0.2401
 2046ntf    cn115556   6.250   3.347   4.402 -0.2862  0.3926  0.1829
 2046ntf    sn215557   6.106   3.252   4.345  0.1181  0.2024 -0.5369
 2046ntf    nn315558   6.000   3.364   4.370 -0.1099 -0.1521  0.1054
 2046ntf    sn215559   5.938   3.472   4.274 -0.0006  0.0544  0.2662
 2046ntf    cn115560   5.944   3.620   4.380 -0.0837  0.0767  0.2413
 2046ntf    fn415561   6.240   3.398   4.523 -0.2574 -0.1544  0.4178
 2046ntf    fn415562   6.357   3.269   4.406 -0.0941  0.6433 -0.0047
 2046ntf    fn415563   6.286   3.449   4.325  0.5295  0.3575  0.5106
 2046ntf    on515564   6.134   3.214   4.209 -0.7484 -0.5576 -0.5070
 2046ntf    on515565   6.091   3.145   4.441 -0.2246  0.3441 -0.4310
 2046ntf    on515566   5.796   3.460   4.251  0.0255 -0.2001  0.2427
 2046ntf    on515567   6.023   3.512   4.164 -0.2574  0.3043  0.1553
 2046ntf    fn415568   5.941   3.734   4.312  0.0668  0.3124  0.6250
 2046ntf    fn415569   5.840   3.624   4.462 -0.0853 -0.5516  0.2694
 2046ntf    fn415570   6.059   3.625   4.445  0.0486  0.3461 -0.0093
 2047ntf    cn115571   5.717   2.464   0.354 -0.0750  0.1945  0.0279
 2047ntf    sn215572   5.738   2.604   0.240 -0.1647  0.2839  0.1212
 2047ntf    nn315573   5.602   2.615   0.162 -0.3880 -1.0059  0.3055
 2047ntf    sn215574   5.563   2.573   0.016  0.1234 -0.0223 -0.1174
 2047ntf    cn115575   5.585   2.730  -0.074  0.3238 -0.1432 -0.2795
 2047ntf    fn415576   5.822   2.444   0.432 -0.1896 -0.7815 -0.0520
 2047ntf    fn415577   5.614   2.482   0.436 -0.2921 -0.2338 -0.1441
 2047ntf    fn415578   5.692   2.355   0.283 -0.0497  0.2082 -0.0017
 2047ntf    on515579   5.757   2.715   0.330  0.4695  0.0798  0.2423
 2047ntf    on515580   5.851   2.567   0.160 -0.2753 -0.4234  0.2850
 2047ntf    on515581   5.420   2.557   0.005 -0.0289  1.1198 -0.0003
 2047ntf    on515582   5.650   2.473  -0.042 -0.3488 -0.7886  0.4848
 2047ntf    fn415583   5.665   2.815  -0.011 -0.4678  0.3036  0.1358
 2047ntf    fn415584   5.645   2.705  -0.189  0.7881 -0.3238 -0.0027
 2047ntf    fn415585   5.471   2.787  -0.108  0.2468  0.0023  0.2161
 2048ntf    cn115586   2.755   6.480   0.630 -0.1785  0.5452  0.0728
 2048ntf    sn215587   2.884   6.449   0.755  0.0311  0.2701 -0.2107
 2048ntf    nn315588   2.992   6.556   0.717  0.4590 -0.1098 -0.0802
 2048ntf    sn215589   3.012   6.692   0.793  0.1737  0.0432 -0.2757
 2048ntf    cn115590   3.087   6.635   0.948 -0.3450  0.2770  0.0639
 2048ntf    fn415591   2.691   6.593   0.652 -0.3353  0.4593  0.0545
 2048ntf    fn415592   2.806   6.481   0.508 -0.4853  0.3659 -0.0576
 2048ntf    fn415593   2.666   6.382   0.629 -0.1583  0.5241  0.2640
 2048ntf    on515594   2.813   6.478   0.877  0.3184 -0.5435  0.1578
 2048ntf    on515595   2.930   6.314   0.733  0.5648  0.4915 -0.4627
 2048ntf    on515596   2.891   6.761   0.830  0.0119 -0.4481  0.1251
 2048ntf    on515597   3.122   6.767   0.737 -0.2118  0.5883 -0.3132
 2048ntf    fn415598   3.000   6.567   1.021 -0.3671 -0.0745 -0.2855
 2048ntf    fn415599   3.194   6.558   0.935  0.0978  0.7658  0.7082
 2048ntf    fn415600   3.128   6.738   1.020  0.5528 -0.0918  0.0976
 2049ntf    cn115601   4.480   4.754   2.357  0.0195  0.1314  0.3834
 2049ntf    sn215602   4.319   4.810   2.294  0.1523 -0.1155 -0.1850
 2049ntf    nn315603   4.276   4.898   2.417  0.5432 -0.2032  0.0169
 2049ntf    sn215604   4.291   5.054   2.430  0.0083 -0.1637  0.1841
 2049ntf    cn115605   4.156   5.120   2.328  0.2201  0.0439  0.0393
 2049ntf    fn415606   4.561   4.856   2.383 -0.2560  0.5409 -0.3389
 2049ntf    fn415607   4.463   4.687   2.470 -0.3934  0.0124  0.2514
 2049ntf    fn415608   4.551   4.667   2.287 -0.3914 -0.0218  0.1542
 2049ntf    on515609   4.340   4.896   2.181  0.0815  0.0200 -0.0958
 2049ntf    on515610   4.248   4.687   2.273  0.0135 -0.0448 -0.1350
 2049ntf    on515611   4.412   5.113   2.379  0.2496 -0.6284  0.2106
 2049ntf    on515612   4.257   5.093   2.565 -0.1897 -0.5320  0.2426
 2049ntf    fn415613   4.037   5.101   2.384  0.0742  0.1415 -0.2325
 2049ntf    fn415614   4.170   5.246   2.288 -0.4283  0.2169  0.3308
 2049ntf    fn415615   4.140   5.055   2.214  0.4898 -0.6259  0.3837
 2050ntf    cn115616   3.136   3.367   3.730  0.1979  0.0403  0.0451
 2050ntf    sn215617   2.980   3.347   3.821  0.0608 -0.3377 -0.2709
 2050ntf    nn315618   3.044   3.362   3.963 -0.1604  0.3778 -0.2425
 2050ntf    sn215619   2.987   3.401   4.104  0.1475 -0.0865  0.0145
 2050ntf    cn115620   3.012   3.581   4.095 -0.4292 -0.0264 -0.4545
 2050ntf    fn415621   3.116   3.379   3.600  0.0589  0.2725  0.0873
 2050ntf    fn415622   3.202   3.475   3.769  0.2272  0.0454 -0.0178
 2050ntf    fn415623   3.220   3.267   3.748  0.0037 -0.0547  0.4402
 2050ntf    on515624   2.890   3.452   3.781  0.5322  0.4805  0.7709
 2050ntf    on515625   2.953   3.214   3.773 -0.1074 -0.2365 -0.4592
 2050ntf    on515626   3.066   3.355   4.215 -0.3298  0.4320  0.5777
 2050ntf    on515627   2.845   3.378   4.108  0.0597  0.3689 -0.3723
 2050ntf    fn415628   2.925   3.644   4.018 -0.4341 -0.0512 -0.4694
 2050ntf    fn415629   2.996   3.633   4.215 -0.4580 -0.4994 -0.2498
 2050ntf    fn415630   3.133   3.612   4.052 -0.5941  0.2484 -0.7251
 2051ntf    cn115631   4.359   0.615   2.448 -0.1667  0.8215  0.4191
 2051ntf    sn215632   4.233   0.553   2.563 -0.0360  0.1058  0.1788
 2051ntf    nn315633   4.192   0.420   2.490  0.1263  0.1573 -0.0066
 2051ntf    sn215634   4.047   0.378   2.448  0.0964  0.3209 -0.0649
 2051ntf    cn115635   4.019   0.473   2.296  0.2974  0.2486 -0.1464
 2051ntf    fn415636   4.308   0.653   2.332  0.2471  0.1250  0.0034
 2051ntf    fn415637   4.426   0.715   2.502  0.5319  0.8328 -0.4435
 2051ntf    fn415638   4.452   0.526   2.417 -0.4507  0.5776  0.2585
 2051ntf    on515639   4.296   0.525   2.689  0.2776  0.1054  0.0220
 2051ntf    on515640   4.135   0.659   2.561 -0.3222 -0.1563  0.0624
 2051ntf    on515641   3.951   0.436   2.539 -0.1597  0.4335 -0.4038
 2051ntf    on515642   4.034   0.238   2.416  0.7948  0.2570 -0.0674
 2051ntf    fn415643   4.060   0.421   2.181 -0.0541  0.1130 -0.2085
 2051ntf    fn415644   3.892   0.493   2.265  0.2858  0.5081  0.0642
 2051ntf    fn415645   4.075   0.594   2.299  0.6890  0.0657  0.0110
 2052ntf    cn115646   3.443   0.546   1.089 -0.1920  0.0086 -0.0628
 2052ntf    sn215647   3.477   0.375   1.037 -0.0117 -0.0294  0.1813
 2052ntf    nn315648   3.528   0.408   0.892 -0.2501  0.1891  0.1467
 2052ntf    sn215649   3.675   0.404   0.836 -0.1731  0.0181  0.3586
 2052ntf    cn115650   3.757   0.526   0.942 -0.1393  0.1328  0.2008
 2052ntf    fn415651   3.541   0.632   1.068 -0.1570 -0.0857 -0.2901
 2052ntf    fn415652   3.336   0.601   1.034  0.0951  0.4897 -0.1504
 2052ntf    fn415653   3.420   0.564   1.218 -0.2288  0.2287 -0.0983
 2052ntf    on515654   3.581   0.347   1.134  0.3117  0.9583  0.1380
 2052ntf    on515655   3.347   0.313   1.041  0.2380 -0.5411  0.3753
 2052ntf    on515656   3.688   0.455   0.702  0.4192  0.1851  0.4791
 2052ntf    on515657   3.740   0.280   0.871 -0.1035 -0.0674 -0.0603
 2052ntf    fn415658   3.747   0.503   1.072 -0.1286  0.0713  0.1906
 2052ntf    fn415659   3.887   0.529   0.918 -0.1717 -0.1652 -0.0118
 2052ntf    fn415660   3.715   0.650   0.922 -0.4971 -0.0718 -0.3505
 2053ntf    cn115661   5.216   2.956   4.859  0.0399  0.0867  0.4509
 2053ntf    sn215662   5.334   2.820   4.837  0.0942  0.1832  0.1411
 2053ntf    nn315663   5.300   2.792   4.687 -0.1881  0.0050  0.2372
 2053ntf    sn215664   5.395   2.723   4.583 -0.2804  0.2076  0.0158
 2053ntf    cn115665   5.481   2.857   4.495  0.3121 -0.0495  0.1956
 2053ntf    fn415666   5.246   3.061   4.784  0.1808 -0.5839 -0.4323
 2053ntf    fn415667   5.096   2.921   4.816  0.1320  0.2580  0.0533
 2053ntf    fn415668   5.208   2.995   4.986  0.2867 -0.1833  0.5502
 2053ntf    on515669   5.464   2.876   4.864 -0.0991  0.4670  0.5073
 2053ntf    on515670   5.295   2.717   4.930  0.2494 -0.0688 -0.0723
 2053ntf    on515671   5.321   2.652   4.481 -0.2939 -0.2278  0.3239
 2053ntf    on515672   5.501   2.647   4.645 -0.1737  0.4648  0.1471
 2053ntf    fn415673   5.397   2.910   4.407  0.5426 -0.0919 -0.0485
 2053ntf    fn415674   5.514   2.955   4.576  0.2945  0.5043 -0.4567
 2053ntf    fn415675   5.592   2.820   4.432 -0.2491 -0.2763 -0.6908
 2054ntf    cn115676   4.793   4.561   1.559 -0.1220  0.3622  0.3801
 2054ntf    sn215677   4.738   4.425   1.666  0.0043 -0.0087 -0.0182
 2054ntf    nn315678   4.583   4.450   1.680 -0.0292 -0.2008 -0.0483
 2054ntf    sn215679   4.512   4.517   1.803  0.0489  0.3700 -0.3107
 2054ntf    cn115680   4.554   4.395   1.932 -0.0576  0.4372 -0.2133
 2054ntf    fn415681   4.749   4.555   1.434 -0.1646 -1.3256  0.4470
 2054ntf    fn415682   4.755   4.678   1.607 -0.1463  0.4763  0.0856
 2054ntf    fn415683   4.924   4.551   1.541 -0.1865  0.5016 -0.2136
 2054ntf    on515684   4.778   4.304   1.599 -0.1651 -0.0099 -0.1182
 2054ntf    on515685   4.815   4.452   1.785 -0.3691  0.4751  0.1197
 2054ntf    on515686   4.370   4.494   1.800  0.0745  0.1657 -0.0051
 2054ntf    on515687   4.560   4.643   1.853  0.2405  0.1602  0.0458
 2054ntf    fn415688   4.650   4.429   2.016  0.3129 -0.6115 -0.1968
 2054ntf    fn415689   4.456   4.375   2.018 -0.0815  0.5209 -0.2204
 2054ntf    fn415690   4.578   4.273   1.887  0.2495  0.2769  0.3787
 2055ntf    cn115691   2.565   6.497   6.332  0.1706 -0.1836 -0.3357
 2055ntf    sn215692   2.431   6.620   6.321  0.1336 -0.1940 -0.0219
 2055ntf    nn315693   2.412   6.653   6.473 -0.1559  0.0200 -0.1029
 2055ntf    sn215694   2.276   6.683   6.545 -0.0764  0.3701 -0.0964
 2055ntf    cn115695   2.210   6.520   6.594 -0.1452  0.4315  0.0157
 2055ntf    fn415696   2.655   6.536   6.421 -0.5450 -0.5697  0.5774
 2055ntf    fn415697   2.521   6.380   6.377  0.6859 -0.2261  0.0575
 2055ntf    fn415698   2.633   6.475   6.221 -0.3185 -0.4867 -0.5772
 2055ntf    on515699   2.489   6.727   6.243  0.1043 -0.0857  0.1051
 2055ntf    on515700   2.325   6.542   6.262 -0.3588  0.2001  0.3401
 2055ntf    on515701   2.176   6.744   6.461 -0.2513  0.3484  0.0938
 2055ntf    on515702   2.300   6.745   6.673  0.3677 -0.1589  0.0813
 2055ntf    fn415703   2.103   6.529   6.672 -0.4172  0.3819 -0.3468
 2055ntf    fn415704   2.169   6.452   6.488  0.0851  0.3286 -0.0062
 2055ntf    fn415705   2.301   6.449   6.657 -0.6044  0.1504  0.3674
 2056ntf    cn115706   0.391   2.439   0.552  0.4432  0.2093 -0.0669
 2056ntf    sn215707   0.560   2.455   0.618  0.5742  0.0148 -0.3514
 2056ntf    nn315708   0.583   2.301   0.637 -0.4712 -0.1443 -0.3082
 2056ntf    sn215709   0.699   2.210   0.583 -0.1028  0.1460 -0.0055
 2056ntf    cn115710   0.734   2.092   0.717  0.2286  0.4663  0.1927
 2056ntf    fn415711   0.314   2.377   0.639 -0.2244  0.5177 -0.4357
 2056ntf    fn415712   0.336   2.557   0.530  0.1874  0.1148  0.0697
 2056ntf    fn415713   0.395   2.363   0.444  0.2891 -0.1295  0.1681
 2056ntf    on515714   0.639   2.518   0.516  0.2446  0.7053 -0.1849
 2056ntf    on515715   0.547   2.509   0.751 -0.4362  0.3479 -0.5798
 2056ntf    on515716   0.827   2.275   0.564 -0.1587  0.1870 -0.2505
 2056ntf    on515717   0.650   2.128   0.475 -0.2648  0.0589  0.1353
 2056ntf    fn415718   0.784   2.153   0.823 -0.0976  0.0881  0.5655
 2056ntf    fn415719   0.622   2.027   0.743  0.3676  0.1791  0.0669
 2056ntf    fn415720   0.815   1.994   0.681 -0.8548 -0.4416  0.1715
 2057ntf    cn115721   3.155   2.740   2.171  0.5391 -0.1482  0.0509
 2057ntf    sn215722   3.270   2.765   2.310  0.2097  0.0049  0.2965
 2057ntf    nn315723   3.167   2.805   2.422 -0.1015  0.0371  0.0000
 2057ntf    sn215724   3.099   2.939   2.467 -0.0141  0.0232  0.1708
 2057ntf    cn115725   3.205   2.986   2.607  0.1359 -0.1605  0.1185
 2057ntf    fn415726   3.217   2.692   2.064 -0.0511 -0.1155 -0.3091
 2057ntf    fn415727   3.056   2.656   2.201  0.5768 -0.2505 -0.1101
 2057ntf    fn415728   3.102   2.857   2.143 -0.2606 -0.4556  0.2500
 2057ntf    on515729   3.326   2.633   2.329 -0.3518 -0.2766  0.0368
 2057ntf    on515730   3.357   2.869   2.262 -0.0739 -0.0609 -0.3774
 2057ntf    on515731   2.970   2.913   2.527 -0.3383  0.7042 -0.2190
 2057ntf    on515732   3.115   3.044   2.370  0.3555  0.1717  0.3894
 2057ntf    fn415733   3.191   2.908   2.712  0.3920 -0.5074 -0.1018
 2057ntf    fn415734   3.332   2.978   2.569  0.0907 -0.6387  0.0622
 2057ntf    fn415735   3.180   3.114   2.632  0.0964  0.0086 -0.7512
 2058ntf    cn115736   0.857   3.306   1.343 -0.5121  0.1422 -0.3570
 2058ntf    sn215737   0.836   3.153   1.247  0.0869 -0.1748  0.0043
 2058ntf    nn315738   0.816   3.043   1.357 -0.3603  0.1216  0.2248
 2058ntf    sn215739   0.788   2.890   1.338 -0.0931  0.0881  0.0998
 2058ntf    cn115740   0.621   2.907   1.268  0.1175  0.5557 -0.2909
 2058ntf    fn415741   0.957   3.298   1.430 -0.5417  0.1079 -0.3263
 2058ntf    fn415742   0.890   3.402   1.259 -0.1645  0.5954  0.2867
 2058ntf    fn415743   0.745   3.337   1.406 -0.0118  0.7942  0.2420
 2058ntf    on515744   0.713   3.178   1.176  0.0076 -0.3104  0.0929
 2058ntf    on515745   0.958   3.141   1.172  0.1436 -0.4688  0.1439
 2058ntf    on515746   0.782   2.824   1.466 -0.4697  0.5082  0.3026
 2058ntf    on515747   0.861   2.818   1.236 -0.4535 -0.1082 -0.0219
 2058ntf    fn415748   0.619   2.929   1.137 -0.1081  0.5087 -0.2953
 2058ntf    fn415749   0.557   2.793   1.283  0.2335  0.4731 -0.4113
 2058ntf    fn415750   0.547   3.004   1.318 -0.1233  0.1560  0.1292
 2059ntf    cn115751   0.332   1.173   5.173 -0.0567  0.2401  0.0468
 2059ntf    sn215752   0.497   1.103   5.204 -0.0859  0.1203 -0.0680
 2059ntf    nn315753   0.471   0.948   5.211 -0.0159  0.1265  0.3322
 2059ntf    sn215754   0.572   0.836   5.256  0.0561  0.1400  0.2057
 2059ntf    cn115755   0.592   0.753   5.096  0.1500  0.5255  0.0149
 2059ntf    fn415756   0.342   1.305   5.178 -0.3564  0.2687 -0.0717
 2059ntf    fn415757   0.270   1.124   5.067 -0.8681  0.4127  0.4348
 2059ntf    fn415758   0.250   1.149   5.273  0.2284 -0.1325  0.1983
 2059ntf    on515759   0.567   1.147   5.085  0.1220  0.3809  0.1507
 2059ntf    on515760   0.531   1.165   5.329  0.3392  0.2847 -0.2615
 2059ntf    on515761   0.505   0.736   5.335 -0.1811  0.2429  0.1356
 2059ntf    on515762   0.709   0.868   5.287  0.2194 -0.5658  0.2246
 2059ntf    fn415763   0.604   0.842   4.999  0.0887  0.1979 -0.2961
 2059ntf    fn415764   0.697   0.672   5.097 -0.2164  0.0329 -0.4441
 2059ntf    fn415765   0.499   0.676   5.043  0.1112  0.4890  0.1367
 2060ntf    cn115766   1.970   1.276   3.595 -0.1728  0.4617 -0.2793
 2060ntf    sn215767   2.055   1.147   3.691 -0.2546  0.4721 -0.1923
 2060ntf    nn315768   2.161   1.238   3.762  0.3074 -0.3449  0.0305
 2060ntf    sn215769   2.310   1.273   3.726  0.2956 -0.2098  0.1090
 2060ntf    cn115770   2.314   1.454   3.734  0.3679 -0.2148  0.1857
 2060ntf    fn415771   2.034   1.314   3.485  0.1040  0.1174 -0.2391
 2060ntf    fn415772   1.850   1.233   3.561 -0.0565  0.0049 -0.1171
 2060ntf    fn415773   1.943   1.380   3.672 -0.2352 -0.2195  0.6337
 2060ntf    on515774   1.953   1.111   3.786  0.0126  0.0308 -0.0731
 2060ntf    on515775   2.097   1.053   3.590 -0.1553  0.2451  0.0595
 2060ntf    on515776   2.357   1.238   3.594  0.4238  0.2462  0.0317
 2060ntf    on515777   2.401   1.231   3.829  0.5209  0.0451  0.0135
 2060ntf    fn415778   2.232   1.507   3.644  0.6918  0.0995  0.0704
 2060ntf    fn415779   2.276   1.501   3.852 -0.2365 -0.1809 -0.0167
 2060ntf    fn415780   2.432   1.506   3.706  0.1769  0.0795 -0.0808
 2061ntf    cn115781   6.548   4.800   4.972  0.2720  0.2921  0.0017
 2061ntf    sn215782   6.394   4.810   5.069 -0.0002 -0.1195 -0.3808
 2061ntf    nn315783   6.284   4.844   4.962 -0.4587 -0.0305  0.1178
 2061ntf    sn215784   6.173   4.751   4.900 -0.3143 -0.1182 -0.0090
 2061ntf    cn115785   6.021   4.807   4.983 -0.1544  0.1585  0.1001
 2061ntf    fn415786   6.649   4.763   5.049 -0.1304  0.0603  0.4267
 2061ntf    fn415787   6.539   4.708   4.878  0.5029  0.1895  0.0810
 2061ntf    fn415788   6.577   4.916   4.916 -0.2410  0.2839 -0.2866
 2061ntf    on515789   6.386   4.681   5.132 -0.3408  0.1374  0.1069
 2061ntf    on515790   6.419   4.924   5.154 -0.2451  0.0095 -0.4827
 2061ntf    on515791   6.183   4.612   4.936  0.1175 -0.2402 -0.5811
 2061ntf    on515792   6.155   4.776   4.759  0.1118  0.1109 -0.0254
 2061ntf    fn415793   5.987   4.931   4.951 -0.0550  0.0721 -0.3595
 2061ntf    fn415794   5.923   4.722   4.956  0.5129 -0.5836 -0.0127
 2061ntf    fn415795   6.047   4.806   5.112 -0.0337  0.1909  0.0770
 2062ntf    cn115796   3.543   1.529   5.295  0.3424  0.3953 -0.0799
 2062ntf    sn215797   3.411   1.594   5.402 -0.2738 -0.2247 -0.4530
 2062ntf    nn315798   3.488   1.575   5.538 -0.1428  0.0783 -0.4845
 2062ntf    sn215799   3.575   1.682   5.613  0.0503 -0.3088 -0.1525
 2062ntf    cn115800   3.447   1.774   5.705  0.0638 -0.3967 -0.0453
 2062ntf    fn415801   3.648   1.609   5.293  0.4634  0.2300 -0.3807
 2062ntf    fn415802   3.585   1.411   5.338 -0.4731 -0.0386 -0.4474
 2062ntf    fn415803   3.509   1.513   5.168  0.2844  0.3526 -0.0585
 2062ntf    on515804   3.391   1.730   5.359  0.1039 -0.2307 -0.6589
 2062ntf    on515805   3.301   1.502   5.395 -0.4906 -0.0091  0.0875
 2062ntf    on515806   3.644   1.773   5.526  0.3046 -0.0823  0.2787
 2062ntf    on515807   3.661   1.626   5.714 -0.3097 -0.1670  0.2411
 2062ntf    fn415808   3.350   1.692   5.743 -0.4959  0.3719  0.2018
 2062ntf    fn415809   3.497   1.821   5.818  0.5182  0.3847 -0.5605
 2062ntf    fn415810   3.399   1.867   5.624 -0.1622 -0.5130 -0.0438
 2063ntf    cn115811   3.548   6.167   5.040  0.1852  0.1981  0.3971
 2063ntf    sn215812   3.678   6.098   4.934 -0.0923  0.0772  0.1381
 2063ntf    nn315813   3.768   6.225   4.921 -0.5401  0.3774 -0.0434
 2063ntf    sn215814   3.769   6.326   4.800  0.2781 -0.0979 -0.4445
 2063ntf    cn115815   3.836   6.478   4.874  0.2665 -0.2963 -0.0231
 2063ntf    fn415816   3.518   6.291   5.004  0.4804 -0.0393 -0.6765
 2063ntf    fn415817   3.437   6.097   5.026  0.4317 -0.0314 -0.4343
 2063ntf    fn415818   3.579   6.168   5.169 -0.1751 -0.0293  0.4866
 2063ntf    on515819   3.753   6.003   5.012  0.1524 -0.2464 -0.4797
 2063ntf    on515820   3.608   6.047   4.818 -0.2261  0.3646  0.0917
 2063ntf    on515821   3.638   6.371   4.758  0.2108  0.2759  0.1478
 2063ntf    on515822   3.866   6.290   4.700 -0.0098 -0.2278 -0.6746
 2063ntf    fn415823   3.958   6.452   4.917  0.1856  0.0430  0.4220
 2063ntf    fn415824   3.846   6.575   4.785  0.3023  0.1008  0.4053
 2063ntf    fn415825   3.767   6.520   4.980 -0.0360 -0.2709 -0.2284
 2064ntf    cn115826   5.311   3.310   0.317  0.3470  0.0749 -0.3241
 2064ntf    sn215827   5.308   3.350   0.494 -0.1281 -0.2459 -0.2570
 2064ntf    nn315828   5.420   3.261   0.558 -0.3018  0.0373  0.4576
 2064ntf    sn215829   5.407   3.114   0.614 -0.1339 -0.0364  0.3046
 2064ntf    cn115830   5.359   3.162   0.783 -0.6793  0.0239  0.1337
 2064ntf    fn415831   5.245   3.403   0.250 -0.5273  0.3281  0.8631
 2064ntf    fn415832   5.430   3.299   0.261  0.2192 -0.3638 -0.5143
 2064ntf    fn415833   5.244   3.199   0.288  0.0761  0.2904 -0.5233
 2064ntf    on515834   5.345   3.489   0.489 -0.8233 -0.0255  0.3627
 2064ntf    on515835   5.172   3.321   0.534 -0.0027 -0.2534  0.1767
 2064ntf    on515836   5.534   3.048   0.636  0.0687  0.3008  0.1702
 2064ntf    on515837   5.296   3.030   0.578 -0.0247  0.0745 -0.3052
 2064ntf    fn415838   5.434   3.259   0.832 -0.0970 -0.2421 -0.2167
 2064ntf    fn415839   5.237   3.211   0.787 -0.7045  0.0158 -0.4757
 2064ntf    fn415840   5.365   3.061   0.869  0.1311  0.4348  0.5754
 2065ntf    cn115841   1.610   5.773   0.083  0.1554 -0.2505  0.1493
 2065ntf    sn215842   1.562   5.789  -0.092  0.5533 -0.1352  0.0506
 2065ntf    nn315843   1.430   5.704  -0.084  0.2754  0.2908  0.0029
 2065ntf    sn215844   1.425   5.548  -0.092  0.0651  0.3143 -0.3083
 2065ntf    cn115845   1.403   5.524  -0.271 -0.1845 -0.0108 -0.2367
 2065ntf    fn415846   1.634   5.647   0.116  0.2337 -0.2761 -0.0062
 2065ntf    fn415847   1.713   5.852   0.108 -0.1746  0.2196  0.0535
 2065ntf    fn415848   1.503   5.804   0.155  0.1699  0.0514  0.0432
 2065ntf    on515849   1.532   5.930  -0.101 -0.0553 -0.2789 -0.1710
 2065ntf    on515850   1.673   5.745  -0.173  0.8366 -0.1716  0.4514
 2065ntf    on515851   1.307   5.491  -0.031  0.2455  0.1995 -0.0679
 2065ntf    on515852   1.545   5.473  -0.067 -0.2084  0.1076  0.4056
 2065ntf    fn415853   1.282   5.549  -0.319 -0.4211 -0.3394  0.1858
 2065ntf    fn415854   1.493   5.594  -0.338  0.0095 -0.1543 -0.1245
 2065ntf    fn415855   1.434   5.398  -0.295 -0.1420  0.0008 -0.2437
 2066ntf    cn115856   3.468   1.619   3.491  0.0293  0.0167  0.0356
 2066ntf    sn215857   3.608   1.735   3.488  0.0199  0.0397  0.4563
 2066ntf    nn315858   3.722   1.648   3.426 -0.3992 -0.2131  0.0315
 2066ntf    sn215859   3.865   1.693   3.380 -0.4495 -0.1193 -0.0321
 2066ntf    cn115860   3.961   1.563   3.464 -0.0888  0.0147 -0.2331
 2066ntf    fn415861   3.386   1.626   3.387  0.0973 -0.0755 -0.0250
 2066ntf    fn415862   3.513   1.495   3.482  0.1614  0.0849 -0.2735
 2066ntf    fn415863   3.399   1.616   3.604 -0.1185  0.1778 -0.0510
 2066ntf    on515864   3.556   1.828   3.391 -0.6558 -0.5595  0.2327
 2066ntf    on515865   3.617   1.780   3.625  0.5552  0.0931  0.4051
 2066ntf    on515866   3.914   1.821   3.423 -0.7407 -0.1683  0.4476
 2066ntf    on515867   3.884   1.664   3.240  0.5488  0.4722 -0.0315
 2066ntf    fn415868   3.953   1.569   3.596 -0.2192  0.4723 -0.2601
 2066ntf    fn415869   3.927   1.440   3.431  0.5146 -0.0545 -0.6112
 2066ntf    fn415870   4.092   1.571   3.446 -0.0263 -0.0632  0.1650
 2067ntf    cn115871   1.767   0.135   5.924 -0.1928  0.6822  0.2774
 2067ntf    sn215872   1.802   0.018   5.790  0.0784  0.4342  0.5621
 2067ntf    nn315873   1.729   0.093   5.672  0.2833 -0.1023  0.0873
 2067ntf    sn215874   1.743   0.055   5.521 -0.3526  0.0335 -0.0073
 2067ntf    cn115875   1.866   0.173   5.458 -0.0880 -0.1004  0.2582
 2067ntf    fn415876   1.644   0.174   5.951 -0.2561  0.5526  0.1795
 2067ntf    fn415877   1.823   0.092   6.036 -0.4353 -0.6061 -0.0849
 2067ntf    fn415878   1.824   0.248   5.886  0.3835  0.3099  0.0181
 2067ntf    on515879   1.945   0.031   5.782  0.1529 -0.3330  0.6014
 2067ntf    on515880   1.748  -0.109   5.833  0.9578 -0.0717  0.2062
 2067ntf    on515881   1.625   0.084   5.443 -0.3534  0.4720  0.1577
 2067ntf    on515882   1.802  -0.072   5.486 -0.3415  0.0206  0.0601
 2067ntf    fn415883   1.972   0.195   5.534 -0.1339 -0.0265  0.3010
 2067ntf    fn415884   1.916   0.127   5.344 -0.4972 -0.0787  0.0670
 2067ntf    fn415885   1.816   0.292   5.429  0.4413  0.0013 -0.2560
 2068ntf    cn115886   3.173   5.977   1.566 -0.3459 -0.2159  0.0441
 2068ntf    sn215887   3.184   6.116   1.449  0.3192 -0.4035 -0.1227
 2068ntf    nn315888   3.235   6.224   1.551 -0.0129 -0.2899 -0.0744
 2068ntf    sn215889   3.375   6.253   1.616 -0.1543  0.2681 -0.0184
 2068ntf    cn115890   3.436   6.383   1.504  0.1921  0.6322  0.5848
 2068ntf    fn415891   3.158   5.858   1.509  0.1934 -0.4578  0.3958
 2068ntf    fn415892   3.274   5.969   1.651  0.1549 -0.8188 -0.5932
 2068ntf    fn415893   3.074   6.005   1.649  0.2834 -0.4047  0.8684
 2068ntf    on515894   3.283   6.080   1.351  0.0620 -0.2587 -0.4395
 2068ntf    on515895   3.047   6.129   1.405  0.1362 -0.4358  0.4288
 2068ntf    on515896   3.475   6.149   1.609 -0.1670  0.2626 -0.1320
 2068ntf    on515897   3.354   6.329   1.737 -0.1961 -0.6146  0.5391
 2068ntf    fn415898   3.367   6.495   1.507 -0.5893  0.1765  0.1273
 2068ntf    fn415899   3.561   6.418   1.529  0.3854  0.1554  0.3111
 2068ntf    fn415900   3.441   6.337   1.379  0.1513 -0.0063  0.8128
 2069ntf    cn115901   0.236   0.293   4.380  0.0515 -0.2127  0.0988
 2069ntf    sn215902   0.289   0.387   4.527 -0.0229  0.0174 -0.0203
 2069ntf    nn315903   0.150   0.383   4.600  0.0571 -0.1294  0.1251
 2069ntf    sn215904   0.104   0.476   4.718  0.1792  0.0678  0.0204
 2069ntf    cn115905  -0.008   0.593   4.636 -0.1602 -0.3369 -0.1004
 2069ntf    fn415906   0.332   0.281   4.290 -0.4313 -0.4023 -0.3919
 2069ntf    fn415907   0.190   0.171   4.399 -0.6844 -0.0356 -0.4974
 2069ntf    fn415908   0.136   0.354   4.319  0.0566 -0.1641  0.1395
 2069ntf    on515909   0.386   0.296   4.584 -0.0057  0.0547  0.0100
 2069ntf    on515910   0.323   0.514   4.468  0.6465  0.0139  0.3426
 2069ntf    on515911   0.206   0.559   4.776  0.4535 -0.3714  0.1751
 2069ntf    on515912   0.020   0.407   4.813 -0.1458 -0.5528 -0.7111
 2069ntf    fn415913  -0.100   0.539   4.558 -0.3389 -0.1346 -0.0311
 2069ntf    fn415914  -0.088   0.653   4.722 -0.1956 -1.1391  0.4284
 2069ntf    fn415915   0.064   0.681   4.568 -0.0695 -0.2229  0.1423
 2070ntf    cn115916   0.776   0.743   0.520  0.0585 -0.1849  0.2581
 2070ntf    sn215917   0.793   0.653   0.363  0.4109  0.2468  0.0491
 2070ntf    nn315918   0.816   0.772   0.263 -0.0640  0.4811  0.2172
 2070ntf    sn215919   0.945   0.798   0.177 -0.0169  0.4908  0.2910
 2070ntf    cn115920   0.891   0.934   0.070 -0.1412  0.0802 -0.1718
 2070ntf    fn415921   0.652   0.784   0.542  0.0415 -0.2256  0.2379
 2070ntf    fn415922   0.800   0.658   0.618  0.0195  0.2507  0.6502
 2070ntf    fn415923   0.872   0.832   0.537  0.2267 -0.3223  0.0229
 2070ntf    on515924   0.910   0.572   0.388  0.2183 -0.1091 -0.1928
 2070ntf    on515925   0.666   0.589   0.344  0.6958 -0.2758 -0.1143
 2070ntf    on515926   0.974   0.695   0.080  0.5122  0.3880  0.5488
 2070ntf    on515927   1.053   0.860   0.250  0.3451 -0.1794  0.3410
 2070ntf    fn415928   0.816   1.021   0.135 -0.0122  0.1083 -0.0598
 2070ntf    fn415929   0.987   1.005   0.014 -0.2232  0.3283  0.0003
 2070ntf    fn415930   0.811   0.896  -0.028 -0.2624 -0.2467  0.0501
 2071ntf    cn115931   3.452   0.096   4.368  0.1811 -0.4053  0.4282
 2071ntf    sn215932   3.316   0.178   4.457  0.0433 -0.0597 -0.0966
 2071ntf    nn315933   3.195   0.122   4.375 -0.0483 -0.0629  0.0404
 2071ntf    sn215934   3.074   0.034   4.423  0.0701 -0.0848  0.2991
 2071ntf    cn115935   3.152  -0.130   4.418  0.1631 -0.0418  0.3500
 2071ntf    fn415936   3.572   0.118   4.418  0.2828 -0.2182  0.1037
 2071ntf    fn415937   3.438  -0.036   4.374 -0.0961 -0.3875  0.2277
 2071ntf    fn415938   3.459   0.130   4.240 -0.1265 -0.3934  0.4123
 2071ntf    on515939   3.333   0.130   4.592  0.3599 -0.0616 -0.1353
 2071ntf    on515940   3.327   0.321   4.438 -0.0478 -0.0540 -0.1032
 2071ntf    on515941   2.972   0.016   4.323  0.0527 -0.2477  0.3464
 2071ntf    on515942   3.029   0.061   4.557 -0.7745  0.2338 -0.0409
 2071ntf    fn415943   3.223  -0.150   4.308 -0.2608  0.3670  0.0007
 2071ntf    fn415944   3.232  -0.160   4.520  0.0501 -0.0522  0.4361
 2071ntf    fn415945   3.058  -0.222   4.416  0.1697 -0.0325 -0.6489
 2072ntf    cn115946   5.970   5.756   1.832 -0.1044 -0.0178  0.1130
 2072ntf    sn215947   5.798   5.710   1.794  0.0359 -0.0680 -0.4838
 2072ntf    nn315948   5.767   5.797   1.667 -0.1963 -0.3810 -0.6406
 2072ntf    sn215949   5.720   5.947   1.668  0.1261 -0.2814  0.0493
 2072ntf    cn115950   5.836   6.005   1.541 -0.0206 -0.1920 -0.0440
 2072ntf    fn415951   6.002   5.704   1.949  0.3811 -0.1066 -0.0549
 2072ntf    fn415952   6.046   5.709   1.734 -0.1153 -0.0451  0.1174
 2072ntf    fn415953   5.990   5.885   1.852  0.6863 -0.1136 -0.0074
 2072ntf    on515954   5.810   5.571   1.757  0.1758 -0.3980  0.7552
 2072ntf    on515955   5.724   5.747   1.912  0.6346  0.3312 -0.2251
 2072ntf    on515956   5.753   6.028   1.783 -0.5421  0.3094 -0.1741
 2072ntf    on515957   5.592   5.963   1.606  0.2310  0.5762  0.0363
 2072ntf    fn415958   5.959   6.024   1.585 -0.1090  0.2907 -0.0073
 2072ntf    fn415959   5.846   5.915   1.444  0.0163  0.2489 -0.4510
 2072ntf    fn415960   5.803   6.118   1.481  0.2563  0.0452  0.2540
 2073ntf    cn115961   0.638   3.307   5.917  0.0696  0.0480 -0.2111
 2073ntf    sn215962   0.635   3.419   5.774  0.0023  0.0181 -0.2339
 2073ntf    nn315963   0.536   3.535   5.813  0.1260 -0.1938  0.7215
 2073ntf    sn215964   0.383   3.555   5.784  0.3663  0.4560 -0.1073
 2073ntf    cn115965   0.347   3.637   5.942  0.1178  0.0528  0.0455
 2073ntf    fn415966   0.742   3.226   5.915  0.1490  0.1228  0.4839
 2073ntf    fn415967   0.634   3.363   6.037  0.2074 -0.0694 -0.1519
 2073ntf    fn415968   0.538   3.221   5.924  0.4187 -0.3529 -0.1275
 2073ntf    on515969   0.766   3.480   5.782 -0.0345  0.1682 -0.7166
 2073ntf    on515970   0.589   3.342   5.661  0.3516  0.0595 -0.4070
 2073ntf    on515971   0.294   3.441   5.780 -0.1808  0.8741  0.0876
 2073ntf    on515972   0.366   3.657   5.683 -0.0901 -0.0865 -0.5836
 2073ntf    fn415973   0.424   3.603   6.044  0.0228  0.3072  0.2011
 2073ntf    fn415974   0.360   3.768   5.929  0.3600 -0.0249 -0.5112
 2073ntf    fn415975   0.223   3.609   5.978  0.4296 -0.9316  0.3985
 2074ntf    cn115976   2.557   2.433   2.842 -0.1687  0.1224 -0.1271
 2074ntf    sn215977   2.604   2.520   2.995  0.1932  0.1284 -0.2405
 2074ntf    nn315978   2.758   2.494   2.993  0.1079 -0.4703  0.5786
 2074ntf    sn215979   2.872   2.595   2.954 -0.2067 -0.2387  0.2553
 2074ntf    cn115980   2.909   2.674   3.114 -0.0546 -0.0210  0.1128
 2074ntf    fn415981   2.430   2.444   2.806 -0.2114 -0.1567 -0.0577
 2074ntf    fn415982   2.638   2.466   2.743  0.1941  0.0762  0.1519
 2074ntf    fn415983   2.574   2.304   2.862  0.3298  0.1684 -0.2533
 2074ntf    on515984   2.559   2.656   2.978  0.2499  0.1746 -0.0181
 2074ntf    on515985   2.535   2.446   3.098  0.4756 -0.0235 -0.1617
 2074ntf    on515986   2.836   2.693   2.854  0.3314 -0.4390 -0.1384
 2074ntf    on515987   2.997   2.530   2.926 -0.0391  0.0643  0.3003
 2074ntf    fn415988   2.803   2.690   3.191  0.1337  0.6171  0.2416
 2074ntf    fn415989   2.990   2.597   3.183 -0.1394  0.1934  0.4526
 2074ntf    fn415990   2.962   2.794   3.094  0.1035 -0.1255 -0.1019
 2075ntf    cn115991   2.259   4.109   0.285  0.1974 -0.1944 -0.6157
 2075ntf    sn215992   2.435   4.155   0.278  0.1697 -0.0492 -0.3452
 2075ntf    nn315993   2.434   4.275   0.177 -0.5341  0.2435  0.0031
 2075ntf    sn215994   2.474   4.427   0.177  0.2204  0.0447 -0.0600
 2075ntf    cn115995   2.625   4.420   0.075  0.1325  0.0805 -0.1922
 2075ntf    fn415996   2.240   3.998   0.354  0.2429  0.0721 -0.1698
 2075ntf    fn415997   2.200   4.210   0.347  0.4731 -0.2676 -0.2248
 2075ntf    fn415998   2.192   4.099   0.172 -0.1114 -0.1898 -0.4340
 2075ntf    on515999   2.470   4.192   0.413  0.9072 -0.2733 -0.4697
 2075ntf    on516000   2.498   4.039   0.221  0.1409 -0.1010 -0.2710
 2075ntf    on516001   2.525   4.485   0.299  0.3234  0.2813 -0.2150
 2075ntf    on516002   2.391   4.507   0.091  0.4519  0.2242 -0.1201
 2075ntf    fn416003   2.682   4.539   0.081  0.0465  0.1041  0.1982
 2075ntf    fn416004   2.715   4.333   0.117  0.0393 -0.1487 -0.4682
 2075ntf    fn416005   2.605   4.388  -0.052 -0.4522 -0.4415  0.0262
 2076ntf    cn116006   6.588   3.178   3.586  0.1302 -0.2574 -0.1609
 2076ntf    sn216007   6.619   3.062   3.723 -0.4718 -0.1936  0.0285
 2076ntf    nn316008   6.606   2.923   3.650  0.2332 -0.0887 -0.3057
 2076ntf    sn216009   6.474   2.847   3.611 -0.0957  0.1925  0.2308
 2076ntf    cn116010   6.435   2.765   3.768  0.2981 -0.3215  0.0679
 2076ntf    fn416011   6.567   3.300   3.632 -0.0334 -0.4484  0.2823
 2076ntf    fn416012   6.687   3.185   3.498 -0.3272 -0.0857 -0.6682
 2076ntf    fn416013   6.480   3.144   3.518  0.2685 -0.5801 -0.2245
 2076ntf    on516014   6.753   3.101   3.757 -0.3162 -0.3185 -0.4270
 2076ntf    on516015   6.520   3.090   3.824 -0.3179  0.1924  0.0731
 2076ntf    on516016   6.503   2.734   3.525  0.5466  0.1937  0.4412
 2076ntf    on516017   6.359   2.928   3.579 -0.0926  0.0530 -0.1424
 2076ntf    fn416018   6.535   2.697   3.822  0.6211  0.0086 -0.1061
 2076ntf    fn416019   6.405   2.859   3.857  0.2231 -0.2866  0.0065
 2076ntf    fn416020   6.329   2.686   3.760  0.2624 -0.2147 -0.5440
 2077ntf    cn116021   5.910   5.298   4.614 -0.0703 -0.1027 -0.2168
 2077ntf    sn216022   6.063   5.395   4.631 -0.2545  0.1371  0.0816
 2077ntf    nn316023   6.111   5.367   4.484 -0.0800  0.4834  0.0716
 2077ntf    sn216024   6.246   5.318   4.421 -0.1947  0.2868 -0.0206
 2077ntf    cn116025   6.232   5.390   4.255 -0.4176 -0.1879 -0.2089
 2077ntf    fn416026   5.823   5.338   4.523 -0.0830  0.2790 -0.0412
 2077ntf    fn416027   5.932   5.169   4.599  0.3336 -0.0695  0.0789
 2077ntf    fn416028   5.843   5.301   4.728 -0.1658  0.8790 -0.2869
 2077ntf    on516029   6.009   5.527   4.653  0.0528  0.2920 -0.0808
 2077ntf    on516030   6.136   5.328   4.736  0.0850 -0.1663 -0.3458
 2077ntf    on516031   6.241   5.178   4.388 -0.1674  0.2804  0.0017
 2077ntf    on516032   6.368   5.367   4.480 -0.3035  0.6880 -0.1252
 2077ntf    fn416033   6.217   5.521   4.263 -0.3706 -0.2184  0.4493
 2077ntf    fn416034   6.335   5.371   4.175  0.2472  0.3283  0.5086
 2077ntf    fn416035   6.123   5.354   4.189 -0.7588  0.1926  0.1476
 2078ntf    cn116036   5.044   1.530   2.599  0.1467 -0.0488  0.2893
 2078ntf    sn216037   5.165   1.617   2.495 -0.0090 -0.0896  0.0734
 2078ntf    nn316038   5.113   1.764   2.518 -0.1040 -0.2213  0.7178
 2078ntf    sn216039   4.995   1.844   2.452  0.3594 -0.0619  0.0725
 2078ntf    cn116040   5.090   1.943   2.333  0.6146 -0.4807 -0.0774
 2078ntf    fn416041   5.009   1.607   2.701 -0.2796 -0.1423  0.2133
 2078ntf    fn416042   4.939   1.513   2.520 -0.0374  0.7267  0.3586
 2078ntf    fn416043   5.084   1.411   2.641 -0.4856 -0.1914  0.4923
 2078ntf    on516044   5.296   1.594   2.550  0.0549 -0.1954 -0.1238
 2078ntf    on516045   5.151   1.562   2.363  0.0029 -0.0382  0.0508
 2078ntf    on516046   4.945   1.954   2.531  0.2656  0.1026 -0.2175
 2078ntf    on516047   4.905   1.770   2.367  0.2312  0.1242  0.0467
 2078ntf    fn416048   5.003   2.029   2.282  0.2051 -0.7760  0.1133
 2078ntf    fn416049   5.190   2.010   2.389  0.1982 -0.1869  0.3302
 2078ntf    fn416050   5.140   1.873   2.233  0.4431 -0.0810 -0.4475
 2079ntf    cn116051   6.767   1.453   3.519 -0.0396 -0.1867  0.1538
 2079ntf    sn216052   6.880   1.315   3.486 -0.2940 -0.3328 -0.1100
 2079ntf    nn316053   6.980   1.386   3.388 -0.4071 -0.1617 -0.1011
 2079ntf    sn216054   7.119   1.332   3.342 -0.0562  0.2509  0.4619
 2079ntf    cn116055   7.099   1.356   3.163  0.2744  0.2195  0.4189
 2079ntf    fn416056   6.812   1.564   3.576 -0.3491  0.0564 -0.0682
 2079ntf    fn416057   6.711   1.487   3.404 -0.0829 -0.1309  0.1912
 2079ntf    fn416058   6.666   1.415   3.597 -0.7025  0.7272 -0.2349
 2079ntf    on516059   6.932   1.281   3.616  0.3626  0.2615 -0.2126
 2079ntf    on516060   6.802   1.220   3.410  0.0474 -0.2960 -0.5078
 2079ntf    on516061   7.141   1.190   3.358  0.0647  0.2476  0.2731
 2079ntf    on516062   7.229   1.420   3.373  0.1676  0.0040  0.3729
 2079ntf    fn416063   7.035   1.471   3.146 -0.5689 -0.2278  0.4941
 2079ntf    fn416064   7.215   1.365   3.101  0.0343  0.0333 -0.0696
 2079ntf    fn416065   7.031   1.261   3.100  0.1802  0.3656  0.2997
 2080ntf    cn116066   1.564   1.345   4.656 -0.0304 -0.0918 -0.3442
 2080ntf    sn216067   1.473   1.502   4.655 -0.0231 -0.0844  0.0034
 2080ntf    nn316068   1.540   1.590   4.766  0.1517  0.1973 -0.3225
 2080ntf    sn216069   1.564   1.745   4.772 -0.1655  0.2350  0.0013
 2080ntf    cn116070   1.521   1.764   4.948 -0.3650  0.4272 -0.0685
 2080ntf    fn416071   1.590   1.305   4.779 -0.0702  0.1454 -0.2601
 2080ntf    fn416072   1.501   1.246   4.593  0.4567 -0.2062 -0.6556
 2080ntf    fn416073   1.681   1.354   4.595  0.0807  0.3524 -0.0619
 2080ntf    on516074   1.496   1.540   4.517  0.5202 -0.4872 -0.0193
 2080ntf    on516075   1.340   1.457   4.687 -0.3075  0.0483 -0.9371
 2080ntf    on516076   1.467   1.829   4.708  0.0721  0.3904 -0.1568
 2080ntf    on516077   1.705   1.777   4.772 -0.0767 -0.1531 -0.2467
 2080ntf    fn416078   1.537   1.889   4.990  0.1428  0.1757  0.5098
 2080ntf    fn416079   1.397   1.726   4.973 -0.3552  0.3294 -0.1699
 2080ntf    fn416080   1.590   1.687   5.030  0.0022 -0.0476 -0.8082
 2081ntf    cn116081   3.027   0.777   1.022  0.2910 -0.0456  0.0704
 2081ntf    sn216082   2.885   0.776   0.908  0.1024  0.1236  0.3009
 2081ntf    nn316083   2.827   0.917   0.944  0.2260  0.1942  0.2257
 2081ntf    sn216084   2.726   0.947   1.061  0.2030  0.2696  0.1864
 2081ntf    cn116085   2.770   1.122   1.083  0.1917  0.3067 -0.0806
 2081ntf    fn416086   2.996   0.826   1.142  0.1128 -0.5551  0.2356
 2081ntf    fn416087   3.084   0.659   1.043  0.0065 -0.1145  0.4881
 2081ntf    fn416088   3.129   0.845   0.975  0.1489  0.3026  0.2588
 2081ntf    on516089   2.949   0.775   0.779 -0.9157  0.0663 -0.2108
 2081ntf    on516090   2.806   0.660   0.940  0.5610 -0.2152  0.2135
 2081ntf    on516091   2.755   0.893   1.191 -0.0777  0.0150  0.1438
 2081ntf    on516092   2.589   0.958   1.016  0.3998 -0.3070 -0.5721
 2081ntf    fn416093   2.702   1.179   1.180 -0.2953 -0.1848 -0.1316
 2081ntf    fn416094   2.899   1.146   1.103  0.1767  0.2414  0.0944
 2081ntf    fn416095   2.744   1.200   0.979  0.2581  0.0544 -0.2892
 2082ntf    cn116096   6.653   1.357   5.566 -0.2101  0.1548  0.0099
 2082ntf    sn216097   6.601   1.234   5.689 -0.2822  0.1128 -0.0619
 2082ntf    nn316098   6.563   1.326   5.811 -0.3377 -0.0875  0.0724
 2082ntf    sn216099   6.610   1.318   5.960  0.1124 -0.1696 -0.0728
 2082ntf    cn116100   6.737   1.448   5.957 -0.0874  0.0253 -0.1870
 2082ntf    fn416101   6.723   1.454   5.623  0.5065 -0.5719  0.3832
 2082ntf    fn416102   6.724   1.313   5.464  0.0585  0.8146 -0.0969
 2082ntf    fn416103   6.548   1.417   5.512 -0.3780 -0.0386  0.1260
 2082ntf    on516104   6.493   1.172   5.617 -0.2490  0.4898 -0.4374
 2082ntf    on516105   6.722   1.159   5.713 -0.3476 -0.0821 -0.3450
 2082ntf    on516106   6.681   1.204   6.011 -0.0867 -0.2992 -0.0837
 2082ntf    on516107   6.515   1.380   6.049 -0.0370 -0.3679 -0.0948
 2082ntf    fn416108   6.698   1.569   5.922 -0.0547  0.0918  0.0044
 2082ntf    fn416109   6.791   1.461   6.078 -0.1754 -0.5383 -0.0829
 2082ntf    fn416110   6.832   1.408   5.874 -0.1839  0.1715 -0.3683
 2083ntf    cn116111   2.513   3.689   3.325  0.2931 -0.3069 -0.0916
 2083ntf    sn216112   2.621   3.736   3.187 -0.0041  0.0735 -0.1951
 2083ntf    nn316113   2.510   3.731   3.075 -0.2143 -0.4290  0.0365
 2083ntf    sn216114   2.413   3.837   3.013  0.0046 -0.1529  0.1653
 2083ntf    cn116115   2.510   3.900   2.873  0.2431  0.1172  0.4507
 2083ntf    fn416116   2.575   3.701   3.441 -0.1998  0.3710  0.1087
 2083ntf    fn416117   2.397   3.752   3.335  0.6629  0.3857 -0.1220
 2083ntf    fn416118   2.483   3.560   3.321  0.3555 -0.3239 -0.0048
 2083ntf    on516119   2.660   3.870   3.223  0.1262  0.1698 -0.6828
 2083ntf    on516120   2.714   3.627   3.179 -0.5495 -0.4286  0.2269
 2083ntf    on516121   2.380   3.952   3.095 -0.3802 -0.2988  0.2164
 2083ntf    on516122   2.298   3.777   2.949 -0.2588  0.6188 -0.0937
 2083ntf    fn416123   2.447   3.992   2.803  0.1083 -0.1516  0.2159
 2083ntf    fn416124   2.625   3.958   2.905  0.3431  0.5056 -0.5931
 2083ntf    fn416125   2.534   3.796   2.794  0.3495  0.3678  0.1539
 2084ntf    cn116126   6.041   3.729   4.737  0.0427  0.1012 -0.3305
 2084ntf    sn216127   6.148   3.815   4.856 -0.1212 -0.0136 -0.0999
 2084ntf    nn316128   6.052   3.935   4.888 -0.1488 -0.0653  0.0129
 2084ntf    sn216129   6.007   3.997   5.025  0.0711  0.0895  0.0148
 2084ntf    cn116130   5.882   3.871   5.065  0.0515  0.1536  0.1576
 2084ntf    fn416131   5.924   3.693   4.788  0.2690 -0.3561 -0.1236
 2084ntf    fn416132   6.013   3.805   4.632 -0.3988 -0.1265 -0.3808
 2084ntf    fn416133   6.094   3.617   4.690 -0.4049 -0.3206  0.1658
 2084ntf    on516134   6.173   3.722   4.963 -0.1055 -0.5961 -0.6030
 2084ntf    on516135   6.257   3.862   4.773 -0.0912  0.1937  0.0576
 2084ntf    on516136   5.931   4.119   5.014  0.3876  0.3148  0.2867
 2084ntf    on516137   6.103   3.985   5.132  0.5118  0.3970 -0.3402
 2084ntf    fn416138   5.930   3.748   5.084 -0.3600  0.0377  0.4487
 2084ntf    fn416139   5.811   3.908   5.169  0.0211 -0.1970  0.2641
 2084ntf    fn416140   5.788   3.864   4.972  0.0893 -0.5965  0.1656
 2085ntf    cn116141   4.568   6.146   5.984  0.2030 -0.0254  0.2510
 2085ntf    sn216142   4.734   6.137   5.910  0.1689 -0.0525  0.1771
 2085ntf    nn316143   4.778   6.287   5.929 -0.5841  0.1265  0.5879
 2085ntf    sn216144   4.908   6.354   5.986 -0.0417 -0.1308 -0.3097
 2085ntf    cn116145   4.826   6.441   6.124 -0.0214 -0.3349 -0.1681
 2085ntf    fn416146   4.497   6.035   5.973  0.7250 -0.3601  0.2258
 2085ntf    fn416147   4.584   6.159   6.115 -0.1283  0.4145  0.2500
 2085ntf    fn416148   4.496   6.249   5.943 -0.2945 -0.5074 -0.1046
 2085ntf    on516149   4.803   6.046   5.998  0.4668  0.1454  0.1504
 2085ntf    on516150   4.708   6.101   5.773 -0.1925  0.2356  0.1668
 2085ntf    on516151   4.955   6.464   5.905 -0.2917 -0.0336 -0.3255
 2085ntf    on516152   5.013   6.277   6.047  0.4731  0.2624 -0.6852
 2085ntf    fn416153   4.810   6.374   6.236 -0.3926 -0.2205 -0.1515
 2085ntf    fn416154   4.898   6.549   6.150 -0.1788 -0.2479 -0.0971
 2085ntf    fn416155   4.700   6.477   6.103  0.1716  0.3316 -0.1993
 2086ntf    cn116156   3.784   5.968   4.003 -0.0116 -0.1111  0.4485
 2086ntf    sn216157   3.724   6.120   4.081 -0.1365 -0.0617  0.2575
 2086ntf    nn316158   3.601   6.064   4.162 -0.2140 -0.2835 -0.0137
 2086ntf    sn216159   3.451   6.110   4.160 -0.2220 -0.3099 -0.0176
 2086ntf    cn116160   3.474   6.289   4.185  0.1351 -0.3338 -0.1639
 2086ntf    fn416161   3.819   5.872   4.087 -0.0933 -0.5509 -0.0194
 2086ntf    fn416162   3.698   5.919   3.915 -0.1135  0.3429  0.2899
 2086ntf    fn416163   3.893   5.989   3.931 -0.4317 -0.3269 -0.2592
 2086ntf    on516164   3.836   6.162   4.162  0.4399 -0.0225 -0.5506
 2086ntf    on516165   3.701   6.192   3.958  0.1325 -0.7815 -0.2163
 2086ntf    on516166   3.384   6.072   4.282 -0.2109 -0.2302  0.0136
 2086ntf    on516167   3.380   6.086   4.037 -0.3228 -0.3620  0.0504
 2086ntf    fn416168   3.361   6.355   4.204 -0.0523 -0.4891 -0.7269
 2086ntf    fn416169   3.549   6.309   4.292 -0.2001 -0.3647  0.0787
 2086ntf    fn416170   3.539   6.347   4.086  0.0892  0.1374  0.0792
 2087ntf    cn116171   1.767   4.641   0.056 -0.0410  0.0129 -0.1771
 2087ntf    sn216172   1.746   4.742  -0.094 -0.0878  0.0320 -0.1577
 2087ntf    nn316173   1.865   4.841  -0.069  0.0122 -0.2468  0.4969
 2087ntf    sn216174   1.939   4.926  -0.178 -0.3260 -0.0581  0.4141
 2087ntf    cn116175   2.065   4.803  -0.224 -0.1631  0.1417  0.3270
 2087ntf    fn416176   1.869   4.558   0.046  0.1283  0.1761  0.1774
 2087ntf    fn416177   1.795   4.719   0.159  0.0743 -0.2993  0.0307
 2087ntf    fn416178   1.653   4.577   0.080 -0.0016 -0.1195 -0.3391
 2087ntf    on516179   1.766   4.641  -0.194  0.3323 -0.3112  0.2646
 2087ntf    on516180   1.614   4.798  -0.082  0.0043  0.2346 -0.0807
 2087ntf    on516181   2.006   5.044  -0.129 -0.1426 -0.2236  0.5656
 2087ntf    on516182   1.870   4.940  -0.304  0.3560  0.6722  0.1121
 2087ntf    fn416183   2.123   4.749  -0.118  0.5451  0.1236 -0.0596
 2087ntf    fn416184   2.024   4.699  -0.294  0.2700  0.0170  0.2508
 2087ntf    fn416185   2.162   4.863  -0.292 -0.4450  0.0586 -0.1499
 2088ntf    cn116186   6.282   3.228   1.904 -0.0687 -0.4786  0.2148
 2088ntf    sn216187   6.116   3.300   1.904  0.0151 -0.2826 -0.0554
 2088ntf    nn316188   6.054   3.241   2.036  0.4850 -0.0670  0.2640
 2088ntf    sn216189   5.985   3.101   2.053  0.1131  0.0157 -0.5228
 2088ntf    cn116190   6.057   3.039   2.208 -0.7946 -0.0733 -0.1295
 2088ntf    fn416191   6.283   3.104   1.855  0.2818 -0.3567 -0.0934
 2088ntf    fn416192   6.369   3.301   1.836 -0.0530 -0.5837  0.1218
 2088ntf    fn416193   6.335   3.220   2.025 -0.1318  0.0420  0.2770
 2088ntf    on516194   6.145   3.439   1.928  0.0097 -0.2326 -0.3340
 2088ntf    on516195   6.052   3.265   1.780  0.3564 -0.5243 -0.1652
 2088ntf    on516196   6.024   2.998   1.961 -0.2652 -0.3700 -0.2533
 2088ntf    on516197   5.844   3.112   2.082  0.2163  0.1005 -0.0424
 2088ntf    fn416198   6.188   3.029   2.191 -0.7340 -0.2190  0.4029
 2088ntf    fn416199   6.036   3.122   2.308 -0.3112  0.4176 -0.4295
 2088ntf    fn416200   6.003   2.924   2.244  0.3614 -0.4420  0.4866
 2089ntf    cn116201   3.859   5.418   4.649  0.3009 -0.1078  0.1469
 2089ntf    sn216202   3.804   5.547   4.533  0.0865 -0.0641  0.2950
 2089ntf    nn316203   3.710   5.468   4.435  0.2837 -0.1636  0.1864
 2089ntf    sn216204   3.758   5.389   4.308  0.1594  0.1453 -0.0571
 2089ntf    cn116205   3.760   5.517   4.179  0.1646  0.1404 -0.0618
 2089ntf    fn416206   3.904   5.466   4.764 -0.0451  0.0911  0.2030
 2089ntf    fn416207   3.759   5.337   4.682 -0.0149  0.2684  0.1335
 2089ntf    fn416208   3.951   5.332   4.610  0.2043 -0.0723 -0.1616
 2089ntf    on516209   3.728   5.632   4.621 -0.0734  0.3001 -0.1901
 2089ntf    on516210   3.921   5.606   4.473  0.3334 -0.4319  0.4073
 2089ntf    on516211   3.647   5.302   4.277 -0.2277  0.6415 -0.0641
 2089ntf    on516212   3.888   5.328   4.314  0.3715  0.5124 -0.8226
 2089ntf    fn416213   3.870   5.589   4.189  0.0984  0.2261  0.0434
 2089ntf    fn416214   3.749   5.470   4.056 -0.1715  0.2631 -0.0785
 2089ntf    fn416215   3.655   5.595   4.198 -0.2508 -0.4434  0.0697
 2090ntf    cn116216   4.336   3.592   2.079 -0.0106  0.2640  0.2326
 2090ntf    sn216217   4.309   3.621   1.901 -0.2682  0.1146  0.2457
 2090ntf    nn316218   4.191   3.722   1.925 -0.0338  0.5305 -0.3216
 2090ntf    sn216219   4.035   3.704   1.912  0.0024  0.0519 -0.1245
 2090ntf    cn116220   3.987   3.879   1.898  0.2178  0.1086 -0.1599
 2090ntf    fn416221   4.438   3.516   2.113 -0.0221  0.1264 -0.0350
 2090ntf    fn416222   4.352   3.708   2.140  0.1934  0.2018  0.2952
 2090ntf    fn416223   4.226   3.539   2.130 -0.4523  0.2414 -0.7142
 2090ntf    on516224   4.428   3.689   1.854  0.1157 -0.3827  0.4862
 2090ntf    on516225   4.272   3.497   1.838  0.1851  0.1387 -0.0738
 2090ntf    on516226   3.963   3.657   2.027 -0.1339  0.0459 -0.2131
 2090ntf    on516227   3.990   3.665   1.782  0.0784  0.4075 -0.2593
 2090ntf    fn416228   4.035   3.929   1.786  0.4540  0.4309  0.0821
 2090ntf    fn416229   3.856   3.897   1.899  0.2400  0.2562  0.1551
 2090ntf    fn416230   4.039   3.953   1.996  0.3293  0.0941 -0.2075
 2091ntf    cn116231   4.042   4.450   3.074  0.2467 -0.1485 -0.1847
 2091ntf    sn216232   3.966   4.615   3.075  0.1860 -0.1760  0.0090
 2091ntf    nn316233   3.907   4.605   3.220 -0.0162  0.9316  0.0121
 2091ntf    sn216234   3.758   4.636   3.257 -0.2448 -0.4815  0.3320
 2091ntf    cn116235   3.755   4.636   3.439  0.1200  0.1562  0.3388
 2091ntf    fn416236   4.148   4.450   3.154 -0.0839  0.2190  0.2613
 2091ntf    fn416237   3.959   4.363   3.129  0.2055 -0.1433 -0.2405
 2091ntf    fn416238   4.086   4.405   2.958 -0.1809 -0.1632 -0.3414
 2091ntf    on516239   4.081   4.702   3.064  0.2013 -0.1938  0.0260
 2091ntf    on516240   3.874   4.619   2.965  0.4855 -0.2521 -0.2472
 2091ntf    on516241   3.667   4.527   3.229  0.2351 -0.7871 -0.0473
 2091ntf    on516242   3.726   4.771   3.217 -0.0928 -0.6739 -0.4504
 2091ntf    fn416243   3.805   4.520   3.476 -0.0532 -0.0741 -0.1383
 2091ntf    fn416244   3.833   4.728   3.493  0.3635  0.2273 -0.1304
 2091ntf    fn416245   3.633   4.641   3.491 -0.0603  0.4693 -0.0989
 2092ntf    cn116246   0.801   2.507   3.098 -0.0288  0.0075  0.2329
 2092ntf    sn216247   0.966   2.560   3.152  0.0996 -0.1988  0.0473
 2092ntf    nn316248   0.972   2.699   3.081 -0.0202 -0.3757 -0.3086
 2092ntf    sn216249   0.899   2.834   3.116  0.2907 -0.2310 -0.2242
 2092ntf    cn116250   1.034   2.901   3.219 -0.2458  0.3314  0.1179
 2092ntf    fn416251   0.794   2.498   2.966  0.3306  0.2504  0.1954
 2092ntf    fn416252   0.767   2.389   3.149  0.3610 -0.0324  0.4106
 2092ntf    fn416253   0.713   2.593   3.146  0.0850  0.1957  0.1045
 2092ntf    on516254   0.972   2.552   3.296  0.5637  0.1347  0.0495
 2092ntf    on516255   1.043   2.463   3.077 -0.1410 -0.0646 -0.3734
 2092ntf    on516256   0.783   2.832   3.201  0.3285  0.6114 -0.1489
 2092ntf    on516257   0.900   2.930   3.009 -0.0563 -0.1268 -0.1332
 2092ntf    fn416258   1.054   2.829   3.328 -0.2235 -0.9904 -0.7304
 2092ntf    fn416259   1.149   2.905   3.154 -0.1139  0.2111  0.3431
 2092ntf    fn416260   1.007   3.020   3.270  0.0582  0.0508  0.9537
 2093ntf    cn116261   2.524   6.242   0.372 -0.0376  0.5732  0.0750
 2093ntf    sn216262   2.366   6.166   0.421  0.3424 -0.0703  0.3010
 2093ntf    nn316263   2.276   6.235   0.312 -0.1412 -0.4995  0.4278
 2093ntf    sn216264   2.182   6.359   0.331 -0.0775 -0.2730 -0.6844
 2093ntf    cn116265   2.224   6.448   0.178  0.4693 -0.0619 -0.4156
 2093ntf    fn416266   2.623   6.165   0.413 -0.1617  0.3864  0.0232
 2093ntf    fn416267   2.537   6.240   0.240  0.3868  0.0707  0.1208
 2093ntf    fn416268   2.539   6.365   0.420 -0.3380  0.4153  0.5877
 2093ntf    on516269   2.382   6.024   0.401 -0.8243 -0.1988  0.2053
 2093ntf    on516270   2.337   6.206   0.556 -0.0873 -0.6558  0.3857
 2093ntf    on516271   2.220   6.453   0.434  0.2013 -0.6033 -0.4813
 2093ntf    on516272   2.040   6.337   0.321 -0.1457 -0.0827 -0.1835
 2093ntf    fn416273   2.203   6.379   0.068 -0.3877 -0.3661 -0.0661
 2093ntf    fn416274   2.154   6.560   0.173  0.4525 -0.0588 -0.1272
 2093ntf    fn416275   2.350   6.489   0.184  0.3081  0.3282  0.6851
 2094ntf    cn116276   2.483   2.789   0.811 -0.0318  0.0885  0.3275
 2094ntf    sn216277   2.529   2.945   0.728 -0.0040  0.0253  0.2235
 2094ntf    nn316278   2.416   3.031   0.795  0.0442 -0.1916  0.5858
 2094ntf    sn216279   2.413   3.096   0.938  0.0736  0.2724  0.3781
 2094ntf    cn116280   2.466   3.265   0.900  0.1065  0.2139  0.1618
 2094ntf    fn416281   2.491   2.794   0.943  0.3004 -0.3031  0.3236
 2094ntf    fn416282   2.355   2.762   0.788  0.0435  0.2185 -0.2539
 2094ntf    fn416283   2.548   2.685   0.762 -0.3187 -0.0406  0.2176
 2094ntf    on516284   2.666   2.969   0.766 -0.1396  0.3927  0.4854
 2094ntf    on516285   2.502   2.917   0.589  0.0121  0.2972  0.1656
 2094ntf    on516286   2.513   3.052   1.033  0.0159 -0.9195 -0.0907
 2094ntf    on516287   2.280   3.116   0.989 -0.0115 -0.2027  0.3474
 2094ntf    fn416288   2.391   3.319   0.805  0.2086  0.2386  0.0948
 2094ntf    fn416289   2.449   3.349   1.001  0.0661  0.3424  0.0487
 2094ntf    fn416290   2.591   3.275   0.860  0.1670 -0.5476  0.1515
 2095ntf    cn116291   2.796   1.011   0.026  0.4130 -0.0224  0.2524
 2095ntf    sn216292   2.644   1.022   0.125 -0.0633 -0.0152 -0.4685
 2095ntf    nn316293   2.586   0.880   0.094 -0.0252  0.0348 -0.7731
 2095ntf    sn216294   2.442   0.825   0.125 -0.0185  0.3047 -0.2433
 2095ntf    cn116295   2.353   0.880  -0.024 -0.0028  0.5624 -0.1569
 2095ntf    fn416296   2.761   0.976  -0.097 -0.0693  0.3353  0.2832
 2095ntf    fn416297   2.862   1.127   0.027 -0.5449  0.5375 -0.0838
 2095ntf    fn416298   2.873   0.914   0.070  0.0552 -0.0963  0.7218
 2095ntf    on516299   2.694   1.035   0.260  0.4367 -0.3687 -0.6152
 2095ntf    on516300   2.577   1.130   0.058 -0.5100 -0.1613 -0.2567
 2095ntf    on516301   2.372   0.873   0.241 -0.1850 -0.7281  0.0950
 2095ntf    on516302   2.440   0.682   0.106  0.2311  0.2006  0.5135
 2095ntf    fn416303   2.369   1.010  -0.044 -0.2948  0.6023 -0.1308
 2095ntf    fn416304   2.399   0.826  -0.136  0.2128  0.2311  0.0891
 2095ntf    fn416305   2.226   0.844  -0.025  0.1729 -0.0657 -0.2790
 2096ntf    cn116306   4.563   4.158   2.779  0.0411 -0.2687 -0.0976
 2096ntf    sn216307   4.711   4.085   2.703  0.1255  0.0283 -0.2195
 2096ntf    nn316308   4.645   3.997   2.591 -0.0597 -0.1107 -0.0010
 2096ntf    sn216309   4.593   3.849   2.601 -0.2105 -0.0533  0.0717
 2096ntf    cn116310   4.732   3.749   2.539 -0.2870 -0.1546  0.0634
 2096ntf    fn416311   4.492   4.071   2.849 -0.0408 -0.2296 -0.1327
 2096ntf    fn416312   4.583   4.266   2.852 -0.1760 -0.0097 -0.4185
 2096ntf    fn416313   4.486   4.196   2.679 -0.1157 -0.5426 -0.0809
 2096ntf    on516314   4.782   4.200   2.652  0.4900 -0.1411 -0.1033
 2096ntf    on516315   4.768   4.008   2.811 -0.3888 -0.0393  0.0064
 2096ntf    on516316   4.488   3.832   2.503 -0.0778  0.2025 -0.1164
 2096ntf    on516317   4.567   3.796   2.732 -0.4985  0.0168  0.0431
 2096ntf    fn416318   4.744   3.763   2.408 -0.2660 -0.0691  0.0743
 2096ntf    fn416319   4.848   3.788   2.590 -0.1881  0.2578 -0.4710
 2096ntf    fn416320   4.728   3.619   2.565 -0.1484 -0.3179 -0.7093
 2097ntf    cn116321   5.079   3.149   5.909  0.0482  0.2707  0.0893
 2097ntf    sn216322   5.130   3.088   5.745  0.1275  0.2225  0.1323
 2097ntf    nn316323   5.270   3.024   5.774 -0.0870 -0.2817  0.0529
 2097ntf    sn216324   5.325   2.879   5.803  0.1855 -0.1655  0.1200
 2097ntf    cn116325   5.493   2.923   5.858  0.0108 -0.0365  0.5463
 2097ntf    fn416326   5.070   3.046   5.990  0.6766  0.2042  0.0803
 2097ntf    fn416327   5.169   3.231   5.962  0.0447  0.2106  0.1858
 2097ntf    fn416328   4.961   3.208   5.913  0.0578  0.3486 -0.5717
 2097ntf    on516329   5.027   2.996   5.705 -0.2637  0.5958  0.2803
 2097ntf    on516330   5.133   3.215   5.676  0.3873 -0.0852 -0.4302
 2097ntf    on516331   5.344   2.806   5.680 -0.2355 -0.0096 -0.0371
 2097ntf    on516332   5.265   2.814   5.916  0.4189 -0.3819  0.1209
 2097ntf    fn416333   5.567   2.987   5.769 -0.0385 -0.2414  0.3567
 2097ntf    fn416334   5.475   3.003   5.962  0.0976  0.3299  0.2834
 2097ntf    fn416335   5.556   2.814   5.899  0.4302  0.0194  0.0636
 2098ntf    cn116336   0.096   5.151   2.082 -0.2267 -0.1295 -0.2546
 2098ntf    sn216337   0.009   5.305   2.126 -0.1801 -0.1738 -0.0098
 2098ntf    nn316338  -0.118   5.277   2.038  0.0352  0.1085 -0.4101
 2098ntf    sn216339  -0.256   5.214   2.077  0.1646  0.1243  0.0774
 2098ntf    cn116340  -0.349   5.369   2.094 -0.4238 -0.1748 -0.3993
 2098ntf    fn416341   0.214   5.157   2.142 -0.1193  0.0606 -0.4810
 2098ntf    fn416342   0.043   5.034   2.115 -0.3842 -0.0131 -0.0909
 2098ntf    fn416343   0.120   5.139   1.953  0.0982 -0.0390 -0.2024
 2098ntf    on516344  -0.006   5.302   2.270 -0.1833 -0.3442 -0.0126
 2098ntf    on516345   0.090   5.414   2.078 -0.4867  0.3073  0.5483
 2098ntf    on516346  -0.268   5.144   2.202 -0.2456  0.4313  0.2131
 2098ntf    on516347  -0.309   5.161   1.954  0.7446  0.5060 -0.3421
 2098ntf    fn416348  -0.270   5.458   2.151  0.1687 -0.5070 -0.6950
 2098ntf    fn416349  -0.379   5.424   1.977 -0.1946  0.0830 -0.3383
 2098ntf    fn416350  -0.457   5.349   2.169  0.0399 -0.7130  0.1322
 2099ntf    cn116351   2.736   4.979   5.083  0.2865 -0.0714 -0.0241
 2099ntf    sn216352   2.768   4.865   5.221  0.0541  0.0311  0.1164
 2099ntf    nn316353   2.917   4.823   5.194  0.0446  0.2670 -0.3175
 2099ntf    sn216354   3.038   4.812   5.294  0.0144 -0.0100 -0.3101
 2099ntf    cn116355   3.039   4.634   5.327  0.1706  0.0371 -0.0580
 2099ntf    fn416356   2.802   5.093   5.100  0.4193 -0.2168  0.4527
 2099ntf    fn416357   2.769   4.932   4.964 -0.4786 -0.1711 -0.2003
 2099ntf    fn416358   2.610   5.018   5.080  0.0880 -0.7132 -0.1559
 2099ntf    on516359   2.746   4.940   5.342 -0.7974 -0.1127  0.0516
 2099ntf    on516360   2.681   4.752   5.198 -0.2983  0.2677  0.2931
 2099ntf    on516361   3.020   4.873   5.424 -0.0179  0.5324 -0.5653
 2099ntf    on516362   3.169   4.820   5.233  0.0660  0.2191 -0.1711
 2099ntf    fn416363   3.127   4.595   5.419 -0.1872  0.0116  0.2761
 2099ntf    fn416364   2.924   4.587   5.373  0.2408  0.2055  0.2982
 2099ntf    fn416365   3.070   4.560   5.222  0.4364 -0.4406  0.3503
 2100ntf    cn116366   4.552   2.999   0.742 -0.1134  0.4503 -0.1354
 2100ntf    sn216367   4.612   2.983   0.912  0.2247 -0.1706 -0.3088
 2100ntf    nn316368   4.555   3.116   0.972 -0.4528 -0.4269 -0.3808
 2100ntf    sn216369   4.423   3.142   1.053  0.0264 -0.0694  0.2928
 2100ntf    cn116370   4.333   3.258   0.946 -0.0264 -0.1036  0.2994
 2100ntf    fn416371   4.582   2.888   0.676 -0.6862  0.2729 -0.1044
 2100ntf    fn416372   4.423   3.025   0.735 -0.2668 -0.2966 -0.1704
 2100ntf    fn416373   4.624   3.093   0.683 -0.1063  0.0629 -0.7562
 2100ntf    on516374   4.555   2.861   0.964  0.5827 -0.1537  0.1343
 2100ntf    on516375   4.756   2.998   0.909  0.2060  0.1682  0.1866
 2100ntf    on516376   4.456   3.214   1.174 -0.4270 -0.1419  0.4618
 2100ntf    on516377   4.341   3.025   1.076 -0.1455 -0.0077 -0.0107
 2100ntf    fn416378   4.275   3.210   0.838  0.3789  0.0160  0.0259
 2100ntf    fn416379   4.236   3.322   1.010 -0.3863  0.0893 -0.4303
 2100ntf    fn416380   4.411   3.354   0.897  0.0518 -0.2113  0.2123
 2101ntf    cn116381   2.155   2.853   0.010  0.2030 -0.2290  0.1103
 2101ntf    sn216382   2.257   2.714  -0.048 -0.0341 -0.3207 -0.0897
 2101ntf    nn316383   2.296   2.748  -0.196 -0.0831 -0.5469 -0.1539
 2101ntf    sn216384   2.202   2.724  -0.321 -0.2407  0.0748 -0.1549
 2101ntf    cn116385   2.213   2.889  -0.396  0.0461  0.3756  0.5317
 2101ntf    fn416386   2.025   2.832   0.008  0.2156 -0.3087  0.1274
 2101ntf    fn416387   2.176   2.896   0.133 -0.2627  0.2032  0.0435
 2101ntf    fn416388   2.186   2.954  -0.070 -0.1093 -0.0942  0.1606
 2101ntf    on516389   2.371   2.724   0.040 -0.0428  0.0393 -0.1171
 2101ntf    on516390   2.173   2.598  -0.031 -0.2617 -0.1428  0.0074
 2101ntf    on516391   2.061   2.718  -0.294 -0.2967 -0.4483 -0.5655
 2101ntf    on516392   2.268   2.632  -0.410  0.0525  0.0089  0.1276
 2101ntf    fn416393   2.167   2.987  -0.319 -0.6974  0.1342  0.4063
 2101ntf    fn416394   2.338   2.928  -0.414  0.1997 -0.3486  0.0222
 2101ntf    fn416395   2.149   2.908  -0.511  0.5585 -0.2782  0.1320
 2102ntf    cn116396   0.604   1.119   4.580 -0.2043  0.1273  0.2265
 2102ntf    sn216397   0.652   1.193   4.422  0.1477 -0.5633  0.0029
 2102ntf    nn316398   0.768   1.097   4.378  0.0454 -0.8153  0.2860
 2102ntf    sn216399   0.920   1.109   4.414 -0.0086 -0.1131  0.2872
 2102ntf    cn116400   0.967   1.206   4.267  0.0759 -0.6523 -0.0426
 2102ntf    fn416401   0.536   1.006   4.564  0.3465 -0.1922  0.1008
 2102ntf    fn416402   0.709   1.097   4.657  0.0663 -0.1415 -0.2152
 2102ntf    fn416403   0.532   1.206   4.650 -0.3673 -0.1139  0.3618
 2102ntf    on516404   0.538   1.172   4.335 -0.1707 -0.4768  0.3974
 2102ntf    on516405   0.688   1.331   4.446 -0.4587 -0.4140  0.0747
 2102ntf    on516406   0.990   0.984   4.403  0.0227 -0.0905  0.2269
 2102ntf    on516407   0.958   1.196   4.522 -0.7109  0.2852  0.2182
 2102ntf    fn416408   0.887   1.310   4.254  0.1307 -0.5660  0.3193
 2102ntf    fn416409   1.092   1.247   4.257 -0.0425 -0.2016  0.3134
 2102ntf    fn416410   0.947   1.140   4.154 -0.4026 -0.5223 -0.0373
 2103ntf    cn116411   6.085   5.677   4.097  0.1090  0.3609  0.0730
 2103ntf    sn216412   6.059   5.855   4.116 -0.2477  0.3024  0.1298
 2103ntf    nn316413   6.133   5.915   3.991 -0.2880 -0.0758 -0.0759
 2103ntf    sn216414   6.100   6.049   3.916 -0.0034  0.1419  0.1868
 2103ntf    cn116415   6.263   6.127   3.896  0.1549 -0.1500  0.3340
 2103ntf    fn416416   6.211   5.636   4.101  0.0090 -0.0127 -0.4333
 2103ntf    fn416417   6.015   5.614   4.189 -0.0602  0.1186 -0.2166
 2103ntf    fn416418   6.029   5.639   3.983 -0.1208 -0.3152  0.4004
 2103ntf    on516419   5.915   5.858   4.104 -0.2287  0.1669 -0.1448
 2103ntf    on516420   6.118   5.876   4.246  0.0554  0.3262 -0.0115
 2103ntf    on516421   6.037   6.140   4.008  0.3315  0.3249  0.2364
 2103ntf    on516422   6.047   6.033   3.783  0.4539  0.0171  0.0155
 2103ntf    fn416423   6.348   6.059   3.822 -0.0737  0.0568 -0.1197
 2103ntf    fn416424   6.252   6.247   3.842  0.0456 -0.2356  0.1675
 2103ntf    fn416425   6.321   6.142   4.015  0.2630 -0.5820  0.3364
 2104ntf    cn116426   2.221   1.551   5.573 -0.0004 -0.0754  0.0497
 2104ntf    sn216427   2.072   1.638   5.631  0.0044 -0.3253  0.4341
 2104ntf    nn316428   1.974   1.602   5.513 -0.3188  0.7770  0.3594
 2104ntf    sn216429   1.949   1.689   5.385  0.2070  0.1710 -0.1633
 2104ntf    cn116430   1.814   1.791   5.452  0.3422  0.1128  0.2015
 2104ntf    fn416431   2.206   1.420   5.574 -0.0190 -0.0852 -0.7591
 2104ntf    fn416432   2.258   1.583   5.449 -0.4030 -0.2615 -0.1196
 2104ntf    fn416433   2.322   1.592   5.648  0.3609 -0.1377 -0.3929
 2104ntf    on516434   2.035   1.559   5.746 -0.2657  0.1527  0.6789
 2104ntf    on516435   2.121   1.773   5.638 -0.3786 -0.1748  0.2441
 2104ntf    on516436   1.884   1.606   5.287 -0.0150  0.0825  0.0569
 2104ntf    on516437   2.051   1.779   5.338  0.3692  0.1054  0.0657
 2104ntf    fn416438   1.865   1.882   5.533  0.5512  0.0972  0.0872
 2104ntf    fn416439   1.737   1.849   5.361 -0.4713 -0.1653  0.7039
 2104ntf    fn416440   1.743   1.713   5.532 -0.1532  0.1225 -0.2187
 2105ntf    cn116441   6.025   0.257   4.998  0.1603 -0.1252 -0.1245
 2105ntf    sn216442   5.894   0.153   4.927 -0.0422  0.2672 -0.3298
 2105ntf    nn316443   5.933   0.144   4.776 -0.0873 -0.0400 -0.3242
 2105ntf    sn216444   5.956   0.267   4.681  0.2841  0.0193 -0.1579
 2105ntf    cn116445   6.130   0.243   4.632  0.4150  0.0293  0.2979
 2105ntf    fn416446   6.030   0.270   5.130  0.1598  0.2452 -0.1616
 2105ntf    fn416447   6.144   0.206   4.968  0.0272 -0.2520 -0.4387
 2105ntf    fn416448   6.015   0.385   4.968 -0.4654 -0.1086  0.1424
 2105ntf    on516449   5.914   0.029   4.999 -0.7947  0.5864  0.4465
 2105ntf    on516450   5.772   0.226   4.948 -0.1866  0.0040 -0.2531
 2105ntf    on516451   5.951   0.400   4.737  0.0573  0.0798 -0.3218
 2105ntf    on516452   5.894   0.248   4.552  0.3378  0.2168 -0.2134
 2105ntf    fn416453   6.217   0.261   4.730  0.2921  0.0496  0.4047
 2105ntf    fn416454   6.153   0.123   4.583 -0.1051  0.0413  0.0152
 2105ntf    fn416455   6.167   0.326   4.536 -0.3335 -0.1542 -0.1548
 2106ntf    cn116456   4.709   2.541   6.446 -0.0571  0.0122 -0.1142
 2106ntf    sn216457   4.804   2.387   6.430 -0.0164  0.0263 -0.0042
 2106ntf    nn316458   4.938   2.431   6.361  0.0406 -0.2191 -0.0528
 2106ntf    sn216459   5.068   2.477   6.437  0.1025 -0.2788 -0.1222
 2106ntf    cn116460   5.139   2.311   6.458  0.4041 -0.1244  0.0797
 2106ntf    fn416461   4.663   2.575   6.327 -0.3743 -0.0740 -0.0154
 2106ntf    fn416462   4.605   2.535   6.527  0.1006 -0.4533  0.0612
 2106ntf    fn416463   4.784   2.642   6.488  0.0381 -0.1800  0.1774
 2106ntf    on516464   4.813   2.342   6.567 -0.1449  0.1148  0.0333
 2106ntf    on516465   4.737   2.303   6.333 -0.2230  0.3640 -0.1527
 2106ntf    on516466   5.060   2.527   6.572  0.3421 -0.2976 -0.1016
 2106ntf    on516467   5.158   2.538   6.343 -0.8897  0.3822 -0.6565
 2106ntf    fn416468   5.056   2.223   6.510  0.2366 -0.0502 -0.0602
 2106ntf    fn416469   5.179   2.263   6.341  0.0873 -0.1974  0.0028
 2106ntf    fn416470   5.248   2.312   6.533  0.4873 -0.2814 -0.0393
 2107ntf    cn116471   5.441   4.419   0.664  0.3512 -0.1233 -0.3690
 2107ntf    sn216472   5.343   4.290   0.747  0.2474  0.2239  0.0547
 2107ntf    nn316473   5.373   4.322   0.897  0.0414  0.2945  0.0811
 2107ntf    sn216474   5.499   4.279   0.981  0.1029  0.2393 -0.0396
 2107ntf    cn116475   5.453   4.346   1.143 -0.1558 -0.3629  0.1398
 2107ntf    fn416476   5.566   4.440   0.702  0.1451  0.2999  0.0923
 2107ntf    fn416477   5.435   4.401   0.533  0.7477  0.0867 -0.4162
 2107ntf    fn416478   5.385   4.538   0.682 -0.3288 -0.5007  0.0335
 2107ntf    on516479   5.211   4.337   0.712  0.0717 -0.1348  0.2334
 2107ntf    on516480   5.382   4.163   0.691  0.4883  0.1754  0.3341
 2107ntf    on516481   5.624   4.333   0.934  0.0813 -0.1784 -0.5889
 2107ntf    on516482   5.497   4.137   1.009  0.6462  0.2037 -0.1682
 2107ntf    fn416483   5.371   4.268   1.211 -0.2306 -0.4479 -0.0496
 2107ntf    fn416484   5.553   4.372   1.227 -0.1512 -0.0030  0.0249
 2107ntf    fn416485   5.391   4.462   1.130  0.7888  0.0726 -0.5809
 2108ntf    cn116486   0.856   3.335   2.869 -0.4995  0.0884 -0.0872
 2108ntf    sn216487   0.920   3.500   2.913  0.3050 -0.2837  0.1605
 2108ntf    nn316488   0.854   3.585   2.799 -0.0713 -0.3601  0.3168
 2108ntf    sn216489   0.736   3.688   2.800  0.0777 -0.1773 -0.3065
 2108ntf    cn116490   0.815   3.841   2.859 -0.0462 -0.1731 -0.1488
 2108ntf    fn416491   0.726   3.331   2.844 -0.4951 -0.1368 -0.0755
 2108ntf    fn416492   0.916   3.289   2.760 -0.3470  0.1918 -0.0476
 2108ntf    fn416493   0.881   3.241   2.959 -1.1649  0.1534  0.1686
 2108ntf    on516494   0.870   3.523   3.047  0.7918  0.0866  0.2783
 2108ntf    on516495   1.062   3.481   2.910  0.3436  0.0186  0.0645
 2108ntf    on516496   0.639   3.675   2.907  0.2244 -0.2351 -0.1805
 2108ntf    on516497   0.697   3.714   2.664 -0.3647  0.2306 -0.1083
 2108ntf    fn416498   0.844   3.847   2.988  0.5142 -0.1331 -0.2727
 2108ntf    fn416499   0.933   3.866   2.806 -0.2431  0.2887 -0.3740
 2108ntf    fn416500   0.741   3.948   2.834  0.3156  0.1309  0.0814
 2109ntf    cn116501   5.748   4.724   5.339  0.3905  0.2589  0.4052
 2109ntf    sn216502   5.730   4.726   5.519 -0.2351  0.0851  0.3439
 2109ntf    nn316503   5.603   4.635   5.534 -0.3995  0.2512 -0.0305
 2109ntf    sn216504   5.456   4.667   5.580 -0.3969  0.3309 -0.0788
 2109ntf    cn116505   5.370   4.546   5.474 -0.0715 -0.1894  0.2490
 2109ntf    fn416506   5.840   4.807   5.290  0.4083  0.3173  0.5376
 2109ntf    fn416507   5.784   4.600   5.311  0.2747  0.2909  0.1060
 2109ntf    fn416508   5.637   4.741   5.269  0.6132 -0.2576 -0.0786
 2109ntf    on516509   5.855   4.679   5.572 -0.2644  0.2449  0.5592
 2109ntf    on516510   5.712   4.867   5.540 -0.3642  0.1187  0.0051
 2109ntf    on516511   5.403   4.794   5.536  0.1806  0.6245  0.0607
 2109ntf    on516512   5.421   4.623   5.713 -0.0437  0.0512 -0.0760
 2109ntf    fn416513   5.412   4.421   5.479  0.2833 -0.1194 -0.7396
 2109ntf    fn416514   5.238   4.554   5.487 -0.0596 -0.1934  0.3724
 2109ntf    fn416515   5.382   4.580   5.347  0.0812 -0.1191  0.2825
 2110ntf    cn116516   0.196   1.209   2.739 -0.2143 -0.0317 -0.0251
 2110ntf    sn216517   0.103   1.266   2.594 -0.3256  0.0190  0.0661
 2110ntf    nn316518   0.070   1.412   2.641 -0.2311 -0.1652  0.7143
 2110ntf    sn216519  -0.061   1.499   2.654 -0.2666 -0.0990 -0.0255
 2110ntf    cn116520  -0.097   1.479   2.831 -0.1265  0.1425  0.0312
 2110ntf    fn416521   0.318   1.261   2.747  0.0428 -0.6689  0.3625
 2110ntf    fn416522   0.149   1.246   2.857  0.4084  0.1264  0.1807
 2110ntf    fn416523   0.209   1.077   2.742  0.2565  0.0135  0.0967
 2110ntf    on516524   0.194   1.258   2.482 -0.3501  0.3535  0.0193
 2110ntf    on516525  -0.012   1.181   2.607 -0.1852 -0.1941 -0.0902
 2110ntf    on516526  -0.176   1.461   2.577 -0.5239 -0.3406  0.4764
 2110ntf    on516527  -0.022   1.637   2.645 -0.3587 -0.0784 -0.1011
 2110ntf    fn416528  -0.170   1.371   2.856  0.4138 -0.2537 -0.0833
 2110ntf    fn416529   0.015   1.473   2.901 -0.2179 -0.4356  0.1342
 2110ntf    fn416530  -0.172   1.584   2.862  0.0021  0.2958 -0.1786
 2111ntf    cn116531   6.594   5.748   5.140 -0.5976 -0.2656  0.0223
 2111ntf    sn216532   6.770   5.733   5.097 -0.5412  0.1588  0.0956
 2111ntf    nn316533   6.764   5.626   4.981 -0.3234 -0.0457  0.2709
 2111ntf    sn216534   6.736   5.659   4.830  0.2207 -0.2367  0.1253
 2111ntf    cn116535   6.903   5.664   4.758  0.2798  0.2621  0.2916
 2111ntf    fn416536   6.549   5.624   5.153  0.1423 -0.5555 -0.1456
 2111ntf    fn416537   6.579   5.814   5.254  0.5384  0.0816 -0.0147
 2111ntf    fn416538   6.514   5.801   5.050 -0.0922 -0.1982 -0.3929
 2111ntf    on516539   6.814   5.865   5.061  0.2022 -0.1126 -0.0161
 2111ntf    on516540   6.828   5.677   5.217 -0.3030 -0.0814 -0.1279
 2111ntf    on516541   6.685   5.791   4.803  0.8434  0.0950  0.5642
 2111ntf    on516542   6.668   5.552   4.761  0.1036 -0.3459  0.4051
 2111ntf    fn416543   6.972   5.557   4.794  0.0905  0.0152 -0.0696
 2111ntf    fn416544   6.898   5.652   4.627 -0.4626  0.4236  0.3005
 2111ntf    fn416545   6.976   5.768   4.794  0.5743  0.0385  0.3389
 2112ntf    cn116546   2.544   2.239   1.856  0.1648 -0.3168  0.0215
 2112ntf    sn216547   2.656   2.190   1.990  0.2171 -0.3244 -0.0246
 2112ntf    nn316548   2.779   2.130   1.911  0.0125 -0.0387 -0.5622
 2112ntf    sn216549   2.861   1.998   1.928  0.0948  0.0991  0.1709
 2112ntf    cn116550   3.018   2.062   1.861 -0.1047 -0.0456 -0.4466
 2112ntf    fn416551   2.525   2.138   1.772 -0.6051 -0.2002  0.0522
 2112ntf    fn416552   2.428   2.286   1.897  0.2295 -0.0683 -0.0751
 2112ntf    fn416553   2.597   2.341   1.790 -0.0303 -0.0719  0.2443
 2112ntf    on516554   2.679   2.312   2.063 -0.7271 -0.5504  0.6716
 2112ntf    on516555   2.581   2.097   2.071  0.6188 -0.1288  0.5769
 2112ntf    on516556   2.821   1.898   1.831  0.3313 -0.0792  0.2560
 2112ntf    on516557   2.892   1.962   2.064 -0.1828  0.3637  0.3047
 2112ntf    fn416558   3.054   2.174   1.922  0.5218 -0.2043 -0.5175
 2112ntf    fn416559   3.116   1.976   1.886  0.3261  0.4905 -0.2670
 2112ntf    fn416560   3.019   2.101   1.735 -0.9203 -0.1010 -0.4754
 2113ntf    cn116561   5.969   4.008   2.942 -0.0074 -0.5768 -0.0079
 2113ntf    sn216562   5.951   4.119   2.799 -0.0045 -0.2640  0.2345
 2113ntf    nn316563   5.821   4.197   2.839 -0.0576 -0.0287 -0.3803
 2113ntf    sn216564   5.680   4.217   2.774 -0.2779  0.2489  0.1768
 2113ntf    cn116565   5.687   4.390   2.717  0.4970  0.0744 -0.2573
 2113ntf    fn416566   6.059   3.912   2.929 -0.4219 -0.8619 -0.8635
 2113ntf    fn416567   6.000   4.078   3.049  0.3303 -0.0860 -0.4200
 2113ntf    fn416568   5.853   3.953   2.973 -0.3500  0.1549  0.0300
 2113ntf    on516569   6.069   4.201   2.799 -0.1181 -0.0993 -0.4091
 2113ntf    on516570   5.928   4.034   2.685  0.4389 -0.3455  0.2048
 2113ntf    on516571   5.581   4.207   2.879 -0.5062 -0.3182 -0.0921
 2113ntf    on516572   5.654   4.138   2.657  0.5068  0.1041  0.1000
 2113ntf    fn416573   5.570   4.436   2.676  0.3500 -0.3879 -0.3613
 2113ntf    fn416574   5.718   4.469   2.818 -0.0071 -0.3656  0.2449
 2113ntf    fn416575   5.776   4.396   2.618  0.4426 -0.0640 -0.3155
 2114ntf    cn116576   2.231   6.776   0.833 -0.2881 -0.0411 -0.0232
 2114ntf    sn216577   2.193   6.755   1.009  0.1136 -0.0014  0.0710
 2114ntf    nn316578   2.055   6.831   1.006  0.1253  0.0164 -0.0322
 2114ntf    sn216579   2.014   6.958   1.090  0.2081 -0.1448  0.2555
 2114ntf    cn116580   2.093   7.087   0.990  0.1518 -0.0895  0.2824
 2114ntf    fn416581   2.142   6.717   0.756 -0.5428 -0.1341  0.3412
 2114ntf    fn416582   2.223   6.903   0.796 -0.3026  0.0639  0.3353
 2114ntf    fn416583   2.346   6.719   0.802  0.1457  0.7849  0.0172
 2114ntf    on516584   2.175   6.613   1.019  0.3362 -0.0470 -0.1722
 2114ntf    on516585   2.304   6.808   1.084  0.2733 -0.2003 -0.0253
 2114ntf    on516586   2.080   6.975   1.217  0.5044  0.4533  0.0211
 2114ntf    on516587   1.874   6.992   1.078  0.2185 -0.1973 -0.0251
 2114ntf    fn416588   2.219   7.053   0.967  0.0654  0.2156 -0.7032
 2114ntf    fn416589   2.045   7.102   0.867 -0.1281 -0.8427  0.2959
 2114ntf    fn416590   2.093   7.203   1.054  0.1478  0.0623  0.0118
 2115ntf    cn116591   2.287   0.627   4.156 -0.2371  0.1091 -0.0309
 2115ntf    sn216592   2.453   0.662   4.220 -0.2444 -0.1429  0.1247
 2115ntf    nn316593   2.469   0.535   4.312 -0.2630 -0.3927 -0.2119
 2115ntf    sn216594   2.565   0.495   4.429 -0.5381  0.1719  0.2158
 2115ntf    cn116595   2.643   0.358   4.337 -0.0016  0.4677  0.2230
 2115ntf    fn416596   2.258   0.499   4.142  0.5456 -0.0198 -0.5656
 2115ntf    fn416597   2.193   0.680   4.232  0.2245  0.2572  0.4411
 2115ntf    fn416598   2.268   0.688   4.040  0.1770  0.3249  0.0126
 2115ntf    on516599   2.540   0.660   4.105 -0.1685  0.0550  0.1798
 2115ntf    on516600   2.435   0.790   4.283  0.1859  0.1096 -0.2586
 2115ntf    on516601   2.509   0.442   4.550 -0.0286  0.0307  0.3956
 2115ntf    on516602   2.672   0.591   4.447 -0.3637 -0.0013  0.1110
 2115ntf    fn416603   2.704   0.393   4.225  0.2395  0.1263  0.2470
 2115ntf    fn416604   2.734   0.302   4.415 -0.0045 -0.3803 -0.3732
 2115ntf    fn416605   2.557   0.265   4.298 -0.0110  0.5533  0.0388
 2116ntf    cn116606   3.873   2.273   2.253  0.3384 -0.2387  0.3497
 2116ntf    sn216607   3.720   2.241   2.346 -0.0469  0.0839 -0.1661
 2116ntf    nn316608   3.619   2.265   2.228 -0.0187  0.2314 -0.1600
 2116ntf    sn216609   3.546   2.168   2.129  0.1885 -0.1630  0.0728
 2116ntf    cn116610   3.372   2.215   2.152  0.1953 -0.0235 -0.1582
 2116ntf    fn416611   3.981   2.292   2.327  0.4244  0.2562  0.1045
 2116ntf    fn416612   3.906   2.167   2.182 -0.3412 -0.4001  0.2665
 2116ntf    fn416613   3.855   2.372   2.166 -0.3424 -0.3588  0.3471
 2116ntf    on516614   3.736   2.109   2.402 -0.5476  0.0704 -0.0535
 2116ntf    on516615   3.718   2.353   2.436 -0.3617 -0.2281  0.2164
 2116ntf    on516616   3.550   2.028   2.162  0.1956 -0.0881  0.3909
 2116ntf    on516617   3.572   2.185   1.988  0.1461 -0.5193  0.0192
 2116ntf    fn416618   3.303   2.168   2.049  0.0613  0.0171 -0.0866
 2116ntf    fn416619   3.313   2.182   2.266 -0.2941  0.3977 -0.2824
 2116ntf    fn416620   3.360   2.346   2.144  0.3003 -0.0075 -0.0579
 2117ntf    cn116621   0.723   1.486   6.734 -0.0304  0.2959  0.5893
 2117ntf    sn216622   0.600   1.620   6.733 -0.2279  0.1126  0.0599
 2117ntf    nn316623   0.495   1.577   6.624 -0.0673  0.2201 -0.1367
 2117ntf    sn216624   0.369   1.487   6.644  0.2424 -0.2037 -0.0889
 2117ntf    cn116625   0.238   1.612   6.630  0.3273 -0.0786  0.2392
 2117ntf    fn416626   0.677   1.373   6.784 -0.3891  0.3151  0.2998
 2117ntf    fn416627   0.759   1.460   6.610 -0.0505  0.1252  0.6196
 2117ntf    fn416628   0.836   1.525   6.791  0.3045  0.0190  0.1128
 2117ntf    on516629   0.548   1.622   6.868  0.1877 -0.4470  0.2335
 2117ntf    on516630   0.679   1.734   6.694 -0.4463  0.0842 -0.4729
 2117ntf    on516631   0.359   1.423   6.773  0.0443  0.4127  0.2041
 2117ntf    on516632   0.340   1.405   6.529  0.1225 -0.0206 -0.1901
 2117ntf    fn416633   0.233   1.679   6.516  0.2722 -0.1298  0.2117
 2117ntf    fn416634   0.117   1.559   6.645  0.0157  0.6604  0.3771
 2117ntf    fn416635   0.251   1.713   6.714 -0.3985  0.3588 -0.1672
 2118ntf    cn116636   1.882   2.552   0.262  0.4955 -0.0693  0.1430
 2118ntf    sn216637   1.725   2.616   0.326  0.1707 -0.3315 -0.3813
 2118ntf    nn316638   1.771   2.744   0.405 -0.6944 -0.0591 -0.3093
 2118ntf    sn216639   1.728   2.809   0.541  0.3217 -0.0827  0.0334
 2118ntf    cn116640   1.617   2.941   0.482  0.0501 -0.3587 -0.0732
 2118ntf    fn416641   1.943   2.621   0.167 -0.0632 -0.1283 -0.2649
 2118ntf    fn416642   1.969   2.532   0.359 -0.1477  0.4801  0.8393
 2118ntf    fn416643   1.848   2.438   0.203  0.0282  0.1481 -0.0087
 2118ntf    on516644   1.643   2.645   0.211  0.2419 -0.1506 -0.3871
 2118ntf    on516645   1.678   2.506   0.406 -0.8082 -0.1629 -0.7134
 2118ntf    on516646   1.838   2.876   0.606 -0.3714  0.1232  1.0219
 2118ntf    on516647   1.645   2.725   0.624 -0.0972 -0.0664 -0.3660
 2118ntf    fn416648   1.677   3.039   0.416 -0.2310 -0.2062 -0.1032
 2118ntf    fn416649   1.512   2.900   0.413 -0.0825 -0.0201 -0.0747
 2118ntf    fn416650   1.564   2.993   0.591 -0.2895 -0.3023 -0.2638
 2119ntf    cn116651   5.407   0.586   2.174  0.1341 -0.1369 -0.0237
 2119ntf    sn216652   5.441   0.521   2.341  0.2292 -0.1558 -0.0507
 2119ntf    nn316653   5.348   0.611   2.429 -0.0249 -0.4987  0.0356
 2119ntf    sn216654   5.359   0.757   2.486  0.2790 -0.4541 -0.1402
 2119ntf    cn116655   5.214   0.837   2.411  0.0981 -0.6755 -0.0254
 2119ntf    fn416656   5.431   0.716   2.169  0.1556 -0.1427 -0.0658
 2119ntf    fn416657   5.487   0.527   2.087 -0.0875 -0.0735 -0.2725
 2119ntf    fn416658   5.282   0.569   2.132  0.1740  0.2912 -0.3167
 2119ntf    on516659   5.372   0.395   2.328 -0.0464  0.0631 -0.7733
 2119ntf    on516660   5.584   0.524   2.356  0.2884  0.0048 -0.6142
 2119ntf    on516661   5.467   0.838   2.433 -0.3169  0.4312 -0.0143
 2119ntf    on516662   5.332   0.769   2.627  0.4306 -0.8233 -0.0792
 2119ntf    fn416663   5.103   0.769   2.435 -0.2905 -0.0064  0.0888
 2119ntf    fn416664   5.187   0.952   2.470 -0.6191 -0.6950 -0.3064
 2119ntf    fn416665   5.225   0.857   2.281  0.1683  0.0583  0.0899
 2120ntf    cn116666   1.377   6.280   5.058  0.1803  0.0449  0.1366
 2120ntf    sn216667   1.207   6.254   5.117  0.0095  0.0227 -0.3683
 2120ntf    nn316668   1.228   6.258   5.272 -0.2630 -0.0157 -0.3296
 2120ntf    sn216669   1.150   6.177   5.382  0.0206 -0.1476 -0.2227
 2120ntf    cn116670   1.291   6.106   5.472 -0.2782 -0.1656  0.2348
 2120ntf    fn416671   1.435   6.396   5.085  0.0428  0.1639 -0.0774
 2120ntf    fn416672   1.462   6.192   5.108  0.2017 -0.0349 -0.0401
 2120ntf    fn416673   1.382   6.268   4.927 -0.0328 -0.2100  0.1521
 2120ntf    on516674   1.150   6.374   5.060  0.1477  0.1256 -0.2905
 2120ntf    on516675   1.173   6.129   5.053 -0.1842  0.0778 -0.3739
 2120ntf    on516676   1.067   6.069   5.335 -0.1638 -0.2727  0.3846
 2120ntf    on516677   1.089   6.269   5.475  0.1698 -0.4174  0.1383
 2120ntf    fn416678   1.262   6.069   5.595  0.1843  0.0563  0.4131
 2120ntf    fn416679   1.331   5.995   5.411  0.0651  0.3257 -0.4491
 2120ntf    fn416680   1.395   6.188   5.477 -0.6183  0.3118 -0.3149
 2121ntf    cn116681   6.187   0.624   6.217  0.1303 -0.1816  0.0025
 2121ntf    sn216682   6.047   0.530   6.149 -0.0757  0.3420 -0.3042
 2121ntf    nn316683   6.103   0.509   6.004 -0.1858 -0.1862 -0.2736
 2121ntf    sn216684   6.091   0.604   5.879 -0.0156 -0.1881 -0.2911
 2121ntf    cn116685   5.940   0.541   5.799 -0.2592  0.0929 -0.0511
 2121ntf    fn416686   6.150   0.671   6.335 -0.3742  0.1408 -0.2820
 2121ntf    fn416687   6.288   0.544   6.246 -0.0562 -0.1940  0.6382
 2121ntf    fn416688   6.239   0.721   6.144  0.3076 -0.3035 -0.0358
 2121ntf    on516689   6.042   0.409   6.228 -0.7236  0.6032  0.0595
 2121ntf    on516690   5.936   0.620   6.167  0.0176  0.3938  0.0078
 2121ntf    on516691   6.184   0.570   5.774  0.3238 -0.1648  0.0009
 2121ntf    on516692   6.057   0.742   5.902  0.1001 -0.1479 -0.3573
 2121ntf    fn416693   5.832   0.537   5.875 -0.0088 -0.0595  0.2979
 2121ntf    fn416694   5.912   0.619   5.696 -0.0819  0.8103  0.4340
 2121ntf    fn416695   5.951   0.417   5.755  0.4440  0.3408 -0.5952
 2122ntf    cn116696   1.515   2.254   6.127  0.2068 -0.1681  0.3990
 2122ntf    sn216697   1.580   2.403   6.046  0.2471 -0.3322  0.1270
 2122ntf    nn316698   1.615   2.350   5.903 -0.0656  0.2278 -0.1593
 2122ntf    sn216699   1.756   2.305   5.851 -0.0556 -0.0996  0.1471
 2122ntf    cn116700   1.713   2.213   5.700  0.3370 -0.0938  0.0326
 2122ntf    fn416701   1.605   2.161   6.154  0.4335 -0.1768 -0.3722
 2122ntf    fn416702   1.455   2.291   6.239 -0.0324  0.0697  0.1941
 2122ntf    fn416703   1.423   2.202   6.046  0.4807 -0.0488  0.0099
 2122ntf    on516704   1.463   2.487   6.043  0.3646 -0.1662  0.1715
 2122ntf    on516705   1.690   2.447   6.128 -0.0004  0.5474  0.0017
 2122ntf    on516706   1.827   2.204   5.926  0.2289  0.3689  0.5139
 2122ntf    on516707   1.831   2.412   5.791 -0.3249  0.2852  0.4999
 2122ntf    fn416708   1.653   2.284   5.605 -0.2355 -0.1292  0.3703
 2122ntf    fn416709   1.822   2.160   5.647  0.0465 -0.2740 -0.3962
 2122ntf    fn416710   1.629   2.116   5.732  0.4695 -0.1893  0.0950
 2123ntf    cn116711   1.760   5.656   0.435 -0.0918  0.0773 -0.2062
 2123ntf    sn216712   1.933   5.600   0.423 -0.0907 -0.0172  0.2250
 2123ntf    nn316713   1.933   5.480   0.524  0.1767  0.0853  0.3472
 2123ntf    sn216714   2.013   5.345   0.515 -0.1916 -0.1003 -0.2395
 2123ntf    cn116715   1.888   5.226   0.459 -0.0195 -0.4170  0.0437
 2123ntf    fn416716   1.736   5.740   0.535 -0.2731 -0.0339 -0.1549
 2123ntf    fn416717   1.719   5.713   0.323 -0.7934  0.3413  0.1825
 2123ntf    fn416718   1.678   5.555   0.457  0.2821 -0.1970 -0.0485
 2123ntf    on516719   1.955   5.570   0.284  0.0153 -0.3010  0.3036
 2123ntf    on516720   2.005   5.714   0.475  0.0362  0.2431 -0.5099
 2123ntf    on516721   2.047   5.297   0.647  0.5505 -0.4806 -0.5610
 2123ntf    on516722   2.119   5.327   0.419 -0.2983 -0.3641 -0.3060
 2123ntf    fn416723   1.782   5.239   0.537  0.3177  0.3071  0.3947
 2123ntf    fn416724   1.843   5.244   0.336 -0.7527  0.1007  0.3777
 2123ntf    fn416725   1.917   5.098   0.475  0.6760 -0.1969  0.5923
 2124ntf    cn116726   3.400   6.611   2.779 -0.4784 -0.1892  0.0429
 2124ntf    sn216727   3.295   6.676   2.645  0.0798  0.2436 -0.1844
 2124ntf    nn316728   3.359   6.818   2.624 -0.0295  0.2825 -0.2535
 2124ntf    sn216729   3.314   6.963   2.664 -0.1205  0.0566  0.4873
 2124ntf    cn116730   3.203   7.005   2.525  0.3939  0.1357  0.0971
 2124ntf    fn416731   3.518   6.585   2.726 -0.6229  0.0849 -0.4118
 2124ntf    fn416732   3.405   6.700   2.877 -0.0928 -0.1667  0.0046
 2124ntf    fn416733   3.347   6.502   2.832  0.2612 -0.5733 -0.0015
 2124ntf    on516734   3.322   6.593   2.530  0.1140  0.4808 -0.3478
 2124ntf    on516735   3.162   6.658   2.696  0.2947  0.5581  0.5038
 2124ntf    on516736   3.422   7.056   2.639  0.1387 -0.2928  0.3005
 2124ntf    on516737   3.233   6.975   2.782 -0.3939  0.0742  0.2995
 2124ntf    fn416738   3.274   7.026   2.416 -0.4137  0.2517 -0.4058
 2124ntf    fn416739   3.115   6.909   2.500  0.4843 -0.0579  0.4987
 2124ntf    fn416740   3.143   7.121   2.543 -0.1280 -0.0751 -0.2845
 2125ntf    cn116741   0.589   2.915   3.862 -0.3704  0.0069  0.0132
 2125ntf    sn216742   0.565   2.759   3.954  0.3211 -0.1917 -0.1359
 2125ntf    nn316743   0.619   2.791   4.097 -0.3037 -0.5410  0.1821
 2125ntf    sn216744   0.605   2.931   4.168  0.2884 -0.3341 -0.1047
 2125ntf    cn116745   0.622   2.871   4.339  0.3831  0.0355  0.0174
 2125ntf    fn416746   0.717   2.946   3.850 -0.3734 -0.0723 -0.2226
 2125ntf    fn416747   0.542   2.905   3.739 -0.1566 -0.3879 -0.0378
 2125ntf    fn416748   0.518   3.013   3.915  0.3216  0.5330 -0.0252
 2125ntf    on516749   0.423   2.732   3.947  0.2754 -0.1027  0.4256
 2125ntf    on516750   0.655   2.667   3.890  0.6178 -0.2419  0.3476
 2125ntf    on516751   0.473   2.988   4.167  0.3461 -0.1955  0.1495
 2125ntf    on516752   0.722   3.014   4.150 -0.0979  0.1455 -0.4219
 2125ntf    fn416753   0.740   2.823   4.371 -0.0563 -0.6748  0.6082
 2125ntf    fn416754   0.596   2.963   4.430 -0.3676  0.1666 -0.3161
 2125ntf    fn416755   0.535   2.774   4.365  0.4212 -0.2476 -0.8441
 2126ntf    cn116756   0.200   2.148   2.428 -0.3215  0.0782 -0.4432
 2126ntf    sn216757   0.283   1.987   2.420 -0.3356  0.0545 -0.1287
 2126ntf    nn316758   0.315   1.976   2.267  0.2879  0.1409 -0.0087
 2126ntf    sn216759   0.452   1.976   2.191  0.1688 -0.0567 -0.2225
 2126ntf    cn116760   0.410   1.837   2.080 -0.0578 -0.3203  0.1911
 2126ntf    fn416761   0.259   2.229   2.342 -0.4858  0.2793 -0.3686
 2126ntf    fn416762   0.068   2.144   2.416 -0.4003  0.2218  0.2976
 2126ntf    fn416763   0.211   2.201   2.549 -0.3901 -0.1998 -0.3152
 2126ntf    on516764   0.395   1.991   2.511 -0.2857  0.6218 -0.2158
 2126ntf    on516765   0.180   1.896   2.463  0.1717 -0.2805  0.3916
 2126ntf    on516766   0.565   1.925   2.264  0.0267  0.1854  0.1641
 2126ntf    on516767   0.475   2.083   2.097  0.0665 -0.1930 -0.4035
 2126ntf    fn416768   0.390   1.727   2.150  0.0329 -0.2972  0.2530
 2126ntf    fn416769   0.304   1.865   2.004  0.3232 -0.2485 -0.3178
 2126ntf    fn416770   0.509   1.815   1.995 -0.2834 -0.2699 -0.0876
 2127ntf    cn116771   5.159   4.927   0.561  0.1951 -0.7051 -0.3227
 2127ntf    sn216772   5.030   4.972   0.441  0.0133 -0.2326  0.0461
 2127ntf    nn316773   5.122   5.040   0.334  0.3866 -0.9017 -0.0597
 2127ntf    sn216774   5.186   4.973   0.207 -0.0462 -0.1086 -0.7081
 2127ntf    cn116775   5.092   5.057   0.077 -0.3932 -0.4269 -0.6649
 2127ntf    fn416776   5.223   4.814   0.538  0.4146 -0.6500  0.0105
 2127ntf    fn416777   5.249   5.022   0.581 -0.2952 -0.3559  0.2754
 2127ntf    fn416778   5.112   4.914   0.684  0.0350  0.5159 -0.2424
 2127ntf    on516779   4.961   4.850   0.408 -0.0192 -0.1189 -0.3111
 2127ntf    on516780   4.960   5.082   0.504  0.0078 -0.1001 -0.1913
 2127ntf    on516781   5.157   4.834   0.183  0.0478 -0.1849 -0.3930
 2127ntf    on516782   5.318   5.025   0.177  0.1785 -0.1732  0.1432
 2127ntf    fn416783   5.107   5.007  -0.045  0.2029  0.1962 -0.8551
 2127ntf    fn416784   4.961   5.053   0.097 -0.3576  1.0327  0.0084
 2127ntf    fn416785   5.116   5.187   0.079 -0.0714 -0.4939  0.1079
 2128ntf    cn116786   4.740   5.638   1.217 -0.1787  0.0861 -0.0279
 2128ntf    sn216787   4.726   5.812   1.164 -0.0079  0.1895  0.2675
 2128ntf    nn316788   4.725   5.901   1.294 -0.4299  0.1698  0.2803
 2128ntf    sn216789   4.833   5.984   1.371 -0.1430 -0.1474  0.2237
 2128ntf    cn116790   4.850   5.890   1.526  0.1832 -0.0462  0.2507
 2128ntf    fn416791   4.640   5.588   1.288  0.1005 -0.3712  0.0472
 2128ntf    fn416792   4.767   5.551   1.121 -0.3159  0.3684 -0.3236
 2128ntf    fn416793   4.842   5.628   1.300 -0.2187  0.0616  0.0183
 2128ntf    on516794   4.838   5.826   1.075 -0.5651 -0.4579 -0.5523
 2128ntf    on516795   4.592   5.819   1.112  0.0666 -0.1887  0.0211
 2128ntf    on516796   4.791   6.114   1.420 -0.1635 -0.1086  0.1037
 2128ntf    on516797   4.967   5.978   1.317 -0.1164 -0.2950  0.3062
 2128ntf    fn416798   4.887   5.766   1.499 -0.3282 -0.1807  0.1571
 2128ntf    fn416799   4.941   5.946   1.604 -0.0202 -0.0046  0.4596
 2128ntf    fn416800   4.737   5.880   1.594 -0.1517  0.6141 -0.1972
 2129ntf    cn116801   4.774   5.230   5.811 -0.3004 -0.0373  0.3109
 2129ntf    sn216802   4.669   5.312   5.935 -0.2254  0.6245 -0.0586
 2129ntf    nn316803   4.740   5.452   5.943  0.3019  0.3406  0.3314
 2129ntf    sn216804   4.708   5.583   5.862 -0.2376 -0.0465 -0.0909
 2129ntf    cn116805   4.599   5.653   5.990 -0.1803 -0.3848  0.1475
 2129ntf    fn416806   4.902   5.250   5.840 -0.2461 -0.0023  0.0494
 2129ntf    fn416807   4.751   5.101   5.798 -0.1299 -0.0900  0.5155
 2129ntf    fn416808   4.751   5.280   5.691  0.0965  0.0001  0.2465
 2129ntf    on516809   4.541   5.312   5.869 -0.2400 -0.4436 -0.0454
 2129ntf    on516810   4.678   5.243   6.061 -0.4875  0.1867 -0.2744
 2129ntf    on516811   4.622   5.567   5.747  0.0789 -0.6556 -0.2463
 2129ntf    on516812   4.815   5.678   5.854  0.4642 -0.8394 -0.2692
 2129ntf    fn416813   4.504   5.568   6.024 -0.6881  0.1690  0.1325
 2129ntf    fn416814   4.664   5.675   6.103  0.4934  0.6039 -0.4131
 2129ntf    fn416815   4.545   5.772   5.965 -0.4034 -0.4151  0.4916
 2130ntf    cn116816   5.301   1.180   3.650 -0.1046 -0.2985 -0.1541
 2130ntf    sn216817   5.123   1.217   3.657 -0.0409 -0.0612  0.1931
 2130ntf    nn316818   5.117   1.266   3.806  0.1244 -0.2670  0.2679
 2130ntf    sn216819   5.004   1.257   3.915  0.0246 -0.0030  0.1873
 2130ntf    cn116820   5.073   1.136   4.032 -0.1635  0.0504  0.3533
 2130ntf    fn416821   5.371   1.271   3.714  0.2563 -0.2610 -0.5977
 2130ntf    fn416822   5.322   1.060   3.702 -0.1333 -0.1503  0.2036
 2130ntf    fn416823   5.351   1.159   3.529  0.4500 -0.4991  0.1060
 2130ntf    on516824   5.095   1.325   3.565 -0.0915  0.0422  0.3286
 2130ntf    on516825   5.064   1.089   3.631 -0.4216  0.2975 -0.7442
 2130ntf    on516826   4.879   1.202   3.871  0.1235  0.1959 -0.3531
 2130ntf    on516827   4.994   1.373   4.001  0.2772 -0.1621  0.4352
 2130ntf    fn416828   4.983   1.091   4.119 -0.3621 -0.3565 -0.0614
 2130ntf    fn416829   5.118   1.026   3.976  0.0988  0.0204  0.6172
 2130ntf    fn416830   5.171   1.189   4.104  0.7102  0.2818 -0.9846
 2131ntf    cn116831   3.313   1.012   4.233  0.1050 -0.1048  0.1548
 2131ntf    sn216832   3.256   1.002   4.061 -0.0211 -0.2266  0.2024
 2131ntf    nn316833   3.101   0.996   4.086 -0.0686 -0.1679 -0.0723
 2131ntf    sn216834   2.986   1.074   4.014 -0.0346 -0.0183  0.0356
 2131ntf    cn116835   2.884   0.946   3.934 -0.3245  0.2692 -0.0561
 2131ntf    fn416836   3.438   1.054   4.241  0.1651 -0.2181 -0.1884
 2131ntf    fn416837   3.245   1.105   4.299  0.3891 -0.0373  0.3525
 2131ntf    fn416838   3.297   0.896   4.294 -0.4130 -0.0649  0.1053
 2131ntf    on516839   3.304   1.124   3.999 -0.3334 -0.1418  0.1231
 2131ntf    on516840   3.299   0.876   4.007  0.2044 -0.2074  0.3350
 2131ntf    on516841   3.028   1.162   3.908 -0.0827 -0.3552 -0.2671
 2131ntf    on516842   2.897   1.130   4.113 -0.6751  0.0770 -0.5803
 2131ntf    fn416843   2.938   0.868   3.842 -0.0585  0.0175  0.3169
 2131ntf    fn416844   2.840   0.860   4.023 -0.5398  0.5658  0.1264
 2131ntf    fn416845   2.773   0.991   3.878 -0.1120  0.6289 -0.1960
 2132ntf    cn116846   2.701   5.721   4.061 -0.0785  0.1872  0.1519
 2132ntf    sn216847   2.600   5.703   4.212 -0.2513 -0.1794 -0.0063
 2132ntf    nn316848   2.598   5.854   4.256  0.1115 -0.2093  0.1205
 2132ntf    sn216849   2.477   5.955   4.256 -0.0733 -0.4292 -0.1081
 2132ntf    cn116850   2.406   5.930   4.421  0.4015  0.1785  0.1890
 2132ntf    fn416851   2.807   5.797   4.081 -0.2702  0.4551  0.1573
 2132ntf    fn416852   2.731   5.605   4.007 -0.0652  0.5063 -0.5296
 2132ntf    fn416853   2.618   5.772   3.972 -0.3421 -0.2286  0.1541
 2132ntf    on516854   2.479   5.641   4.164 -0.0155 -0.0752 -0.7565
 2132ntf    on516855   2.685   5.623   4.296  0.5052  0.7070  0.0944
 2132ntf    on516856   2.371   5.914   4.167  0.0811 -0.1086 -0.4419
 2132ntf    on516857   2.526   6.091   4.256 -0.2284 -0.3733 -0.3444
 2132ntf    fn416858   2.299   6.003   4.445  0.5453  0.3395  0.3504
 2132ntf    fn416859   2.369   5.804   4.432  0.4375  0.1135 -0.4064
 2132ntf    fn416860   2.489   5.960   4.520  0.5116  0.3997  0.0329
 2133ntf    cn116861   0.504   6.756   6.553  0.0592 -0.1793  0.1862
 2133ntf    sn216862   0.499   6.819   6.723  0.0653  0.0153  0.1157
 2133ntf    nn316863   0.540   6.687   6.797  0.1744  0.0976  0.2021
 2133ntf    sn216864   0.482   6.586   6.903 -0.0730 -0.0391 -0.0640
 2133ntf    cn116865   0.493   6.436   6.801  0.5301 -0.0490  0.0109
 2133ntf    fn416866   0.409   6.667   6.534 -0.1651  0.0109  0.4124
 2133ntf    fn416867   0.498   6.850   6.459 -0.3542 -0.4740 -0.0826
 2133ntf    fn416868   0.611   6.684   6.523  0.4268  0.1993  0.5752
 2133ntf    on516869   0.598   6.924   6.718  0.1286 -0.0358  0.2630
 2133ntf    on516870   0.364   6.865   6.745  0.0412 -0.1405  0.3068
 2133ntf    on516871   0.340   6.602   6.924 -0.0419 -0.0584  0.1604
 2133ntf    on516872   0.563   6.558   7.019  0.3429 -0.4309 -0.4424
 2133ntf    fn416873   0.463   6.329   6.873 -0.3084  0.2360  0.0978
 2133ntf    fn416874   0.401   6.433   6.705  0.1693  0.1839  0.3464
 2133ntf    fn416875   0.613   6.422   6.749  0.4449 -0.3967 -0.0990
 2134ntf    cn116876   2.563   4.347   4.374  0.1374  0.0214  0.1524
 2134ntf    sn216877   2.515   4.214   4.260  0.3040  0.1663 -0.0848
 2134ntf    nn316878   2.622   4.234   4.147  0.1910  0.1877 -0.1886
 2134ntf    sn216879   2.742   4.141   4.106  0.0748 -0.2247  0.3964
 2134ntf    cn116880   2.870   4.229   4.200  0.0173  0.1236  0.1496
 2134ntf    fn416881   2.676   4.319   4.437  0.1076 -0.4252  0.0102
 2134ntf    fn416882   2.590   4.458   4.309 -0.0167 -0.0393 -0.0149
 2134ntf    fn416883   2.477   4.378   4.471 -0.1853  0.4038 -0.2539
 2134ntf    on516884   2.527   4.100   4.348 -0.1298  0.5447  0.4639
 2134ntf    on516885   2.382   4.255   4.222  0.2526  0.1652  0.0938
 2134ntf    on516886   2.770   4.157   3.965  0.3133  0.0373  0.4734
 2134ntf    on516887   2.750   4.004   4.152 -0.8090 -0.4450 -0.0926
 2134ntf    fn416888   2.857   4.222   4.331  0.6438  0.1795  0.2188
 2134ntf    fn416889   2.997   4.198   4.176 -0.0203 -0.2101  0.3696
 2134ntf    fn416890   2.854   4.357   4.173 -0.2254  0.1985  0.6522
 2135ntf    cn116891   0.686   4.067   0.992  0.0268  0.0953 -0.0711
 2135ntf    sn216892   0.510   4.040   1.032  0.0129  0.1640 -0.0867
 2135ntf    nn316893   0.482   4.156   1.134 -0.3916 -0.4222  0.4754
 2135ntf    sn216894   0.474   4.140   1.290 -0.1808  0.2577  0.5601
 2135ntf    cn116895   0.301   4.084   1.300  0.0710 -0.5798  0.3178
 2135ntf    fn416896   0.768   4.030   1.089  0.1716  0.3825 -0.0831
 2135ntf    fn416897   0.730   4.001   0.887 -0.2399  0.1431 -0.2149
 2135ntf    fn416898   0.723   4.192   0.972  0.1263  0.0212 -0.3568
 2135ntf    on516899   0.446   4.073   0.907 -0.0989  0.3442  0.0190
 2135ntf    on516900   0.505   3.905   1.082  0.4461  0.1240 -0.1475
 2135ntf    on516901   0.472   4.268   1.357 -0.6825  0.4714  0.1454
 2135ntf    on516902   0.552   4.035   1.350 -0.0926 -0.3909 -0.6594
 2135ntf    fn416903   0.256   4.092   1.424  0.3919  0.0917  0.4000
 2135ntf    fn416904   0.220   4.162   1.231  0.3643 -0.2456  0.3480
 2135ntf    fn416905   0.277   3.964   1.251 -0.1367 -0.2634 -0.3628
 2136ntf    cn116906   1.883   4.735   5.078  0.2586  0.2012  0.1072
 2136ntf    sn216907   1.818   4.806   5.232 -0.1500  0.1533 -0.0419
 2136ntf    nn316908   1.941   4.793   5.328  0.5422  0.0865 -0.9189
 2136ntf    sn216909   2.026   4.913   5.385 -0.5514  0.5029 -0.1309
 2136ntf    cn116910   1.919   4.956   5.525 -0.0877 -0.0998  0.4133
 2136ntf    fn416911   1.996   4.793   5.041  0.4252 -0.2227 -0.0549
 2136ntf    fn416912   1.911   4.606   5.087 -0.2049  0.0548 -0.4934
 2136ntf    fn416913   1.797   4.759   4.980 -0.0246  0.3505  0.3940
 2136ntf    on516914   1.777   4.936   5.185 -0.5582 -0.0197 -0.1637
 2136ntf    on516915   1.711   4.722   5.277  0.0329  0.0150  0.1369
 2136ntf    on516916   2.039   5.040   5.317 -0.2560  0.4598 -0.1559
 2136ntf    on516917   2.143   4.867   5.456  0.0732  0.0867 -1.4046
 2136ntf    fn416918   1.806   5.017   5.494  0.0776 -0.2503 -0.5021
 2136ntf    fn416919   1.880   4.847   5.590  0.2229 -0.0444  0.6942
 2136ntf    fn416920   1.975   5.040   5.611  0.1077  0.1939 -0.0010
 2137ntf    cn116921   4.564   0.703   4.983  0.1888  0.4153  0.0463
 2137ntf    sn216922   4.420   0.783   4.904 -0.0712 -0.1058 -0.0158
 2137ntf    nn316923   4.418   0.907   5.001  0.2030  0.2168 -0.4204
 2137ntf    sn216924   4.292   0.979   5.060  0.2517 -0.0273 -0.0179
 2137ntf    cn116925   4.262   0.890   5.216  0.0253  0.2486  0.0980
 2137ntf    fn416926   4.540   0.679   5.111 -0.1751 -0.2153 -0.1293
 2137ntf    fn416927   4.601   0.590   4.924 -0.3449  0.2182  0.0798
 2137ntf    fn416928   4.667   0.785   4.981  0.3999  0.1514  0.0423
 2137ntf    on516929   4.462   0.804   4.768  0.1788 -0.0454  0.0703
 2137ntf    on516930   4.317   0.685   4.928 -0.0541 -0.1893 -0.2780
 2137ntf    on516931   4.174   0.963   4.979  0.3514 -0.3867 -0.0916
 2137ntf    on516932   4.307   1.114   5.107  0.2755  0.1645 -0.5743
 2137ntf    fn416933   4.227   0.763   5.200 -0.0760  0.3125 -0.1924
 2137ntf    fn416934   4.371   0.880   5.290  0.4180  0.1092 -0.4882
 2137ntf    fn416935   4.177   0.954   5.295 -0.3081 -0.3411  0.2247
 2138ntf    cn116936   0.040   1.496   4.572 -0.4897 -0.2535  0.0334
 2138ntf    sn216937   0.010   1.657   4.493  0.0407 -0.2675 -0.2003
 2138ntf    nn316938  -0.146   1.667   4.508  0.1323 -0.0707  0.6602
 2138ntf    sn216939  -0.230   1.782   4.574 -0.2353 -0.0094  0.0910
 2138ntf    cn116940  -0.211   1.753   4.752 -0.0898 -0.0865  0.0631
 2138ntf    fn416941   0.007   1.502   4.700 -0.4068  0.3251  0.0326
 2138ntf    fn416942  -0.031   1.402   4.511  0.1809 -0.4430 -0.4704
 2138ntf    fn416943   0.169   1.466   4.566 -0.5197 -0.4139  0.1997
 2138ntf    on516944   0.099   1.740   4.571  0.2651 -0.1757 -0.5456
 2138ntf    on516945   0.045   1.634   4.355 -0.3078 -0.4828 -0.2524
 2138ntf    on516946  -0.373   1.766   4.558 -0.3014  0.3743  0.2988
 2138ntf    on516947  -0.181   1.914   4.543 -0.1835 -0.0309  0.0822
 2138ntf    fn416948  -0.296   1.831   4.817  0.2311  0.3226 -0.0075
 2138ntf    fn416949  -0.240   1.629   4.789 -0.6559 -0.0565 -0.2701
 2138ntf    fn416950  -0.089   1.788   4.789 -0.2586  0.0633  0.4860
 2139ntf    cn116951   4.178   6.242   3.363  0.1449  0.3823 -0.0139
 2139ntf    sn216952   4.294   6.152   3.469 -0.0120  0.1716 -0.0205
 2139ntf    nn316953   4.374   6.076   3.358 -0.2844  0.1483 -0.2010
 2139ntf    sn216954   4.382   5.921   3.333  0.0384  0.1083  0.1488
 2139ntf    cn116955   4.535   5.909   3.235  0.1258  0.1010  0.2848
 2139ntf    fn416956   4.232   6.310   3.262  0.6540 -0.1718 -0.1221
 2139ntf    fn416957   4.108   6.152   3.296  0.1106  0.5133 -0.1564
 2139ntf    fn416958   4.090   6.324   3.419 -0.1255 -0.0063  0.1286
 2139ntf    on516959   4.362   6.267   3.526 -0.0293  0.1958 -0.0491
 2139ntf    on516960   4.207   6.074   3.554 -0.1583  0.0126 -0.3179
 2139ntf    on516961   4.278   5.866   3.250  0.3740  0.2878 -0.3934
 2139ntf    on516962   4.414   5.843   3.450  0.0949  0.1055  0.1314
 2139ntf    fn416963   4.539   5.996   3.136 -0.0163 -0.0156  0.1773
 2139ntf    fn416964   4.644   5.921   3.309  0.4406 -0.5183 -0.0737
 2139ntf    fn416965   4.534   5.793   3.173 -0.6138  0.1968  0.1040
 2140ntf    cn116966   0.917   5.290   2.605 -0.2928 -0.0881 -0.1565
 2140ntf    sn216967   0.791   5.159   2.612 -0.3892 -0.0171 -0.5146
 2140ntf    nn316968   0.709   5.179   2.480 -0.1768 -0.3303 -0.6963
 2140ntf    sn216969   0.585   5.275   2.472  0.1326  0.1154 -0.1671
 2140ntf    cn116970   0.451   5.174   2.542  0.2587 -0.0427 -0.1514
 2140ntf    fn416971   0.994   5.293   2.713 -0.3630 -0.0531 -0.1073
 2140ntf    fn416972   0.998   5.282   2.501  0.9023  0.3687  0.7234
 2140ntf    fn416973   0.877   5.416   2.601 -0.1974 -0.0412  0.3620
 2140ntf    on516974   0.868   5.037   2.601  0.0429  0.1586  0.4713
 2140ntf    on516975   0.724   5.172   2.739  0.2561 -0.3403 -0.1349
 2140ntf    on516976   0.550   5.297   2.334  0.3134 -0.5035 -0.3160
 2140ntf    on516977   0.586   5.391   2.559 -0.1553  0.3368 -0.4581
 2140ntf    fn416978   0.431   5.187   2.672 -0.1409  0.0203 -0.2153
 2140ntf    fn416979   0.336   5.208   2.485  0.3013  0.1869 -0.1022
 2140ntf    fn416980   0.461   5.044   2.523 -0.0702 -0.0800 -0.0865
 2141ntf    cn116981   4.450   1.555   1.739  0.3608  0.1950  0.0316
 2141ntf    sn216982   4.381   1.694   1.833  0.2664  0.1369  0.0484
 2141ntf    nn316983   4.227   1.685   1.801  0.2609 -0.3732  0.2143
 2141ntf    sn216984   4.108   1.622   1.881  0.1330 -0.4292 -0.0178
 2141ntf    cn116985   4.021   1.528   1.753  0.3346 -0.0975 -0.4017
 2141ntf    fn416986   4.582   1.543   1.745  0.3279 -0.1985  0.0136
 2141ntf    fn416987   4.398   1.442   1.784  0.3648  0.1286 -0.1304
 2141ntf    fn416988   4.412   1.563   1.612 -0.2569 -0.2613  0.1836
 2141ntf    on516989   4.415   1.675   1.971  0.5852  0.3307 -0.0026
 2141ntf    on516990   4.439   1.809   1.767  0.0388 -0.0247 -0.4361
 2141ntf    on516991   4.013   1.721   1.925  0.1099 -0.3899 -0.1574
 2141ntf    on516992   4.140   1.513   1.970 -0.1849 -0.3359  0.2138
 2141ntf    fn416993   3.920   1.463   1.809  0.6410 -0.3478 -0.1318
 2141ntf    fn416994   3.961   1.604   1.663 -0.1971  0.1791  0.1778
 2141ntf    fn416995   4.095   1.433   1.698  0.3125 -0.3599  0.0170
 2142ntf    cn116996   6.508   3.460   5.043  0.5178 -0.0347 -0.2572
 2142ntf    sn216997   6.603   3.376   5.173  0.0473  0.0793  0.1673
 2142ntf    nn316998   6.634   3.494   5.272 -0.3500 -0.0359  0.4297
 2142ntf    sn216999   6.769   3.528   5.343 -0.1490  0.0892 -0.0115
 2142ntf    cn117000   6.777   3.378   5.445  0.4155 -0.0557 -0.2628
 2142ntf    fn417001   6.577   3.555   4.982 -0.7802  0.7643 -0.5195
 2142ntf    fn417002   6.470   3.371   4.953 -0.1689 -0.1866  0.1716
 2142ntf    fn417003   6.402   3.521   5.095  0.8434 -0.0347  0.4171
 2142ntf    on517004   6.509   3.277   5.218 -0.1277 -0.0616 -0.5059
 2142ntf    on517005   6.713   3.331   5.092  0.0197  0.6654 -0.1999
 2142ntf    on517006   6.745   3.633   5.440 -0.2333  0.1568 -0.1050
 2142ntf    on517007   6.890   3.534   5.264 -0.0662  0.3828  0.1342
 2142ntf    fn417008   6.663   3.341   5.500  0.1764 -0.0401 -0.7414
 2142ntf    fn417009   6.819   3.276   5.373 -0.2652 -0.2194 -0.4366
 2142ntf    fn417010   6.865   3.380   5.544  0.3771 -0.3632 -0.2214
 2143ntf    cn117011   0.045   4.065   3.069  0.3154  0.2765 -0.0816
 2143ntf    sn217012  -0.097   3.955   3.097  0.1546  0.5451  0.1611
 2143ntf    nn317013  -0.173   3.972   2.961 -0.2077  0.0292  0.2961
 2143ntf    sn217014  -0.207   3.871   2.846  0.0180  0.1175  0.1521
 2143ntf    cn117015  -0.336   3.973   2.768  0.2255  0.0172 -0.3262
 2143ntf    fn417016   0.132   4.007   2.989  0.4502  0.2771  0.0645
 2143ntf    fn417017   0.012   4.183   3.017  0.0622  0.0338 -0.4724
 2143ntf    fn417018   0.107   4.086   3.184 -0.3543  0.0314  0.3309
 2143ntf    on517019  -0.035   3.828   3.123  0.1483  0.4591 -0.2526
 2143ntf    on517020  -0.177   4.014   3.203 -0.5663  0.1612 -0.1600
 2143ntf    on517021  -0.272   3.750   2.889 -0.3787  0.2241 -0.1421
 2143ntf    on517022  -0.101   3.860   2.749  0.1525 -0.3303  0.3502
 2143ntf    fn417023  -0.279   4.089   2.740  0.0764  0.1310 -0.1591
 2143ntf    fn417024  -0.379   3.929   2.651 -0.1917 -0.0674 -0.1442
 2143ntf    fn417025  -0.438   3.993   2.850  0.4484 -0.6475  0.1259
 2144ntf    cn117026   5.505   4.216   5.910  0.2348 -0.0366  0.1918
 2144ntf    sn217027   5.608   4.340   5.996  0.4951  0.2033 -0.4621
 2144ntf    nn317028   5.566   4.297   6.141  0.1966 -0.1138 -0.6388
 2144ntf    sn217029   5.620   4.182   6.234 -0.2486  0.0476 -0.1739
 2144ntf    cn117030   5.493   4.180   6.363 -0.1925  0.6607 -0.1052
 2144ntf    fn417031   5.377   4.240   5.932  0.0843 -0.4292 -0.2611
 2144ntf    fn417032   5.534   4.223   5.781 -0.2596  0.0377  0.0840
 2144ntf    fn417033   5.529   4.090   5.942 -0.2536 -0.1037  0.2945
 2144ntf    on517034   5.744   4.311   5.958  0.6118 -0.1329  0.1915
 2144ntf    on517035   5.543   4.459   5.947  0.3983 -0.1153 -1.1323
 2144ntf    on517036   5.736   4.221   6.311 -0.0650  0.2250 -0.5317
 2144ntf    on517037   5.611   4.052   6.173  0.2517  0.3944 -1.0101
 2144ntf    fn417038   5.373   4.203   6.311 -0.1649 -0.1422 -0.5369
 2144ntf    fn417039   5.497   4.068   6.433 -0.0600  0.5276 -0.3241
 2144ntf    fn417040   5.513   4.279   6.448  0.3061  0.5132 -0.0477
 2145ntf    cn117041   0.803   5.549   5.685 -0.1630 -0.2242  0.1507
 2145ntf    sn217042   0.824   5.559   5.866  0.1641  0.0476  0.0990
 2145ntf    nn317043   0.929   5.675   5.862  0.0666  0.1406  0.2071
 2145ntf    sn217044   1.086   5.666   5.863  0.0647  0.0862  0.0250
 2145ntf    cn117045   1.134   5.635   6.035  0.4199 -0.2869 -0.1415
 2145ntf    fn417046   0.697   5.476   5.654 -0.2643 -0.1426  0.2998
 2145ntf    fn417047   0.789   5.671   5.635  0.1057 -0.2491  0.0179
 2145ntf    fn417048   0.913   5.498   5.634 -0.1623 -0.6049  0.5279
 2145ntf    on517049   0.697   5.610   5.913 -0.4553 -1.4519  0.0905
 2145ntf    on517050   0.852   5.427   5.916  0.1196 -0.1206 -0.3137
 2145ntf    on517051   1.139   5.798   5.839 -0.2217  0.2750  0.4192
 2145ntf    on517052   1.136   5.555   5.787  0.1677  0.7986 -0.9777
 2145ntf    fn417053   1.119   5.741   6.113  0.3239  0.0035 -0.5520
 2145ntf    fn417054   1.071   5.530   6.087 -0.0252 -0.5016 -1.0912
 2145ntf    fn417055   1.263   5.608   6.051  0.5868  0.8523  0.5437
 2146ntf    cn117056   6.736   1.947   0.014  0.1124 -0.2276 -0.1829
 2146ntf    sn217057   6.606   1.824   0.047  0.0816 -0.0799  0.2565
 2146ntf    nn317058   6.488   1.895  -0.027  0.2989  0.0935  0.0728
 2146ntf    sn217059   6.364   1.970   0.034  0.2724  0.0756  0.0411
 2146ntf    cn117060   6.306   2.063  -0.110  0.2502  0.0356  0.0238
 2146ntf    fn417061   6.740   1.976  -0.115  0.0768 -0.3609 -0.2145
 2146ntf    fn417062   6.712   2.061   0.077 -0.0964 -0.1746 -0.3589
 2146ntf    fn417063   6.852   1.906   0.064  0.1955 -0.1151 -0.2839
 2146ntf    on517064   6.656   1.709  -0.025  0.2263  0.0247  0.1893
 2146ntf    on517065   6.603   1.819   0.191 -0.0374  0.5605  0.2782
 2146ntf    on517066   6.389   2.075   0.129  0.3242  0.1579 -0.0635
 2146ntf    on517067   6.252   1.881   0.053  0.0880  0.3115  0.0558
 2146ntf    fn417068   6.273   1.970  -0.199 -0.1017  0.0361  0.1532
 2146ntf    fn417069   6.197   2.135  -0.087  0.3909  0.1213  0.4317
 2146ntf    fn417070   6.398   2.142  -0.164  0.4700  0.0242  0.3801
 2147ntf    cn117071   3.132   4.086   4.930  0.5572  0.0115 -0.0468
 2147ntf    sn217072   3.018   3.981   4.835  0.1403  0.2018  0.2422
 2147ntf    nn317073   2.903   3.954   4.939 -0.1404  0.5500  0.0229
 2147ntf    sn217074   2.775   3.865   4.919  0.0718  0.2042  0.2000
 2147ntf    cn117075   2.842   3.712   4.991 -0.4165  0.0596  0.3515
 2147ntf    fn417076   3.081   4.201   4.972 -0.2464 -0.3719  0.0272
 2147ntf    fn417077   3.179   4.027   5.038 -0.5393 -0.2736  0.2878
 2147ntf    fn417078   3.237   4.126   4.859  0.4645  0.4178  0.0404
 2147ntf    on517079   2.971   4.066   4.729  0.5498  0.1364  0.0068
 2147ntf    on517080   3.090   3.862   4.797 -0.1502  0.1283 -0.0823
 2147ntf    on517081   2.746   3.822   4.785 -0.1067  0.4634  0.1542
 2147ntf    on517082   2.669   3.897   5.011 -0.2406  0.1172 -0.1305
 2147ntf    fn417083   2.744   3.631   5.024 -0.4893  0.0278  0.0636
 2147ntf    fn417084   2.928   3.647   4.913 -0.4773  0.5592 -0.1442
 2147ntf    fn417085   2.911   3.746   5.098  0.1089 -0.2068  0.1046
 2148ntf    cn117086   5.708   6.455   4.149  0.3482  0.3473  0.0010
 2148ntf    sn217087   5.650   6.624   4.115 -0.3393  0.1282  0.0580
 2148ntf    nn317088   5.632   6.603   3.960  0.0617  0.2774 -0.0107
 2148ntf    sn217089   5.623   6.712   3.848  0.0634  0.0876 -0.1950
 2148ntf    cn117090   5.447   6.702   3.803  0.0472 -0.1625 -0.0752
 2148ntf    fn417091   5.807   6.414   4.072  0.2134 -0.1609  0.0961
 2148ntf    fn417092   5.748   6.442   4.275  0.3905  0.7036  0.0259
 2148ntf    fn417093   5.605   6.374   4.129  0.2996  0.3573  0.2038
 2148ntf    on517094   5.526   6.621   4.188 -0.4266 -0.6572 -0.1134
 2148ntf    on517095   5.759   6.707   4.159 -0.3371  0.2605 -0.1928
 2148ntf    on517096   5.689   6.672   3.726  0.4972 -0.4641  0.2173
 2148ntf    on517097   5.643   6.847   3.892  0.7985  0.0022 -0.2461
 2148ntf    fn417098   5.367   6.714   3.909  0.0336 -0.3616 -0.0621
 2148ntf    fn417099   5.422   6.802   3.721 -0.0136 -0.0174  0.1178
 2148ntf    fn417100   5.405   6.595   3.737  0.4866 -0.5063  0.1970
 2149ntf    cn117101   0.969   5.503   4.871 -0.0414 -0.3516  0.4093
 2149ntf    sn217102   0.821   5.405   4.910 -0.5782  0.2950  0.0194
 2149ntf    nn317103   0.759   5.505   5.014 -0.3131  0.4148  0.0616
 2149ntf    sn217104   0.681   5.468   5.146  0.2112 -0.2312  0.1987
 2149ntf    cn117105   0.567   5.609   5.161  0.3725 -0.1004  0.1961
 2149ntf    fn417106   0.944   5.579   4.766  0.0118 -0.3889  0.3695
 2149ntf    fn417107   1.009   5.587   4.964 -0.6537  0.2736  0.1208
 2149ntf    fn417108   1.072   5.427   4.837  0.1117  0.1329 -0.2245
 2149ntf    on517109   0.747   5.389   4.787 -0.3309  0.4332 -0.1463
 2149ntf    on517110   0.873   5.283   4.966 -0.4040  0.4871  0.2768
 2149ntf    on517111   0.763   5.477   5.264  0.2905 -0.5771  0.1702
 2149ntf    on517112   0.592   5.355   5.136 -0.2146  0.1218 -0.0529
 2149ntf    fn417113   0.633   5.723   5.179  0.1821 -0.0301  0.4606
 2149ntf    fn417114   0.494   5.609   5.051  0.2929 -0.2530  0.2486
 2149ntf    fn417115   0.484   5.594   5.263 -0.3882  0.3170 -0.3536
 2150ntf    cn117116   4.372   3.261   3.688  0.1551 -0.1578  0.2664
 2150ntf    sn217117   4.527   3.299   3.601  0.0786  0.3574  0.3479
 2150ntf    nn317118   4.475   3.412   3.506 -0.0134  0.1294  0.1239
 2150ntf    sn217119   4.508   3.442   3.356 -0.1209  0.3985  0.1520
 2150ntf    cn117120   4.384   3.339   3.272  0.1390  0.1113  0.1176
 2150ntf    fn417121   4.273   3.312   3.617  0.4439 -0.2589 -0.2088
 2150ntf    fn417122   4.350   3.132   3.701  0.4048 -0.1125  1.2627
 2150ntf    fn417123   4.367   3.298   3.815  0.5789 -0.6765  0.4389
 2150ntf    on517124   4.620   3.339   3.704  0.2668 -0.4657  0.5041
 2150ntf    on517125   4.552   3.179   3.525 -0.0599  0.4301  0.1886
 2150ntf    on517126   4.636   3.396   3.307 -0.1885  0.4553 -0.0783
 2150ntf    on517127   4.471   3.574   3.313  0.5955  0.5019 -0.1592
 2150ntf    fn417128   4.347   3.389   3.155 -0.3660  0.4365  0.4165
 2150ntf    fn417129   4.423   3.213   3.261  0.3798  0.2024 -0.1006
 2150ntf    fn417130   4.272   3.341   3.343  0.4472  0.1049  0.6053
 2151ntf    cn117131   0.603   4.300   6.557 -0.1476 -0.1852  0.4251
 2151ntf    sn217132   0.458   4.192   6.537 -0.2379 -0.0043  0.0903
 2151ntf    nn317133   0.510   4.102   6.419 -0.6438 -0.1985  0.0563
 2151ntf    sn217134   0.493   4.121   6.265 -0.2984 -0.2619  0.0097
 2151ntf    cn117135   0.326   4.051   6.248 -0.3254 -0.1659 -0.1307
 2151ntf    fn417136   0.583   4.406   6.634  0.5912 -0.0824  0.4777
 2151ntf    fn417137   0.711   4.238   6.602 -0.1096 -0.3709  0.0736
 2151ntf    fn417138   0.640   4.349   6.441 -0.8603  0.0838  0.3031
 2151ntf    on517139   0.437   4.112   6.656 -0.1592 -0.5308 -0.2470
 2151ntf    on517140   0.346   4.276   6.503 -0.2113 -0.0087 -0.0094
 2151ntf    on517141   0.580   4.026   6.199 -0.2828 -0.1403 -0.1453
 2151ntf    on517142   0.487   4.256   6.213 -0.1133 -0.0475  0.5429
 2151ntf    fn417143   0.276   4.058   6.126 -0.6630  0.2374  0.0316
 2151ntf    fn417144   0.320   3.923   6.282 -0.1034 -0.2233 -0.3065
 2151ntf    fn417145   0.235   4.111   6.323  0.3294  0.6909 -0.0089
 2152ntf    cn117146   1.174   0.239   3.171  0.3496 -0.1880 -0.1855
 2152ntf    sn217147   1.308   0.170   3.069  0.0086 -0.5418 -0.3990
 2152ntf    nn317148   1.231   0.074   2.972 -0.3118  0.1496 -0.8402
 2152ntf    sn217149   1.293  -0.051   2.901  0.1993 -0.0276 -0.0903
 2152ntf    cn117150   1.187  -0.192   2.946 -0.2371  0.3411  0.0333
 2152ntf    fn417151   1.216   0.298   3.282 -0.4833 -0.0286  0.0474
 2152ntf    fn417152   1.107   0.336   3.111 -0.3451 -0.3147  0.3761
 2152ntf    fn417153   1.084   0.147   3.201  0.0093  0.2523  0.1527
 2152ntf    on517154   1.365   0.283   2.998  0.6751 -0.6634 -0.0668
 2152ntf    on517155   1.389   0.107   3.170 -0.6103  0.0883  0.5111
 2152ntf    on517156   1.426  -0.094   2.939  0.3441  0.5995  0.1156
 2152ntf    on517157   1.266  -0.037   2.760  0.1986  0.2712 -0.0612
 2152ntf    fn417158   1.063  -0.164   2.909 -0.2909 -0.2951 -0.2830
 2152ntf    fn417159   1.213  -0.298   2.872 -0.0741  0.1465  0.3697
 2152ntf    fn417160   1.186  -0.231   3.072  0.5245  0.1180 -0.0319
 2153ntf    cn117161   0.347   5.931   0.021  0.4218 -0.1011 -0.0885
 2153ntf    sn217162   0.252   5.799   0.102  0.1183  0.1072 -0.1048
 2153ntf    nn317163   0.198   5.712  -0.017 -0.5995  0.2129  0.1387
 2153ntf    sn217164   0.071   5.733  -0.107 -0.4229  0.3611 -0.0752
 2153ntf    cn117165   0.139   5.688  -0.270 -0.0910 -0.0844  0.1835
 2153ntf    fn417166   0.270   6.027  -0.028  0.1979 -0.0485  0.3608
 2153ntf    fn417167   0.439   5.982   0.100  0.2133  0.2118 -0.0479
 2153ntf    fn417168   0.415   5.886  -0.084  0.5118  0.4196 -0.2530
 2153ntf    on517169   0.346   5.725   0.183  0.4213  0.1735 -0.3929
 2153ntf    on517170   0.153   5.865   0.184 -0.0614 -0.3754  0.0734
 2153ntf    on517171   0.026   5.870  -0.118  0.0597  0.5304  0.0342
 2153ntf    on517172  -0.030   5.633  -0.086  0.1391 -0.1215  0.3700
 2153ntf    fn417173   0.196   5.569  -0.258  0.3074  0.0628 -0.2146
 2153ntf    fn417174   0.054   5.679  -0.371  0.2150  0.0432 -0.0834
 2153ntf    fn417175   0.244   5.762  -0.302  0.0433 -0.4437 -0.2119
 2154ntf    cn117176   3.185   4.305   4.006 -0.1307 -0.2146  0.0415
 2154ntf    sn217177   3.284   4.413   3.898 -0.2770  0.1245  0.2422
 2154ntf    nn317178   3.173   4.510   3.843 -0.3845 -0.1268  0.0142
 2154ntf    sn217179   3.094   4.501   3.708 -0.2144 -0.0156 -0.0932
 2154ntf    cn117180   3.035   4.672   3.694  0.0790  0.1111  0.2231
 2154ntf    fn417181   3.132   4.379   4.103 -0.0270  0.0532 -0.1037
 2154ntf    fn417182   3.085   4.252   3.939 -0.1521  0.1156 -0.1891
 2154ntf    fn417183   3.252   4.205   4.061 -0.0605 -0.1627  0.0509
 2154ntf    on517184   3.363   4.482   3.997  0.0499  0.2775 -0.1213
 2154ntf    on517185   3.361   4.337   3.802 -0.2111  0.4749  0.0183
 2154ntf    on517186   2.973   4.423   3.713  0.0424 -0.4099  0.0925
 2154ntf    on517187   3.182   4.483   3.594 -0.0124 -0.2859  0.1018
 2154ntf    fn417188   3.131   4.763   3.681 -0.4915  0.6519 -0.2136
 2154ntf    fn417189   2.955   4.690   3.590  0.3130  0.1492  0.0487
 2154ntf    fn417190   2.962   4.712   3.796 -0.3869  0.0822 -0.1000
 2155ntf    cn117191   0.680   2.810   6.747 -0.6733  0.3002  0.1496
 2155ntf    sn217192   0.736   2.952   6.846 -0.0335  0.1280  0.0320
 2155ntf    nn317193   0.890   2.923   6.856 -0.0714  0.0108  0.2790
 2155ntf    sn217194   0.973   2.829   6.951 -0.2648 -0.1773  0.2616
 2155ntf    cn117195   1.110   2.784   6.841  0.1534 -0.3625  0.8526
 2155ntf    fn417196   0.605   2.858   6.649 -0.3414 -0.2130 -0.3623
 2155ntf    fn417197   0.773   2.746   6.680 -0.6034  0.2193  0.3212
 2155ntf    fn417198   0.606   2.724   6.817 -0.0092 -0.5113 -0.1329
 2155ntf    on517199   0.721   3.074   6.772  0.4954  0.0898 -0.1450
 2155ntf    on517200   0.665   2.938   6.970  0.5129 -0.7664  0.2545
 2155ntf    on517201   0.914   2.705   6.995 -0.3749 -0.0220  0.5509
 2155ntf    on517202   1.038   2.914   7.047 -0.2767 -0.3722  0.4421
 2155ntf    fn417203   1.066   2.745   6.723  0.2759 -0.0141  0.6880
 2155ntf    fn417204   1.193   2.881   6.803 -0.0247 -0.5461 -0.0375
 2155ntf    fn417205   1.181   2.682   6.886  0.7923 -0.3837 -0.1630
 2156ntf    cn117206   3.779   2.181   5.778  0.0435 -0.0002 -0.2873
 2156ntf    sn217207   3.600   2.164   5.749 -0.0770  0.4782  0.1452
 2156ntf    nn317208   3.562   2.100   5.887  0.1071  0.2432  0.0894
 2156ntf    sn217209   3.515   2.172   6.019  0.1727 -0.1140  0.3086
 2156ntf    cn117210   3.371   2.073   6.068 -0.1486  0.1718 -0.0499
 2156ntf    fn417211   3.847   2.258   5.695 -0.3201  0.4736 -0.1523
 2156ntf    fn417212   3.800   2.227   5.900 -0.0460 -0.4698 -0.0941
 2156ntf    fn417213   3.838   2.063   5.782 -0.1807 -0.1126 -0.2834
 2156ntf    on517214   3.553   2.297   5.722  0.0965  0.4311 -0.4002
 2156ntf    on517215   3.599   2.071   5.638 -0.3161  0.1874  0.3893
 2156ntf    on517216   3.450   2.300   6.002 -0.3868 -0.4114  0.2092
 2156ntf    on517217   3.606   2.155   6.130  0.0701  0.0669  0.4209
 2156ntf    fn417218   3.404   1.957   6.123  0.3948  0.2326 -0.2388
 2156ntf    fn417219   3.302   2.131   6.165  0.0128  0.1472  0.0797
 2156ntf    fn417220   3.285   2.045   5.971  0.1905  0.0701 -0.3245
 2157ntf    cn117221   3.891   4.602   3.764 -0.6333 -0.0059 -0.1468
 2157ntf    sn217222   3.986   4.605   3.919 -0.2191 -0.1847 -0.3935
 2157ntf    nn317223   3.990   4.454   3.963 -0.2192 -0.1465 -0.2605
 2157ntf    sn217224   4.109   4.353   3.979 -0.0449  0.1059  0.0275
 2157ntf    cn117225   4.024   4.198   3.938 -0.1011  0.0665  0.2908
 2157ntf    fn417226   3.762   4.576   3.777 -0.5171 -0.4104  0.2363
 2157ntf    fn417227   3.901   4.719   3.704 -0.1409  0.3084  0.5438
 2157ntf    fn417228   3.929   4.510   3.676 -0.5933 -0.2018  0.0732
 2157ntf    on517229   4.114   4.664   3.889 -0.3572  0.3473  0.0511
 2157ntf    on517230   3.900   4.673   4.013 -0.5248 -0.5679 -0.3931
 2157ntf    on517231   4.154   4.333   4.115  0.5638  0.3048 -0.1388
 2157ntf    on517232   4.210   4.359   3.876 -0.0167  0.1364  0.0570
 2157ntf    fn417233   4.112   4.100   3.944 -0.2566 -0.0730  0.2874
 2157ntf    fn417234   3.927   4.168   4.023 -0.4426  0.1695 -0.0608
 2157ntf    fn417235   3.969   4.207   3.818 -0.4249  0.3934  0.4605
 2158ntf    cn117236   3.995   6.351   5.295  0.0821  0.0884  0.1232
 2158ntf    sn217237   4.030   6.177   5.337 -0.0164  0.0674  0.1177
 2158ntf    nn317238   3.989   6.171   5.488  0.0648  0.2056  0.1457
 2158ntf    sn217239   4.066   6.116   5.613  0.0016 -0.0401  0.0769
 2158ntf    cn117240   3.952   6.133   5.754 -0.2357  0.0631 -0.1264
 2158ntf    fn417241   4.005   6.371   5.165  0.1664  0.0174  0.1179
 2158ntf    fn417242   3.872   6.391   5.324 -0.1557 -0.3659 -0.2536
 2158ntf    fn417243   4.079   6.435   5.353  0.0386 -0.2049  0.6142
 2158ntf    on517244   3.948   6.097   5.249  0.4163 -0.0462 -0.1870
 2158ntf    on517245   4.172   6.164   5.317 -0.0556  0.1201 -0.2042
 2158ntf    on517246   4.172   6.203   5.656 -0.3885  0.5617 -0.1557
 2158ntf    on517247   4.100   5.977   5.603 -0.0048 -0.0390  0.0396
 2158ntf    fn417248   3.906   6.255   5.772  0.4089  0.3137 -0.1506
 2158ntf    fn417249   3.845   6.056   5.739 -0.0046 -0.1669 -0.6155
 2158ntf    fn417250   4.000   6.087   5.868  0.4279  0.2329 -0.3371
 2159ntf    cn117251   1.660   1.480   1.878  0.1499  0.1274  0.3564
 2159ntf    sn217252   1.479   1.484   1.883  0.1431 -0.0705  0.2672
 2159ntf    nn317253   1.458   1.540   2.028  0.4585  0.1455  0.2296
 2159ntf    sn217254   1.437   1.693   2.056 -0.2334  0.0966 -0.0014
 2159ntf    cn117255   1.515   1.699   2.220  0.4622 -0.2213 -0.3158
 2159ntf    fn417256   1.698   1.399   1.976  0.3090 -0.0074  0.1841
 2159ntf    fn417257   1.700   1.426   1.764 -0.2589  0.6337 -0.0314
 2159ntf    fn417258   1.720   1.596   1.900  0.3426 -0.0011  0.5234
 2159ntf    on517259   1.444   1.575   1.777 -0.5089  0.3693  0.8468
 2159ntf    on517260   1.444   1.345   1.868 -0.1579  0.0096  0.2068
 2159ntf    on517261   1.303   1.736   2.086 -0.2389  0.2463 -0.2361
 2159ntf    on517262   1.518   1.788   1.983  0.4593 -0.4225  0.0784
 2159ntf    fn417263   1.635   1.646   2.207  0.3762 -0.4329 -0.2409
 2159ntf    fn417264   1.535   1.825   2.256 -0.5408 -0.0275 -0.4105
 2159ntf    fn417265   1.453   1.633   2.317  0.1636 -0.1550 -0.4601
 2160ntf    cn117266   3.777   3.960   0.159 -0.3034 -0.1287 -0.1071
 2160ntf    sn217267   3.630   4.066   0.168 -0.2065 -0.0249  0.2335
 2160ntf    nn317268   3.686   4.211   0.141  0.4127 -0.2707  0.1895
 2160ntf    sn217269   3.658   4.343   0.220  0.1068 -0.0509 -0.2791
 2160ntf    cn117270   3.687   4.470   0.094 -0.0016  0.4942  0.2423
 2160ntf    fn417271   3.848   3.967   0.047  0.3077 -0.5529  0.2451
 2160ntf    fn417272   3.870   3.984   0.250 -0.1989 -0.1887 -0.1970
 2160ntf    fn417273   3.748   3.832   0.172  0.4869 -0.2943  0.0870
 2160ntf    on517274   3.550   4.020   0.058  0.0665  0.3466 -0.1217
 2160ntf    on517275   3.582   4.047   0.303 -0.7537  0.7480  0.1570
 2160ntf    on517276   3.765   4.370   0.313 -0.4717  0.6114  0.2109
 2160ntf    on517277   3.524   4.364   0.271  0.2165  0.3004 -0.1302
 2160ntf    fn417278   3.612   4.461  -0.015  0.4524  0.3093 -0.0565
 2160ntf    fn417279   3.655   4.584   0.154 -0.1658  0.3344  0.4602
 2160ntf    fn417280   3.815   4.470   0.061  0.0231  0.2860  0.3372
   6.79207   6.79207   6.79207
