Converted from moscito
19440
    1SOL     ow    1   5.239   4.118   0.606  0.9547  0.2951  0.1816
    1SOL     hw    2   5.324   4.093   0.572  1.4070  0.0729  1.4182
    1SOL     hw    3   5.224   4.058   0.679 -0.2251  0.3846  0.0315
    1SOL     vw    4   5.248   4.107   0.611  0.8588  0.2778  0.3249
    2SOL     ow    5   1.690   3.215   3.959 -0.0502  0.2961  0.8757
    2SOL     hw    6   1.671   3.302   3.926  1.1540  0.8752  1.6325
    2SOL     hw    7   1.743   3.230   4.038 -0.2749 -1.0997  1.3295
    2SOL     vw    8   1.695   3.228   3.965  0.0790  0.1882  1.0355
    3SOL     ow    9   6.890   4.989   2.566  0.4309 -0.0050 -0.5300
    3SOL     hw   10   6.901   4.982   2.661  0.0170  1.8723 -0.3171
    3SOL     hw   11   6.974   4.959   2.531  0.8786  0.0423  0.4524
    3SOL     vw   12   6.902   4.984   2.574  0.4354  0.2487 -0.3722
    4SOL     ow   13   4.319   6.073   3.998  0.4666 -0.3127  0.3115
    4SOL     hw   14   4.337   6.033   3.913 -0.0912 -1.6821  0.8080
    4SOL     hw   15   4.378   6.148   4.002  0.9153 -0.5692 -1.0381
    4SOL     vw   16   4.329   6.077   3.988  0.4523 -0.5274  0.1990
    5SOL     ow   17   4.234   3.109   1.720 -0.1752 -0.0568  0.1148
    5SOL     hw   18   4.192   3.131   1.637  0.6598 -1.3098 -0.6741
    5SOL     hw   19   4.199   3.022   1.741 -1.1112  0.6471  1.5883
    5SOL     vw   20   4.224   3.100   1.712 -0.1886 -0.1292  0.2052
    6SOL     ow   21   1.211   3.873   3.049 -0.7117  0.2917 -0.0555
    6SOL     hw   22   1.242   3.788   3.019  0.0174  1.6246 -3.5240
    6SOL     hw   23   1.282   3.934   3.027 -0.9401  1.8105  2.8941
    6SOL     vw   24   1.224   3.870   3.042 -0.6457  0.6679 -0.1239
    7SOL     ow   25   0.786   5.355   1.215 -0.6557  0.9763 -0.3484
    7SOL     hw   26   0.702   5.396   1.195 -0.3627  0.9865 -1.6531
    7SOL     hw   27   0.783   5.271   1.169  0.3561  1.3223 -1.0811
    7SOL     vw   28   0.775   5.349   1.207 -0.4835  1.0235 -0.6172
    8SOL     ow   29   2.724   2.803   6.239  0.6440  0.8541  1.0511
    8SOL     hw   30   2.677   2.722   6.260 -2.4841  2.1744 -0.2156
    8SOL     hw   31   2.672   2.872   6.278  1.6904  2.4363 -0.2161
    8SOL     vw   32   2.711   2.801   6.247  0.3693  1.2370  0.7167
    9SOL     ow   33   3.562   5.782   1.121 -1.0451  0.0160 -0.1627
    9SOL     hw   34   3.519   5.698   1.138 -0.4565 -0.1075  0.8147
    9SOL     hw   35   3.604   5.770   1.036 -1.3257 -0.5295 -0.2327
    9SOL     vw   36   3.562   5.769   1.112 -1.0045 -0.0720 -0.0429
   10SOL     ow   37   1.395   4.475   2.204 -0.0578 -0.5798 -0.1654
   10SOL     hw   38   1.469   4.456   2.146 -0.8947  1.9141 -2.2598
   10SOL     hw   39   1.320   4.436   2.160 -0.6357  0.9329 -0.6040
   10SOL     vw   40   1.395   4.467   2.190 -0.2444 -0.0513 -0.4996
   11SOL     ow   41   6.770   0.284   3.383 -0.3792  0.6514 -0.2961
   11SOL     hw   42   6.769   0.326   3.297  2.1790  1.2950 -0.0920
   11SOL     hw   43   6.749   0.193   3.366  0.8580  0.6047 -1.7282
   11SOL     vw   44   6.767   0.278   3.370  0.1214  0.7301 -0.4581
   12SOL     ow   45   2.555   4.676   1.339 -0.1678 -0.5434 -0.4583
   12SOL     hw   46   2.634   4.708   1.296 -0.9282 -0.7273 -2.0970
   12SOL     hw   47   2.581   4.595   1.382  0.6517 -0.3230 -0.5368
   12SOL     vw   48   2.569   4.669   1.339 -0.1600 -0.5386 -0.6848
   13SOL     ow   49   0.812   1.839   0.097  0.3870  1.0786  0.2031
   13SOL     hw   50   0.903   1.820   0.075 -0.6660 -1.2217 -2.9175
   13SOL     hw   51   0.769   1.753   0.097 -2.0408  2.2083  0.2461
   13SOL     vw   52   0.818   1.825   0.094 -0.0722  0.9242 -0.2030
   14SOL     ow   53   1.047   5.455   1.313 -0.0066 -0.2968 -0.1703
   14SOL     hw   54   1.137   5.466   1.344  0.3166 -0.4509 -1.0272
   14SOL     hw   55   1.016   5.544   1.296  0.3213 -0.2921 -0.7826
   14SOL     vw   56   1.055   5.468   1.315  0.0793 -0.3166 -0.3641
   15SOL     ow   57   6.383   5.434   4.219 -0.6128 -0.7489 -0.3660
   15SOL     hw   58   6.463   5.450   4.169 -0.3841  0.3843  0.3325
   15SOL     hw   59   6.342   5.520   4.226 -1.0011 -1.0175  0.7768
   15SOL     vw   60   6.388   5.447   4.213 -0.6337 -0.6349 -0.1230
   16SOL     ow   61   6.267   4.465   1.707 -0.3233 -0.0922  0.6563
   16SOL     hw   62   6.240   4.446   1.797 -1.6604 -1.1592  0.0737
   16SOL     hw   63   6.284   4.379   1.669 -3.0549 -0.0090 -1.0524
   16SOL     vw   64   6.265   4.451   1.714 -0.8602 -0.2220  0.3539
   17SOL     ow   65   5.935   1.017   6.836 -0.0606  0.1360  0.2832
   17SOL     hw   66   5.918   1.097   6.887 -0.3625  0.4449 -0.2913
   17SOL     hw   67   5.848   0.990   6.806  0.2272  0.6439 -1.0865
   17SOL     vw   68   5.921   1.024   6.839 -0.0622  0.2438  0.0269
   18SOL     ow   69   2.044   6.610   3.107  0.1522  0.5429 -0.0284
   18SOL     hw   70   2.124   6.559   3.121 -0.0037  0.4666  0.6659
   18SOL     hw   71   2.026   6.649   3.193  0.1925  1.6640 -0.5173
   18SOL     vw   72   2.052   6.608   3.120  0.1370  0.6809 -0.0013
   19SOL     ow   73   1.365   2.205   3.062 -0.1136  0.1401  0.5083
   19SOL     hw   74   1.358   2.262   2.985  0.9114 -1.5611 -0.9175
   19SOL     hw   75   1.278   2.167   3.072 -0.1731  0.1292 -0.0215
   19SOL     vw   76   1.353   2.208   3.053  0.0138 -0.0857  0.2502
   20SOL     ow   77   4.701   1.197   6.892 -0.4344 -0.1373 -0.0926
   20SOL     hw   78   4.788   1.224   6.921  0.3332 -1.8562 -0.6515
   20SOL     hw   79   4.653   1.278   6.878  0.7535  0.8242  1.1864
   20SOL     vw   80   4.706   1.211   6.894 -0.1764 -0.2373  0.0021
   21SOL     ow   81   0.672   1.343   3.732  0.3338 -0.7310  0.8083
   21SOL     hw   82   0.681   1.426   3.687 -1.7768 -0.0185  1.5459
   21SOL     hw   83   0.694   1.277   3.667 -3.6227  0.1801 -1.8167
   21SOL     vw   84   0.676   1.345   3.718 -0.4667 -0.5168  0.5593
   22SOL     ow   85   3.833   0.828   2.323 -0.4445  0.7225  0.0696
   22SOL     hw   86   3.820   0.768   2.397  0.4355  0.0502 -0.2972
   22SOL     hw   87   3.839   0.770   2.246 -0.6718  1.3636 -0.4407
   22SOL     vw   88   3.832   0.812   2.322 -0.3583  0.7184 -0.0461
   23SOL     ow   89   3.113   0.227   0.332  0.7665 -0.1782  0.0080
   23SOL     hw   90   3.074   0.151   0.374  1.5689 -1.2049 -1.0277
   23SOL     hw   91   3.207   0.213   0.339  0.9508  1.2594  0.7244
   23SOL     vw   92   3.120   0.215   0.338  0.8966 -0.1240 -0.0341
   24SOL     ow   93   2.931   4.899   4.078 -0.4086 -0.5079 -0.1139
   24SOL     hw   94   3.014   4.947   4.081 -0.7458  0.0477  1.4893
   24SOL     hw   95   2.865   4.967   4.067 -0.8370 -0.6354  1.4333
   24SOL     vw   96   2.933   4.914   4.077 -0.5095 -0.4513  0.3018
   25SOL     ow   97   1.476   0.799   5.822 -0.4012  0.4237  0.1578
   25SOL     hw   98   1.382   0.813   5.809 -0.7679 -2.4678 -1.3224
   25SOL     hw   99   1.512   0.797   5.733  0.9537  0.8815  0.6783
   25SOL     vw  100   1.468   0.800   5.808 -0.2709  0.1026  0.0310
   26SOL     ow  101   2.817   5.609   3.351 -0.5365  0.2355 -0.0849
   26SOL     hw  102   2.819   5.543   3.420 -2.8907 -0.1309 -0.2971
   26SOL     hw  103   2.908   5.612   3.319 -0.0836 -1.9819  0.7622
   26SOL     vw  104   2.829   5.600   3.356 -0.7875 -0.1054 -0.0012
   27SOL     ow  105   1.631   3.243   6.361  0.3129  0.5247  0.9334
   27SOL     hw  106   1.584   3.268   6.441  0.6373  1.0664  0.9646
   27SOL     hw  107   1.591   3.160   6.334 -0.4745  0.8364  1.1064
   27SOL     vw  108   1.619   3.236   6.368  0.2518  0.6374  0.9606
   28SOL     ow  109   3.016   1.212   4.867  0.0631  0.5853 -0.6944
   28SOL     hw  110   3.012   1.305   4.844  0.7789  0.2335 -2.4242
   28SOL     hw  111   3.060   1.171   4.792 -0.5748 -1.2088 -0.1368
   28SOL     vw  112   3.021   1.219   4.854  0.0733  0.3022 -0.8492
   29SOL     ow  113   2.354   3.042   5.296  0.7549  0.0369 -0.1347
   29SOL     hw  114   2.391   3.089   5.371  1.7146  0.6678 -0.9792
   29SOL     hw  115   2.352   2.951   5.324 -0.0435  0.4165  1.1009
   29SOL     vw  116   2.359   3.036   5.310  0.7762  0.1704 -0.0827
   30SOL     ow  117   6.091   4.698   6.536 -0.3525  0.5882  0.0804
   30SOL     hw  118   6.101   4.763   6.466 -0.2471  0.6806  0.1799
   30SOL     hw  119   5.997   4.698   6.556 -0.4659  0.1477 -0.4544
   30SOL     vw  120   6.080   4.707   6.530 -0.3533  0.5422  0.0229
   31SOL     ow  121   5.062   4.658   4.041 -0.3984 -0.4207 -0.2152
   31SOL     hw  122   5.039   4.610   4.120 -0.5893 -0.6762 -0.4218
   31SOL     hw  123   5.156   4.677   4.051 -0.1810 -1.3310 -0.3750
   31SOL     vw  124   5.072   4.654   4.052 -0.3946 -0.5746 -0.2635
   32SOL     ow  125   2.385   3.058   2.605 -0.6599 -0.2707 -0.0486
   32SOL     hw  126   2.344   3.140   2.578  1.2382  0.4664 -0.8938
   32SOL     hw  127   2.420   3.077   2.692 -2.3483 -1.0243  0.8472
   32SOL     vw  128   2.384   3.071   2.613 -0.6320 -0.2728 -0.0417
   33SOL     ow  129   4.769   6.745   2.302  0.0361  0.0577  0.1093
   33SOL     hw  130   4.702   6.779   2.362  1.0641  3.1923 -0.3407
   33SOL     hw  131   4.852   6.773   2.341  0.9640 -1.3207 -0.7799
   33SOL     vw  132   4.771   6.753   2.315  0.2942  0.2892 -0.0674
   34SOL     ow  133   3.790   0.292   6.998 -0.1554 -0.2971  0.5278
   34SOL     hw  134   3.882   0.289   7.025  0.4077  0.1456 -1.1853
   34SOL     hw  135   3.740   0.291   7.080  1.3165 -1.9390  1.4853
   34SOL     vw  136   3.796   0.291   7.012  0.1131 -0.4553  0.4281
   35SOL     ow  137   6.644   5.193   1.312 -0.1533  0.2902  0.0511
   35SOL     hw  138   6.730   5.188   1.269  0.5340 -2.9365  1.4825
   35SOL     hw  139   6.583   5.162   1.246  0.3048 -0.6776  0.0616
   35SOL     vw  140   6.647   5.189   1.297 -0.0021 -0.2630  0.2413
   36SOL     ow  141   0.185   4.748   4.633 -0.6845 -0.1986 -0.2608
   36SOL     hw  142   0.276   4.722   4.650  0.3277  4.2305  3.2372
   36SOL     hw  143   0.132   4.677   4.669  1.6553 -0.2229  3.7179
   36SOL     vw  144   0.190   4.735   4.640 -0.2422  0.3827  0.7260
   37SOL     ow  145   5.759   4.244   2.063  0.2362  0.1058 -0.0583
   37SOL     hw  146   5.708   4.318   2.029  1.9148  0.4010 -2.1740
   37SOL     hw  147   5.825   4.284   2.120 -0.3931 -0.0264  0.7678
   37SOL     vw  148   5.761   4.259   2.066  0.3743  0.1276 -0.2284
   38SOL     ow  149   6.500   2.137   3.738 -0.6112 -0.5228  0.2727
   38SOL     hw  150   6.556   2.066   3.706  1.6055  1.0637  0.3392
   38SOL     hw  151   6.562   2.205   3.766 -2.5297  0.3137  2.9353
   38SOL     vw  152   6.516   2.137   3.738 -0.5722 -0.2030  0.6328
   39SOL     ow  153   2.801   6.302   2.322  0.4617 -0.4581 -0.4714
   39SOL     hw  154   2.829   6.331   2.408 -0.3323 -1.0891  0.0140
   39SOL     hw  155   2.762   6.380   2.282  1.8249  0.1232 -0.7107
   39SOL     vw  156   2.800   6.316   2.328  0.5368 -0.4647 -0.4389
   40SOL     ow  157   0.172   4.970   4.415 -0.9193 -0.5246 -0.3011
   40SOL     hw  158   0.248   5.005   4.369  1.7958 -0.8461  3.5417
   40SOL     hw  159   0.101   5.032   4.394  1.6710  2.7614 -0.1687
   40SOL     vw  160   0.172   4.983   4.406 -0.2193 -0.1335  0.2234
   41SOL     ow  161   3.919   6.250   3.046 -0.0322 -0.2196 -0.2539
   41SOL     hw  162   3.870   6.322   3.085  3.3796  2.2970 -0.1727
   41SOL     hw  163   3.882   6.241   2.958 -0.7525  1.4996 -0.1730
   41SOL     vw  164   3.908   6.258   3.039  0.3229  0.3395 -0.2326
   42SOL     ow  165   6.504   0.472   6.297 -0.1163  0.5480  0.3729
   42SOL     hw  166   6.435   0.449   6.359  0.8343  0.8118  1.5594
   42SOL     hw  167   6.494   0.566   6.283 -2.0188  0.0953 -2.0355
   42SOL     vw  168   6.494   0.481   6.303 -0.2418  0.5231  0.2117
   43SOL     ow  169   0.068   2.787   2.631 -0.1033  0.1673  0.1166
   43SOL     hw  170   0.140   2.846   2.611 -1.4137  2.0465  0.6498
   43SOL     hw  171   0.018   2.781   2.549 -0.8936  1.2143  0.4901
   43SOL     vw  172   0.071   2.794   2.618 -0.3805  0.5534  0.2363
   44SOL     ow  173   0.303   2.519   2.745  0.3423 -0.1527  0.0339
   44SOL     hw  174   0.397   2.536   2.754  0.4330 -0.5251 -0.1813
   44SOL     hw  175   0.288   2.440   2.797  0.0141  0.2976  0.6386
   44SOL     vw  176   0.314   2.511   2.753  0.3110 -0.1425  0.0854
   45SOL     ow  177   6.894   4.492   5.865 -0.2478 -0.4655  0.0519
   45SOL     hw  178   6.851   4.415   5.826  0.5830  0.0266 -2.0002
   45SOL     hw  179   6.826   4.532   5.919 -1.6235 -1.0722 -1.1258
   45SOL     vw  180   6.879   4.487   5.867 -0.3197 -0.4807 -0.3738
   46SOL     ow  181   5.500   0.915   5.319  0.4571  0.6298  0.2521
   46SOL     hw  182   5.484   0.916   5.224  1.9908  2.0029 -0.0242
   46SOL     hw  183   5.413   0.908   5.357 -0.1594 -0.6450 -1.2480
   46SOL     vw  184   5.487   0.914   5.311  0.5779  0.6427  0.0179
   47SOL     ow  185   2.233   3.072   5.024 -0.5104 -0.4361 -0.0258
   47SOL     hw  186   2.306   3.064   4.963  0.7500 -0.6593  1.4730
   47SOL     hw  187   2.211   2.982   5.048 -1.6857 -0.4086 -0.8921
   47SOL     vw  188   2.240   3.059   5.019 -0.4990 -0.4618  0.0575
   48SOL     ow  189   4.956   5.125   1.817 -0.3808 -0.4272 -0.4401
   48SOL     hw  190   5.019   5.094   1.883 -1.1551 -0.9523  0.0767
   48SOL     hw  191   4.944   5.218   1.837 -0.2723 -0.4800 -0.1170
   48SOL     vw  192   4.963   5.133   1.828 -0.4687 -0.5035 -0.3293
   49SOL     ow  193   3.286   6.214   2.116  0.0932 -0.1752 -0.6327
   49SOL     hw  194   3.339   6.234   2.193  0.5363 -0.5169 -0.8392
   49SOL     hw  195   3.297   6.119   2.103  0.4579 -0.0382 -1.4228
   49SOL     vw  196   3.295   6.204   2.124  0.1998 -0.2024 -0.7643
   50SOL     ow  197   0.304   2.114   4.828  0.2303  0.7961  0.3438
   50SOL     hw  198   0.317   2.167   4.907 -0.9927  1.6062  0.0258
   50SOL     hw  199   0.239   2.162   4.778  0.7447  0.1194 -1.0153
   50SOL     vw  200   0.297   2.127   4.832  0.1368  0.8136  0.1225
   51SOL     ow  201   1.031   3.984   3.338 -0.1187 -0.1626  0.1748
   51SOL     hw  202   0.987   4.060   3.300 -0.0022 -0.3148 -0.2696
   51SOL     hw  203   1.095   4.020   3.399 -2.7100  0.0681  3.0058
   51SOL     vw  204   1.033   3.999   3.341 -0.4451 -0.1523  0.4897
   52SOL     ow  205   1.608   6.802   2.663 -0.5408 -0.2691 -0.4216
   52SOL     hw  206   1.595   6.737   2.732 -1.6694 -1.9022 -2.0646
   52SOL     hw  207   1.578   6.758   2.583 -0.3232  1.9182 -1.7881
   52SOL     vw  208   1.603   6.787   2.662 -0.6610 -0.1960 -0.8186
   53SOL     ow  209   5.279   0.265   6.881  0.2481  0.1051  0.1251
   53SOL     hw  210   5.210   0.296   6.821 -0.3518 -1.5414 -0.0783
   53SOL     hw  211   5.354   0.249   6.825 -0.0374 -0.5805 -0.0790
   53SOL     vw  212   5.280   0.267   6.865  0.1314 -0.2026  0.0713
   54SOL     ow  213   2.757   6.260   6.683  0.0058 -0.4019 -0.3046
   54SOL     hw  214   2.837   6.210   6.701 -0.8136 -1.7834 -0.3259
   54SOL     hw  215   2.752   6.263   6.588  0.4728  0.4471 -0.3108
   54SOL     vw  216   2.767   6.253   6.673 -0.0408 -0.4723 -0.3085
   55SOL     ow  217   0.496   4.542   5.239  0.4191 -0.1295  0.3397
   55SOL     hw  218   0.454   4.459   5.216 -0.7388  0.6435 -0.4427
   55SOL     hw  219   0.587   4.531   5.213  0.6854 -1.7402  1.7924
   55SOL     vw  220   0.503   4.529   5.233  0.3015 -0.2401  0.4280
   56SOL     ow  221   0.263   5.651   2.856 -0.2195 -0.0425 -0.7487
   56SOL     hw  222   0.261   5.556   2.869  1.5953 -0.1029 -0.7380
   56SOL     hw  223   0.265   5.688   2.944 -1.9165  0.0919 -0.7190
   56SOL     vw  224   0.263   5.643   2.869 -0.2039 -0.0329 -0.7434
   57SOL     ow  225   3.109   0.591   6.280  0.0552  0.5939 -0.2262
   57SOL     hw  226   3.153   0.669   6.248 -2.3249  3.2440  2.3135
   57SOL     hw  227   3.165   0.559   6.350  0.5962  0.5744 -0.6619
   57SOL     vw  228   3.122   0.597   6.285 -0.1875  0.9409  0.0515
   58SOL     ow  229   4.818   4.580   3.059  0.1115 -0.5473  0.0626
   58SOL     hw  230   4.875   4.648   3.095 -1.0526 -0.5707  2.1225
   58SOL     hw  231   4.866   4.498   3.075  0.8367 -0.3586 -1.0427
   58SOL     vw  232   4.832   4.578   3.066  0.0539 -0.5255  0.1886
   59SOL     ow  233   3.865   6.840   5.302  0.0514 -0.0786 -0.8490
   59SOL     hw  234   3.848   6.814   5.211  0.6400  0.5270 -1.1367
   59SOL     hw  235   3.778   6.863   5.336 -0.4225 -1.9222 -0.7247
   59SOL     vw  236   3.851   6.840   5.294  0.0665 -0.2422 -0.8705
   60SOL     ow  237   0.322   6.605   4.682 -0.1289 -0.1703 -1.0958
   60SOL     hw  238   0.231   6.591   4.657 -0.5328 -1.1423  0.7785
   60SOL     hw  239   0.320   6.617   4.777  1.8188 -1.4400 -0.8349
   60SOL     vw  240   0.310   6.605   4.691  0.0748 -0.4661 -0.8140
   61SOL     ow  241   2.831   3.619   4.700  0.0509 -0.2296 -0.2252
   61SOL     hw  242   2.778   3.630   4.780 -2.6754 -0.6321 -1.8604
   61SOL     hw  243   2.780   3.664   4.632  1.5248 -1.2115 -2.0471
   61SOL     vw  244   2.817   3.627   4.702 -0.1143 -0.4122 -0.6814
   62SOL     ow  245   5.332   2.178   2.075  0.3404 -0.0261 -0.2255
   62SOL     hw  246   5.283   2.256   2.101  1.3387 -0.0660  2.0347
   62SOL     hw  247   5.423   2.208   2.070  0.5298 -0.6985 -0.9535
   62SOL     vw  248   5.338   2.193   2.078  0.4973 -0.1200 -0.0232
   63SOL     ow  249   4.210   4.317   4.148 -0.1473  0.6155  0.6573
   63SOL     hw  250   4.204   4.268   4.066  0.3478 -2.2125  2.1940
   63SOL     hw  251   4.298   4.299   4.180 -0.1851  2.0361  1.6196
   63SOL     vw  252   4.221   4.308   4.141 -0.0868  0.4296  0.9873
   64SOL     ow  253   4.053   3.910   3.325  0.6830  0.3353  0.3220
   64SOL     hw  254   3.985   3.955   3.277  1.2938  0.1694 -0.7384
   64SOL     hw  255   4.021   3.905   3.415 -0.0706  1.4812  0.1291
   64SOL     vw  256   4.040   3.915   3.331  0.6642  0.4647  0.1565
   65SOL     ow  257   1.390   0.276   2.182  0.1048 -0.5001 -0.0842
   65SOL     hw  258   1.399   0.184   2.158  0.0891 -0.4434 -0.3086
   65SOL     hw  259   1.469   0.318   2.147  0.5464 -0.5805  0.7815
   65SOL     vw  260   1.402   0.269   2.175  0.1611 -0.5033  0.0004
   66SOL     ow  261   4.759   6.427   4.957 -0.1067 -0.0609 -0.4871
   66SOL     hw  262   4.848   6.431   4.991 -0.4506  1.2887  0.3285
   66SOL     hw  263   4.769   6.429   4.861  0.7232  0.5354 -0.3926
   66SOL     vw  264   4.772   6.428   4.948 -0.0427  0.1957 -0.3667
   67SOL     ow  265   3.687   6.844   4.600 -0.2829 -0.4132  0.0285
   67SOL     hw  266   3.595   6.869   4.611  0.5854  2.7446  1.2499
   67SOL     hw  267   3.704   6.784   4.672 -0.9508  0.4420  0.9271
   67SOL     vw  268   3.677   6.839   4.611 -0.2564  0.1161  0.3083
   68SOL     ow  269   4.423   0.149   1.617 -0.8396 -0.0442  0.2164
   68SOL     hw  270   4.359   0.086   1.651 -1.8715  0.5986 -0.4826
   68SOL     hw  271   4.470   0.100   1.549  1.2273 -1.3329  2.4172
   68SOL     vw  272   4.421   0.134   1.612 -0.7031 -0.1294  0.4146
   69SOL     ow  273   2.554   0.216   5.602 -0.9750 -0.1818  0.1532
   69SOL     hw  274   2.631   0.226   5.659 -0.2673 -1.2779 -0.5615
   69SOL     hw  275   2.563   0.127   5.566 -3.0931 -0.6981  0.7908
   69SOL     vw  276   2.566   0.205   5.605 -1.1611 -0.3945  0.1431
   70SOL     ow  277   4.736   0.896   0.309  0.0651 -0.5380 -0.1791
   70SOL     hw  278   4.734   0.812   0.263  0.2847  0.6950 -2.5396
   70SOL     hw  279   4.650   0.935   0.293  0.9409  0.9161 -1.5697
   70SOL     vw  280   4.724   0.890   0.301  0.2096 -0.1834 -0.6740
   71SOL     ow  281   5.918   3.876   5.709  0.7346 -0.3279 -0.3033
   71SOL     hw  282   5.906   3.806   5.773 -0.1242 -0.3729 -0.4987
   71SOL     hw  283   5.997   3.921   5.737  0.5641 -0.5683  0.5936
   71SOL     vw  284   5.927   3.873   5.721  0.5989 -0.3655 -0.2105
   72SOL     ow  285   1.446   1.606   4.252 -0.0153  0.4309  0.1672
   72SOL     hw  286   1.395   1.629   4.174  0.1122 -0.4454 -0.1800
   72SOL     hw  287   1.434   1.681   4.311 -0.9974  0.6195 -0.2554
   72SOL     vw  288   1.438   1.619   4.250 -0.1281  0.3402  0.0658
   73SOL     ow  289   3.818   5.499   2.429  0.5483  0.3684  0.2600
   73SOL     hw  290   3.771   5.416   2.420  3.0102 -1.0737 -0.1729
   73SOL     hw  291   3.891   5.479   2.488  3.1618  1.2054 -2.4105
   73SOL     vw  292   3.821   5.485   2.436  1.2178  0.2887 -0.1494
   74SOL     ow  293   3.880   1.066   1.991  0.4627  0.2140  0.1574
   74SOL     hw  294   3.910   0.978   1.969  1.2903  0.4631  0.2430
   74SOL     hw  295   3.886   1.115   1.910  2.9912  0.9877  0.7217
   74SOL     vw  296   3.885   1.061   1.978  0.9054  0.3489  0.2431
   75SOL     ow  297   2.989   3.817   2.656 -0.6738 -0.0257  0.1799
   75SOL     hw  298   3.064   3.759   2.666 -0.1131  0.8726  1.3758
   75SOL     hw  299   3.016   3.882   2.591  0.0808  1.0138  1.4806
   75SOL     vw  300   3.002   3.818   2.649 -0.5002  0.2300  0.5095
   76SOL     ow  301   6.186   4.485   5.788  0.2414  0.5977 -0.7845
   76SOL     hw  302   6.183   4.402   5.836  0.8223  0.2708 -1.3050
   76SOL     hw  303   6.201   4.551   5.856  1.8322  0.0594 -0.5716
   76SOL     vw  304   6.187   4.483   5.803  0.5279  0.4838 -0.8252
   77SOL     ow  305   2.799   1.774   1.089 -0.0671 -0.0728 -0.2624
   77SOL     hw  306   2.719   1.727   1.116  0.3392  1.0997  3.5715
   77SOL     hw  307   2.769   1.833   1.020 -2.1527 -0.8041 -0.0697
   77SOL     vw  308   2.784   1.775   1.084 -0.2888 -0.0145  0.2688
   78SOL     ow  309   2.143   3.887   3.444 -0.4042  0.0434  0.1526
   78SOL     hw  310   2.065   3.868   3.495  0.3764  1.2503  1.9377
   78SOL     hw  311   2.216   3.868   3.504  0.5391  2.0992 -0.2214
   78SOL     vw  312   2.143   3.882   3.459 -0.1767  0.4739  0.3389
   79SOL     ow  313   4.834   0.594   6.330 -0.0991  0.0446  0.7094
   79SOL     hw  314   4.858   0.556   6.414  1.5074 -0.7020 -0.0394
   79SOL     hw  315   4.909   0.649   6.307 -0.9621  1.0433  0.2327
   79SOL     vw  316   4.847   0.596   6.338 -0.0010  0.0778  0.5476
   80SOL     ow  317   1.334   1.456   1.814  0.2199 -0.2204  0.3322
   80SOL     hw  318   1.358   1.433   1.725  0.3889  2.0720 -0.2788
   80SOL     hw  319   1.394   1.407   1.869 -0.2803 -2.1390 -0.7508
   80SOL     vw  320   1.345   1.447   1.810  0.1763 -0.1712  0.1087
   81SOL     ow  321   3.261   3.870   5.003  0.3951  0.5029  0.6051
   81SOL     hw  322   3.313   3.790   5.017  2.0855  1.6165  1.0569
   81SOL     hw  323   3.316   3.924   4.947 -0.7156  1.3719  0.3323
   81SOL     vw  324   3.275   3.866   4.998  0.4716  0.7644  0.6287
   82SOL     ow  325   0.969   2.439   4.642  0.0760 -0.0370 -0.2768
   82SOL     hw  326   1.015   2.475   4.566 -0.9893 -0.1786 -1.0079
   82SOL     hw  327   1.011   2.481   4.717  2.5553 -1.4024 -0.7748
   82SOL     vw  328   0.980   2.449   4.642  0.2626 -0.2358 -0.4392
   83SOL     ow  329   4.777   2.397   0.833 -0.1313 -0.0699  0.7167
   83SOL     hw  330   4.723   2.417   0.910 -0.1388 -0.6522  0.8687
   83SOL     hw  331   4.722   2.419   0.758  0.6228  2.5830  0.8317
   83SOL     vw  332   4.763   2.403   0.834 -0.0327  0.2034  0.7519
   84SOL     ow  333   3.005   3.367   4.586 -0.0125  0.1449  0.1092
   84SOL     hw  334   3.028   3.281   4.621 -3.3112 -0.5436  0.9233
   84SOL     hw  335   3.052   3.372   4.502  0.9326 -2.0726  0.4300
   84SOL     vw  336   3.014   3.356   4.579 -0.3231 -0.2385  0.2592
   85SOL     ow  337   4.038   5.397   1.480  0.0262  0.6881 -0.4505
   85SOL     hw  338   4.062   5.320   1.429 -1.0183 -0.0979  0.1923
   85SOL     hw  339   4.074   5.380   1.567  1.4821  1.8512 -0.7847
   85SOL     vw  340   4.046   5.385   1.485  0.0806  0.7377 -0.4097
   86SOL     ow  341   2.225   4.722   1.286 -0.2243 -0.3040 -0.1948
   86SOL     hw  342   2.133   4.730   1.261  0.5130  2.6818 -2.4642
   86SOL     hw  343   2.263   4.661   1.223 -0.1286  0.5450 -0.9692
   86SOL     vw  344   2.218   4.715   1.275 -0.1144  0.2019 -0.5965
   87SOL     ow  345   6.404   5.237   4.512  0.1950  0.4499 -0.6747
   87SOL     hw  346   6.497   5.216   4.504  0.0627 -0.5456  0.2143
   87SOL     hw  347   6.358   5.162   4.476 -0.2860  1.3090 -1.9179
   87SOL     vw  348   6.410   5.225   4.507  0.1142  0.4320 -0.7215
   88SOL     ow  349   0.923   5.937   6.400  0.1608  0.0915  0.0878
   88SOL     hw  350   1.005   5.888   6.397 -0.3090 -0.7213  0.0350
   88SOL     hw  351   0.943   6.016   6.450  1.4924  0.9599 -1.7267
   88SOL     vw  352   0.936   5.941   6.406  0.2745  0.0989 -0.1588
   89SOL     ow  353   6.893   0.641   2.018 -0.2760  0.6014  0.2837
   89SOL     hw  354   6.962   0.707   2.012  0.1843  0.2629  1.6555
   89SOL     hw  355   6.935   0.560   1.989  0.0968  0.2804  1.6472
   89SOL     vw  356   6.907   0.639   2.013 -0.1662  0.5144  0.6446
   90SOL     ow  357   4.811   2.630   3.225  0.5019  0.1818 -0.0361
   90SOL     hw  358   4.836   2.541   3.200  3.2671 -0.5882  4.3107
   90SOL     hw  359   4.883   2.685   3.192 -0.0455  0.5087 -0.7249
   90SOL     vw  360   4.824   2.626   3.217  0.7946  0.1234  0.4466
   91SOL     ow  361   4.563   5.699   1.717 -0.7863 -0.0519 -0.4160
   91SOL     hw  362   4.633   5.758   1.743 -2.3242  1.1637  1.1884
   91SOL     hw  363   4.568   5.627   1.780  0.1927 -0.9821 -1.5038
   91SOL     vw  364   4.573   5.697   1.728 -0.8600 -0.0141 -0.3479
   92SOL     ow  365   1.936   5.036   3.512  0.4542  0.3838 -0.5458
   92SOL     hw  366   2.027   5.032   3.483  1.2349  1.8254  1.4478
   92SOL     hw  367   1.899   5.108   3.461  0.5982  0.1933 -0.9254
   92SOL     vw  368   1.943   5.045   3.502  0.5762  0.5491 -0.3327
   93SOL     ow  369   6.393   4.731   1.022  0.3870 -0.0307  0.5952
   93SOL     hw  370   6.475   4.776   1.044  0.6426  0.6313 -1.4737
   93SOL     hw  371   6.408   4.640   1.046  0.9891  0.4333  2.0516
   93SOL     vw  372   6.406   4.725   1.028  0.4997  0.1178  0.5143
   94SOL     ow  373   5.482   0.005   2.179 -0.1484  0.3689 -0.0408
   94SOL     hw  374   5.397   0.034   2.146  0.2759 -0.1865 -1.7249
   94SOL     hw  375   5.527  -0.029   2.102  0.6060 -1.7749  1.2686
   94SOL     vw  376   5.477   0.004   2.164  0.0069  0.0129 -0.0902
   95SOL     ow  377   0.722   3.792   1.360  0.2418 -0.6759 -1.1849
   95SOL     hw  378   0.678   3.877   1.363  0.0862 -0.7311  2.3212
   95SOL     hw  379   0.651   3.728   1.364  0.4612 -0.8740 -0.3818
   95SOL     vw  380   0.707   3.795   1.361  0.2502 -0.7093 -0.6164
   96SOL     ow  381   6.154   0.580   1.686  0.5019  0.5606 -0.8816
   96SOL     hw  382   6.155   0.485   1.675  1.3204  0.5803 -1.0493
   96SOL     hw  383   6.088   0.611   1.623  1.3344  0.2264 -1.9446
   96SOL     vw  384   6.145   0.572   1.676  0.7198  0.5191 -1.0440
   97SOL     ow  385   6.250   2.342   3.712  0.0265 -0.1678 -0.1107
   97SOL     hw  386   6.275   2.380   3.796  0.0126  0.7747 -0.5192
   97SOL     hw  387   6.178   2.397   3.681  0.2431 -0.3104 -0.8865
   97SOL     vw  388   6.244   2.354   3.719  0.0532 -0.0622 -0.2669
   98SOL     ow  389   5.105   5.729   5.774  0.4629  0.2925 -0.5934
   98SOL     hw  390   5.128   5.698   5.861  1.5202 -2.0496 -1.6306
   98SOL     hw  391   5.021   5.686   5.755 -0.7349  2.2515 -0.0923
   98SOL     vw  392   5.097   5.719   5.783  0.4444  0.2418 -0.6640
   99SOL     ow  393   1.249   2.971   4.913  0.5564  0.0415 -0.9033
   99SOL     hw  394   1.225   2.897   4.969  0.9776 -0.4814 -1.3988
   99SOL     hw  395   1.250   3.046   4.972 -2.3305  0.1313 -0.8552
   99SOL     vw  396   1.246   2.971   4.929  0.2311 -0.0157 -0.9623
  100SOL     ow  397   3.473   6.077   1.096 -0.0845  0.0967  0.2983
  100SOL     hw  398   3.551   6.078   1.041 -1.5599 -0.0812 -1.9103
  100SOL     hw  399   3.470   6.165   1.134  1.0891  0.1494  0.3162
  100SOL     vw  400   3.483   6.089   1.094 -0.1243  0.0799  0.0093
  101SOL     ow  401   3.373   3.912   6.710  0.1896 -0.4003  0.7563
  101SOL     hw  402   3.325   3.995   6.705 -1.1307 -1.1514  0.2119
  101SOL     hw  403   3.417   3.905   6.626 -1.8935 -1.4682 -0.3166
  101SOL     vw  404   3.372   3.922   6.699 -0.2594 -0.6403  0.5431
  102SOL     ow  405   4.576   5.113   2.458 -0.2087 -0.1930 -0.3919
  102SOL     hw  406   4.584   5.203   2.492  2.1035 -0.6030  0.3416
  102SOL     hw  407   4.665   5.079   2.459 -1.1010 -2.7502 -0.0283
  102SOL     vw  408   4.589   5.121   2.463 -0.0212 -0.5846 -0.2471
  103SOL     ow  409   5.863   6.250   3.356 -0.0761  0.6514  0.4866
  103SOL     hw  410   5.837   6.223   3.444 -1.0157  1.8539  0.6067
  103SOL     hw  411   5.958   6.244   3.356 -0.0863  0.3517  1.4876
  103SOL     vw  412   5.872   6.246   3.368 -0.2017  0.7706  0.6346
  104SOL     ow  413   5.232   0.358   3.488  0.2807  0.1235 -0.2799
  104SOL     hw  414   5.207   0.449   3.475  1.2282  0.6812  1.5369
  104SOL     hw  415   5.173   0.326   3.555 -0.2821 -0.7430 -1.1559
  104SOL     vw  416   5.221   0.366   3.495  0.3316  0.0828 -0.1558
  105SOL     ow  417   2.112   5.649   5.639 -0.3184 -0.0432  0.5746
  105SOL     hw  418   2.057   5.590   5.588 -1.2421  2.0805 -1.0595
  105SOL     hw  419   2.050   5.709   5.681  0.6333  1.9451 -0.7059
  105SOL     vw  420   2.096   5.649   5.638 -0.3146  0.4992  0.1903
  106SOL     ow  421   2.666   6.017   4.645  0.0991  0.6105  0.5088
  106SOL     hw  422   2.613   6.096   4.638  2.1565  1.9896 -0.6341
  106SOL     hw  423   2.737   6.030   4.582 -0.2729 -2.8440 -0.8563
  106SOL     vw  424   2.668   6.029   4.636  0.3214  0.3366  0.1779
  107SOL     ow  425   2.059   3.879   5.826  0.1309 -0.6382  0.7205
  107SOL     hw  426   2.090   3.795   5.792 -2.0443 -0.8494 -0.9628
  107SOL     hw  427   2.090   3.943   5.761 -0.5845 -0.5134  0.4958
  107SOL     vw  428   2.068   3.876   5.813 -0.2506 -0.6495  0.4687
  108SOL     ow  429   3.363   5.124   5.503 -0.1859 -0.2363 -0.4877
  108SOL     hw  430   3.379   5.210   5.463  1.2797 -1.2324 -2.1662
  108SOL     hw  431   3.315   5.144   5.584  1.2137  2.2775 -0.1692
  108SOL     vw  432   3.359   5.138   5.509  0.1922 -0.0362 -0.6673
  109SOL     ow  433   1.510   4.715   2.327  0.3481  0.3067  0.0633
  109SOL     hw  434   1.559   4.701   2.246 -0.8480  2.6879 -1.2036
  109SOL     hw  435   1.574   4.746   2.390  1.1629 -0.8159 -0.1907
  109SOL     vw  436   1.525   4.717   2.324  0.2977  0.4728 -0.1374
  110SOL     ow  437   6.011   3.301   5.572 -0.0947 -0.2739 -0.1948
  110SOL     hw  438   5.950   3.318   5.643  0.5981 -0.0266  0.3588
  110SOL     hw  439   5.976   3.349   5.497 -0.0485  0.6933  0.3890
  110SOL     vw  440   5.998   3.310   5.572  0.0024 -0.1137 -0.0448
  111SOL     ow  441   2.904   2.837   0.201  0.0771 -0.0646  0.2986
  111SOL     hw  442   2.820   2.862   0.163  0.3985  0.1115 -0.3194
  111SOL     hw  443   2.907   2.742   0.193 -0.7486 -0.2372  1.7993
  111SOL     vw  444   2.893   2.828   0.195  0.0107 -0.0641  0.4151
  112SOL     ow  445   4.821   1.227   2.513  0.0964  0.2670 -0.2909
  112SOL     hw  446   4.799   1.303   2.566 -2.2104 -0.7353  0.3303
  112SOL     hw  447   4.828   1.260   2.424  0.0341  1.3499  0.0964
  112SOL     vw  448   4.819   1.241   2.508 -0.2160  0.2776 -0.1580
  113SOL     ow  449   2.708   1.138   4.216 -0.5155  0.5539 -0.7324
  113SOL     hw  450   2.785   1.194   4.211  0.2200 -0.4532 -0.8834
  113SOL     hw  451   2.706   1.107   4.306 -1.2930  1.3234 -0.4744
  113SOL     vw  452   2.718   1.141   4.227 -0.5209  0.5225 -0.7181
  114SOL     ow  453   1.689   2.220   6.399  0.2478 -0.3200 -0.2895
  114SOL     hw  454   1.602   2.256   6.389  0.4140  0.3328  0.5751
  114SOL     hw  455   1.734   2.243   6.317 -0.1300  0.0437 -0.3951
  114SOL     vw  456   1.684   2.228   6.387  0.2198 -0.1858 -0.1893
  115SOL     ow  457   5.808   3.988   5.423 -0.1261  0.3849 -0.4727
  115SOL     hw  458   5.886   3.956   5.377  0.5546  0.7336  0.4240
  115SOL     hw  459   5.757   4.032   5.354  0.0555 -0.5636 -1.2347
  115SOL     vw  460   5.811   3.990   5.408 -0.0124  0.3058 -0.4547
  116SOL     ow  461   0.802   2.061   0.289 -0.0827 -0.2230 -0.7402
  116SOL     hw  462   0.861   2.116   0.238 -2.3533  3.0294 -0.2055
  116SOL     hw  463   0.815   2.090   0.380 -1.6599 -0.1946 -0.4884
  116SOL     vw  464   0.811   2.072   0.294 -0.5904  0.2099 -0.6364
  117SOL     ow  465   6.231   2.456   0.554 -0.5849  0.9082 -0.5301
  117SOL     hw  466   6.318   2.423   0.534 -0.3102  0.6609  1.0060
  117SOL     hw  467   6.204   2.501   0.473  0.4662 -0.0033 -1.4240
  117SOL     vw  468   6.239   2.458   0.540 -0.4101  0.7553 -0.4454
  118SOL     ow  469   4.457   1.638   1.088 -0.1166 -0.3252 -1.1576
  118SOL     hw  470   4.392   1.631   1.158  1.2264 -0.4490  0.1472
  118SOL     hw  471   4.418   1.593   1.013 -0.5393 -2.5883  0.3246
  118SOL     vw  472   4.443   1.631   1.088  0.0048 -0.6402 -0.7899
  119SOL     ow  473   2.410   4.548   1.140  0.1501 -0.4410  0.3112
  119SOL     hw  474   2.406   4.622   1.080 -1.6111 -0.1412  0.7663
  119SOL     hw  475   2.434   4.587   1.225 -0.8292 -0.3734  0.5627
  119SOL     vw  476   2.413   4.563   1.144 -0.2115 -0.3924  0.4044
  120SOL     ow  477   5.012   3.400   6.529  0.1211  0.6979  0.3511
  120SOL     hw  478   4.942   3.464   6.523 -0.9065 -0.5018 -2.0521
  120SOL     hw  479   5.054   3.417   6.613 -2.8017  1.7261  1.7406
  120SOL     vw  480   5.008   3.411   6.539 -0.4003  0.6753  0.2174
  121SOL     ow  481   5.610   5.309   1.589  0.3682  0.4054  0.1938
  121SOL     hw  482   5.535   5.344   1.637  0.2849  0.6253 -0.0927
  121SOL     hw  483   5.586   5.218   1.570 -0.7030  1.0097 -1.6106
  121SOL     vw  484   5.597   5.302   1.593  0.2158  0.5145 -0.0820
  122SOL     ow  485   4.463   2.153   5.458  0.3153 -0.4906  0.6430
  122SOL     hw  486   4.511   2.226   5.496 -0.2866  0.8234 -0.9980
  122SOL     hw  487   4.451   2.091   5.530  1.7785  0.5250  1.8093
  122SOL     vw  488   4.468   2.154   5.472  0.4292 -0.1833  0.5803
  123SOL     ow  489   5.167   5.933   4.873 -0.5495 -1.0309  0.0022
  123SOL     hw  490   5.201   5.910   4.959 -0.8428  0.6371  0.5960
  123SOL     hw  491   5.079   5.895   4.870  0.0615 -2.4989 -0.2395
  123SOL     vw  492   5.160   5.925   4.884 -0.5074 -1.0047  0.0484
  124SOL     ow  493   1.965   3.385   2.053 -0.6165 -0.4254 -0.5619
  124SOL     hw  494   1.896   3.319   2.065 -0.5267 -0.2493  1.0537
  124SOL     hw  495   1.940   3.457   2.111  0.7112 -0.1873 -0.2557
  124SOL     vw  496   1.953   3.386   2.062 -0.4295 -0.3709 -0.3083
  125SOL     ow  497   1.979   6.850   0.027  0.6161 -0.7466 -0.4213
  125SOL     hw  498   2.054   6.808   0.069  0.7575 -2.6132 -2.3894
  125SOL     hw  499   1.920   6.778   0.005 -1.9915  0.6831  1.3385
  125SOL     vw  500   1.981   6.835   0.030  0.2908 -0.8044 -0.4488
  126SOL     ow  501   2.042   2.251   1.539 -0.7247  0.1584 -0.2101
  126SOL     hw  502   2.108   2.186   1.563  0.0224  1.5469  1.8142
  126SOL     hw  503   2.051   2.320   1.605 -1.6048  2.2425 -2.1104
  126SOL     vw  504   2.052   2.252   1.551 -0.7423  0.6164 -0.1938
  127SOL     ow  505   5.622   2.888   0.737 -0.0953  0.1504  0.5289
  127SOL     hw  506   5.570   2.873   0.658 -0.5025  0.8032  0.6585
  127SOL     hw  507   5.682   2.959   0.713 -0.3327  0.4633  0.8471
  127SOL     vw  508   5.623   2.896   0.724 -0.1805  0.2780  0.5880
  128SOL     ow  509   1.953   5.173   4.705  0.0215 -0.0897  0.6832
  128SOL     hw  510   1.911   5.177   4.619  0.5565  0.4521  0.4346
  128SOL     hw  511   1.997   5.257   4.713  0.1356 -0.2179  1.4082
  128SOL     vw  512   1.953   5.185   4.694  0.1072 -0.0350  0.7458
  129SOL     ow  513   3.077   3.800   6.666 -0.0061 -0.2089  0.7828
  129SOL     hw  514   3.097   3.889   6.695  0.0705  0.1617 -0.3819
  129SOL     hw  515   3.130   3.744   6.723 -0.5615  0.4357  1.9864
  129SOL     vw  516   3.086   3.804   6.678 -0.0693 -0.0749  0.7877
  130SOL     ow  517   5.424   1.434   3.427 -0.5993 -0.2160 -0.4637
  130SOL     hw  518   5.359   1.475   3.484 -1.3654  2.4351 -2.9636
  130SOL     hw  519   5.508   1.470   3.457 -0.3658 -2.3876  1.7411
  130SOL     vw  520   5.426   1.444   3.438 -0.6695 -0.1528 -0.5027
  131SOL     ow  521   4.632   3.531   1.639 -1.0719  0.3867 -0.1440
  131SOL     hw  522   4.547   3.570   1.619 -1.7294 -0.6392  0.5226
  131SOL     hw  523   4.665   3.583   1.713 -2.0066 -0.3582  0.8337
  131SOL     vw  524   4.625   3.543   1.646 -1.2817  0.1532  0.0730
  132SOL     ow  525   3.864   1.661   5.226  0.3301 -0.0856 -0.0861
  132SOL     hw  526   3.932   1.721   5.255  1.9093 -2.0487  0.5430
  132SOL     hw  527   3.813   1.642   5.305  0.4601 -0.3339 -0.0613
  132SOL     vw  528   3.866   1.666   5.240  0.5556 -0.3774  0.0005
  133SOL     ow  529   3.281   3.793   3.977 -0.1293  0.1800 -0.3671
  133SOL     hw  530   3.292   3.867   4.037 -0.4362  1.4103 -1.7659
  133SOL     hw  531   3.296   3.716   4.031 -1.0020  1.2094  1.4180
  133SOL     vw  532   3.285   3.793   3.992 -0.2849  0.4781 -0.3163
  134SOL     ow  533   1.539   6.928   1.232  0.2162 -0.3042  0.4477
  134SOL     hw  534   1.501   7.010   1.265  0.7950 -0.4724  1.5575
  134SOL     hw  535   1.473   6.862   1.251  0.5847 -0.4148  1.3622
  134SOL     vw  536   1.525   6.930   1.239  0.3412 -0.3407  0.7147
  135SOL     ow  537   5.708   6.898   2.354 -0.1119  0.0965 -0.0416
  135SOL     hw  538   5.710   6.808   2.321  0.3320  0.0684  0.0526
  135SOL     hw  539   5.791   6.908   2.400  0.5288  1.0386 -1.3410
  135SOL     vw  540   5.719   6.888   2.356  0.0312  0.2167 -0.2004
  136SOL     ow  541   3.278   6.058   5.213  0.4143 -0.7322 -0.0584
  136SOL     hw  542   3.222   6.005   5.156  0.7786 -0.7802 -0.3804
  136SOL     hw  543   3.252   6.034   5.302 -2.8649  2.0942 -0.0394
  136SOL     vw  544   3.267   6.048   5.217  0.0298 -0.3657 -0.0987
  137SOL     ow  545   6.368   6.522   4.643  0.0422 -0.3912 -0.1807
  137SOL     hw  546   6.414   6.545   4.563 -0.1345 -1.1023 -0.4893
  137SOL     hw  547   6.372   6.427   4.648 -1.2724 -0.4697 -0.1522
  137SOL     vw  548   6.374   6.513   4.633 -0.1547 -0.4957 -0.2179
  138SOL     ow  549   2.563   0.214   2.229 -0.8556 -0.0485  0.9100
  138SOL     hw  550   2.594   0.123   2.221 -0.0043  0.3724 -1.4695
  138SOL     hw  551   2.610   0.249   2.304  0.7644 -0.8726  0.3229
  138SOL     vw  552   2.573   0.206   2.238 -0.5295 -0.1017  0.5187
  139SOL     ow  553   4.502   1.603   0.219  0.4846  0.3075  0.4345
  139SOL     hw  554   4.415   1.566   0.209  0.0217  1.2645  0.7618
  139SOL     hw  555   4.561   1.528   0.222 -0.2250 -0.3246 -0.7341
  139SOL     vw  556   4.498   1.588   0.218  0.3300  0.3504  0.3235
  140SOL     ow  557   6.944   4.793   6.968 -0.1781 -1.1097 -0.0874
  140SOL     hw  558   6.852   4.817   6.981 -0.6121 -3.0400  0.7638
  140SOL     hw  559   6.987   4.818   7.050  0.3366  0.8259 -0.8993
  140SOL     vw  560   6.938   4.799   6.981 -0.1676 -1.1089 -0.0822
  141SOL     ow  561   0.670   5.935   2.259 -0.0638 -0.3375  0.2626
  141SOL     hw  562   0.655   6.030   2.264 -0.8320 -0.3180 -1.5836
  141SOL     hw  563   0.613   5.906   2.188  0.6714 -2.0901  0.3492
  141SOL     vw  564   0.660   5.944   2.250 -0.0681 -0.5658  0.0304
  142SOL     ow  565   1.953   3.135   1.096  0.0960 -0.3679  0.3520
  142SOL     hw  566   2.013   3.200   1.132 -0.0310  0.7536 -1.3510
  142SOL     hw  567   2.005   3.055   1.092  0.1572 -0.5380  2.7757
  142SOL     vw  568   1.968   3.133   1.100  0.0874 -0.2424  0.4470
  143SOL     ow  569   6.382   0.888   3.966  0.3029  0.0650  0.0804
  143SOL     hw  570   6.443   0.823   3.999 -0.1521  0.0254  0.8642
  143SOL     hw  571   6.435   0.967   3.954  0.4878  0.0604  0.8452
  143SOL     vw  572   6.397   0.890   3.968  0.2675  0.0592  0.2848
  144SOL     ow  573   1.509   5.394   3.790 -0.0197 -0.0159 -0.1467
  144SOL     hw  574   1.477   5.342   3.864 -1.5423 -0.5127 -1.0878
  144SOL     hw  575   1.602   5.407   3.808 -0.2313 -0.5701  1.5761
  144SOL     vw  576   1.517   5.389   3.802 -0.2485 -0.1545 -0.0436
  145SOL     ow  577   6.022   6.269   5.379  0.1838  0.6106 -0.0497
  145SOL     hw  578   6.096   6.239   5.328  1.5234  2.4735  0.6692
  145SOL     hw  579   6.025   6.365   5.372 -3.0574  0.7635 -1.1950
  145SOL     vw  580   6.032   6.278   5.372 -0.0672  0.8767 -0.1061
  146SOL     ow  581   5.942   4.783   3.538  0.1746 -0.7086 -0.6487
  146SOL     hw  582   5.979   4.854   3.590 -1.8036  0.9100 -1.3480
  146SOL     hw  583   5.879   4.740   3.597 -0.8736  0.0879 -1.1778
  146SOL     vw  584   5.938   4.786   3.553 -0.2246 -0.3901 -0.8107
  147SOL     ow  585   5.541   3.307   3.949  0.7405  0.7520  0.4690
  147SOL     hw  586   5.582   3.320   4.035  2.2702  0.5135 -0.1866
  147SOL     hw  587   5.451   3.283   3.969  1.3850 -0.5544  2.0883
  147SOL     vw  588   5.535   3.305   3.963  1.0271  0.5481  0.5960
  148SOL     ow  589   6.963   4.899   4.565  0.3613 -0.4446 -0.4323
  148SOL     hw  590   6.898   4.859   4.623  0.8050  0.2977  0.5980
  148SOL     hw  591   6.916   4.969   4.520  0.2921 -0.3221 -0.1669
  148SOL     vw  592   6.949   4.903   4.567  0.4108 -0.3304 -0.2613
  149SOL     ow  593   4.629   2.756   0.210  0.5812 -0.7657 -0.0402
  149SOL     hw  594   4.658   2.818   0.144  1.8191 -0.4618  0.7413
  149SOL     hw  595   4.574   2.694   0.163 -1.3006  1.2837 -0.7340
  149SOL     vw  596   4.625   2.756   0.195  0.4961 -0.4551 -0.0286
  150SOL     ow  597   3.829   4.500   3.319 -0.2878 -0.1016  0.1151
  150SOL     hw  598   3.853   4.557   3.245 -1.9746 -0.4476 -0.7331
  150SOL     hw  599   3.734   4.492   3.313 -0.3843 -0.7035  1.9398
  150SOL     vw  600   3.820   4.507   3.308 -0.5231 -0.2270  0.2440
  151SOL     ow  601   0.288   0.739   5.099  0.6343  0.7569 -0.5174
  151SOL     hw  602   0.241   0.810   5.055  1.2905  0.4364 -1.7926
  151SOL     hw  603   0.380   0.763   5.090  0.7806  0.7104  0.7652
  151SOL     vw  604   0.294   0.752   5.092  0.7402  0.7085 -0.5162
  152SOL     ow  605   4.928   4.229   6.949  0.1698  0.0466 -1.0412
  152SOL     hw  606   4.852   4.209   7.003  2.0093 -3.7614  0.5141
  152SOL     hw  607   4.981   4.288   7.003  0.2786 -0.7437 -0.2717
  152SOL     vw  608   4.925   4.235   6.963  0.4270 -0.5603 -0.7346
  153SOL     ow  609   0.906   6.553   5.666  0.0821  0.5686 -0.1040
  153SOL     hw  610   0.953   6.599   5.736 -0.5601  1.2691 -0.1189
  153SOL     hw  611   0.917   6.610   5.589 -0.5007  0.5654 -0.1899
  153SOL     vw  612   0.914   6.567   5.665 -0.0795  0.6607 -0.1171
  154SOL     ow  613   3.256   6.517   6.141  0.3926 -0.2223  0.6918
  154SOL     hw  614   3.333   6.480   6.184  0.2914 -1.3148 -0.0253
  154SOL     hw  615   3.229   6.450   6.078 -0.9082  0.3168  0.6425
  154SOL     vw  616   3.263   6.503   6.138  0.2075 -0.2954  0.5908
  155SOL     ow  617   3.713   1.034   5.879  0.4541 -0.3255 -0.5254
  155SOL     hw  618   3.675   1.074   5.957  3.1835  0.5704  0.4454
  155SOL     hw  619   3.726   1.106   5.818 -0.1153 -0.7616 -1.1837
  155SOL     vw  620   3.710   1.048   5.881  0.7392 -0.2649 -0.4840
  156SOL     ow  621   0.392   3.150   4.110 -0.1136 -0.2334 -0.1106
  156SOL     hw  622   0.436   3.137   4.026  1.7548 -0.9274  0.9108
  156SOL     hw  623   0.416   3.239   4.136 -0.8179  0.0369 -0.3815
  156SOL     vw  624   0.401   3.160   4.102  0.0400 -0.2893 -0.0117
  157SOL     ow  625   0.345   4.886   1.128  0.5078  0.5553  0.2464
  157SOL     hw  626   0.272   4.882   1.067  0.0995  0.1723  0.7495
  157SOL     hw  627   0.315   4.838   1.205  1.5467 -0.2149  0.2041
  157SOL     vw  628   0.332   4.879   1.130  0.5910  0.4032  0.3073
  158SOL     ow  629   2.423   1.415   6.107 -0.0981  0.3864  0.4409
  158SOL     hw  630   2.412   1.490   6.049 -1.5381  1.3653  1.9015
  158SOL     hw  631   2.397   1.340   6.054  2.2281  0.7250 -1.3368
  158SOL     vw  632   2.418   1.415   6.092  0.0187  0.5602  0.3991
  159SOL     ow  633   6.225   4.897   4.975 -0.5492 -0.1495 -0.4307
  159SOL     hw  634   6.163   4.955   4.931 -0.0677  0.3016 -0.5298
  159SOL     hw  635   6.308   4.944   4.971 -0.1761 -0.7979 -0.4039
  159SOL     vw  636   6.228   4.911   4.969 -0.4365 -0.1755 -0.4404
  160SOL     ow  637   5.822   6.183   5.173 -0.0186  0.0144  0.0204
  160SOL     hw  638   5.754   6.231   5.125  0.4673 -1.8689 -2.7793
  160SOL     hw  639   5.850   6.115   5.112  2.5039 -0.9552  2.1169
  160SOL     vw  640   5.817   6.181   5.158  0.3784 -0.3619 -0.0722
  161SOL     ow  641   0.581   0.230   5.884 -0.2371 -0.0244 -0.0849
  161SOL     hw  642   0.534   0.270   5.957 -0.8121  1.1035 -1.0381
  161SOL     hw  643   0.563   0.288   5.809  0.2115 -1.2244 -1.1573
  161SOL     vw  644   0.573   0.243   5.884 -0.2537 -0.0339 -0.3521
  162SOL     ow  645   0.750   1.684   0.958  0.1740  0.6026 -0.0288
  162SOL     hw  646   0.795   1.716   1.037  0.1120  2.2538 -0.6142
  162SOL     hw  647   0.803   1.610   0.929 -0.3391 -0.6815  2.0711
  162SOL     vw  648   0.763   1.679   0.964  0.0981  0.6510  0.1711
  163SOL     ow  649   2.360   5.841   5.515  0.1033 -0.3659 -0.5205
  163SOL     hw  650   2.311   5.912   5.474 -1.0265  0.3934  1.9903
  163SOL     hw  651   2.451   5.863   5.499 -0.2209 -0.5998 -3.3060
  163SOL     vw  652   2.365   5.853   5.507 -0.0885 -0.2966 -0.5569
  164SOL     ow  653   0.074   1.189   3.173 -0.5634 -0.3775 -0.3280
  164SOL     hw  654   0.093   1.101   3.207  2.1913  0.5508  0.8135
  164SOL     hw  655   0.038   1.236   3.248 -2.7679 -0.6433 -1.1326
  164SOL     vw  656   0.072   1.183   3.187 -0.4908 -0.2901 -0.2835
  165SOL     ow  657   2.451   5.541   0.570 -0.7100  0.2735 -0.6737
  165SOL     hw  658   2.527   5.588   0.604 -0.4018 -2.1214  2.4304
  165SOL     hw  659   2.488   5.461   0.532 -1.5812 -0.8249  0.6964
  165SOL     vw  660   2.466   5.537   0.569 -0.7843 -0.1872 -0.0834
  166SOL     ow  661   3.095   3.177   5.274 -0.2474 -0.3709  0.4248
  166SOL     hw  662   3.024   3.238   5.296  1.5483  2.2675 -0.5007
  166SOL     hw  663   3.079   3.155   5.182  2.3029  3.9038 -1.3541
  166SOL     vw  664   3.083   3.182   5.265  0.3260  0.5412  0.0682
  167SOL     ow  665   6.597   4.972   2.504  0.3454  0.1430  0.5660
  167SOL     hw  666   6.579   4.879   2.488  1.3250 -0.0553  0.5430
  167SOL     hw  667   6.518   5.004   2.548  0.0176 -0.7165  0.6373
  167SOL     vw  668   6.584   4.964   2.508  0.4313  0.0038  0.5724
  168SOL     ow  669   6.528   0.944   5.540  0.0375  0.0623  0.2336
  168SOL     hw  670   6.501   0.926   5.450  2.1756 -1.8303 -0.1303
  168SOL     hw  671   6.621   0.965   5.533 -0.2773  2.3200  1.8040
  168SOL     vw  672   6.537   0.944   5.527  0.2780  0.1104  0.3929
  169SOL     ow  673   3.013   4.665   6.150  0.0722 -0.5071 -0.3421
  169SOL     hw  674   3.050   4.606   6.085  2.0646  1.6911 -1.3651
  169SOL     hw  675   2.976   4.737   6.100 -1.2134 -0.2549  0.8967
  169SOL     vw  676   3.013   4.667   6.135  0.1655 -0.1836 -0.3138
  170SOL     ow  677   5.696   6.848   5.777  0.6355 -0.0301  0.5046
  170SOL     hw  678   5.739   6.775   5.732  0.7727  1.2253 -1.5745
  170SOL     hw  679   5.760   6.919   5.772  1.2836 -0.1896  4.1566
  170SOL     vw  680   5.710   6.848   5.770  0.7391  0.1142  0.7122
  171SOL     ow  681   4.374   4.284   4.764  0.7511 -0.5774  0.8553
  171SOL     hw  682   4.339   4.196   4.779  0.3838 -0.7532 -0.8767
  171SOL     hw  683   4.432   4.274   4.689 -0.7498  0.9773 -0.6042
  171SOL     vw  684   4.377   4.271   4.756  0.5045 -0.3955  0.4342
  172SOL     ow  685   4.985   5.534   3.170 -0.2304  0.6048  0.7806
  172SOL     hw  686   5.006   5.441   3.172 -0.3369  0.5714  2.7997
  172SOL     hw  687   4.959   5.551   3.080  0.0343 -1.2577  0.3056
  172SOL     vw  688   4.985   5.524   3.159 -0.2096  0.3543  0.9843
  173SOL     ow  689   1.757   6.741   1.892 -0.2559  0.0891 -0.2113
  173SOL     hw  690   1.668   6.732   1.926 -1.4228  0.6167 -2.8786
  173SOL     hw  691   1.791   6.820   1.934 -1.8289  1.0516 -0.6789
  173SOL     vw  692   1.749   6.750   1.902 -0.6174  0.2859 -0.6250
  174SOL     ow  693   5.504   3.781   5.787 -1.0138  0.2554 -0.3215
  174SOL     hw  694   5.503   3.691   5.755 -0.7116 -0.0424  0.4672
  174SOL     hw  695   5.587   3.790   5.833  0.1720  1.7711 -2.6055
  174SOL     vw  696   5.515   3.770   5.789 -0.8178  0.4162 -0.5186
  175SOL     ow  697   3.156   0.124   4.521 -1.1161  0.0630  0.1208
  175SOL     hw  698   3.129   0.132   4.612  0.3597 -0.5168  0.6409
  175SOL     hw  699   3.215   0.048   4.520  1.4254  1.8986 -0.6567
  175SOL     vw  700   3.160   0.115   4.533 -0.5863  0.2287  0.0870
  176SOL     ow  701   6.322   0.531   6.847 -0.0724  0.0973  0.3018
  176SOL     hw  702   6.247   0.576   6.809  0.3002  1.7260  1.3952
  176SOL     hw  703   6.394   0.551   6.787 -0.0933  0.2373  0.3221
  176SOL     vw  704   6.322   0.540   6.834 -0.0260  0.3307  0.4487
  177SOL     ow  705   3.613   2.106   2.047 -0.3646  0.4111 -0.0667
  177SOL     hw  706   3.631   2.104   1.953 -1.0063 -4.2339 -0.3077
  177SOL     hw  707   3.519   2.122   2.054 -0.6212 -0.8256 -0.3969
  177SOL     vw  708   3.603   2.108   2.035 -0.4830 -0.3649 -0.1421
  178SOL     ow  709   1.980   0.181   3.984  0.0212  0.0358  0.0142
  178SOL     hw  710   1.897   0.195   3.937  0.1552  1.5209  0.1701
  178SOL     hw  711   1.980   0.088   4.006 -2.7463  0.3991  2.0883
  178SOL     vw  712   1.969   0.171   3.981 -0.3263  0.2797  0.3084
  179SOL     ow  713   1.400   6.514   4.952 -0.4605  0.6204 -0.3277
  179SOL     hw  714   1.359   6.434   4.919  1.2877  0.0670 -1.2318
  179SOL     hw  715   1.408   6.570   4.876 -1.1116  1.4440  0.1915
  179SOL     vw  716   1.395   6.511   4.938 -0.3157  0.6561 -0.3784
  180SOL     ow  717   5.622   2.370   3.176 -0.3836 -0.9462  0.2578
  180SOL     hw  718   5.708   2.408   3.194 -1.4797  1.4916  0.7310
  180SOL     hw  719   5.620   2.289   3.227  1.4523 -0.8726  0.5279
  180SOL     vw  720   5.633   2.364   3.185 -0.2859 -0.6149  0.3557
  181SOL     ow  721   2.637   5.606   0.310  0.5187  0.1940  0.5701
  181SOL     hw  722   2.644   5.674   0.377  0.8185  0.0623  0.6749
  181SOL     hw  723   2.628   5.525   0.359 -0.6381  0.2326  0.4434
  181SOL     vw  724   2.637   5.604   0.325  0.4055  0.1817  0.5672
  182SOL     ow  725   4.459   3.496   3.757  0.5870  0.6413 -0.5794
  182SOL     hw  726   4.542   3.487   3.710  0.7249 -1.2550 -0.0745
  182SOL     hw  727   4.421   3.409   3.753 -1.3421  1.4487 -0.6743
  182SOL     vw  728   4.465   3.483   3.750  0.3510  0.4978 -0.5252
  183SOL     ow  729   3.190   1.793   3.555  0.2919  0.0951 -0.9924
  183SOL     hw  730   3.253   1.730   3.590 -0.7601  0.2582  1.4435
  183SOL     hw  731   3.242   1.870   3.534  0.8620  0.9541  2.7932
  183SOL     vw  732   3.205   1.795   3.557  0.2284  0.2298 -0.1715
  184SOL     ow  733   2.531   1.578   2.155  0.0661 -0.2369 -0.7488
  184SOL     hw  734   2.525   1.484   2.144 -2.7050 -0.0444 -1.8661
  184SOL     hw  735   2.590   1.607   2.085  1.7053 -1.1617  0.1979
  184SOL     vw  736   2.538   1.570   2.144 -0.0831 -0.3335 -0.7713
  185SOL     ow  737   5.950   4.125   3.452  0.5405  0.8985 -0.6413
  185SOL     hw  738   5.971   4.165   3.367 -3.7608  0.9995 -1.8912
  185SOL     hw  739   5.882   4.181   3.489  0.2636 -0.7570  1.5405
  185SOL     vw  740   5.944   4.137   3.445 -0.0632  0.6936 -0.5186
  186SOL     ow  741   1.515   1.634   2.728 -0.7181  0.1793 -0.3330
  186SOL     hw  742   1.529   1.696   2.799  0.8200  0.2120 -0.6196
  186SOL     hw  743   1.581   1.565   2.743 -1.0055 -0.3000 -1.1896
  186SOL     vw  744   1.526   1.633   2.739 -0.5530  0.1203 -0.4839
  187SOL     ow  745   5.324   3.149   1.639 -0.0658  0.7035 -0.2701
  187SOL     hw  746   5.288   3.236   1.657  0.6029  0.7357  1.0734
  187SOL     hw  747   5.296   3.129   1.550 -1.1330  1.8386 -0.2219
  187SOL     vw  748   5.315   3.158   1.630 -0.1183  0.8575 -0.0864
  188SOL     ow  749   6.463   2.557   5.281  0.3857 -0.1398  0.0219
  188SOL     hw  750   6.397   2.594   5.339  1.5107 -0.6337  1.6911
  188SOL     hw  751   6.433   2.467   5.265 -0.4974  0.3335 -1.1139
  188SOL     vw  752   6.451   2.550   5.286  0.4177 -0.1425  0.0925
  189SOL     ow  753   5.806   2.123   0.515  0.7354 -0.6460  0.0325
  189SOL     hw  754   5.800   2.055   0.581 -1.1043 -0.3693  0.1937
  189SOL     hw  755   5.773   2.202   0.559 -0.6247 -0.4820 -1.2005
  189SOL     vw  756   5.801   2.125   0.529  0.3130 -0.5878 -0.1089
  190SOL     ow  757   1.202   2.849   5.736 -0.2359 -0.4442 -0.3275
  190SOL     hw  758   1.177   2.824   5.647 -1.0770 -3.1331  0.5876
  190SOL     hw  759   1.132   2.814   5.791  0.0882  1.4511  1.4055
  190SOL     vw  760   1.189   2.841   5.732 -0.3042 -0.5490  0.0219
  191SOL     ow  761   2.543   6.520   0.869  0.4918  0.3340 -0.3027
  191SOL     hw  762   2.588   6.456   0.924  0.6427  0.0496 -0.7499
  191SOL     hw  763   2.474   6.555   0.925 -0.9260 -1.6900 -0.6570
  191SOL     vw  764   2.540   6.516   0.884  0.3246  0.0296 -0.4085
  192SOL     ow  765   3.833   5.260   3.297  0.4178  0.5785  0.4554
  192SOL     hw  766   3.783   5.179   3.307 -2.2667  1.1903 -4.7130
  192SOL     hw  767   3.882   5.248   3.216  0.1952  3.9133 -0.3267
  192SOL     vw  768   3.833   5.248   3.287  0.0342  1.0993 -0.3297
  193SOL     ow  769   2.338   0.194   5.823  0.4543  0.5652 -0.3343
  193SOL     hw  770   2.378   0.108   5.838 -0.4837 -0.2304 -2.1055
  193SOL     hw  771   2.268   0.200   5.889  1.2025  0.4693  0.4942
  193SOL     vw  772   2.334   0.184   5.834  0.4292  0.4476 -0.4587
  194SOL     ow  773   2.844   0.566   6.409  0.6285  0.2210  0.3733
  194SOL     hw  774   2.752   0.592   6.416  0.7049  0.7578 -0.4570
  194SOL     hw  775   2.851   0.487   6.462 -1.0527 -1.6480 -1.9586
  194SOL     vw  776   2.833   0.559   6.417  0.4169  0.0452 -0.0439
  195SOL     ow  777   3.568   3.012   0.985  0.0872 -0.1615  0.3918
  195SOL     hw  778   3.578   2.958   0.907  0.5945  0.4221  0.0472
  195SOL     hw  779   3.642   2.988   1.040  2.2020  2.3741 -1.0988
  195SOL     vw  780   3.579   3.002   0.982  0.4331  0.2500  0.1497
  196SOL     ow  781   4.880   4.034   5.617  0.5749  0.4474 -0.0095
  196SOL     hw  782   4.959   4.073   5.580  0.0990  0.4764 -1.0411
  196SOL     hw  783   4.839   4.105   5.667  1.7847  0.1050  1.5508
  196SOL     vw  784   4.885   4.049   5.619  0.6716  0.4063  0.0606
  197SOL     ow  785   4.827   3.616   1.438 -0.3954  0.1986  0.4825
  197SOL     hw  786   4.770   3.606   1.515 -0.5975 -1.7921  0.1293
  197SOL     hw  787   4.865   3.529   1.425  0.3652  0.7309 -1.1341
  197SOL     vw  788   4.825   3.603   1.447 -0.3216  0.0062  0.2226
  198SOL     ow  789   0.233   1.105   5.717  0.1635  0.1333 -0.3905
  198SOL     hw  790   0.203   1.145   5.799 -0.1923 -2.2710  0.7360
  198SOL     hw  791   0.222   1.174   5.652 -0.0435  1.9662  1.4637
  198SOL     vw  792   0.227   1.119   5.719  0.0893  0.0579  0.0029
  199SOL     ow  793   6.880   3.294   1.861  0.8952 -0.0139  0.0534
  199SOL     hw  794   6.799   3.332   1.827  0.0526 -0.1576  1.7797
  199SOL     hw  795   6.851   3.233   1.929  2.4197 -0.8165  0.0285
  199SOL     vw  796   6.866   3.291   1.866  0.9849 -0.1386  0.2778
  200SOL     ow  797   5.590   0.573   6.011  0.2943 -0.2060  0.3929
  200SOL     hw  798   5.519   0.592   5.949 -0.0137 -0.4824  0.6530
  200SOL     hw  799   5.661   0.538   5.957 -0.6212 -2.1787  0.3679
  200SOL     vw  800   5.590   0.571   5.996  0.1330 -0.5027  0.4239
  201SOL     ow  801   3.322   1.797   6.738  0.3196  0.4253  0.6550
  201SOL     hw  802   3.243   1.849   6.749 -1.7658 -1.6326 -2.8870
  201SOL     hw  803   3.310   1.722   6.797 -3.8871 -3.2370 -3.9606
  201SOL     vw  804   3.310   1.794   6.747 -0.5107 -0.3294 -0.4215
  202SOL     ow  805   5.089   2.838   3.993  0.0461 -0.6352 -0.2324
  202SOL     hw  806   5.123   2.847   3.904 -0.0080 -1.4377 -0.3344
  202SOL     hw  807   5.000   2.805   3.982  0.7932 -2.9566  0.1702
  202SOL     vw  808   5.082   2.835   3.980  0.1376 -1.0474 -0.1928
  203SOL     ow  809   4.056   6.663   1.616 -0.3682  0.3175 -0.4062
  203SOL     hw  810   4.012   6.709   1.545 -0.5962 -1.3471 -1.3753
  203SOL     hw  811   4.146   6.696   1.614 -0.9102  1.9096 -0.0017
  203SOL     vw  812   4.062   6.674   1.607 -0.4697  0.3080 -0.4807
  204SOL     ow  813   2.649   2.499   6.956 -0.0064  0.0497 -0.4151
  204SOL     hw  814   2.556   2.503   6.978 -0.1279 -0.4718 -0.7994
  204SOL     hw  815   2.691   2.463   7.034 -0.3647 -1.3152 -0.8151
  204SOL     vw  816   2.642   2.495   6.969 -0.0697 -0.1993 -0.5186
  205SOL     ow  817   2.861   6.405   2.677 -0.6027 -0.1676  0.4263
  205SOL     hw  818   2.810   6.330   2.646  1.5531 -1.1319 -1.0189
  205SOL     hw  819   2.939   6.366   2.715  1.0704  1.3253 -1.3013
  205SOL     vw  820   2.864   6.390   2.678 -0.0974 -0.0980  0.0076
  206SOL     ow  821   0.055   6.134   0.533  0.3712  0.2936 -0.1587
  206SOL     hw  822   0.024   6.045   0.551 -1.2472  0.3500 -2.2580
  206SOL     hw  823   0.133   6.144   0.588 -0.1845 -1.9093  1.1571
  206SOL     vw  824   0.061   6.123   0.543  0.0843  0.0103 -0.2621
  207SOL     ow  825   1.610   4.014   4.662  0.9385 -0.2450 -1.0996
  207SOL     hw  826   1.544   3.944   4.654 -1.7396  2.0870 -1.0443
  207SOL     hw  827   1.612   4.055   4.576 -0.3949  1.8757 -0.2100
  207SOL     vw  828   1.601   4.010   4.650  0.4092  0.3421 -0.9749
  208SOL     ow  829   1.213   2.792   2.568 -0.0686  0.4891  0.8014
  208SOL     hw  830   1.267   2.815   2.644 -0.1628  0.3361  0.9144
  208SOL     hw  831   1.136   2.750   2.605 -1.9294  3.6605  0.9159
  208SOL     vw  832   1.210   2.790   2.583 -0.3265  0.8874  0.8315
  209SOL     ow  833   3.728   2.648   0.610 -0.2343  0.1228 -0.3744
  209SOL     hw  834   3.734   2.739   0.640  2.2212  0.3035 -1.1378
  209SOL     hw  835   3.817   2.613   0.623 -1.2550 -2.3660  0.4429
  209SOL     vw  836   3.741   2.656   0.616 -0.0451 -0.1818 -0.3673
  210SOL     ow  837   3.317   3.712   1.050  0.0101  0.0249  0.4903
  210SOL     hw  838   3.395   3.755   1.085 -0.0729  0.3039  0.3304
  210SOL     hw  839   3.263   3.694   1.127  0.8258 -1.3881  0.7720
  210SOL     vw  840   3.320   3.715   1.065  0.1068 -0.1247  0.5063
  211SOL     ow  841   3.837   6.821   2.344 -0.0360  0.3168 -0.3213
  211SOL     hw  842   3.856   6.821   2.251  0.1689  2.4053 -0.3342
  211SOL     hw  843   3.749   6.858   2.351  0.4926  1.5061  0.3591
  211SOL     vw  844   3.828   6.826   2.333  0.0609  0.7491 -0.2333
  212SOL     ow  845   3.483   1.781   6.098 -0.2221 -0.2433 -0.3079
  212SOL     hw  846   3.396   1.741   6.106 -0.3402 -0.0286 -0.5338
  212SOL     hw  847   3.467   1.875   6.100  0.1176 -0.1829  0.9611
  212SOL     vw  848   3.469   1.788   6.099 -0.1929 -0.2069 -0.1702
  213SOL     ow  849   1.887   0.143   6.977  0.3062  0.5549  0.1486
  213SOL     hw  850   1.813   0.203   6.965 -0.2155  0.1785  1.3757
  213SOL     hw  851   1.963   0.192   6.947 -0.5793  0.4379 -2.6027
  213SOL     vw  852   1.887   0.157   6.971  0.1205  0.4898 -0.0525
  214SOL     ow  853   6.845   6.232   0.734  0.4723 -0.3231 -0.0385
  214SOL     hw  854   6.905   6.203   0.803 -1.5123 -2.9013  0.7548
  214SOL     hw  855   6.779   6.284   0.781  0.6441  0.3279 -0.4964
  214SOL     vw  856   6.845   6.235   0.750  0.2332 -0.5772  0.0058
  215SOL     ow  857   0.383   1.176   2.987 -0.8700  0.0925  0.0315
  215SOL     hw  858   0.440   1.193   3.062 -0.2362  3.3049 -0.9899
  215SOL     hw  859   0.442   1.146   2.918 -0.6421  1.5688 -0.4582
  215SOL     vw  860   0.398   1.174   2.987 -0.7563  0.7111 -0.1678
  216SOL     ow  861   5.433   0.360   2.010 -0.5053  0.9049 -0.3250
  216SOL     hw  862   5.519   0.362   2.051 -0.3777 -0.2616 -0.4982
  216SOL     hw  863   5.375   0.322   2.077 -0.9131  1.7785 -0.1709
  216SOL     vw  864   5.437   0.355   2.024 -0.5424  0.8663 -0.3275
  217SOL     ow  865   5.109   6.810   6.281 -0.8428  0.0357 -0.1626
  217SOL     hw  866   5.161   6.729   6.276 -0.7397  0.0971 -0.0851
  217SOL     hw  867   5.102   6.839   6.190  1.3489  1.3567  0.0329
  217SOL     vw  868   5.115   6.803   6.268 -0.5400  0.2182 -0.1266
  218SOL     ow  869   5.022   3.849   2.813  0.6108  0.0580  0.0707
  218SOL     hw  870   5.078   3.866   2.737 -0.6354  0.4689 -0.7726
  218SOL     hw  871   5.008   3.935   2.853  0.3488 -0.0013  0.1097
  218SOL     vw  872   5.028   3.863   2.809  0.4117  0.1044 -0.0355
  219SOL     ow  873   2.381   5.147   2.418  0.1561  0.5519 -0.5381
  219SOL     hw  874   2.322   5.220   2.435 -0.1440  0.6289 -1.8052
  219SOL     hw  875   2.417   5.165   2.331 -0.7802 -1.3430 -1.3935
  219SOL     vw  876   2.378   5.159   2.409 -0.0070  0.3123 -0.8181
  220SOL     ow  877   5.582   1.497   6.182 -0.0995 -0.8761 -0.1598
  220SOL     hw  878   5.659   1.447   6.155  0.9071  0.2389  0.5435
  220SOL     hw  879   5.528   1.434   6.229  1.2543 -1.2865  0.9152
  220SOL     vw  880   5.585   1.482   6.185  0.2120 -0.7832  0.0749
  221SOL     ow  881   4.952   0.754   0.842 -0.3865 -0.2456 -0.2391
  221SOL     hw  882   5.029   0.801   0.876 -0.2496 -0.6666  0.0324
  221SOL     hw  883   4.988   0.675   0.802 -0.2245  1.3890 -3.6989
  221SOL     vw  884   4.967   0.750   0.841 -0.3469 -0.0855 -0.6597
  222SOL     ow  885   5.421   1.090   5.004 -0.0596  0.1159 -0.6416
  222SOL     hw  886   5.412   1.115   4.913  0.9252 -1.9244 -1.3577
  222SOL     hw  887   5.373   1.007   5.012 -1.4286  0.9908  1.0909
  222SOL     vw  888   5.413   1.082   4.993 -0.1104 -0.0378 -0.5076
  223SOL     ow  889   5.024   6.304   3.210  0.3928 -0.7573  0.5157
  223SOL     hw  890   4.998   6.395   3.227 -2.3798 -1.1340 -1.0933
  223SOL     hw  891   4.988   6.255   3.284  0.7071 -0.7201  0.6949
  223SOL     vw  892   5.016   6.309   3.222  0.0684 -0.8020  0.3270
  224SOL     ow  893   1.557   5.450   4.887  0.7109  0.0192 -0.0339
  224SOL     hw  894   1.650   5.432   4.877  0.2570 -1.4134 -2.0920
  224SOL     hw  895   1.520   5.437   4.800 -1.6615 -0.9779  1.0367
  224SOL     vw  896   1.564   5.446   4.874  0.3380 -0.3016 -0.1643
  225SOL     ow  897   4.094   3.908   1.044 -0.1079 -0.1028 -0.6948
  225SOL     hw  898   4.170   3.957   1.013  0.2012 -0.1045  0.0481
  225SOL     hw  899   4.108   3.898   1.138 -1.0391 -0.0781 -0.5401
  225SOL     vw  900   4.106   3.914   1.052 -0.1900 -0.0998 -0.5764
  226SOL     ow  901   6.874   6.547   2.556 -0.0348  0.0709  0.0020
  226SOL     hw  902   6.940   6.478   2.558 -1.1079 -0.9802  0.1604
  226SOL     hw  903   6.914   6.619   2.605  0.9579 -0.5711  0.1676
  226SOL     vw  904   6.888   6.547   2.563 -0.0453 -0.1523  0.0447
  227SOL     ow  905   6.662   3.634   0.338 -0.0964 -0.0138 -0.4055
  227SOL     hw  906   6.746   3.666   0.370 -0.1733 -0.9048  0.7652
  227SOL     hw  907   6.603   3.641   0.414 -0.7956 -0.3665 -0.9033
  227SOL     vw  908   6.665   3.639   0.352 -0.1991 -0.1780 -0.3167
  228SOL     ow  909   6.107   3.915   3.022 -0.2113  0.6339  0.1152
  228SOL     hw  910   6.110   3.825   3.055 -3.6430 -0.1765 -1.3869
  228SOL     hw  911   6.182   3.920   2.961  0.6866 -0.7976  1.0372
  228SOL     vw  912   6.118   3.904   3.018 -0.5455  0.3381  0.0386
  229SOL     ow  913   5.074   4.162   6.655 -0.0090  0.2124  0.1431
  229SOL     hw  914   5.111   4.168   6.567  0.4038  0.7082  0.3439
  229SOL     hw  915   5.129   4.099   6.700 -0.2264 -0.0486  0.0459
  229SOL     vw  916   5.086   4.155   6.649  0.0169  0.2434  0.1569
  230SOL     ow  917   1.730   6.791   1.568  0.0426 -0.3316 -0.1360
  230SOL     hw  918   1.720   6.793   1.473  1.3009  1.4178 -0.2757
  230SOL     hw  919   1.652   6.836   1.602  0.3173  0.3722 -0.4266
  230SOL     vw  920   1.718   6.797   1.560  0.2448 -0.0081 -0.1927
  231SOL     ow  921   2.011   0.634   0.543  0.4919  0.0975  0.1748
  231SOL     hw  922   1.920   0.604   0.546  0.9435 -1.3209  0.2065
  231SOL     hw  923   2.018   0.680   0.460  0.4303 -2.1451 -1.1425
  231SOL     vw  924   2.000   0.636   0.533  0.5433 -0.3855  0.0052
  232SOL     ow  925   5.347   0.104   1.224  0.0080 -0.0024 -0.6383
  232SOL     hw  926   5.423   0.070   1.177 -1.0464 -0.4198 -2.1240
  232SOL     hw  927   5.294   0.027   1.243 -0.7581  0.4336 -0.9703
  232SOL     vw  928   5.350   0.089   1.220 -0.2320  0.0000 -0.8781
  233SOL     ow  929   2.757   6.748   1.642 -0.2557 -0.3862  0.0306
  233SOL     hw  930   2.663   6.764   1.643 -0.3687 -1.0034  1.0545
  233SOL     hw  931   2.782   6.744   1.734  1.2830  2.5041 -0.1396
  233SOL     vw  932   2.748   6.749   1.654 -0.0676 -0.0861  0.1433
  234SOL     ow  933   3.494   1.932   0.058  0.8018  0.3987 -0.2632
  234SOL     hw  934   3.505   1.882   0.139 -0.6684  0.1275 -0.2089
  234SOL     hw  935   3.469   1.866  -0.007 -0.5533  0.9554 -0.3303
  234SOL     vw  936   3.493   1.917   0.060  0.4289  0.4364 -0.2649
  235SOL     ow  937   1.318   6.372   0.349 -0.3905  0.4766 -0.5378
  235SOL     hw  938   1.339   6.436   0.417  0.3582 -1.9162  1.6623
  235SOL     hw  939   1.379   6.391   0.278  1.2075  0.9547  0.9021
  235SOL     vw  940   1.328   6.383   0.349 -0.0809  0.2239 -0.0575
  236SOL     ow  941   5.783   2.340   5.403 -0.4627 -0.1057 -0.3762
  236SOL     hw  942   5.874   2.321   5.425 -0.3350  1.0728  0.1935
  236SOL     hw  943   5.757   2.408   5.466 -0.9817  1.3152 -2.0459
  236SOL     vw  944   5.791   2.347   5.414 -0.5143  0.2372 -0.5214
  237SOL     ow  945   5.509   5.705   3.661  0.2315  0.1607  0.2832
  237SOL     hw  946   5.542   5.724   3.574  0.0392 -1.7827 -0.2612
  237SOL     hw  947   5.423   5.747   3.664  0.4735  0.6973 -0.2538
  237SOL     vw  948   5.502   5.713   3.650  0.2377 -0.0248  0.1407
  238SOL     ow  949   6.936   3.293   3.232  0.1172 -0.2098  0.0046
  238SOL     hw  950   6.843   3.316   3.220  0.3455 -0.1602 -2.2431
  238SOL     hw  951   6.983   3.366   3.191  1.0946 -0.9110 -0.1506
  238SOL     vw  952   6.930   3.306   3.225  0.2763 -0.2956 -0.3124
  239SOL     ow  953   5.512   1.408   5.008  0.2915  0.4438  0.2730
  239SOL     hw  954   5.423   1.407   4.974  0.7760 -0.1934 -1.0148
  239SOL     hw  955   5.520   1.493   5.052 -0.5950  0.9860 -0.5800
  239SOL     vw  956   5.502   1.419   5.010  0.2389  0.4312 -0.0093
  240SOL     ow  957   2.479   6.833   1.602 -0.1706  0.0931 -1.0030
  240SOL     hw  958   2.414   6.879   1.655 -0.8368 -3.0194  1.1786
  240SOL     hw  959   2.434   6.815   1.519 -0.4563  1.7380 -1.2462
  240SOL     vw  960   2.465   6.837   1.598 -0.2962 -0.1006 -0.7472
  241SOL     ow  961   0.695   1.523   4.009 -0.3166 -0.1922 -0.2632
  241SOL     hw  962   0.698   1.619   4.016 -1.4940 -0.1676  0.1194
  241SOL     hw  963   0.710   1.492   4.098  1.0862 -0.4122 -0.5590
  241SOL     vw  964   0.697   1.532   4.022 -0.2869 -0.2180 -0.2518
  242SOL     ow  965   2.907   1.975   5.522 -0.1608 -0.3664  0.7995
  242SOL     hw  966   2.959   1.899   5.546  0.1394 -0.9010 -1.4021
  242SOL     hw  967   2.968   2.049   5.529  1.2262 -1.0556 -2.3631
  242SOL     vw  968   2.922   1.975   5.526  0.0618 -0.5279  0.0918
  243SOL     ow  969   3.956   5.902   5.983  0.0653 -0.2109  0.3284
  243SOL     hw  970   4.015   5.832   6.010 -0.6870 -0.1842  2.2224
  243SOL     hw  971   3.869   5.863   5.986 -0.4558  0.9556  2.2132
  243SOL     vw  972   3.952   5.888   5.987 -0.1029 -0.0536  0.8268
  244SOL     ow  973   0.751   0.371   1.848  0.2759  0.0918  0.5328
  244SOL     hw  974   0.755   0.461   1.816  1.5682  0.2543  1.1175
  244SOL     hw  975   0.663   0.341   1.822  1.0344  0.3132 -2.7786
  244SOL     vw  976   0.740   0.379   1.840  0.5465  0.1424  0.1731
  245SOL     ow  977   0.477   2.631   5.319 -0.9164 -0.2891  0.1544
  245SOL     hw  978   0.402   2.582   5.352 -0.4273 -1.2013 -0.0503
  245SOL     hw  979   0.442   2.717   5.296 -2.2050 -1.1576 -1.3018
  245SOL     vw  980   0.463   2.636   5.320 -1.0219 -0.5240 -0.0646
  246SOL     ow  981   4.920   0.341   5.617 -0.1108  0.2619 -0.1307
  246SOL     hw  982   4.963   0.262   5.648  0.5558  0.3539 -0.7969
  246SOL     hw  983   4.880   0.315   5.534 -1.2708  0.2046  0.4257
  246SOL     vw  984   4.920   0.327   5.610 -0.1760  0.2665 -0.1450
  247SOL     ow  985   5.667   4.611   4.040 -0.6964  0.1884  0.1040
  247SOL     hw  986   5.603   4.542   4.058 -1.0603  0.4653 -0.1226
  247SOL     hw  987   5.624   4.667   3.975 -1.2981  1.8674  1.8585
  247SOL     vw  988   5.653   4.610   4.034 -0.8237  0.4466  0.3054
  248SOL     ow  989   1.359   1.503   5.539  0.2569  0.2821 -0.2112
  248SOL     hw  990   1.404   1.578   5.500  1.7664 -1.0980 -1.2427
  248SOL     hw  991   1.380   1.509   5.633  1.4350  0.4530 -0.4669
  248SOL     vw  992   1.368   1.514   5.546  0.6116  0.1225 -0.3808
  249SOL     ow  993   5.711   2.359   4.633 -0.7673  0.1270  0.0587
  249SOL     hw  994   5.674   2.397   4.554 -1.1062 -1.6114 -0.6602
  249SOL     hw  995   5.690   2.422   4.702  0.3415  2.1511 -1.3351
  249SOL     vw  996   5.704   2.372   4.632 -0.6657  0.1646 -0.2203
  250SOL     ow  997   5.534   2.172   3.816 -0.0317 -0.3935  0.2528
  250SOL     hw  998   5.498   2.151   3.903  0.1864 -0.6806  0.2755
  250SOL     hw  999   5.469   2.230   3.777 -0.3692 -0.6562  0.4171
  250SOL     vw 1000   5.521   2.177   3.823 -0.0474 -0.4660  0.2774
  251SOL     ow 1001   0.961   1.850   1.925  0.2936  0.2909  0.5009
  251SOL     hw 1002   0.951   1.931   1.875 -0.7141  0.1777  0.5011
  251SOL     hw 1003   0.896   1.858   1.996 -2.3042 -1.9521 -1.4132
  251SOL     vw 1004   0.951   1.862   1.928 -0.1821 -0.0200  0.2484
  252SOL     ow 1005   1.375   0.176   6.515 -0.0924 -0.5387  0.0702
  252SOL     hw 1006   1.396   0.227   6.593  5.3805 -0.9135 -0.7452
  252SOL     hw 1007   1.308   0.115   6.544 -0.2554  1.0628  3.6685
  252SOL     vw 1008   1.369   0.175   6.529  0.6082 -0.3769  0.4375
  253SOL     ow 1009   6.287   3.100   5.610 -0.2988 -0.1692  0.7867
  253SOL     hw 1010   6.370   3.061   5.639 -0.5338 -1.5319 -0.2247
  253SOL     hw 1011   6.314   3.166   5.546  0.0125 -1.6528 -0.6923
  253SOL     vw 1012   6.302   3.103   5.605 -0.2890 -0.5447  0.4582
  254SOL     ow 1013   6.267   5.260   2.809  0.0023  0.0914  1.0426
  254SOL     hw 1014   6.337   5.195   2.815  1.1082  0.9940 -0.8772
  254SOL     hw 1015   6.313   5.344   2.813 -1.0186  0.7096  0.2627
  254SOL     vw 1016   6.283   5.263   2.810  0.0134  0.2921  0.6864
  255SOL     ow 1017   5.313   0.502   1.737 -0.7859  0.5171 -0.0266
  255SOL     hw 1018   5.236   0.534   1.691 -0.7298  1.1333  0.2937
  255SOL     hw 1019   5.365   0.457   1.670 -1.2971  0.3242 -0.2953
  255SOL     vw 1020   5.310   0.501   1.722 -0.8459  0.5729 -0.0198
  256SOL     ow 1021   0.853   0.168   6.766  0.2465  0.2359  0.6735
  256SOL     hw 1022   0.941   0.157   6.802  0.8076  0.4613 -0.5788
  256SOL     hw 1023   0.812   0.082   6.775  0.5449  0.1593  1.3645
  256SOL     vw 1024   0.859   0.155   6.772  0.3598  0.2555  0.5994
  257SOL     ow 1025   5.959   0.055   0.905 -0.5614  0.0471  0.5261
  257SOL     hw 1026   6.016   0.028   0.977  1.5160  0.7989 -0.7463
  257SOL     hw 1027   5.881   0.001   0.914 -0.0743 -0.3612  2.9160
  257SOL     vw 1028   5.956   0.044   0.916 -0.2229  0.0924  0.6735
  258SOL     ow 1029   3.103   4.133   5.142 -0.2351 -0.0541 -0.3656
  258SOL     hw 1030   3.119   4.203   5.206  0.4147 -0.8456  0.3717
  258SOL     hw 1031   3.104   4.177   5.057 -2.6949  1.2888  0.2050
  258SOL     vw 1032   3.106   4.148   5.139 -0.4740  0.0186 -0.1931
  259SOL     ow 1033   2.416   1.598   0.581  0.1860  0.8672  0.7017
  259SOL     hw 1034   2.379   1.585   0.493  0.7660 -1.9858  0.7958
  259SOL     hw 1035   2.350   1.564   0.640  1.1848 -0.4030  1.1243
  259SOL     vw 1036   2.402   1.592   0.577  0.3942  0.3232  0.7698
  260SOL     ow 1037   4.488   1.629   5.460  0.1079 -0.0558 -0.4050
  260SOL     hw 1038   4.533   1.579   5.527  1.0232  2.4346  0.9549
  260SOL     hw 1039   4.395   1.618   5.480  0.2963 -1.0546 -0.0595
  260SOL     vw 1040   4.481   1.621   5.472  0.2534  0.1410 -0.1800
  261SOL     ow 1041   3.373   6.556   1.985 -0.3913  0.4521 -0.3296
  261SOL     hw 1042   3.374   6.647   2.012  0.0420  0.2998  0.1855
  261SOL     hw 1043   3.445   6.548   1.922  1.8443 -0.2487  2.1267
  261SOL     vw 1044   3.383   6.567   1.980 -0.0390  0.3397  0.0625
  262SOL     ow 1045   3.955   2.727   4.438 -0.3662 -0.4180  0.3771
  262SOL     hw 1046   3.930   2.638   4.414 -1.0522 -0.7772  2.2268
  262SOL     hw 1047   3.972   2.771   4.355  0.0948 -2.2925 -0.5741
  262SOL     vw 1048   3.954   2.721   4.424 -0.3958 -0.7126  0.4957
  263SOL     ow 1049   2.256   1.595   2.033  0.2573 -0.8855  0.2383
  263SOL     hw 1050   2.279   1.657   1.964 -0.5288  0.3544  1.0305
  263SOL     hw 1051   2.162   1.610   2.047  0.0742 -2.2179  0.5064
  263SOL     vw 1052   2.246   1.605   2.026  0.1295 -0.8977  0.3783
  264SOL     ow 1053   0.543   0.291   4.068 -0.7031 -0.3687 -0.2954
  264SOL     hw 1054   0.489   0.361   4.104  1.0398  1.0411 -0.3451
  264SOL     hw 1055   0.593   0.258   4.143 -1.5955 -1.6940 -0.2425
  264SOL     vw 1056   0.542   0.296   4.082 -0.5909 -0.3576 -0.2947
  265SOL     ow 1057   2.430   2.578   0.932  0.0981 -0.4500 -0.2690
  265SOL     hw 1058   2.340   2.593   0.962  0.4728 -0.4121  0.8932
  265SOL     hw 1059   2.445   2.484   0.948  1.3647  0.1499  2.8317
  265SOL     vw 1060   2.420   2.567   0.938  0.3146 -0.3659  0.2934
  266SOL     ow 1061   2.594   6.938   6.628  0.0789 -0.3462 -0.3247
  266SOL     hw 1062   2.686   6.913   6.632  0.1079 -0.5548 -1.8069
  266SOL     hw 1063   2.583   7.002   6.698  0.8308 -1.9093  1.2939
  266SOL     vw 1064   2.604   6.943   6.638  0.1818 -0.5801 -0.3066
  267SOL     ow 1065   5.726   3.157   6.158 -0.0384 -0.0102 -0.0181
  267SOL     hw 1066   5.715   3.251   6.170  0.1550 -0.0627  0.6539
  267SOL     hw 1067   5.810   3.137   6.201 -0.1297 -0.5029 -0.0594
  267SOL     vw 1068   5.736   3.167   6.166 -0.0248 -0.0824  0.0651
  268SOL     ow 1069   4.794   4.770   0.431  0.0770  0.5743  0.0350
  268SOL     hw 1070   4.775   4.716   0.354  2.0499 -1.8390  1.1132
  268SOL     hw 1071   4.872   4.820   0.407 -0.4098  1.2710 -0.1452
  268SOL     vw 1072   4.802   4.769   0.417  0.2730  0.3476  0.1535
  269SOL     ow 1073   2.162   1.913   6.215 -0.5218 -0.4853 -0.8050
  269SOL     hw 1074   2.222   1.931   6.143 -2.0647 -1.1463 -2.3386
  269SOL     hw 1075   2.219   1.890   6.289  1.1283  0.8982 -1.5770
  269SOL     vw 1076   2.178   1.912   6.216 -0.5077 -0.3900 -1.1091
  270SOL     ow 1077   2.949   3.467   3.103 -0.0677 -0.3849  0.1607
  270SOL     hw 1078   2.959   3.558   3.077 -0.6598  0.3468  2.2982
  270SOL     hw 1079   2.868   3.439   3.060  1.2567 -0.6937 -2.3532
  270SOL     vw 1080   2.939   3.475   3.094  0.0288 -0.3291  0.1110
  271SOL     ow 1081   2.919   1.305   4.174 -0.3601  0.2192 -0.2421
  271SOL     hw 1082   2.973   1.329   4.249 -1.9786 -0.7546  1.3160
  271SOL     hw 1083   2.919   1.382   4.118  2.1051  0.4621 -0.0309
  271SOL     vw 1084   2.926   1.318   4.177 -0.2486  0.1227 -0.0086
  272SOL     ow 1085   2.076   0.670   3.287  0.1708  0.9431 -0.0054
  272SOL     hw 1086   2.029   0.647   3.367 -0.6966  0.0845 -0.7309
  272SOL     hw 1087   2.023   0.632   3.217  0.8407  1.7991 -0.9978
  272SOL     vw 1088   2.063   0.662   3.288  0.1447  0.9427 -0.2321
  273SOL     ow 1089   3.765   6.522   2.476  0.3262 -0.4958 -0.2481
  273SOL     hw 1090   3.767   6.430   2.501 -0.9654 -0.3165  0.5991
  273SOL     hw 1091   3.686   6.557   2.518 -0.0439  0.6424 -1.7958
  273SOL     vw 1092   3.755   6.515   2.485  0.1068 -0.3223 -0.3406
  274SOL     ow 1093   3.898   0.115   6.104 -0.6296 -0.5978 -0.1935
  274SOL     hw 1094   3.976   0.114   6.048 -1.9027  2.5832 -2.3233
  274SOL     hw 1095   3.841   0.049   6.066 -0.6574  0.1294 -1.5078
  274SOL     vw 1096   3.901   0.107   6.092 -0.8012 -0.0822 -0.6480
  275SOL     ow 1097   0.722   6.210   4.004  0.2091 -0.7316  0.6811
  275SOL     hw 1098   0.756   6.124   4.029 -1.6861 -2.0658 -0.9465
  275SOL     hw 1099   0.631   6.210   4.035 -0.0259  0.4054  0.0499
  275SOL     vw 1100   0.715   6.198   4.011 -0.0720 -0.7577  0.3827
  276SOL     ow 1101   3.478   5.398   5.697 -0.1240 -0.3142  0.2535
  276SOL     hw 1102   3.514   5.446   5.772  0.5711  0.0929 -0.3349
  276SOL     hw 1103   3.407   5.346   5.734  0.4822 -0.4398  1.2737
  276SOL     vw 1104   3.473   5.398   5.712  0.0477 -0.2773  0.3102
  277SOL     ow 1105   3.059   3.179   5.567  0.2548 -0.1029 -0.6773
  277SOL     hw 1106   2.965   3.190   5.552 -0.2354 -1.5958  0.9137
  277SOL     hw 1107   3.071   3.202   5.660  0.9618 -2.3521 -0.1551
  277SOL     vw 1108   3.048   3.184   5.578  0.2834 -0.5968 -0.3984
  278SOL     ow 1109   1.129   1.150   6.608 -0.0931 -0.7182 -0.0365
  278SOL     hw 1110   1.156   1.099   6.532 -0.0040 -0.6064 -0.0804
  278SOL     hw 1111   1.211   1.173   6.652 -0.0228  0.5524 -0.7680
  278SOL     vw 1112   1.143   1.146   6.604 -0.0721 -0.5357 -0.1390
  279SOL     ow 1113   6.129   2.734   1.452 -0.1521  0.3133  0.3462
  279SOL     hw 1114   6.055   2.720   1.510  1.0099  2.8708  2.6508
  279SOL     hw 1115   6.097   2.799   1.389 -1.2563 -2.1117 -1.7944
  279SOL     vw 1116   6.115   2.741   1.451 -0.1445  0.3308  0.3678
  280SOL     ow 1117   0.589   1.297   4.835  0.0736  0.5621  0.4262
  280SOL     hw 1118   0.515   1.287   4.896 -0.8218 -1.2428 -0.8439
  280SOL     hw 1119   0.551   1.281   4.749  1.7684  0.6238 -0.3727
  280SOL     vw 1120   0.574   1.293   4.832  0.1791  0.3321  0.1531
  281SOL     ow 1121   6.579   6.441   0.709 -0.1549 -0.1335 -0.1282
  281SOL     hw 1122   6.551   6.494   0.634 -0.7239  1.0917  0.9076
  281SOL     hw 1123   6.607   6.506   0.774 -2.6579 -0.9437  1.9156
  281SOL     vw 1124   6.579   6.457   0.707 -0.5603 -0.0787  0.2781
  282SOL     ow 1125   6.970   2.056   5.804 -0.5457  0.0562  0.2680
  282SOL     hw 1126   7.040   2.118   5.822 -0.8733 -0.1113  2.2999
  282SOL     hw 1127   6.898   2.084   5.860 -1.6446 -0.5958 -0.7612
  282SOL     vw 1128   6.970   2.068   5.814 -0.7339 -0.0519  0.4001
  283SOL     ow 1129   6.558   1.614   3.136 -0.2445  0.1645  0.7321
  283SOL     hw 1130   6.595   1.662   3.211  1.6090  0.7493 -0.4882
  283SOL     hw 1131   6.621   1.544   3.119 -1.0558 -0.4552  0.1770
  283SOL     vw 1132   6.571   1.611   3.144 -0.1068  0.1599  0.4977
  284SOL     ow 1133   4.457   5.731   1.457  0.0045 -0.4802 -0.7805
  284SOL     hw 1134   4.416   5.772   1.381  0.8697  1.3342 -0.3222
  284SOL     hw 1135   4.550   5.751   1.448  0.4273 -2.1165 -0.3577
  284SOL     vw 1136   4.464   5.739   1.446  0.1745 -0.4566 -0.6642
  285SOL     ow 1137   0.803   3.511   2.618  0.0020  0.1531 -0.4481
  285SOL     hw 1138   0.714   3.542   2.605  0.3741  1.0490 -1.0097
  285SOL     hw 1139   0.857   3.573   2.568  0.9079 -0.5473 -0.3633
  285SOL     vw 1140   0.799   3.524   2.609  0.1706  0.1788 -0.5111
  286SOL     ow 1141   0.391   3.860   6.715 -0.2770  0.7210  0.0403
  286SOL     hw 1142   0.364   3.910   6.793 -2.1510 -0.5486  0.2782
  286SOL     hw 1143   0.474   3.820   6.739  0.6038  2.6253  0.3166
  286SOL     vw 1144   0.398   3.861   6.728 -0.4080  0.8047  0.1082
  287SOL     ow 1145   5.368   5.825   5.616 -0.4001  0.3055  0.1417
  287SOL     hw 1146   5.399   5.735   5.629  0.2834  0.5925  0.5564
  287SOL     hw 1147   5.445   5.873   5.586 -0.7211  0.7957  0.0865
  287SOL     vw 1148   5.382   5.820   5.614 -0.3521  0.4079  0.1891
  288SOL     ow 1149   3.284   3.096   1.486 -0.0460  0.5454 -0.1695
  288SOL     hw 1150   3.192   3.070   1.475  0.0787 -0.4467  0.9783
  288SOL     hw 1151   3.285   3.189   1.464 -0.9455  0.1406 -2.1331
  288SOL     vw 1152   3.272   3.105   1.481 -0.1482  0.3612 -0.2771
  289SOL     ow 1153   1.107   1.057   1.104  0.3367 -0.1467 -0.2906
  289SOL     hw 1154   1.016   1.032   1.087  0.6112 -1.5241  0.1697
  289SOL     hw 1155   1.110   1.151   1.083 -1.9542  0.7233  2.4911
  289SOL     vw 1156   1.095   1.066   1.099  0.0706 -0.2137  0.1372
  290SOL     ow 1157   1.340   0.507   2.399  0.1705  0.3356 -0.3567
  290SOL     hw 1158   1.420   0.537   2.356  0.4740 -0.4859 -0.3907
  290SOL     hw 1159   1.369   0.479   2.486 -0.2263  0.8357 -0.0629
  290SOL     vw 1160   1.355   0.507   2.405  0.1581  0.2931 -0.3225
  291SOL     ow 1161   1.301   1.608   2.579  0.1930  0.3420  0.7285
  291SOL     hw 1162   1.241   1.671   2.617  0.1380 -0.3181  1.8047
  291SOL     hw 1163   1.385   1.626   2.621  0.0401 -0.6644  1.5123
  291SOL     vw 1164   1.304   1.618   2.590  0.1655  0.1222  0.9739
  292SOL     ow 1165   6.288   3.570   4.400  0.1276 -0.0602 -0.0566
  292SOL     hw 1166   6.270   3.595   4.309 -0.0865  2.6018  0.6369
  292SOL     hw 1167   6.378   3.601   4.415  0.1165 -0.3714  0.6639
  292SOL     vw 1168   6.298   3.578   4.390  0.0978  0.2499  0.1299
  293SOL     ow 1169   5.565   1.344   4.333  0.5069 -0.3121 -0.0964
  293SOL     hw 1170   5.512   1.424   4.326  1.2242  0.0141 -2.6677
  293SOL     hw 1171   5.508   1.282   4.379 -1.2689  0.7135 -0.8006
  293SOL     vw 1172   5.551   1.347   4.339  0.3672 -0.1338 -0.5286
  294SOL     ow 1173   3.142   5.276   6.872 -0.4742  0.3372 -0.3751
  294SOL     hw 1174   3.134   5.184   6.896 -1.9127  0.4988 -0.0958
  294SOL     hw 1175   3.210   5.279   6.805 -0.1171 -0.8615 -0.0832
  294SOL     vw 1176   3.150   5.264   6.867 -0.6169  0.2005 -0.3002
  295SOL     ow 1177   4.730   0.849   1.048 -0.1865 -0.5692 -0.3939
  295SOL     hw 1178   4.684   0.929   1.074 -1.7445 -0.6981 -2.4661
  295SOL     hw 1179   4.761   0.812   1.130  0.1377  1.8654  0.6825
  295SOL     vw 1180   4.728   0.855   1.062 -0.3493 -0.2650 -0.5253
  296SOL     ow 1181   5.022   0.717   3.859 -0.3599  0.0109 -0.1664
  296SOL     hw 1182   5.109   0.684   3.837  0.0844  1.8904 -1.5235
  296SOL     hw 1183   5.037   0.778   3.931  0.0072  2.4636 -2.1467
  296SOL     vw 1184   5.036   0.721   3.865 -0.2530  0.5825 -0.6067
  297SOL     ow 1185   3.142   0.336   0.016  0.0070 -0.1316  0.3203
  297SOL     hw 1186   3.202   0.410   0.020  1.0537 -0.9566  0.6462
  297SOL     hw 1187   3.119   0.328  -0.077 -1.6035  1.6927  0.4969
  297SOL     vw 1188   3.147   0.344   0.004 -0.0672  0.0002  0.3866
  298SOL     ow 1189   7.008   5.975   2.913 -0.4963 -0.1707  0.1591
  298SOL     hw 1190   6.921   5.936   2.907 -0.7820  0.2591  1.2889
  298SOL     hw 1191   7.038   5.955   3.001 -0.1906  1.2033  0.3979
  298SOL     vw 1192   7.001   5.967   2.924 -0.4938  0.0672  0.3395
  299SOL     ow 1193   6.065   2.198   0.313  0.0435 -0.3929 -0.8056
  299SOL     hw 1194   6.129   2.131   0.337  0.5005 -0.0945 -1.1595
  299SOL     hw 1195   6.108   2.247   0.242 -1.0099 -0.8745 -1.8050
  299SOL     vw 1196   6.080   2.195   0.307 -0.0353 -0.4170 -0.9841
  300SOL     ow 1197   4.006   4.313   3.443 -0.6034 -0.2137  0.2843
  300SOL     hw 1198   3.911   4.320   3.445 -0.6659  0.3967 -1.7060
  300SOL     hw 1199   4.030   4.266   3.523 -2.5356 -0.0665  0.9828
  300SOL     vw 1200   3.997   4.308   3.454 -0.8669 -0.1137  0.1138
  301SOL     ow 1201   6.168   0.878   6.724 -0.4204 -0.6892 -0.1403
  301SOL     hw 1202   6.139   0.789   6.743  1.4244 -1.4097 -0.4583
  301SOL     hw 1203   6.240   0.867   6.662 -0.4824  1.0684 -0.5818
  301SOL     vw 1204   6.174   0.865   6.719 -0.1850 -0.5523 -0.2403
  302SOL     ow 1205   4.869   6.148   3.379 -0.1948  0.1542 -0.0781
  302SOL     hw 1206   4.889   6.055   3.388 -2.9547 -0.5059 -0.0063
  302SOL     hw 1207   4.839   6.175   3.466  2.7047  1.7898  0.5563
  302SOL     vw 1208   4.868   6.139   3.392 -0.1764  0.2830  0.0150
  303SOL     ow 1209   6.575   1.700   6.924  0.3075  0.7245 -0.4551
  303SOL     hw 1210   6.513   1.658   6.864 -0.9515  0.6298  0.8734
  303SOL     hw 1211   6.643   1.735   6.866 -1.8614  2.4015 -2.1987
  303SOL     vw 1212   6.576   1.699   6.908 -0.1450  0.9332 -0.5100
  304SOL     ow 1213   5.204   3.060   1.927 -0.3002  0.5031 -0.0901
  304SOL     hw 1214   5.223   2.983   1.980  0.9902 -2.4638 -4.3713
  304SOL     hw 1215   5.111   3.050   1.903  0.4084 -1.2245 -2.5021
  304SOL     vw 1216   5.194   3.049   1.931 -0.0367 -0.1162 -0.9732
  305SOL     ow 1217   6.427   4.298   4.181 -0.5104 -0.2165 -1.2367
  305SOL     hw 1218   6.382   4.357   4.121 -1.0503 -0.2138 -0.8371
  305SOL     hw 1219   6.364   4.226   4.195 -1.3216  0.8672  1.0491
  305SOL     vw 1220   6.412   4.296   4.175 -0.6888 -0.0730 -0.8824
  306SOL     ow 1221   1.091   6.831   3.007 -0.0787  0.3437  0.0072
  306SOL     hw 1222   1.072   6.738   2.999  1.0483  0.0824  0.2067
  306SOL     hw 1223   1.185   6.838   2.991 -0.0784  1.4010  0.3704
  306SOL     vw 1224   1.101   6.820   3.003  0.0700  0.4489  0.0814
  307SOL     ow 1225   5.359   6.139   4.224 -0.4650 -0.6394  0.4249
  307SOL     hw 1226   5.427   6.191   4.183  0.3739 -0.1541  2.3048
  307SOL     hw 1227   5.407   6.075   4.277 -1.3689  0.4448  2.7055
  307SOL     vw 1228   5.374   6.137   4.226 -0.4735 -0.4320  0.9737
  308SOL     ow 1229   6.642   5.344   3.749  0.0509  0.3998 -0.0677
  308SOL     hw 1230   6.608   5.256   3.768 -0.1777  1.1951  4.0154
  308SOL     hw 1231   6.699   5.365   3.823 -0.6556  4.0755 -0.3806
  308SOL     vw 1232   6.645   5.335   3.761 -0.0725  0.9897  0.4297
  309SOL     ow 1233   2.511   4.030   4.864  0.4291  0.4146  0.1436
  309SOL     hw 1234   2.595   4.069   4.841  0.7256 -0.2776  0.0462
  309SOL     hw 1235   2.479   3.991   4.783  0.0311  0.6417  0.1880
  309SOL     vw 1236   2.518   4.030   4.851  0.4157  0.3531  0.1366
  310SOL     ow 1237   1.280   2.970   2.325  0.1349 -0.1709 -0.0668
  310SOL     hw 1238   1.204   3.008   2.281 -1.1140 -0.3366  1.8165
  310SOL     hw 1239   1.355   3.008   2.281 -1.0441  0.6929 -1.4201
  310SOL     vw 1240   1.280   2.980   2.314 -0.1854 -0.0787  0.0030
  311SOL     ow 1241   0.090   5.270   5.338  0.1896 -0.0118  0.0652
  311SOL     hw 1242   0.037   5.193   5.363 -0.1731  0.1894 -0.0753
  311SOL     hw 1243   0.079   5.331   5.411  1.3876 -0.5271  0.7139
  311SOL     vw 1244   0.081   5.268   5.351  0.2998 -0.0532  0.1326
  312SOL     ow 1245   5.546   5.377   2.348 -0.6720 -0.4553  0.3625
  312SOL     hw 1246   5.498   5.362   2.430  1.1167 -0.1150  1.5362
  312SOL     hw 1247   5.559   5.472   2.346 -1.6877 -0.3194 -0.9386
  312SOL     vw 1248   5.541   5.388   2.359 -0.5701 -0.3924  0.3456
  313SOL     ow 1249   2.422   3.308   5.121  0.1788  0.4920 -0.1901
  313SOL     hw 1250   2.444   3.390   5.165 -0.0681  0.3770  0.1508
  313SOL     hw 1251   2.396   3.333   5.033  1.0163  0.6954 -0.3846
  313SOL     vw 1252   2.422   3.322   5.115  0.2567  0.5037 -0.1707
  314SOL     ow 1253   2.862   1.180   6.452  0.0513 -0.1966  0.2595
  314SOL     hw 1254   2.865   1.090   6.421 -0.8584  0.1974 -1.0608
  314SOL     hw 1255   2.867   1.233   6.372 -4.1506  0.8713  0.4532
  314SOL     vw 1256   2.863   1.175   6.437 -0.6233 -0.0036  0.1111
  315SOL     ow 1257   6.528   1.641   0.236 -0.2559  0.4969  0.5797
  315SOL     hw 1258   6.521   1.546   0.225  0.3795  0.4797  0.3001
  315SOL     hw 1259   6.606   1.653   0.290 -0.2753  0.8687  0.5275
  315SOL     vw 1260   6.537   1.630   0.242 -0.1748  0.5437  0.5359
  316SOL     ow 1261   6.998   0.454   2.536  0.4802  0.0736 -0.2787
  316SOL     hw 1262   6.928   0.519   2.543  2.1715  1.9164  0.6892
  316SOL     hw 1263   6.980   0.393   2.607  0.9955  1.7833  1.4131
  316SOL     vw 1264   6.986   0.455   2.546  0.7714  0.5423  0.0724
  317SOL     ow 1265   1.575   6.055   4.507 -0.3070  0.4733 -0.2060
  317SOL     hw 1266   1.567   6.131   4.450 -2.7536  1.9415  1.8742
  317SOL     hw 1267   1.489   6.047   4.548  0.1501 -2.9135  0.3516
  317SOL     vw 1268   1.562   6.064   4.505 -0.5694  0.2203  0.1421
  318SOL     ow 1269   0.671   2.752   0.723 -0.3151 -0.1170  0.3861
  318SOL     hw 1270   0.639   2.835   0.759  0.6655 -0.4936  2.2687
  318SOL     hw 1271   0.721   2.777   0.646 -2.1836  0.7729 -0.6002
  318SOL     vw 1272   0.674   2.766   0.718 -0.4322 -0.0494  0.5043
  319SOL     ow 1273   3.469   5.345   5.398  0.5439  0.3869 -0.0779
  319SOL     hw 1274   3.386   5.384   5.375  0.5726 -0.4127 -1.6947
  319SOL     hw 1275   3.527   5.364   5.324  0.4924 -2.7597 -1.1079
  319SOL     vw 1276   3.466   5.352   5.385  0.5409 -0.1340 -0.4270
  320SOL     ow 1277   4.616   0.334   5.734 -0.2544 -0.0838 -0.1292
  320SOL     hw 1278   4.526   0.362   5.717 -0.1310  0.3668 -0.0556
  320SOL     hw 1279   4.613   0.294   5.821 -0.2522  0.5580  0.1710
  320SOL     vw 1280   4.604   0.332   5.743 -0.2382  0.0603 -0.0801
  321SOL     ow 1281   0.478   5.569   2.321 -0.7482  0.9488  0.1785
  321SOL     hw 1282   0.558   5.537   2.362 -0.5434  1.1238 -0.0831
  321SOL     hw 1283   0.475   5.525   2.236 -1.3873  0.2631  0.5430
  321SOL     vw 1284   0.488   5.559   2.315 -0.8056  0.8812  0.1922
  322SOL     ow 1285   4.390   0.805   4.862  0.7580  0.2652  0.4414
  322SOL     hw 1286   4.447   0.730   4.843 -0.9347 -0.9092 -0.2574
  322SOL     hw 1287   4.303   0.767   4.874 -0.2417  2.1635 -0.3124
  322SOL     vw 1288   4.386   0.790   4.861  0.4025  0.3607  0.2499
  323SOL     ow 1289   4.723   1.532   1.177  0.6174 -0.5657  0.1198
  323SOL     hw 1290   4.804   1.485   1.162 -0.8761 -3.2906  0.0034
  323SOL     hw 1291   4.665   1.468   1.218 -1.5650  1.2059  0.0011
  323SOL     vw 1292   4.726   1.518   1.180  0.1323 -0.6914  0.0888
  324SOL     ow 1293   4.073   0.248   3.891  0.2258  0.5673  0.2878
  324SOL     hw 1294   4.131   0.295   3.951  1.0300 -0.0909  0.0478
  324SOL     hw 1295   4.132   0.205   3.829 -0.5819  1.1074 -0.8931
  324SOL     vw 1296   4.089   0.249   3.891  0.2253  0.5517  0.1003
  325SOL     ow 1297   6.678   6.097   3.004 -0.2170  0.5500 -0.4084
  325SOL     hw 1298   6.760   6.137   2.977 -0.6066  0.9037 -1.0923
  325SOL     hw 1299   6.694   6.068   3.094  0.5062  1.0198 -0.3777
  325SOL     vw 1300   6.691   6.099   3.013 -0.1729  0.6585 -0.4947
  326SOL     ow 1301   5.169   4.027   4.888 -0.3549 -0.4734  0.4723
  326SOL     hw 1302   5.109   4.100   4.906 -0.0681 -0.4834  1.5384
  326SOL     hw 1303   5.254   4.059   4.916  0.3749 -0.1128 -1.8818
  326SOL     vw 1304   5.172   4.041   4.894 -0.2208 -0.4272  0.3023
  327SOL     ow 1305   3.003   5.017   2.566  0.3801  0.3095 -0.8495
  327SOL     hw 1306   3.062   4.966   2.511  0.2437 -0.3582 -0.3853
  327SOL     hw 1307   2.939   4.954   2.599  1.4041  0.3529  1.3664
  327SOL     vw 1308   3.002   5.002   2.563  0.4972  0.2270 -0.4959
  328SOL     ow 1309   3.202   4.539   0.303  0.2264 -0.2241  0.2338
  328SOL     hw 1310   3.224   4.622   0.262 -1.5639  0.7195  1.0788
  328SOL     hw 1311   3.188   4.479   0.230 -2.2704  1.2542 -0.6353
  328SOL     vw 1312   3.203   4.542   0.288 -0.3393  0.0951  0.2306
  329SOL     ow 1313   2.693   4.524   3.608 -0.1577 -0.3155 -0.3007
  329SOL     hw 1314   2.732   4.458   3.550 -0.7208  1.3192 -2.7128
  329SOL     hw 1315   2.600   4.500   3.613 -0.8345  1.2835 -2.9249
  329SOL     vw 1316   2.686   4.512   3.601 -0.3213  0.1109 -0.9651
  330SOL     ow 1317   4.591   4.811   5.509 -0.3178  0.5291 -0.4833
  330SOL     hw 1318   4.565   4.774   5.424 -0.0950  0.9762 -0.7489
  330SOL     hw 1319   4.561   4.747   5.573 -0.8864  0.3941 -0.8722
  330SOL     vw 1320   4.584   4.798   5.506 -0.3633  0.5703 -0.5696
  331SOL     ow 1321   2.084   4.172   2.667  0.0517 -0.3768  0.2493
  331SOL     hw 1322   2.150   4.192   2.733 -0.9218  1.0206  0.8424
  331SOL     hw 1323   2.057   4.082   2.685 -0.5115  0.1219  2.0485
  331SOL     vw 1324   2.089   4.163   2.678 -0.1509 -0.1266  0.5648
  332SOL     ow 1325   2.970   0.301   6.255 -0.2655  0.5646  0.5776
  332SOL     hw 1326   2.959   0.231   6.319 -0.7808 -0.7944 -0.9441
  332SOL     hw 1327   3.046   0.274   6.203  0.1517  1.6534  0.6004
  332SOL     vw 1328   2.978   0.288   6.256 -0.2784  0.5290  0.3798
  333SOL     ow 1329   3.100   3.911   5.914  0.5975 -0.2688 -0.4260
  333SOL     hw 1330   3.101   3.990   5.861  2.2540  1.0418  1.4429
  333SOL     hw 1331   3.179   3.864   5.888  1.3457  0.3149  0.7315
  333SOL     vw 1332   3.110   3.915   5.903  0.9147 -0.0190 -0.0269
  334SOL     ow 1333   0.937   6.046   2.140  0.2602 -0.1906  0.3751
  334SOL     hw 1334   1.016   6.011   2.100  0.0469  0.0420 -0.2717
  334SOL     hw 1335   0.885   6.078   2.066 -1.2519 -1.9591  0.5757
  334SOL     vw 1336   0.940   6.045   2.125  0.0326 -0.3932  0.3163
  335SOL     ow 1337   0.468   0.456   0.127  0.1618 -0.2521  0.1421
  335SOL     hw 1338   0.497   0.436   0.038  2.6171 -1.0040  1.0347
  335SOL     hw 1339   0.468   0.551   0.132 -0.4690 -0.1927 -0.7803
  335SOL     vw 1340   0.472   0.466   0.116  0.4025 -0.3434  0.1382
  336SOL     ow 1341   4.978   5.247   0.869 -0.7110  0.2054 -0.5466
  336SOL     hw 1342   4.898   5.240   0.920 -2.6132 -1.2576 -3.4684
  336SOL     hw 1343   5.024   5.165   0.884 -0.4917  0.4249 -0.0122
  336SOL     vw 1344   4.974   5.235   0.878 -0.9329  0.0412 -0.8616
  337SOL     ow 1345   0.944   3.544   0.645  0.1754 -0.8302  1.0209
  337SOL     hw 1346   0.861   3.539   0.598  0.8786 -0.6818 -0.2902
  337SOL     hw 1347   0.962   3.638   0.652  1.7791 -0.8097 -1.6760
  337SOL     vw 1348   0.936   3.556   0.639  0.4798 -0.8079  0.4921
  338SOL     ow 1349   3.956   4.085   6.247  0.6786 -0.1200  0.2673
  338SOL     hw 1350   4.014   4.090   6.323 -1.0431 -0.1964  1.6529
  338SOL     hw 1351   3.869   4.105   6.282 -0.8523 -3.8592 -0.8543
  338SOL     vw 1352   3.952   4.088   6.262  0.2495 -0.6235  0.3023
  339SOL     ow 1353   0.131   3.797   1.544 -0.4086  0.0213  0.3821
  339SOL     hw 1354   0.099   3.858   1.478 -0.1210 -0.3907 -0.1456
  339SOL     hw 1355   0.190   3.739   1.496  1.5645  1.0863  1.4388
  339SOL     vw 1356   0.134   3.797   1.529 -0.1103  0.1075  0.4519
  340SOL     ow 1357   1.100   5.976   3.339  0.2244 -0.4652  0.2611
  340SOL     hw 1358   1.190   6.007   3.330  0.8581 -2.3626 -0.3899
  340SOL     hw 1359   1.102   5.887   3.304 -1.7093 -0.8828  1.1099
  340SOL     vw 1360   1.112   5.968   3.333  0.0529 -0.7706  0.2872
  341SOL     ow 1361   4.990   1.500   4.490 -0.6625  0.1139 -0.5016
  341SOL     hw 1362   4.968   1.548   4.569  0.3280 -0.2196 -0.0098
  341SOL     hw 1363   5.039   1.563   4.436  1.6072 -0.5931  0.6139
  341SOL     vw 1364   4.994   1.515   4.493 -0.2322 -0.0234 -0.2897
  342SOL     ow 1365   4.431   3.433   5.126  0.2885 -0.1874  0.2737
  342SOL     hw 1366   4.493   3.504   5.145  0.7503 -0.8217  1.2300
  342SOL     hw 1367   4.385   3.419   5.209 -0.7692 -0.0909 -0.2847
  342SOL     vw 1368   4.433   3.440   5.140  0.2103 -0.2583  0.3264
  343SOL     ow 1369   0.346   2.454   3.908  0.3903  1.2245  0.6754
  343SOL     hw 1370   0.359   2.495   3.823 -1.4312  2.8694  1.1197
  343SOL     hw 1371   0.261   2.410   3.902  0.7420  0.4339  1.3039
  343SOL     vw 1372   0.337   2.454   3.896  0.1964  1.3371  0.8171
  344SOL     ow 1373   6.172   2.591   1.013  0.3855  0.3571 -0.1762
  344SOL     hw 1374   6.245   2.589   1.074  0.4585  0.8042 -0.2469
  344SOL     hw 1375   6.145   2.499   1.004  2.8867 -0.2687 -2.4984
  344SOL     vw 1376   6.178   2.578   1.020  0.7250  0.3334 -0.4919
  345SOL     ow 1377   2.963   6.127   2.093 -0.1581 -0.1436 -0.4571
  345SOL     hw 1378   3.014   6.057   2.052  0.7255 -0.9529  1.8512
  345SOL     hw 1379   3.029   6.189   2.124 -0.9281  1.6860 -2.3038
  345SOL     vw 1380   2.979   6.126   2.091 -0.1432 -0.0091 -0.3961
  346SOL     ow 1381   5.081   6.277   3.872  0.6345  0.2339 -0.4833
  346SOL     hw 1382   5.118   6.345   3.816  1.3175 -1.2692 -1.9210
  346SOL     hw 1383   5.105   6.195   3.830  1.0075 -0.9705  1.9200
  346SOL     vw 1384   5.089   6.275   3.859  0.7737 -0.1233 -0.3560
  347SOL     ow 1385   1.024   2.126   6.319 -0.0169  0.2340  0.6694
  347SOL     hw 1386   1.022   2.114   6.414 -0.6487  2.0386  0.9111
  347SOL     hw 1387   1.074   2.206   6.306  0.7577 -0.4174 -0.5999
  347SOL     vw 1388   1.031   2.135   6.329  0.0020  0.3861  0.5338
  348SOL     ow 1389   3.327   6.010   3.774 -0.8768 -0.2321  0.4871
  348SOL     hw 1390   3.327   6.093   3.822  0.9892  0.5422 -0.7336
  348SOL     hw 1391   3.371   5.948   3.833 -1.5153 -0.1518  1.0606
  348SOL     vw 1392   3.333   6.013   3.788 -0.7149 -0.1194  0.4017
  349SOL     ow 1393   2.336   4.698   0.129 -0.3833  0.9310 -0.5943
  349SOL     hw 1394   2.299   4.714   0.216 -0.2395  2.7628 -0.8362
  349SOL     hw 1395   2.322   4.780   0.082 -0.3453  0.0123 -2.2745
  349SOL     vw 1396   2.329   4.711   0.134 -0.3594  1.0517 -0.8479
  350SOL     ow 1397   1.466   5.725   1.316  0.0250 -0.5542  0.2237
  350SOL     hw 1398   1.413   5.647   1.329  0.8044 -1.0390  0.5909
  350SOL     hw 1399   1.515   5.708   1.235 -1.0121  0.2653 -0.6045
  350SOL     vw 1400   1.466   5.713   1.307 -0.0090 -0.5105  0.1628
  351SOL     ow 1401   2.573   5.521   1.569  0.2201 -1.0016 -0.5069
  351SOL     hw 1402   2.616   5.549   1.487 -0.9601 -0.4096 -0.9521
  351SOL     hw 1403   2.636   5.462   1.610  2.5033  1.5693  0.0160
  351SOL     vw 1404   2.587   5.517   1.563  0.3656 -0.5841 -0.4967
  352SOL     ow 1405   4.034   4.562   5.630 -0.1289 -0.2571  0.5151
  352SOL     hw 1406   4.117   4.585   5.589 -0.3551 -0.1964  0.0893
  352SOL     hw 1407   3.967   4.602   5.575 -0.4059  0.6791  1.5045
  352SOL     vw 1408   4.036   4.570   5.617 -0.1955 -0.1256  0.5894
  353SOL     ow 1409   0.348   1.329   1.247 -0.2420  0.1605 -0.0641
  353SOL     hw 1410   0.328   1.353   1.338  0.3373 -0.4028  0.2285
  353SOL     hw 1411   0.433   1.370   1.230 -1.2224  1.9020 -1.0328
  353SOL     vw 1412   0.357   1.337   1.257 -0.2949  0.3160 -0.1533
  354SOL     ow 1413   2.102   1.645   6.045 -0.2498 -0.3540 -1.1102
  354SOL     hw 1414   2.190   1.641   6.008  0.0878 -1.5745 -0.2580
  354SOL     hw 1415   2.049   1.593   5.986 -0.9181  2.0898 -2.8096
  354SOL     vw 1416   2.107   1.638   6.033 -0.2934 -0.1925 -1.2219
  355SOL     ow 1417   4.969   4.149   1.942  0.0006 -0.0092  0.1986
  355SOL     hw 1418   5.050   4.100   1.956  0.0994 -0.0601 -0.5247
  355SOL     hw 1419   4.973   4.177   1.851 -1.4630 -1.2342 -0.2767
  355SOL     vw 1420   4.981   4.146   1.932 -0.1793 -0.1774  0.0405
  356SOL     ow 1421   2.832   0.247   2.059  0.0426 -0.2422  0.4292
  356SOL     hw 1422   2.863   0.156   2.069  0.6144 -0.2053 -0.7858
  356SOL     hw 1423   2.741   0.244   2.086  0.8762 -0.4841  3.6168
  356SOL     vw 1424   2.824   0.234   2.064  0.2280 -0.2693  0.6895
  357SOL     ow 1425   1.480   6.848   3.792  0.4182 -0.6220 -0.4564
  357SOL     hw 1426   1.451   6.757   3.796 -0.1083 -0.4810 -0.8848
  357SOL     hw 1427   1.504   6.861   3.700 -0.4545 -0.0524 -0.6173
  357SOL     vw 1428   1.480   6.838   3.780  0.2336 -0.5286 -0.5343
  358SOL     ow 1429   6.441   3.177   3.464  0.3767 -0.8048 -0.3801
  358SOL     hw 1430   6.463   3.213   3.378  0.5534 -1.5391 -0.6538
  358SOL     hw 1431   6.364   3.227   3.492 -1.2165 -2.1696 -2.0780
  358SOL     vw 1432   6.433   3.188   3.456  0.1895 -1.0816 -0.6402
  359SOL     ow 1433   0.210   6.494   3.594  0.5681  0.2576 -0.3457
  359SOL     hw 1434   0.305   6.486   3.588  0.5271  0.2325 -1.0186
  359SOL     hw 1435   0.184   6.425   3.655  0.8960 -0.3259 -0.8586
  359SOL     vw 1436   0.219   6.484   3.601  0.6060  0.1776 -0.5022
  360SOL     ow 1437   6.127   4.526   5.462 -0.1337 -0.3412 -0.7175
  360SOL     hw 1438   6.057   4.483   5.412  0.6690 -1.0352 -1.2816
  360SOL     hw 1439   6.205   4.472   5.445  0.5288  0.3890 -0.0698
  360SOL     vw 1440   6.128   4.513   5.453  0.0594 -0.3364 -0.7067
  361SOL     ow 1441   6.106   3.083   4.457 -0.9216  0.2290 -0.2796
  361SOL     hw 1442   6.191   3.118   4.485 -1.2877  0.8310  0.1007
  361SOL     hw 1443   6.058   3.068   4.538 -3.0191  4.5157 -0.4716
  361SOL     vw 1444   6.111   3.086   4.471 -1.2467  0.8740 -0.2549
  362SOL     ow 1445   1.924   0.539   5.049 -0.3978 -0.6396  0.1681
  362SOL     hw 1446   1.901   0.566   5.138  0.7418  2.3123 -0.3199
  362SOL     hw 1447   1.841   0.509   5.012 -1.3342  0.0960  1.5488
  362SOL     vw 1448   1.910   0.538   5.056 -0.3710 -0.1530  0.2859
  363SOL     ow 1449   1.513   1.380   4.455 -0.8492 -0.3949 -0.4384
  363SOL     hw 1450   1.501   1.400   4.548 -1.3174 -3.3089  0.2301
  363SOL     hw 1451   1.596   1.422   4.432 -0.8826  0.6671  1.1823
  363SOL     vw 1452   1.522   1.389   4.464 -0.9153 -0.6393 -0.1361
  364SOL     ow 1453   0.132   1.182   6.722  0.4625  0.1924  0.4585
  364SOL     hw 1454   0.126   1.126   6.645  0.5984  1.1872 -0.3016
  364SOL     hw 1455   0.218   1.164   6.759 -0.3298 -1.6998  1.5317
  364SOL     vw 1456   0.142   1.172   6.717  0.3759  0.0740  0.4995
  365SOL     ow 1457   0.682   2.499   1.696  0.1852 -0.3944  0.3505
  365SOL     hw 1458   0.710   2.427   1.754 -0.9949  0.3940  1.9715
  365SOL     hw 1459   0.674   2.574   1.754  0.0612  0.7266 -1.0767
  365SOL     vw 1460   0.685   2.499   1.712  0.0131 -0.1425  0.3760
  366SOL     ow 1461   1.971   6.418   0.866 -0.0736  0.4416 -0.5028
  366SOL     hw 1462   1.959   6.501   0.821 -1.2951  1.0948  0.9374
  366SOL     hw 1463   2.021   6.439   0.944  2.1664 -0.7051 -1.5475
  366SOL     vw 1464   1.976   6.432   0.870  0.0608  0.3765 -0.4506
  367SOL     ow 1465   6.552   0.379   4.376 -0.6070  0.1159  0.2182
  367SOL     hw 1466   6.498   0.457   4.388  1.0969  1.5442 -0.9198
  367SOL     hw 1467   6.544   0.359   4.283  0.6817  0.2724  0.0590
  367SOL     vw 1468   6.544   0.386   4.365 -0.2120  0.3250  0.0470
  368SOL     ow 1469   1.850   3.447   1.760 -0.1110 -0.2797  0.1392
  368SOL     hw 1470   1.765   3.491   1.761 -0.0120  0.0637 -1.9631
  368SOL     hw 1471   1.863   3.421   1.669  1.9501 -0.5240  0.4420
  368SOL     vw 1472   1.841   3.449   1.748  0.1740 -0.2666 -0.0982
  369SOL     ow 1473   2.700   3.734   2.759  0.3844 -0.4690  0.8717
  369SOL     hw 1474   2.681   3.790   2.834 -0.7881  1.8030 -0.9885
  369SOL     hw 1475   2.628   3.670   2.759  0.8272 -0.9998  2.0791
  369SOL     vw 1476   2.688   3.733   2.769  0.2881 -0.2393  0.7855
  370SOL     ow 1477   0.438   5.447   2.097 -0.6943  0.5472 -0.3769
  370SOL     hw 1478   0.400   5.377   2.044  1.7253 -0.6388 -0.6578
  370SOL     hw 1479   0.464   5.514   2.033 -0.2049  0.3164 -0.4199
  370SOL     vw 1480   0.436   5.447   2.082 -0.3105  0.3603 -0.4197
  371SOL     ow 1481   6.029   4.099   2.807  0.7965  0.4692  0.4004
  371SOL     hw 1482   6.112   4.114   2.763  0.2099  1.5689 -0.3826
  371SOL     hw 1483   5.963   4.130   2.745 -0.2611 -1.0938  0.6775
  371SOL     vw 1484   6.031   4.105   2.793  0.5796  0.4079  0.3337
  372SOL     ow 1485   0.750   4.761   4.110  0.1944 -0.0557  0.0314
  372SOL     hw 1486   0.737   4.709   4.189 -0.0050 -1.0421 -0.6384
  372SOL     hw 1487   0.662   4.788   4.084  0.3801  1.7676  1.0963
  372SOL     vw 1488   0.737   4.758   4.117  0.1926  0.0546  0.0834
  373SOL     ow 1489   5.723   5.392   6.753  0.1976 -0.1449  0.5928
  373SOL     hw 1490   5.636   5.359   6.732  0.4060 -0.7207  0.5897
  373SOL     hw 1491   5.708   5.476   6.795 -0.3436 -0.1060  0.3297
  373SOL     vw 1492   5.710   5.399   6.756  0.1538 -0.2160  0.5574
  374SOL     ow 1493   5.136   4.827   4.893 -0.2931  0.1633  0.2326
  374SOL     hw 1494   5.050   4.811   4.933 -1.1608  0.6290 -1.3759
  374SOL     hw 1495   5.123   4.811   4.800  1.2635  0.6772 -0.1056
  374SOL     vw 1496   5.123   4.823   4.886 -0.2019  0.2925 -0.0241
  375SOL     ow 1497   2.672   0.905   5.602 -0.3975  0.3843 -0.5393
  375SOL     hw 1498   2.578   0.893   5.614 -0.6670  1.7755 -1.0919
  375SOL     hw 1499   2.698   0.835   5.542 -0.4595 -1.8962  1.8864
  375SOL     vw 1500   2.663   0.894   5.596 -0.4413  0.2669 -0.2923
  376SOL     ow 1501   5.119   2.559   4.143 -0.3408 -0.6218  0.5124
  376SOL     hw 1502   5.168   2.477   4.131 -1.7314 -1.4356  0.1527
  376SOL     hw 1503   5.033   2.531   4.173 -0.7975  0.7374  0.5349
  376SOL     vw 1504   5.114   2.544   4.145 -0.5848 -0.5498  0.4680
  377SOL     ow 1505   2.040   5.208   6.360 -0.2913 -0.8011 -0.0511
  377SOL     hw 1506   2.113   5.267   6.379  2.3192 -2.8578 -2.6265
  377SOL     hw 1507   2.026   5.217   6.266 -2.4896 -1.4820  0.1575
  377SOL     vw 1508   2.048   5.217   6.350 -0.2369 -1.1623 -0.3633
  378SOL     ow 1509   2.760   6.912   3.597 -0.7382  0.2267 -0.2218
  378SOL     hw 1510   2.682   6.966   3.596  0.9032  2.7524 -0.0969
  378SOL     hw 1511   2.751   6.855   3.521 -2.6938  0.3830 -0.1526
  378SOL     vw 1512   2.748   6.911   3.587 -0.7797  0.5808 -0.1963
  379SOL     ow 1513   0.780   2.686   7.006  1.1815  0.0325 -0.1766
  379SOL     hw 1514   0.690   2.655   6.996  1.1505 -0.3808  1.1224
  379SOL     hw 1515   0.805   2.656   7.093  2.9438 -0.7628 -0.9202
  379SOL     vw 1516   0.771   2.678   7.016  1.4099 -0.1270 -0.1030
  380SOL     ow 1517   5.297   4.648   0.697  0.7286 -0.4560  0.1615
  380SOL     hw 1518   5.290   4.696   0.779  0.6791 -0.3462  0.0934
  380SOL     hw 1519   5.273   4.712   0.629  1.3887 -0.3669  0.0067
  380SOL     vw 1520   5.293   4.663   0.699  0.8087 -0.4296  0.1321
  381SOL     ow 1521   2.619   2.814   0.934  0.3505 -0.0413  0.1718
  381SOL     hw 1522   2.702   2.860   0.918  0.4032 -0.3008 -0.3287
  381SOL     hw 1523   2.616   2.803   1.029  1.8097 -1.6789  0.0869
  381SOL     vw 1524   2.630   2.819   0.945  0.5499 -0.2915  0.0946
  382SOL     ow 1525   0.290   1.795   2.309  0.3296  0.1149 -0.3840
  382SOL     hw 1526   0.218   1.778   2.248  0.9143 -2.9768 -0.3559
  382SOL     hw 1527   0.325   1.709   2.330  3.4590  1.4204  0.3643
  382SOL     vw 1528   0.285   1.782   2.304  0.8197 -0.1208 -0.2816
  383SOL     ow 1529   5.012   5.398   4.556  0.5329  0.2546 -0.2778
  383SOL     hw 1530   4.973   5.427   4.474 -1.3958  2.2819  1.2460
  383SOL     hw 1531   4.986   5.464   4.620  2.9676 -0.6093  1.7615
  383SOL     vw 1532   5.003   5.410   4.553  0.5994  0.4082  0.1922
  384SOL     ow 1533   4.650   4.908   5.827 -0.7173  0.2823  0.9101
  384SOL     hw 1534   4.622   4.987   5.873  0.6895 -0.1737  2.6832
  384SOL     hw 1535   4.645   4.839   5.893  0.6826 -0.5504  0.1953
  384SOL     vw 1536   4.646   4.909   5.841 -0.3471  0.1123  1.0500
  385SOL     ow 1537   5.064   1.079   0.344 -0.2714  0.9150 -0.1547
  385SOL     hw 1538   5.111   1.020   0.403 -1.9323  0.0153  0.3218
  385SOL     hw 1539   5.075   1.166   0.384  0.8777  0.7269 -0.0123
  385SOL     vw 1540   5.072   1.083   0.357 -0.3390  0.7714 -0.0730
  386SOL     ow 1541   2.327   0.539   0.665 -0.3827  0.9455  0.3987
  386SOL     hw 1542   2.359   0.506   0.749  0.0261  1.6004  0.5135
  386SOL     hw 1543   2.406   0.550   0.612 -0.8652 -3.0034 -1.4611
  386SOL     vw 1544   2.342   0.536   0.669 -0.3924  0.5109  0.1685
  387SOL     ow 1545   3.236   6.120   4.180 -0.1943  0.7121  0.4865
  387SOL     hw 1546   3.150   6.082   4.163  0.4008 -0.8414  0.7573
  387SOL     hw 1547   3.250   6.180   4.107  0.7865 -3.0832 -2.8330
  387SOL     vw 1548   3.226   6.123   4.168  0.0137  0.0067  0.0842
  388SOL     ow 1549   4.492   0.669   2.688 -0.1851  0.6009 -0.3578
  388SOL     hw 1550   4.508   0.690   2.780  1.9063  0.2460 -0.5900
  388SOL     hw 1551   4.489   0.754   2.644  0.2357  0.7225 -0.1580
  388SOL     vw 1552   4.493   0.683   2.694  0.1462  0.5701 -0.3622
  389SOL     ow 1553   4.990   4.766   5.901 -0.5733  0.0339  0.5209
  389SOL     hw 1554   4.915   4.740   5.954 -2.3753  0.1754 -1.7843
  389SOL     hw 1555   4.984   4.711   5.822  1.6170  0.2320  0.1314
  389SOL     vw 1556   4.980   4.755   5.897 -0.5219  0.0784  0.1655
  390SOL     ow 1557   6.621   0.596   2.009 -0.0571  0.7854 -0.0366
  390SOL     hw 1558   6.571   0.677   2.002  1.0093  1.5375  0.6887
  390SOL     hw 1559   6.712   0.623   1.996  0.2313 -0.4275 -0.5955
  390SOL     vw 1560   6.626   0.610   2.007  0.1218  0.7246 -0.0147
  391SOL     ow 1561   6.275   6.844   4.009  0.2803  0.6990 -0.2054
  391SOL     hw 1562   6.364   6.864   4.040 -0.3330  0.5555  1.8058
  391SOL     hw 1563   6.219   6.907   4.054 -0.8789 -0.6866  0.3962
  391SOL     vw 1564   6.279   6.855   4.019  0.0465  0.4971  0.1392
  392SOL     ow 1565   2.572   2.457   3.323 -0.4476  0.2932  0.1076
  392SOL     hw 1566   2.632   2.500   3.384  0.5130  1.0708 -1.3191
  392SOL     hw 1567   2.490   2.449   3.371  0.2400  1.0023  1.4435
  392SOL     vw 1568   2.569   2.461   3.337 -0.2303  0.4894  0.0955
  393SOL     ow 1569   3.811   6.985   4.367 -0.2436 -0.3979  0.5148
  393SOL     hw 1570   3.715   6.991   4.375 -0.2898 -2.4844  4.1717
  393SOL     hw 1571   3.840   7.075   4.356 -2.5675  0.4494  0.6327
  393SOL     vw 1572   3.802   6.997   4.367 -0.5562 -0.5615  1.0128
  394SOL     ow 1573   3.310   1.838   1.104 -0.5006 -0.0403  0.4130
  394SOL     hw 1574   3.234   1.789   1.136 -1.0689  1.8728  2.2494
  394SOL     hw 1575   3.361   1.857   1.183  1.1459 -0.0600 -0.6099
  394SOL     vw 1576   3.307   1.834   1.119 -0.3583  0.2095  0.5203
  395SOL     ow 1577   1.559   2.029   2.875 -0.5621  0.3871  0.2420
  395SOL     hw 1578   1.532   2.080   2.951 -1.3928  2.7228 -1.5114
  395SOL     hw 1579   1.478   2.010   2.828 -0.0003 -0.3476 -0.4548
  395SOL     vw 1580   1.545   2.034   2.879 -0.5975  0.5983 -0.0813
  396SOL     ow 1581   1.395   0.168   5.566  0.2511  0.0541 -0.2711
  396SOL     hw 1582   1.355   0.098   5.619  2.2081  0.2908  1.6882
  396SOL     hw 1583   1.479   0.131   5.538  0.0828  0.6498 -1.6237
  396SOL     vw 1584   1.401   0.154   5.570  0.4871  0.1639 -0.1910
  397SOL     ow 1585   4.872   5.541   0.998  0.3852  0.2427 -0.4724
  397SOL     hw 1586   4.780   5.563   0.992  0.6352  1.3833 -0.3430
  397SOL     hw 1587   4.889   5.532   1.092  0.5316  0.6380 -0.4575
  397SOL     vw 1588   4.862   5.543   1.010  0.4377  0.4454 -0.4534
  398SOL     ow 1589   0.905   1.252   6.401 -0.1065 -0.2094  0.4132
  398SOL     hw 1590   0.858   1.320   6.353  0.9918  1.4323  1.5607
  398SOL     hw 1591   0.837   1.190   6.427 -1.0286  0.0135 -1.3376
  398SOL     vw 1592   0.890   1.253   6.398 -0.0832  0.0367  0.3335
  399SOL     ow 1593   1.997   3.818   3.198  0.4272 -0.6138  0.3558
  399SOL     hw 1594   1.995   3.781   3.110  0.8754 -0.9250  0.4766
  399SOL     hw 1595   1.905   3.829   3.221  0.2648  1.7412 -1.0974
  399SOL     vw 1596   1.984   3.815   3.190  0.4650 -0.3442  0.1801
  400SOL     ow 1597   1.999   4.344   3.869 -0.1018  0.1225  0.6427
  400SOL     hw 1598   1.928   4.371   3.811 -0.9563 -3.3552 -0.1403
  400SOL     hw 1599   2.068   4.314   3.809  1.0648  1.1259  1.4322
  400SOL     vw 1600   1.999   4.344   3.854 -0.0606 -0.2043  0.6435
  401SOL     ow 1601   1.150   3.299   0.614 -0.0389 -0.4466  0.0473
  401SOL     hw 1602   1.179   3.213   0.583 -0.2993 -1.7277  3.0035
  401SOL     hw 1603   1.194   3.309   0.699 -0.6235  2.0120  0.1130
  401SOL     vw 1604   1.160   3.289   0.621 -0.1504 -0.2912  0.4460
  402SOL     ow 1605   2.004   6.099   2.285  0.0328 -0.1503 -0.3198
  402SOL     hw 1606   2.069   6.077   2.352  0.3478  0.4082 -0.4351
  402SOL     hw 1607   1.920   6.072   2.322  0.4477 -2.0799 -0.6873
  402SOL     vw 1608   2.002   6.092   2.299  0.1292 -0.3312 -0.3836
  403SOL     ow 1609   3.958   4.701   6.705  0.1763  0.0222  0.4246
  403SOL     hw 1610   3.883   4.723   6.651  0.8218  3.0125  0.6005
  403SOL     hw 1611   3.933   4.726   6.794  1.7464  2.4335  0.2975
  403SOL     vw 1612   3.945   4.707   6.710  0.4686  0.7350  0.4311
  404SOL     ow 1613   4.712   3.539   3.168  0.3938 -0.0729 -1.0279
  404SOL     hw 1614   4.724   3.617   3.222 -1.3621  0.0107 -0.6938
  404SOL     hw 1615   4.685   3.471   3.229 -0.9119 -0.1712 -1.6795
  404SOL     vw 1616   4.710   3.540   3.183 -0.0100 -0.0750 -1.0697
  405SOL     ow 1617   2.808   2.974   4.130 -0.2503 -0.3662  0.2044
  405SOL     hw 1618   2.804   2.944   4.039 -2.8593  0.4283 -0.0249
  405SOL     hw 1619   2.778   3.065   4.127 -3.4537 -1.1975  2.1269
  405SOL     vw 1620   2.804   2.982   4.118 -1.0172 -0.3711  0.4277
  406SOL     ow 1621   7.013   1.342   3.407  0.1741  0.4294 -0.3940
  406SOL     hw 1622   6.926   1.375   3.429 -0.7656 -1.8390 -0.4271
  406SOL     hw 1623   7.063   1.349   3.488 -0.2155  1.2067 -0.2122
  406SOL     vw 1624   7.008   1.347   3.420 -0.0014  0.2328 -0.3743
  407SOL     ow 1625   5.010   1.990   1.256  0.3304 -0.1738  0.5248
  407SOL     hw 1626   4.966   2.067   1.292  3.4513  0.6413  3.1307
  407SOL     hw 1627   5.015   1.929   1.329  1.6433 -1.0755 -0.2717
  407SOL     vw 1628   5.005   1.993   1.270  0.9153 -0.1853  0.7636
  408SOL     ow 1629   1.435   3.798   4.660 -0.0323 -0.0523 -0.3506
  408SOL     hw 1630   1.439   3.731   4.592 -0.7117  1.1244 -1.5795
  408SOL     hw 1631   1.368   3.859   4.631  1.2624  1.7306  0.2081
  408SOL     vw 1632   1.427   3.797   4.647  0.0489  0.3382 -0.4389
  409SOL     ow 1633   5.361   3.023   0.878  1.0882 -0.1856 -0.3644
  409SOL     hw 1634   5.276   3.031   0.834  1.1807  1.5399 -0.3308
  409SOL     hw 1635   5.352   3.078   0.956  2.7237  1.4319 -1.2256
  409SOL     vw 1636   5.348   3.031   0.883  1.3163  0.2555 -0.4736
  410SOL     ow 1637   4.662   1.159   5.696 -0.4074 -1.0581  0.3468
  410SOL     hw 1638   4.687   1.194   5.782  1.0601  0.0926 -0.5008
  410SOL     hw 1639   4.571   1.134   5.706  0.3928 -3.4512  3.0053
  410SOL     vw 1640   4.654   1.161   5.709 -0.1082 -1.2221  0.5858
  411SOL     ow 1641   1.504   0.307   6.277 -0.2607  0.0265 -0.4405
  411SOL     hw 1642   1.505   0.263   6.192  1.3276 -1.5234  0.3134
  411SOL     hw 1643   1.572   0.373   6.271  0.4265 -0.6433 -0.1166
  411SOL     vw 1644   1.513   0.310   6.265  0.0395 -0.2663 -0.2983
  412SOL     ow 1645   0.790   3.719   5.972  0.4259 -0.1376 -0.3308
  412SOL     hw 1646   0.698   3.747   5.981  0.1633 -1.1464  0.2954
  412SOL     hw 1647   0.831   3.790   5.923 -0.1432  1.4889  1.3659
  412SOL     vw 1648   0.783   3.732   5.967  0.3161 -0.0560 -0.0241
  413SOL     ow 1649   1.324   4.428   0.958  0.2636  0.7466 -0.1913
  413SOL     hw 1650   1.400   4.483   0.980  0.3287  0.8050 -0.5551
  413SOL     hw 1651   1.251   4.469   1.005  0.4353  0.7458  0.0839
  413SOL     vw 1652   1.324   4.441   0.967  0.2948  0.7539 -0.2030
  414SOL     ow 1653   3.868   2.661   6.186  0.5050 -0.7551  0.0767
  414SOL     hw 1654   3.864   2.705   6.101 -1.4183 -0.9552  0.0159
  414SOL     hw 1655   3.830   2.574   6.170 -1.1587 -0.3282  1.3661
  414SOL     vw 1656   3.862   2.655   6.173  0.0318 -0.7252  0.2384
  415SOL     ow 1657   3.585   1.124   6.113  0.4956  0.9333  0.4896
  415SOL     hw 1658   3.513   1.061   6.110 -0.9199  2.4359  1.4588
  415SOL     hw 1659   3.588   1.153   6.204  2.1596  1.1509  0.4064
  415SOL     vw 1660   3.576   1.119   6.125  0.5282  1.1603  0.6068
  416SOL     ow 1661   1.214   4.571   2.428 -0.7237 -0.7609 -0.0799
  416SOL     hw 1662   1.244   4.637   2.490 -3.3230 -1.4710  2.1582
  416SOL     hw 1663   1.155   4.619   2.370 -1.4991 -0.8088  0.6473
  416SOL     vw 1664   1.210   4.586   2.428 -1.1689 -0.8612  0.3113
  417SOL     ow 1665   0.895   0.865   0.445 -0.0592 -0.7200 -0.1989
  417SOL     hw 1666   0.899   0.950   0.488  0.0194 -0.2117 -1.1950
  417SOL     hw 1667   0.884   0.803   0.517 -0.8075  0.1787  0.4876
  417SOL     vw 1668   0.894   0.868   0.460 -0.1476 -0.5344 -0.2397
  418SOL     ow 1669   2.383   3.051   4.050 -0.1965 -0.6753 -0.0736
  418SOL     hw 1670   2.423   3.043   3.964 -0.3695 -0.4651 -0.1736
  418SOL     hw 1671   2.455   3.078   4.107  0.2567 -2.2478  0.1534
  418SOL     vw 1672   2.398   3.054   4.046 -0.1594 -0.8551 -0.0565
  419SOL     ow 1673   4.853   4.884   5.560 -0.5122  0.0239  0.3372
  419SOL     hw 1674   4.915   4.826   5.605 -0.7502 -0.7664 -0.3310
  419SOL     hw 1675   4.849   4.850   5.471  0.1159  1.6976 -0.3727
  419SOL     vw 1676   4.861   4.872   5.554 -0.4609  0.1402  0.1557
  420SOL     ow 1677   6.389   6.756   2.424 -0.6627 -0.3367  0.3275
  420SOL     hw 1678   6.378   6.800   2.508 -1.6418 -0.2662  0.1681
  420SOL     hw 1679   6.300   6.738   2.394 -0.3094 -1.7888  0.0531
  420SOL     vw 1680   6.376   6.759   2.431 -0.7453 -0.5190  0.2701
  421SOL     ow 1681   4.257   4.411   1.065  0.4464  0.0534 -0.1145
  421SOL     hw 1682   4.307   4.351   1.010  1.1199  0.5001 -0.0041
  421SOL     hw 1683   4.294   4.400   1.152 -2.6208 -2.9328  1.0283
  421SOL     vw 1684   4.268   4.402   1.069  0.1307 -0.2816  0.0508
  422SOL     ow 1685   3.382   1.684   6.447 -0.2472 -0.5273  0.0474
  422SOL     hw 1686   3.431   1.602   6.453  1.7255  0.3993 -1.8919
  422SOL     hw 1687   3.311   1.665   6.387 -0.6220 -1.1492  0.6694
  422SOL     vw 1688   3.379   1.671   6.440 -0.0364 -0.4871 -0.1266
  423SOL     ow 1689   6.707   0.401   2.259  0.2778 -0.0160  0.4220
  423SOL     hw 1690   6.695   0.423   2.351  0.4145 -1.4453  0.8024
  423SOL     hw 1691   6.780   0.339   2.258 -1.3970 -2.1318 -0.3006
  423SOL     vw 1692   6.715   0.396   2.271  0.0749 -0.4838  0.3769
  424SOL     ow 1693   5.805   4.875   0.018  0.3249  0.0051  0.9376
  424SOL     hw 1694   5.825   4.821   0.094 -1.5500 -1.9219  0.1710
  424SOL     hw 1695   5.823   4.818  -0.057 -0.4437  0.9044  0.0383
  424SOL     vw 1696   5.810   4.860   0.018 -0.0243 -0.1304  0.7176
  425SOL     ow 1697   4.571   4.540   4.804  0.5340 -0.4133 -0.1374
  425SOL     hw 1698   4.547   4.631   4.787  0.8631 -0.3876 -0.4815
  425SOL     hw 1699   4.656   4.529   4.761  0.1989 -1.0612 -0.6515
  425SOL     vw 1700   4.579   4.551   4.796  0.5329 -0.4954 -0.2508
  426SOL     ow 1701   4.116   5.387   5.318  0.2621 -0.8190 -0.1943
  426SOL     hw 1702   4.166   5.405   5.397  0.3629 -3.0876  0.3444
  426SOL     hw 1703   4.068   5.468   5.300  0.2402 -0.2366  2.1949
  426SOL     vw 1704   4.116   5.400   5.326  0.2725 -1.0414  0.1919
  427SOL     ow 1705   0.298   3.858   0.863 -0.1705 -0.1732  0.3675
  427SOL     hw 1706   0.264   3.898   0.943 -2.8696  0.0560 -0.7482
  427SOL     hw 1707   0.219   3.829   0.816  1.2379  0.2515 -2.4815
  427SOL     vw 1708   0.283   3.859   0.867 -0.3408 -0.0871 -0.1556
  428SOL     ow 1709   2.135   0.408   0.434 -1.1933 -0.0938 -0.5993
  428SOL     hw 1710   2.075   0.424   0.361  0.9579  0.7299 -2.3311
  428SOL     hw 1711   2.189   0.334   0.403 -0.8308 -0.3236  0.5540
  428SOL     vw 1712   2.134   0.400   0.420 -0.8618 -0.0154 -0.6756
  429SOL     ow 1713   4.318   5.680   2.866 -0.5945 -0.0029 -0.5300
  429SOL     hw 1714   4.398   5.666   2.816 -0.1233 -0.8228  0.4164
  429SOL     hw 1715   4.310   5.602   2.921 -1.7670  0.3047 -0.2410
  429SOL     vw 1716   4.327   5.668   2.867 -0.6869 -0.0706 -0.3672
  430SOL     ow 1717   2.934   0.411   1.858 -0.4068 -0.2529 -0.2341
  430SOL     hw 1718   2.906   0.364   1.937 -0.3340  0.8571  0.4771
  430SOL     hw 1719   3.026   0.387   1.847  0.2128  1.1969  1.2756
  430SOL     vw 1720   2.942   0.401   1.867 -0.3154  0.0848  0.0589
  431SOL     ow 1721   4.561   3.366   4.044 -0.3781 -0.7671 -0.4612
  431SOL     hw 1722   4.585   3.293   3.985 -1.4105 -1.9067  0.4874
  431SOL     hw 1723   4.643   3.387   4.088  0.1570 -0.6772 -1.4522
  431SOL     vw 1724   4.575   3.359   4.042 -0.4437 -0.9055 -0.4671
  432SOL     ow 1725   6.470   1.935   2.076  0.0192 -0.0731  0.0990
  432SOL     hw 1726   6.462   2.028   2.055 -2.1768 -0.1491  0.2965
  432SOL     hw 1727   6.556   1.927   2.116  0.9240  1.5635 -1.3470
  432SOL     vw 1728   6.480   1.946   2.078 -0.1509  0.1328 -0.0658
  433SOL     ow 1729   6.329   5.726   4.207  0.0416 -0.8233 -0.2073
  433SOL     hw 1730   6.311   5.765   4.293 -4.4789  1.3251 -1.7731
  433SOL     hw 1731   6.385   5.790   4.163  0.2170 -0.6238  0.2949
  433SOL     vw 1732   6.334   5.740   4.213 -0.5317 -0.5133 -0.3476
  434SOL     ow 1733   3.830   6.659   3.849  0.6868 -0.0124 -0.0760
  434SOL     hw 1734   3.740   6.687   3.863  0.2967 -0.7130 -1.0222
  434SOL     hw 1735   3.884   6.727   3.888 -0.2596  0.3495  0.6126
  434SOL     vw 1736   3.825   6.671   3.856  0.5105 -0.0570 -0.1099
  435SOL     ow 1737   2.101   6.670   4.407  0.0463 -0.6806 -0.1114
  435SOL     hw 1738   2.161   6.596   4.402  1.5716  0.4985  0.1704
  435SOL     hw 1739   2.126   6.726   4.333 -1.3061 -0.5964 -0.5265
  435SOL     vw 1740   2.112   6.668   4.396  0.0690 -0.5138 -0.1292
  436SOL     ow 1741   2.966   1.147   6.789 -0.2458 -0.5047 -0.3815
  436SOL     hw 1742   2.915   1.068   6.807 -1.3322  0.3376  0.3152
  436SOL     hw 1743   2.979   1.187   6.875 -0.9395  0.8126 -0.8684
  436SOL     vw 1744   2.961   1.142   6.803 -0.4807 -0.2198 -0.3536
  437SOL     ow 1745   4.336   0.888   4.578 -0.5520 -0.8462 -0.2878
  437SOL     hw 1746   4.297   0.959   4.527  3.4358  2.1600  0.3651
  437SOL     hw 1747   4.368   0.826   4.512 -0.2258  0.2318 -1.1733
  437SOL     vw 1748   4.335   0.889   4.562  0.0172 -0.3073 -0.3183
  438SOL     ow 1749   5.947   0.143   5.229  0.6331 -0.6798  0.9250
  438SOL     hw 1750   5.877   0.078   5.221  1.5020 -2.0781  3.6136
  438SOL     hw 1751   5.936   0.199   5.152 -2.1562 -2.0493  0.1882
  438SOL     vw 1752   5.936   0.142   5.218  0.3798 -1.0450  1.1826
  439SOL     ow 1753   5.551   0.753   6.299  0.2608  1.2906  0.0036
  439SOL     hw 1754   5.484   0.816   6.326  0.7044  2.1814 -0.9023
  439SOL     hw 1755   5.543   0.681   6.362 -2.0811  0.9943 -0.5110
  439SOL     vw 1756   5.541   0.752   6.311  0.0103  1.3690 -0.1838
  440SOL     ow 1757   4.840   2.419   0.212 -0.4082  0.9407 -0.7025
  440SOL     hw 1758   4.889   2.345   0.178  0.6172  1.5651 -0.6062
  440SOL     hw 1759   4.750   2.386   0.222  0.3403 -0.7830  0.8780
  440SOL     vw 1760   4.834   2.405   0.209 -0.1743  0.7957 -0.4812
  441SOL     ow 1761   6.101   0.626   6.719 -0.0297  0.2964  0.0626
  441SOL     hw 1762   6.067   0.597   6.634  1.0884  1.6589 -0.9086
  441SOL     hw 1763   6.033   0.602   6.782  0.2281 -3.0947 -0.7970
  441SOL     vw 1764   6.088   0.619   6.716  0.1516  0.0287 -0.1788
  442SOL     ow 1765   6.434   5.259   3.558  0.5596 -0.4235 -0.4706
  442SOL     hw 1766   6.373   5.188   3.575 -1.0523  1.0856  0.4069
  442SOL     hw 1767   6.455   5.251   3.465 -0.0188 -1.7049 -0.5104
  442SOL     vw 1768   6.429   5.249   3.548  0.2706 -0.3934 -0.3601
  443SOL     ow 1769   6.178   6.360   1.513 -0.3874 -0.3422  0.4549
  443SOL     hw 1770   6.182   6.405   1.428  0.4951 -1.7891 -0.3022
  443SOL     hw 1771   6.147   6.272   1.492 -2.5476 -0.0382  1.9603
  443SOL     vw 1772   6.174   6.355   1.499 -0.5560 -0.4928  0.5537
  444SOL     ow 1773   4.631   1.758   3.883  0.0248  0.0394 -0.3631
  444SOL     hw 1774   4.673   1.843   3.895  0.8619 -0.6116  1.6792
  444SOL     hw 1775   4.703   1.695   3.883 -0.7530 -0.9356  1.4551
  444SOL     vw 1776   4.646   1.761   3.885  0.0322 -0.1751  0.1463
  445SOL     ow 1777   2.352   1.649   5.692 -0.1140 -0.1933  0.4613
  445SOL     hw 1778   2.394   1.717   5.639 -1.2185  1.2114  1.3103
  445SOL     hw 1779   2.352   1.571   5.636  1.5677  0.3563 -0.3890
  445SOL     vw 1780   2.358   1.648   5.678 -0.0380  0.0646  0.4613
  446SOL     ow 1781   6.345   4.744   5.626 -0.1045  0.2124  0.6453
  446SOL     hw 1782   6.428   4.708   5.596 -0.2896 -0.6511  1.1221
  446SOL     hw 1783   6.369   4.803   5.697  0.0402 -0.9079  1.5579
  446SOL     vw 1784   6.359   4.747   5.631 -0.1099 -0.0494  0.8287
  447SOL     ow 1785   4.307   2.370   5.315 -0.1954  0.2008  0.0761
  447SOL     hw 1786   4.232   2.311   5.308  1.2270 -1.5555 -1.0866
  447SOL     hw 1787   4.374   2.319   5.361  0.8491  1.1451 -0.3517
  447SOL     vw 1788   4.306   2.355   5.320  0.1302  0.0937 -0.1338
  448SOL     ow 1789   1.749   5.969   3.029 -0.5081  0.2886  0.2930
  448SOL     hw 1790   1.799   5.990   2.950 -0.0524 -1.2711  0.1292
  448SOL     hw 1791   1.671   5.924   2.997 -0.1985 -0.5837  0.7191
  448SOL     vw 1792   1.745   5.966   3.014 -0.4071 -0.0327  0.3276
  449SOL     ow 1793   3.083   0.721   1.132  0.4535  0.2093 -0.0866
  449SOL     hw 1794   3.104   0.691   1.220  0.6958  0.7136  0.0300
  449SOL     hw 1795   3.112   0.649   1.075 -0.1515 -0.3312  0.2675
  449SOL     vw 1796   3.090   0.707   1.136  0.4055  0.2045 -0.0246
  450SOL     ow 1797   1.036   1.447   2.534  0.2777  0.0937  0.2939
  450SOL     hw 1798   0.980   1.430   2.610  0.3030 -1.0478  0.0838
  450SOL     hw 1799   1.002   1.388   2.467  2.1855 -1.2114  0.4012
  450SOL     vw 1800   1.024   1.437   2.535  0.5328 -0.2291  0.2803
  451SOL     ow 1801   6.026   4.061   0.477 -0.2268 -0.0629 -0.0276
  451SOL     hw 1802   5.983   4.046   0.393  2.5662  0.3205 -1.6476
  451SOL     hw 1803   6.062   4.149   0.471 -0.5709  0.2610  1.9012
  451SOL     vw 1804   6.025   4.070   0.465  0.0958  0.0305  0.0132
  452SOL     ow 1805   5.921   5.477   6.595  0.7889  0.9174 -0.4898
  452SOL     hw 1806   5.926   5.428   6.513  0.4380 -0.3140  0.2047
  452SOL     hw 1807   5.831   5.512   6.596  0.6070  0.4560 -0.3754
  452SOL     vw 1808   5.910   5.475   6.584  0.7188  0.6943 -0.3831
  453SOL     ow 1809   6.525   5.722   0.263 -1.0752 -0.4993  0.3608
  453SOL     hw 1810   6.574   5.663   0.319 -1.3986 -0.7021  0.4344
  453SOL     hw 1811   6.576   5.803   0.263  0.1071 -1.2131 -0.8662
  453SOL     vw 1812   6.538   5.725   0.270 -0.9618 -0.6201  0.2086
  454SOL     ow 1813   1.045   6.588   1.904 -0.1600  0.4996 -0.5552
  454SOL     hw 1814   1.138   6.610   1.905  0.0060 -0.1710 -0.6776
  454SOL     hw 1815   1.010   6.636   1.829  0.5406 -0.9486 -1.8858
  454SOL     vw 1816   1.053   6.597   1.894 -0.0456  0.2198 -0.7469
  455SOL     ow 1817   4.486   6.046   0.672 -0.1733 -0.1477  0.5543
  455SOL     hw 1818   4.398   6.082   0.663  0.3598  0.8365 -1.1159
  455SOL     hw 1819   4.531   6.107   0.730  0.4110  1.4026 -1.4186
  455SOL     vw 1820   4.480   6.059   0.678 -0.0260  0.1867  0.0736
  456SOL     ow 1821   1.911   1.392   3.377 -0.2498  0.1081 -0.3019
  456SOL     hw 1822   1.835   1.451   3.378 -1.8995 -1.8958  1.1692
  456SOL     hw 1823   1.902   1.340   3.457  3.3374  0.5081  0.5261
  456SOL     vw 1824   1.900   1.393   3.387  0.0058 -0.1035  0.0014
  457SOL     ow 1825   3.372   0.882   4.302 -0.0997 -0.3896  0.5742
  457SOL     hw 1826   3.367   0.787   4.313  1.1432 -0.4031  1.1279
  457SOL     hw 1827   3.345   0.917   4.388  0.1231 -0.2550  0.5891
  457SOL     vw 1828   3.368   0.874   4.315  0.0938 -0.3736  0.6490
  458SOL     ow 1829   2.735   3.812   1.617  0.5711 -0.3844 -0.7919
  458SOL     hw 1830   2.719   3.870   1.691  1.8871 -2.2947  1.0880
  458SOL     hw 1831   2.663   3.831   1.556 -1.6160 -0.0111  1.7384
  458SOL     vw 1832   2.723   3.822   1.618  0.4562 -0.5870 -0.2101
  459SOL     ow 1833   3.932   5.708   0.001  0.4623  0.3564 -0.9785
  459SOL     hw 1834   3.874   5.708  -0.075  0.1429  2.2943 -0.7908
  459SOL     hw 1835   3.944   5.616   0.022 -2.3831 -0.1627 -1.1821
  459SOL     vw 1836   3.926   5.696  -0.006  0.0448  0.5434 -0.9809
  460SOL     ow 1837   5.625   5.889   3.834 -0.3710  0.0596  0.4192
  460SOL     hw 1838   5.596   5.979   3.818 -1.2500 -0.4636 -1.0762
  460SOL     hw 1839   5.582   5.837   3.766  1.8597 -1.1798 -0.1414
  460SOL     vw 1840   5.616   5.894   3.823 -0.1929 -0.1729  0.1481
  461SOL     ow 1841   3.497   4.981   2.474 -0.4472 -0.3624  0.2081
  461SOL     hw 1842   3.541   5.065   2.459  1.7614 -1.2656  1.2471
  461SOL     hw 1843   3.470   4.953   2.386  0.2597  0.6756 -0.3700
  461SOL     vw 1844   3.499   4.989   2.460 -0.0627 -0.3445  0.2688
  462SOL     ow 1845   3.924   4.376   6.589 -0.4807 -0.1256  0.1866
  462SOL     hw 1846   3.989   4.311   6.614 -0.6022  0.8549  3.5866
  462SOL     hw 1847   3.843   4.348   6.632 -1.5413  0.3066 -1.4237
  462SOL     vw 1848   3.922   4.364   6.598 -0.6367  0.0606  0.4227
  463SOL     ow 1849   4.729   6.900   6.268 -0.0453 -0.4509 -0.4820
  463SOL     hw 1850   4.651   6.918   6.215 -0.1474  0.9612  0.1128
  463SOL     hw 1851   4.796   6.957   6.232  0.0142  0.1812  0.6061
  463SOL     vw 1852   4.727   6.910   6.256 -0.0510 -0.1814 -0.2599
  464SOL     ow 1853   6.370   6.879   2.665 -0.1128 -0.5825 -0.4059
  464SOL     hw 1854   6.317   6.904   2.740 -1.4730 -1.1901 -1.1452
  464SOL     hw 1855   6.449   6.840   2.703 -1.2688 -1.9129  0.7243
  464SOL     vw 1856   6.374   6.877   2.680 -0.4449 -0.8380 -0.3543
  465SOL     ow 1857   1.823   2.509   5.211  0.1797 -0.0757 -0.2675
  465SOL     hw 1858   1.833   2.459   5.292 -0.7319  0.3087  0.0987
  465SOL     hw 1859   1.873   2.460   5.146  3.0020  0.8937  1.0254
  465SOL     vw 1860   1.831   2.496   5.213  0.4318  0.1030 -0.0484
  466SOL     ow 1861   0.868   5.758   4.539  0.7998  0.5681 -0.7565
  466SOL     hw 1862   0.940   5.819   4.553  0.1832  0.7062  2.4208
  466SOL     hw 1863   0.791   5.814   4.526  0.6734  0.4404 -0.5584
  466SOL     vw 1864   0.867   5.774   4.539  0.7018  0.5693 -0.3111
  467SOL     ow 1865   0.080   5.440   5.072  0.7742  0.1407  0.2421
  467SOL     hw 1866   0.004   5.497   5.063  1.4719  0.8921 -1.1678
  467SOL     hw 1867   0.110   5.425   4.983  1.3794 -1.4207  0.6640
  467SOL     vw 1868   0.074   5.445   5.059  0.9461  0.0339  0.1118
  468SOL     ow 1869   3.805   0.579   2.539 -0.1728  0.3400  0.0173
  468SOL     hw 1870   3.790   0.633   2.616  1.4909  0.9763 -0.0497
  468SOL     hw 1871   3.722   0.580   2.491 -0.8070  1.0690  1.1037
  468SOL     vw 1872   3.792   0.586   2.542 -0.0368  0.5201  0.1518
  469SOL     ow 1873   0.983   6.936   0.805  0.6501 -0.1952  0.7792
  469SOL     hw 1874   0.907   6.983   0.770 -0.2045 -0.9141  1.6232
  469SOL     hw 1875   0.971   6.937   0.900  0.9515 -1.5328  0.8493
  469SOL     vw 1876   0.972   6.942   0.813  0.5771 -0.4668  0.8998
  470SOL     ow 1877   6.864   3.106   3.481 -0.2255 -1.1979 -0.7468
  470SOL     hw 1878   6.798   3.101   3.550  1.8996 -0.9864  1.4332
  470SOL     hw 1879   6.924   3.034   3.500  2.3723  0.9625 -0.1498
  470SOL     vw 1880   6.863   3.096   3.492  0.3974 -0.8850 -0.3805
  471SOL     ow 1881   2.362   0.411   2.367  0.9063  0.0587  0.0602
  471SOL     hw 1882   2.329   0.376   2.450  2.8463  0.7428  1.1729
  471SOL     hw 1883   2.368   0.506   2.382  0.5355  0.2912 -1.1571
  471SOL     vw 1884   2.358   0.419   2.380  1.1133  0.1796  0.0463
  472SOL     ow 1885   2.329   2.700   4.339  0.4335 -0.4841  0.0366
  472SOL     hw 1886   2.236   2.720   4.349  0.7504  1.5492 -0.5417
  472SOL     hw 1887   2.361   2.690   4.428  0.2693  2.2344  0.4999
  472SOL     vw 1888   2.321   2.701   4.352  0.4537  0.1431  0.0212
  473SOL     ow 1889   6.927   1.478   3.717 -0.2448 -0.2042 -0.5013
  473SOL     hw 1890   6.851   1.435   3.678  0.6853 -0.6011 -1.9429
  473SOL     hw 1891   6.892   1.557   3.759 -2.0316 -2.2898  2.3340
  473SOL     vw 1892   6.912   1.483   3.718 -0.3579 -0.5318 -0.3175
  474SOL     ow 1893   4.493   3.887   0.304 -0.6143  0.0853  0.2716
  474SOL     hw 1894   4.460   3.916   0.390 -0.1867  0.8791  0.1825
  474SOL     hw 1895   4.558   3.820   0.324 -2.2643 -1.5378  0.4503
  474SOL     vw 1896   4.497   3.882   0.318 -0.7756 -0.0242  0.2834
  475SOL     ow 1897   6.684   6.197   4.425  0.4558  0.2100  0.0587
  475SOL     hw 1898   6.594   6.163   4.428  1.5345 -2.9296  0.6272
  475SOL     hw 1899   6.711   6.202   4.516  1.1529  0.2800 -0.1433
  475SOL     vw 1900   6.676   6.193   4.437  0.6902 -0.1953  0.1068
  476SOL     ow 1901   4.791   4.561   3.912  0.4690 -0.4109  0.4438
  476SOL     hw 1902   4.746   4.548   3.995 -0.8892 -0.6708 -0.2948
  476SOL     hw 1903   4.813   4.473   3.882 -0.1715 -0.4117 -0.0500
  476SOL     vw 1904   4.788   4.548   3.919  0.2055 -0.4454  0.2812
  477SOL     ow 1905   4.202   6.685   0.218  0.2568  0.3447 -0.2319
  477SOL     hw 1906   4.109   6.688   0.195  0.4004  1.4612 -0.7653
  477SOL     hw 1907   4.247   6.677   0.133  0.6783  1.1311 -0.0944
  477SOL     vw 1908   4.196   6.685   0.203  0.3312  0.5958 -0.2841
  478SOL     ow 1909   1.758   2.141   4.040  0.2536  0.0270 -0.2323
  478SOL     hw 1910   1.849   2.110   4.042  0.3649  0.0340 -2.6899
  478SOL     hw 1911   1.713   2.082   3.980 -1.5046 -0.1870  1.1959
  478SOL     vw 1912   1.764   2.129   4.033  0.0364 -0.0002 -0.3679
  479SOL     ow 1913   1.586   5.794   1.584 -1.0106 -0.2274 -0.5743
  479SOL     hw 1914   1.572   5.824   1.674 -2.8746 -1.2678 -0.4599
  479SOL     hw 1915   1.642   5.716   1.594  0.1247  0.5770 -0.4876
  479SOL     vw 1916   1.591   5.788   1.597 -1.1067 -0.2587 -0.5478
  480SOL     ow 1917   2.345   0.780   6.878  0.0919 -0.0897 -0.3152
  480SOL     hw 1918   2.303   0.697   6.900 -0.0184 -0.3129 -1.3048
  480SOL     hw 1919   2.355   0.777   6.783  0.4469  0.8647 -0.3191
  480SOL     vw 1920   2.341   0.769   6.868  0.1242  0.0067 -0.4463
  481SOL     ow 1921   2.266   0.638   3.076  0.0064 -0.2616  0.1057
  481SOL     hw 1922   2.261   0.649   2.982  2.4792  0.0737 -0.0400
  481SOL     hw 1923   2.218   0.557   3.093  1.1517 -1.3908 -1.7078
  481SOL     vw 1924   2.259   0.629   3.066  0.4839 -0.3664 -0.1528
  482SOL     ow 1925   0.998   4.641   6.477  0.6855  0.0737 -0.6402
  482SOL     hw 1926   1.052   4.682   6.410 -1.6658  0.6253 -2.3260
  482SOL     hw 1927   0.908   4.661   6.451 -0.3966 -1.5137  1.5414
  482SOL     vw 1928   0.993   4.649   6.465  0.2325 -0.0632 -0.5748
  483SOL     ow 1929   2.631   1.325   0.539 -0.0959  0.0051 -0.2262
  483SOL     hw 1930   2.567   1.253   0.538 -0.7350  0.5548 -1.8592
  483SOL     hw 1931   2.713   1.283   0.512  0.0756 -0.5251  1.0198
  483SOL     vw 1932   2.634   1.310   0.535 -0.1576  0.0077 -0.2773
  484SOL     ow 1933   3.957   0.941   3.473 -0.1063 -0.5545 -1.2133
  484SOL     hw 1934   4.051   0.923   3.479 -0.5338 -2.8482 -0.4289
  484SOL     hw 1935   3.936   0.984   3.555  0.1620 -0.5471 -1.1465
  484SOL     vw 1936   3.967   0.944   3.484 -0.1273 -0.8562 -1.1010
  485SOL     ow 1937   3.254   3.448   0.961 -0.7428  0.2600  0.1099
  485SOL     hw 1938   3.195   3.423   1.031  0.5075 -2.2505  0.3519
  485SOL     hw 1939   3.290   3.366   0.928  0.9194  1.5463 -1.5269
  485SOL     vw 1940   3.251   3.434   0.966 -0.3585  0.0986 -0.0741
  486SOL     ow 1941   2.056   6.673   6.119  0.8249  0.3808 -0.4935
  486SOL     hw 1942   1.976   6.669   6.171  0.5548  4.4748 -0.2715
  486SOL     hw 1943   2.078   6.582   6.101 -2.4149 -0.9820  1.6330
  486SOL     vw 1944   2.048   6.661   6.123  0.3617  0.7410 -0.1833
  487SOL     ow 1945   3.265   5.755   4.302 -1.0004 -0.1685  0.3258
  487SOL     hw 1946   3.321   5.803   4.240 -1.8246  0.8955  0.3599
  487SOL     hw 1947   3.326   5.720   4.367  0.0473 -2.4256 -1.7330
  487SOL     vw 1948   3.281   5.757   4.302 -0.9710 -0.3257  0.0589
  488SOL     ow 1949   2.118   3.491   6.880 -0.2110  0.0172  0.4112
  488SOL     hw 1950   2.125   3.444   6.963  1.0260  0.0672  0.3448
  488SOL     hw 1951   2.190   3.553   6.881 -1.7488  1.8946  0.4597
  488SOL     vw 1952   2.128   3.493   6.891 -0.2507  0.2714  0.4089
  489SOL     ow 1953   0.046   1.724   6.638 -0.3053  0.6747 -0.2647
  489SOL     hw 1954   0.086   1.806   6.608 -0.2410  0.7785  0.0909
  489SOL     hw 1955  -0.044   1.727   6.606 -0.1277  0.6017 -0.7745
  489SOL     vw 1956   0.040   1.735   6.630 -0.2734  0.6788 -0.2851
  490SOL     ow 1957   1.162   4.395   0.406 -0.1947 -0.1218  0.3224
  490SOL     hw 1958   1.138   4.470   0.462 -0.4161 -1.0147  1.4542
  490SOL     hw 1959   1.240   4.358   0.448 -1.0882 -1.5569  0.7725
  490SOL     vw 1960   1.169   4.400   0.419 -0.3418 -0.4289  0.5311
  491SOL     ow 1961   5.789   6.160   2.246  0.4821  0.1472 -0.2192
  491SOL     hw 1962   5.763   6.211   2.323  0.0706  1.5431 -1.2419
  491SOL     hw 1963   5.723   6.091   2.240 -1.9691  2.4476 -1.6126
  491SOL     vw 1964   5.777   6.158   2.256  0.1042  0.6351 -0.5379
  492SOL     ow 1965   6.501   3.960   5.339  0.3826 -0.6984  0.5372
  492SOL     hw 1966   6.465   4.002   5.416 -1.3112 -1.0454 -0.0295
  492SOL     hw 1967   6.439   3.890   5.317  1.1509 -1.0266 -0.7596
  492SOL     vw 1968   6.488   3.956   5.346  0.2604 -0.7874  0.2916
  493SOL     ow 1969   6.245   5.275   2.513 -0.4716  0.3161 -0.4063
  493SOL     hw 1970   6.239   5.200   2.455  0.6975 -0.8967  0.9553
  493SOL     hw 1971   6.307   5.334   2.470 -2.3999  1.2056 -2.1374
  493SOL     vw 1972   6.253   5.273   2.500 -0.5715  0.2737 -0.4551
  494SOL     ow 1973   5.793   4.086   3.011  0.5353 -0.3663 -0.3184
  494SOL     hw 1974   5.718   4.070   2.955  0.4132 -0.7705 -0.0449
  494SOL     hw 1975   5.809   4.180   3.004 -0.1839 -0.2242 -0.1389
  494SOL     vw 1976   5.786   4.097   3.002  0.4241 -0.4010 -0.2586
  495SOL     ow 1977   1.382   2.616   1.624 -0.2817  0.0380  0.4899
  495SOL     hw 1978   1.325   2.539   1.623 -0.2992  0.0070  1.6867
  495SOL     hw 1979   1.447   2.596   1.691  0.1731  0.7432  0.2621
  495SOL     vw 1980   1.383   2.603   1.633 -0.2240  0.1271  0.6177
  496SOL     ow 1981   5.365   5.845   0.554 -0.1163 -0.7068 -0.2767
  496SOL     hw 1982   5.298   5.907   0.524  1.7879  1.3228 -0.6436
  496SOL     hw 1983   5.374   5.783   0.482  0.1998  0.5749 -1.3871
  496SOL     vw 1984   5.357   5.845   0.540  0.1764 -0.2699 -0.4716
  497SOL     ow 1985   6.117   0.024   5.428 -0.2153  0.7955  0.5089
  497SOL     hw 1986   6.057   0.071   5.487  0.0249  1.0025  0.5890
  497SOL     hw 1987   6.095  -0.068   5.440 -1.3776  0.9347 -0.3809
  497SOL     vw 1988   6.106   0.018   5.437 -0.3371  0.8411  0.4017
  498SOL     ow 1989   3.504   1.147   0.225 -0.5349 -0.0880 -0.2211
  498SOL     hw 1990   3.415   1.146   0.190  0.0486  1.9289 -1.9849
  498SOL     hw 1991   3.496   1.191   0.310 -1.1874  0.3131 -0.4809
  498SOL     vw 1992   3.491   1.153   0.232 -0.5440  0.2310 -0.4881
  499SOL     ow 1993   5.688   6.164   3.071 -0.4994 -0.1350 -0.0056
  499SOL     hw 1994   5.709   6.131   2.984  2.0157  0.6454  0.2389
  499SOL     hw 1995   5.621   6.103   3.104 -3.4430  0.9412 -3.3227
  499SOL     vw 1996   5.682   6.151   3.064 -0.5560  0.1101 -0.4109
  500SOL     ow 1997   0.701   5.703   0.532  0.6569  0.4847 -1.0269
  500SOL     hw 1998   0.754   5.696   0.452  1.0574  0.9544 -0.8062
  500SOL     hw 1999   0.614   5.671   0.506  1.0697 -0.3733 -1.3699
  500SOL     vw 2000   0.696   5.698   0.518  0.7642  0.4334 -1.0431
  501SOL     ow 2001   6.092   2.328   6.147  0.4226  0.5117  0.2873
  501SOL     hw 2002   6.101   2.279   6.065 -0.7102 -0.4166  0.6878
  501SOL     hw 2003   6.166   2.389   6.147 -0.0063  1.0984 -1.7988
  501SOL     vw 2004   6.103   2.329   6.136  0.2167  0.4667  0.0648
  502SOL     ow 2005   0.847   6.168   3.318 -0.1883  0.3383  0.3403
  502SOL     hw 2006   0.753   6.167   3.333 -0.8978  0.7151 -3.2123
  502SOL     hw 2007   0.861   6.237   3.254  2.3700 -0.4298 -0.0665
  502SOL     vw 2008   0.837   6.177   3.312  0.0556  0.2866 -0.1820
  503SOL     ow 2009   1.446   4.715   2.986 -0.2510 -0.3747  0.0558
  503SOL     hw 2010   1.485   4.628   2.988  0.3581 -0.1472 -0.9361
  503SOL     hw 2011   1.510   4.771   3.030 -0.3886 -0.3419  0.2128
  503SOL     vw 2012   1.460   4.711   2.992 -0.1887 -0.3405 -0.0544
  504SOL     ow 2013   2.907   4.445   6.428 -0.1533 -0.2028  0.2824
  504SOL     hw 2014   2.945   4.424   6.513 -0.6789 -0.9504  0.3429
  504SOL     hw 2015   2.818   4.410   6.433 -0.7996  1.3501  0.0891
  504SOL     vw 2016   2.900   4.438   6.440 -0.3079 -0.0966  0.2649
  505SOL     ow 2017   0.316   6.070   5.216  0.0165 -0.1756 -0.0509
  505SOL     hw 2018   0.384   6.049   5.151  0.1471 -0.5002  0.1862
  505SOL     hw 2019   0.316   6.165   5.220 -0.5040 -0.1244 -1.0659
  505SOL     vw 2020   0.325   6.080   5.208 -0.0349 -0.2115 -0.1533
  506SOL     ow 2021   6.005   6.285   2.185  0.1502 -0.4453  0.1507
  506SOL     hw 2022   5.970   6.371   2.161  0.1202 -0.1699  1.1554
  506SOL     hw 2023   5.927   6.230   2.195 -0.0341  0.1464  2.3008
  506SOL     vw 2024   5.990   6.289   2.183  0.1221 -0.3309  0.5668
  507SOL     ow 2025   5.929   6.243   6.628 -0.8291  0.3381 -0.4106
  507SOL     hw 2026   5.900   6.314   6.685 -1.1533  0.2601 -0.4760
  507SOL     hw 2027   5.964   6.287   6.550 -0.0993  0.4529 -0.0214
  507SOL     vw 2028   5.930   6.258   6.625 -0.7756  0.3428 -0.3679
  508SOL     ow 2029   1.418   6.140   6.553 -0.0814 -0.2723  0.5307
  508SOL     hw 2030   1.491   6.202   6.552  0.0812 -0.4325  1.6112
  508SOL     hw 2031   1.447   6.069   6.495  1.4064 -1.1868  2.3060
  508SOL     vw 2032   1.432   6.139   6.545  0.1364 -0.4139  0.9074
  509SOL     ow 2033   1.997   0.825   1.327 -0.3211  0.2562 -0.3031
  509SOL     hw 2034   2.007   0.879   1.249 -1.5591  0.8909 -0.0537
  509SOL     hw 2035   2.086   0.814   1.360  0.2595 -0.2744 -1.9503
  509SOL     vw 2036   2.010   0.831   1.321 -0.4078  0.2699 -0.4875
  510SOL     ow 2037   3.073   6.951   3.705  0.8263  0.5390 -0.0436
  510SOL     hw 2038   3.118   6.980   3.626 -1.7508 -1.8815 -2.6341
  510SOL     hw 2039   3.133   6.888   3.746  2.8501  2.9629  0.9808
  510SOL     vw 2040   3.087   6.946   3.700  0.7534  0.5393 -0.2502
  511SOL     ow 2041   1.126   5.322   5.410 -0.1190 -0.2748 -0.2270
  511SOL     hw 2042   1.178   5.257   5.363 -0.8871  0.4524 -2.1876
  511SOL     hw 2043   1.038   5.284   5.414 -0.5563  0.5654 -1.3209
  511SOL     vw 2044   1.121   5.308   5.404 -0.2780 -0.0682 -0.6299
  512SOL     ow 2045   5.641   4.876   0.264  0.2724  0.0106  0.1640
  512SOL     hw 2046   5.608   4.886   0.353  2.9751 -1.2500  1.4314
  512SOL     hw 2047   5.649   4.781   0.252  0.6199  0.1858 -1.1582
  512SOL     vw 2048   5.638   4.865   0.274  0.6747 -0.1326  0.1567
  513SOL     ow 2049   1.246   5.016   4.424  0.3971 -0.5043 -0.3030
  513SOL     hw 2050   1.226   5.066   4.345 -0.7798 -0.2768  0.1182
  513SOL     hw 2051   1.337   5.038   4.444  0.9995 -1.2551 -2.0675
  513SOL     vw 2052   1.256   5.026   4.416  0.3213 -0.5734 -0.4802
  514SOL     ow 2053   4.964   3.612   2.961  0.7505 -0.1931  0.6100
  514SOL     hw 2054   5.053   3.582   2.979  1.9092  3.1331  0.9500
  514SOL     hw 2055   4.974   3.698   2.922 -2.3466  0.2630  0.5359
  514SOL     vw 2056   4.977   3.619   2.958  0.4950  0.3059  0.6452
  515SOL     ow 2057   5.436   0.279   3.643 -0.1302 -0.0369  0.1724
  515SOL     hw 2058   5.463   0.357   3.691 -0.3684 -0.3623  0.8483
  515SOL     hw 2059   5.441   0.208   3.707 -0.9711 -0.3916 -0.1354
  515SOL     vw 2060   5.440   0.280   3.657 -0.2728 -0.1266  0.2210
  516SOL     ow 2061   3.995   6.747   3.579 -0.2569 -0.7129 -0.4332
  516SOL     hw 2062   4.081   6.789   3.576  0.4197 -2.0298 -0.2720
  516SOL     hw 2063   3.962   6.754   3.490 -0.3047  0.4047 -0.3458
  516SOL     vw 2064   4.002   6.754   3.567 -0.1738 -0.7391 -0.4004
  517SOL     ow 2065   4.482   1.863   5.340 -0.1055 -0.5456  0.3257
  517SOL     hw 2066   4.489   1.780   5.386 -0.7140 -2.5644 -2.9344
  517SOL     hw 2067   4.403   1.856   5.288 -0.9750  2.7274  0.9331
  517SOL     vw 2068   4.473   1.851   5.339 -0.3004 -0.3802 -0.0243
  518SOL     ow 2069   3.774   0.930   1.580  0.0388 -0.4745 -0.3156
  518SOL     hw 2070   3.804   1.002   1.636 -0.6647 -0.8860  0.6279
  518SOL     hw 2071   3.678   0.938   1.581  0.0005 -0.6713 -1.2472
  518SOL     vw 2072   3.765   0.941   1.588 -0.0591 -0.5548 -0.3139
  519SOL     ow 2073   6.132   0.186   0.671 -0.1038 -0.5273  0.1770
  519SOL     hw 2074   6.190   0.256   0.640  0.5383  0.6597  3.5916
  519SOL     hw 2075   6.187   0.108   0.671  1.0734  0.2427  1.7651
  519SOL     vw 2076   6.147   0.185   0.667  0.1364 -0.2691  0.8371
  520SOL     ow 2077   5.833   4.769   1.035 -0.5672  0.1494  0.6820
  520SOL     hw 2078   5.767   4.823   1.079 -1.1879 -1.0943  1.3246
  520SOL     hw 2079   5.912   4.780   1.088 -0.8724 -0.0829  1.1921
  520SOL     vw 2080   5.835   4.778   1.048 -0.6897 -0.0455  0.8340
  521SOL     ow 2081   6.027   5.260   6.495  0.0854  0.0209 -0.1345
  521SOL     hw 2082   5.979   5.276   6.413 -2.1150 -2.6326  0.4934
  521SOL     hw 2083   6.110   5.220   6.467  1.0050  2.4516 -1.1348
  521SOL     vw 2084   6.032   5.257   6.480 -0.0834 -0.0086 -0.1836
  522SOL     ow 2085   3.727   2.816   6.423 -0.7912  0.8288  0.0244
  522SOL     hw 2086   3.685   2.850   6.344 -1.7655 -2.1591 -0.8792
  522SOL     hw 2087   3.656   2.773   6.470 -0.0202  1.7035  2.1023
  522SOL     vw 2088   3.712   2.815   6.419 -0.8179  0.5500  0.1793
  523SOL     ow 2089   1.880   2.860   5.947  0.4632  0.3321  0.0816
  523SOL     hw 2090   1.790   2.893   5.941 -0.0423 -1.1470 -0.9172
  523SOL     hw 2091   1.916   2.872   5.860  0.1809 -1.8553 -0.4014
  523SOL     vw 2092   1.873   2.866   5.935  0.3592 -0.1516 -0.1142
  524SOL     ow 2093   3.454   5.351   0.624 -0.2930  0.6112  0.1804
  524SOL     hw 2094   3.487   5.441   0.614  2.8752 -0.1455  2.3295
  524SOL     hw 2095   3.440   5.341   0.718 -0.0606 -1.2821  0.0510
  524SOL     vw 2096   3.457   5.362   0.635  0.1557  0.2615  0.4469
  525SOL     ow 2097   2.687   6.158   5.567 -0.2846 -0.2721 -0.1660
  525SOL     hw 2098   2.634   6.134   5.643  3.0819  1.5499  3.1180
  525SOL     hw 2099   2.773   6.119   5.586  0.7765  0.4870 -2.9881
  525SOL     vw 2100   2.692   6.149   5.580  0.2996  0.0682 -0.1051
  526SOL     ow 2101   0.872   0.116   5.941  0.2693 -0.1365 -0.2509
  526SOL     hw 2102   0.963   0.088   5.925  0.2002  0.6847 -2.5872
  526SOL     hw 2103   0.880   0.199   5.987  0.6433 -0.6764  0.6893
  526SOL     vw 2104   0.885   0.123   5.945  0.3095 -0.0994 -0.4351
  527SOL     ow 2105   0.538   5.173   2.054 -0.7843 -0.6052  0.0101
  527SOL     hw 2106   0.587   5.245   2.014 -1.8027 -0.2287 -0.5789
  527SOL     hw 2107   0.555   5.182   2.148  1.3938 -1.3226 -0.2634
  527SOL     vw 2108   0.547   5.183   2.061 -0.6312 -0.6502 -0.1038
  528SOL     ow 2109   0.196   3.967   1.813  0.7345 -0.1743  0.2173
  528SOL     hw 2110   0.164   4.031   1.876  0.6367  1.1252 -1.1085
  528SOL     hw 2111   0.271   3.926   1.856  0.9917  1.0552  0.9904
  528SOL     vw 2112   0.202   3.970   1.827  0.7555  0.1594  0.1444
  529SOL     ow 2113   5.931   3.396   1.302  0.3983 -0.9176  0.2474
  529SOL     hw 2114   5.889   3.366   1.222  1.5166 -1.1358 -0.2726
  529SOL     hw 2115   5.992   3.325   1.325  1.7740  0.1369 -0.0091
  529SOL     vw 2116   5.934   3.382   1.295  0.7272 -0.8072  0.1450
  530SOL     ow 2117   3.012   6.603   1.544  0.7538  0.0846  0.1791
  530SOL     hw 2118   3.078   6.666   1.517  0.0729  0.5292 -0.4882
  530SOL     hw 2119   3.039   6.520   1.503  1.1748  0.1489  0.3325
  530SOL     vw 2120   3.024   6.600   1.535  0.7194  0.1516  0.1114
  531SOL     ow 2121   5.034   6.384   2.948 -0.6662  0.1590  0.7409
  531SOL     hw 2122   5.069   6.429   2.871 -0.0622 -0.4652  0.6364
  531SOL     hw 2123   4.976   6.447   2.989 -1.1867  0.4237 -0.3639
  531SOL     vw 2124   5.031   6.398   2.943 -0.6554  0.1116  0.5814
  532SOL     ow 2125   3.553   1.837   0.924  0.9938  0.0676  1.1351
  532SOL     hw 2126   3.605   1.765   0.961 -0.8654 -0.7336  2.3527
  532SOL     hw 2127   3.594   1.916   0.958  2.6136 -0.4205  0.4126
  532SOL     vw 2128   3.565   1.838   0.933  0.9621 -0.1026  1.2004
  533SOL     ow 2129   1.099   0.274   4.501  0.1583  0.1044 -0.4221
  533SOL     hw 2130   1.177   0.278   4.557  0.2368  0.7691 -0.5793
  533SOL     hw 2131   1.132   0.253   4.414  0.1621  0.4224 -0.4964
  533SOL     vw 2132   1.113   0.272   4.497  0.1693  0.2341 -0.4525
  534SOL     ow 2133   0.131   6.350   3.325  0.1203 -0.5835  0.7537
  534SOL     hw 2134   0.135   6.339   3.230  0.1517  1.9974  0.3880
  534SOL     hw 2135   0.157   6.265   3.360 -2.5217 -2.4978 -1.4953
  534SOL     vw 2136   0.135   6.337   3.317 -0.2241 -0.4954  0.4088
  535SOL     ow 2137   3.265   4.035   1.979 -0.6555  0.7220  0.3342
  535SOL     hw 2138   3.326   4.060   2.049 -0.6860  0.4129  0.4745
  535SOL     hw 2139   3.234   3.948   2.005 -2.4057  1.5439  1.1223
  535SOL     vw 2140   3.269   4.027   1.992 -0.8905  0.7894  0.4567
  536SOL     ow 2141   5.181   2.940   5.147 -0.3795 -0.5087 -0.4254
  536SOL     hw 2142   5.268   2.899   5.143 -0.7538 -1.5917  1.3170
  536SOL     hw 2143   5.121   2.870   5.121 -0.7259  0.4938 -2.5358
  536SOL     vw 2144   5.185   2.925   5.143 -0.4745 -0.5193 -0.4740
  537SOL     ow 2145   0.094   1.436   6.567  0.1333 -0.2732  0.1467
  537SOL     hw 2146   0.106   1.531   6.564  0.9135 -0.3793 -0.5627
  537SOL     hw 2147   0.085   1.410   6.475  1.9077 -1.0944  0.1659
  537SOL     vw 2148   0.094   1.445   6.554  0.4704 -0.3955  0.0553
  538SOL     ow 2149   2.102   2.098   3.305  0.0660  0.3627 -0.0909
  538SOL     hw 2150   2.013   2.071   3.326  0.3321 -1.9921 -1.7001
  538SOL     hw 2151   2.093   2.153   3.227 -0.1519  2.5481  1.3569
  538SOL     vw 2152   2.089   2.102   3.298  0.0724  0.3403 -0.1123
  539SOL     ow 2153   6.673   2.998   4.762  0.2664 -0.3753  0.0536
  539SOL     hw 2154   6.658   2.969   4.852  1.0936 -1.0107 -0.0095
  539SOL     hw 2155   6.670   2.918   4.710 -1.4455  0.1007 -0.6838
  539SOL     vw 2156   6.670   2.984   4.767  0.1500 -0.3961 -0.0520
  540SOL     ow 2157   3.898   1.954   4.526  0.0992  0.7209 -0.4506
  540SOL     hw 2158   3.828   1.891   4.511  1.3380 -0.1972 -2.9974
  540SOL     hw 2159   3.861   2.038   4.500 -0.5344  0.5259 -0.1978
  540SOL     vw 2160   3.884   1.957   4.521  0.1791  0.5741 -0.7534
  541SOL     ow 2161   2.643   0.264   2.931 -0.2447 -0.0995 -0.0117
  541SOL     hw 2162   2.553   0.270   2.900 -0.7161  0.4245  1.4070
  541SOL     hw 2163   2.650   0.176   2.968 -0.3573  0.0884  0.4523
  541SOL     vw 2164   2.632   0.253   2.932 -0.3216 -0.0056  0.2367
  542SOL     ow 2165   3.998   4.631   3.577  0.0321 -0.0039 -0.0273
  542SOL     hw 2166   3.927   4.671   3.627 -0.2462  1.6636 -1.6195
  542SOL     hw 2167   4.067   4.698   3.575  1.6379 -1.5148  1.3445
  542SOL     vw 2168   3.998   4.646   3.583  0.2072  0.0169 -0.0565
  543SOL     ow 2169   2.204   0.315   4.128  0.1646 -0.0980 -0.2636
  543SOL     hw 2170   2.262   0.356   4.192  0.5008 -1.0664  0.0738
  543SOL     hw 2171   2.245   0.231   4.108  0.0050  0.1181 -1.6730
  543SOL     vw 2172   2.217   0.309   4.133  0.1879 -0.1972 -0.4048
  544SOL     ow 2173   1.927   4.378   2.493 -0.2873  0.2052 -0.4966
  544SOL     hw 2174   1.927   4.410   2.583 -1.6393  0.5922 -0.6210
  544SOL     hw 2175   1.899   4.452   2.440  0.2689 -0.0846 -1.2201
  544SOL     vw 2176   1.923   4.392   2.498 -0.3923  0.2182 -0.6083
  545SOL     ow 2177   0.938   3.949   1.795 -0.5889 -0.1479 -0.1350
  545SOL     hw 2178   0.934   3.859   1.764 -0.2448  0.2758 -1.5058
  545SOL     hw 2179   0.972   3.998   1.720 -0.3193  1.0469  0.7421
  545SOL     vw 2180   0.942   3.944   1.781 -0.5080  0.0656 -0.2001
  546SOL     ow 2181   6.355   0.834   1.734 -0.1312 -0.4914  0.0182
  546SOL     hw 2182   6.328   0.857   1.823 -2.7243  0.8317 -0.9962
  546SOL     hw 2183   6.450   0.846   1.734 -0.2725  1.3352  2.0966
  546SOL     vw 2184   6.364   0.839   1.746 -0.4919 -0.0759  0.1585
  547SOL     ow 2185   0.356   5.540   3.638 -0.9590 -0.0920 -0.1910
  547SOL     hw 2186   0.284   5.601   3.655 -1.0227 -0.5887  1.4588
  547SOL     hw 2187   0.340   5.509   3.548 -2.1371  0.6805 -0.2708
  547SOL     vw 2188   0.345   5.544   3.628 -1.1229 -0.0556  0.0162
  548SOL     ow 2189   4.582   0.347   3.214  0.6424  0.1631  0.1419
  548SOL     hw 2190   4.581   0.329   3.308  2.4850  1.7119  0.5232
  548SOL     hw 2191   4.593   0.442   3.207  3.5378 -0.1767 -1.5531
  548SOL     vw 2192   4.583   0.357   3.225  1.2674  0.3226 -0.0315
  549SOL     ow 2193   0.562   1.739   0.713 -0.0034  0.8219  0.0788
  549SOL     hw 2194   0.603   1.728   0.628 -0.8185 -0.9066 -0.1390
  549SOL     hw 2195   0.472   1.709   0.701  0.8809 -3.6970  2.4187
  549SOL     vw 2196   0.555   1.734   0.700  0.0057 -0.0023  0.3588
  550SOL     ow 2197   3.576   5.076   4.402 -0.5760 -0.0999 -0.5184
  550SOL     hw 2198   3.518   5.093   4.327  0.0126  0.8626 -0.7656
  550SOL     hw 2199   3.663   5.101   4.371 -0.1020 -0.9978  0.0432
  550SOL     vw 2200   3.579   5.082   4.388 -0.4358 -0.0913 -0.4771
  551SOL     ow 2201   0.297   4.141   3.797  0.2709  0.1097  0.0895
  551SOL     hw 2202   0.382   4.121   3.757 -0.3138 -1.3863 -0.4619
  551SOL     hw 2203   0.277   4.064   3.849 -0.4616  0.7292  0.7297
  551SOL     vw 2204   0.306   4.128   3.798  0.0971 -0.0057  0.1012
  552SOL     ow 2205   2.809   0.384   3.141  0.3671 -0.1549 -0.6255
  552SOL     hw 2206   2.861   0.392   3.221 -0.5900 -0.3461  0.0235
  552SOL     hw 2207   2.828   0.296   3.109  1.1913  0.1235 -0.9352
  552SOL     vw 2208   2.819   0.374   3.148  0.3494 -0.1434 -0.5807
  553SOL     ow 2209   4.900   5.040   1.486  0.5015  0.0655  0.6873
  553SOL     hw 2210   4.836   5.105   1.457  1.5792  1.0029  0.3091
  553SOL     hw 2211   4.912   4.982   1.411  1.9355  1.4061 -0.1906
  553SOL     vw 2212   4.893   5.041   1.473  0.8333  0.3660  0.5215
  554SOL     ow 2213   6.029   1.751   1.075 -0.1729  1.0915  0.3523
  554SOL     hw 2214   6.058   1.730   0.986  1.2908  0.3348  0.9576
  554SOL     hw 2215   6.103   1.724   1.131 -1.8720 -0.4948  1.9937
  554SOL     vw 2216   6.043   1.744   1.071 -0.2038  0.7824  0.6487
  555SOL     ow 2217   3.238   5.490   4.131  0.3373  0.0199  0.8117
  555SOL     hw 2218   3.161   5.439   4.108  0.6399  0.3241 -1.0246
  555SOL     hw 2219   3.304   5.465   4.066  0.8287  1.9156  0.5042
  555SOL     vw 2220   3.237   5.480   4.119  0.4420  0.3099  0.5291
  556SOL     ow 2221   3.846   0.230   6.714  0.4435 -0.3010 -0.0157
  556SOL     hw 2222   3.907   0.157   6.725  1.2315  0.1827 -0.9750
  556SOL     hw 2223   3.902   0.306   6.698 -0.3998  0.1140 -1.1797
  556SOL     vw 2224   3.861   0.231   6.713  0.4362 -0.1824 -0.2959
  557SOL     ow 2225   1.125   4.708   5.812  0.2057  0.0488 -0.0421
  557SOL     hw 2226   1.035   4.683   5.793  0.7395 -2.4062  0.3190
  557SOL     hw 2227   1.118   4.773   5.882 -1.3198  1.4885 -1.4602
  557SOL     vw 2228   1.112   4.713   5.819  0.0749 -0.0851 -0.1817
  558SOL     ow 2229   1.131   3.183   4.773 -0.7674  0.3358  0.5719
  558SOL     hw 2230   1.126   3.205   4.866 -1.4091 -1.9533  1.1468
  558SOL     hw 2231   1.049   3.217   4.736 -0.7908  0.7146  0.9568
  558SOL     vw 2232   1.119   3.190   4.781 -0.8551  0.0837  0.6983
  559SOL     ow 2233   2.862   4.806   2.699  0.6763  0.2515  0.5967
  559SOL     hw 2234   2.844   4.715   2.674  0.3389  0.7077 -0.9323
  559SOL     hw 2235   2.875   4.802   2.793  0.7344 -1.3955  0.5588
  559SOL     vw 2236   2.861   4.793   2.708  0.6393  0.0942  0.3901
  560SOL     ow 2237   3.145   4.274   3.368 -0.1676  0.0960 -0.3062
  560SOL     hw 2238   3.173   4.359   3.335 -0.4233 -0.1584 -1.2032
  560SOL     hw 2239   3.220   4.216   3.356 -0.0348  0.1587  0.1899
  560SOL     vw 2240   3.158   4.278   3.362 -0.1838  0.0706 -0.3593
  561SOL     ow 2241   4.865   3.411   2.282 -0.4676 -0.3797 -0.3373
  561SOL     hw 2242   4.785   3.433   2.236 -1.7818  1.4069  2.5054
  561SOL     hw 2243   4.854   3.319   2.308 -1.6355 -0.1447  0.0494
  561SOL     vw 2244   4.853   3.402   2.280 -0.7951 -0.1129  0.0889
  562SOL     ow 2245   5.249   0.629   3.774 -0.2684  0.2356  0.4808
  562SOL     hw 2246   5.297   0.700   3.732 -0.5499  0.8444  1.1665
  562SOL     hw 2247   5.315   0.584   3.828  0.5060 -1.6181 -1.8396
  562SOL     vw 2248   5.264   0.632   3.776 -0.2034  0.0713  0.2651
  563SOL     ow 2249   4.873   6.144   2.232 -0.4151 -0.3160 -0.6129
  563SOL     hw 2250   4.780   6.119   2.233 -0.0587 -1.6750  0.0353
  563SOL     hw 2251   4.871   6.240   2.235 -1.8061 -0.3353  1.7634
  563SOL     vw 2252   4.860   6.154   2.232 -0.5517 -0.4978 -0.2139
  564SOL     ow 2253   0.857   0.951   5.529 -0.6391  0.5507  0.3130
  564SOL     hw 2254   0.875   0.931   5.621 -0.4804  0.8958  0.3608
  564SOL     hw 2255   0.842   0.866   5.488  1.2682  0.2091  0.2284
  564SOL     vw 2256   0.858   0.937   5.536 -0.3666  0.5512  0.3080
  565SOL     ow 2257   6.697   6.005   1.467  0.0279 -0.1035  0.4168
  565SOL     hw 2258   6.762   5.949   1.425  2.4461  1.0851  2.2641
  565SOL     hw 2259   6.637   5.944   1.510  0.8968 -1.2706  0.0335
  565SOL     vw 2260   6.698   5.990   1.467  0.4616 -0.1006  0.6099
  566SOL     ow 2261   6.609   3.351   6.077 -0.2144  0.6681 -0.1241
  566SOL     hw 2262   6.577   3.387   5.994 -0.0795 -0.7029 -0.7956
  566SOL     hw 2263   6.625   3.259   6.058 -1.2227  0.0732  1.7218
  566SOL     vw 2264   6.607   3.344   6.063 -0.3297  0.4086  0.0312
  567SOL     ow 2265   3.476   2.860   3.980  0.0611  0.1686  0.8009
  567SOL     hw 2266   3.428   2.917   4.040 -2.4360  0.5800 -1.3642
  567SOL     hw 2267   3.528   2.803   4.036 -0.3434  2.0285  3.1981
  567SOL     vw 2268   3.476   2.860   3.995 -0.3217  0.4684  0.8315
  568SOL     ow 2269   0.207   2.551   6.703  0.3885 -0.4917  0.0198
  568SOL     hw 2270   0.217   2.457   6.687  0.3293 -0.3023 -1.2233
  568SOL     hw 2271   0.251   2.566   6.786  0.2307 -1.6548  0.3285
  568SOL     vw 2272   0.214   2.541   6.712  0.3599 -0.6204 -0.1035
  569SOL     ow 2273   0.545   6.400   4.511  0.0463 -0.1166  0.1057
  569SOL     hw 2274   0.493   6.368   4.437  1.2358  0.0140 -0.8098
  569SOL     hw 2275   0.540   6.330   4.576  0.3188 -0.9487 -0.7559
  569SOL     vw 2276   0.537   6.387   4.510  0.2392 -0.2091 -0.1287
  570SOL     ow 2277   5.051   2.754   5.774  0.0912  0.1505  0.3133
  570SOL     hw 2278   5.076   2.831   5.824 -0.4634 -0.9374  2.3747
  570SOL     hw 2279   5.132   2.725   5.733  0.7784  0.5657  1.3366
  570SOL     vw 2280   5.065   2.760   5.775  0.1090  0.0616  0.7205
  571SOL     ow 2281   0.771   6.447   4.116  0.2189  0.0771  0.1479
  571SOL     hw 2282   0.748   6.360   4.084  2.1366 -0.2303 -0.5177
  571SOL     hw 2283   0.718   6.506   4.064 -1.3282 -0.6601  0.8082
  571SOL     vw 2284   0.761   6.443   4.105  0.2678 -0.0608  0.1471
  572SOL     ow 2285   1.684   4.975   0.734  0.2836 -0.3129  0.3905
  572SOL     hw 2286   1.766   4.948   0.695  0.2472  1.3533 -0.9850
  572SOL     hw 2287   1.708   5.046   0.795 -0.1199  0.3142 -0.1601
  572SOL     vw 2288   1.698   4.981   0.737  0.2256 -0.0103  0.1363
  573SOL     ow 2289   0.212   0.551   2.723 -0.1161 -0.2413 -0.2128
  573SOL     hw 2290   0.199   0.633   2.769  0.9773 -1.3635  2.2687
  573SOL     hw 2291   0.236   0.488   2.791  0.4253 -2.3188 -2.1784
  573SOL     vw 2292   0.213   0.553   2.738  0.0996 -0.6635 -0.1450
  574SOL     ow 2293   5.420   2.825   5.240 -0.4075  0.2728 -0.6691
  574SOL     hw 2294   5.453   2.762   5.175 -3.0744 -0.8224 -1.1124
  574SOL     hw 2295   5.436   2.783   5.324  0.0145  0.1294 -0.8179
  574SOL     vw 2296   5.426   2.811   5.242 -0.7036  0.1094 -0.7470
  575SOL     ow 2297   2.929   2.462   6.780 -0.4618 -0.0963 -0.2237
  575SOL     hw 2298   2.996   2.396   6.763 -0.5757 -0.3970  0.4843
  575SOL     hw 2299   2.975   2.545   6.772  0.0141 -0.3008  0.3084
  575SOL     vw 2300   2.944   2.464   6.776 -0.4141 -0.1628 -0.0598
  576SOL     ow 2301   5.729   0.841   3.143 -0.2941  0.3908 -0.1905
  576SOL     hw 2302   5.805   0.810   3.192  0.0329 -0.0863 -0.9887
  576SOL     hw 2303   5.660   0.847   3.208  0.2963  0.3478  0.4501
  576SOL     vw 2304   5.730   0.838   3.158 -0.1731  0.3222 -0.2112
  577SOL     ow 2305   0.357   4.010   3.471 -0.4161 -0.0126 -0.2361
  577SOL     hw 2306   0.350   3.915   3.478 -0.2705 -0.0554 -0.6467
  577SOL     hw 2307   0.411   4.035   3.546  1.2309 -0.4752 -1.2157
  577SOL     vw 2308   0.363   4.001   3.482 -0.1795 -0.0796 -0.4194
  578SOL     ow 2309   5.143   4.432   2.030 -0.5875  0.8118 -0.0834
  578SOL     hw 2310   5.218   4.450   1.973  0.5930 -0.3399  1.0448
  578SOL     hw 2311   5.093   4.514   2.031  1.5775  2.1940  0.5055
  578SOL     vw 2312   5.146   4.445   2.022 -0.1462  0.8421  0.1432
  579SOL     ow 2313   1.324   1.410   3.437 -0.3381 -0.0191 -0.5561
  579SOL     hw 2314   1.345   1.460   3.359 -1.9884  1.7096  0.0194
  579SOL     hw 2315   1.316   1.476   3.506  0.9635 -1.4887  1.0730
  579SOL     vw 2316   1.326   1.425   3.436 -0.3840  0.0151 -0.2651
  580SOL     ow 2317   1.452   5.361   0.201  0.0452  0.8740 -0.1021
  580SOL     hw 2318   1.425   5.334   0.113 -2.2285 -0.5675  0.9340
  580SOL     hw 2319   1.416   5.293   0.258 -0.6827  3.0337  2.1674
  580SOL     vw 2320   1.444   5.348   0.197 -0.3508  0.9687  0.3340
  581SOL     ow 2321   6.024   4.733   5.664 -0.1279  0.1816  0.1513
  581SOL     hw 2322   6.088   4.779   5.609 -0.2640  0.2564  0.0531
  581SOL     hw 2323   6.032   4.776   5.750  1.3330 -1.1048  0.7034
  581SOL     vw 2324   6.033   4.745   5.668  0.0467  0.0219  0.2112
  582SOL     ow 2325   2.572   2.824   1.852 -0.0084 -0.1443  0.0054
  582SOL     hw 2326   2.665   2.846   1.844  0.3099 -1.4675 -0.0929
  582SOL     hw 2327   2.526   2.899   1.813  1.0177  0.4446 -0.0948
  582SOL     vw 2328   2.578   2.837   1.846  0.1689 -0.2413 -0.0208
  583SOL     ow 2329   6.887   0.114   1.245 -1.2666 -0.6067  0.3329
  583SOL     hw 2330   6.831   0.126   1.322 -2.2234 -1.6579 -0.1734
  583SOL     hw 2331   6.883   0.198   1.199 -1.9906 -0.5029  0.5750
  583SOL     vw 2332   6.879   0.127   1.249 -1.4882 -0.7317  0.2980
  584SOL     ow 2333   3.090   1.712   1.097  0.2536  0.3095  0.0975
  584SOL     hw 2334   3.071   1.673   1.183  1.1290  0.5481  0.4027
  584SOL     hw 2335   3.004   1.742   1.065 -0.1686 -0.3152  0.6167
  584SOL     vw 2336   3.076   1.711   1.104  0.3134  0.2585  0.2063
  585SOL     ow 2337   1.969   6.080   0.871  0.0765 -0.2857 -0.1440
  585SOL     hw 2338   1.949   6.012   0.806 -1.2188 -0.4748  0.4056
  585SOL     hw 2339   2.057   6.060   0.901 -0.7866 -2.6855  1.0809
  585SOL     vw 2340   1.978   6.068   0.867 -0.2083 -0.6270  0.0901
  586SOL     ow 2341   4.688   5.434   3.166 -0.8408 -0.7904 -0.6462
  586SOL     hw 2342   4.688   5.445   3.071 -2.8046  0.6217 -0.5465
  586SOL     hw 2343   4.604   5.470   3.194  0.3651  0.3808  1.7975
  586SOL     vw 2344   4.677   5.440   3.157 -0.9408 -0.4497 -0.3107
  587SOL     ow 2345   5.267   4.733   5.987  0.6227  0.0484 -0.0807
  587SOL     hw 2346   5.307   4.702   5.906  3.3740  1.6767  0.5422
  587SOL     hw 2347   5.315   4.688   6.057 -1.4079 -1.0019  0.7519
  587SOL     vw 2348   5.278   4.723   5.986  0.7176  0.1245  0.1113
  588SOL     ow 2349   2.497   0.999   0.050  0.2037  0.0063 -0.6078
  588SOL     hw 2350   2.548   1.075   0.020 -1.3509  0.7301 -1.5480
  588SOL     hw 2351   2.506   1.001   0.145 -0.8940  2.2290 -0.4740
  588SOL     vw 2352   2.505   1.010   0.059 -0.1463  0.3951 -0.7142
  589SOL     ow 2353   0.908   3.613   5.751 -0.9136 -0.2469  0.1722
  589SOL     hw 2354   0.984   3.671   5.740 -1.5138  0.6678  0.7692
  589SOL     hw 2355   0.859   3.623   5.670 -0.8381 -0.1928  0.1325
  589SOL     vw 2356   0.912   3.622   5.739 -0.9829 -0.1192  0.2460
  590SOL     ow 2357   0.888   0.426   3.082 -0.2110  0.0990  0.2954
  590SOL     hw 2358   0.977   0.396   3.064 -0.5353 -0.3018 -0.7176
  590SOL     hw 2359   0.838   0.346   3.096 -0.5605  0.2846  0.1241
  590SOL     vw 2360   0.893   0.411   3.081 -0.2999  0.0706  0.1391
  591SOL     ow 2361   3.253   5.184   5.736 -0.6352  0.3887 -0.3533
  591SOL     hw 2362   3.195   5.108   5.741  0.8240 -1.0475 -3.2102
  591SOL     hw 2363   3.302   5.182   5.818 -2.9024  0.2950  1.0924
  591SOL     vw 2364   3.252   5.174   5.748 -0.7417  0.1869 -0.5395
  592SOL     ow 2365   1.457   2.982   5.705 -0.5440  0.1078  0.1977
  592SOL     hw 2366   1.510   3.014   5.632 -0.0744  2.2004  1.3812
  592SOL     hw 2367   1.515   2.924   5.754  0.5676  1.9704  1.1895
  592SOL     vw 2368   1.471   2.978   5.702 -0.3354  0.6297  0.4847
  593SOL     ow 2369   1.714   2.106   2.641  0.3118  1.1033 -0.6646
  593SOL     hw 2370   1.658   2.092   2.717  0.1549 -0.6123 -1.0502
  593SOL     hw 2371   1.750   2.194   2.653 -1.0804  1.5524  0.4760
  593SOL     vw 2372   1.712   2.116   2.652  0.1073  0.9362 -0.5651
  594SOL     ow 2373   6.944   5.983   2.581 -0.3462 -0.8777  0.4193
  594SOL     hw 2374   6.894   5.902   2.579 -1.1408 -0.3947  0.3986
  594SOL     hw 2375   6.923   6.027   2.499  2.0270 -1.7748 -0.7594
  594SOL     vw 2376   6.935   5.978   2.570 -0.1383 -0.9325  0.2609
  595SOL     ow 2377   3.810   0.385   2.748  0.9985 -0.2417  0.0098
  595SOL     hw 2378   3.736   0.328   2.773  3.0832 -2.5445  1.3818
  595SOL     hw 2379   3.855   0.404   2.830  0.0299  4.2426 -0.2379
  595SOL     vw 2380   3.806   0.380   2.762  1.1457  0.0461  0.1582
  596SOL     ow 2381   6.668   0.307   6.034 -0.5040  0.1835  0.2068
  596SOL     hw 2382   6.585   0.261   6.025 -1.4115  1.5002  1.3690
  596SOL     hw 2383   6.734   0.246   6.001 -1.9611 -0.7661 -1.0461
  596SOL     vw 2384   6.666   0.293   6.028 -0.8159  0.2319  0.1945
  597SOL     ow 2385   6.995   2.906   0.657  0.0268 -0.0336  0.2586
  597SOL     hw 2386   6.923   2.842   0.655 -0.9387  0.8981  2.0662
  597SOL     hw 2387   7.042   2.893   0.575 -1.3976 -1.6197 -0.3563
  597SOL     vw 2388   6.991   2.896   0.646 -0.2882 -0.1197  0.4159
  598SOL     ow 2389   5.565   1.142   1.779 -0.2518  0.3669  0.1721
  598SOL     hw 2390   5.502   1.169   1.846  0.9543  2.2245  0.6473
  598SOL     hw 2391   5.634   1.097   1.828 -0.0481  0.4863 -0.0028
  598SOL     vw 2392   5.566   1.140   1.795 -0.0663  0.6278  0.2117
  599SOL     ow 2393   4.078   0.330   0.019 -0.9551  0.4901  0.4856
  599SOL     hw 2394   4.058   0.424   0.019  0.3507  0.7964 -0.5641
  599SOL     hw 2395   4.113   0.313  -0.069  0.6020 -0.5763  1.2681
  599SOL     vw 2396   4.080   0.340   0.007 -0.5774  0.3898  0.4504
  600SOL     ow 2397   3.945   6.179   5.902  0.1547 -0.4252 -0.5008
  600SOL     hw 2398   3.948   6.254   5.843 -1.2837  0.2049  0.1680
  600SOL     hw 2399   3.851   6.159   5.910  0.1216  0.4789  2.7116
  600SOL     vw 2400   3.933   6.186   5.895 -0.0396 -0.2227  0.0114
  601SOL     ow 2401   4.868   4.791   1.338 -0.2083  0.2434  0.4667
  601SOL     hw 2402   4.850   4.810   1.246 -1.5394 -0.3978  0.5737
  601SOL     hw 2403   4.847   4.698   1.348  0.4204  0.1812  1.3037
  601SOL     vw 2404   4.863   4.781   1.328 -0.3009  0.1507  0.5912
  602SOL     ow 2405   0.002   3.685   0.960  0.5537  0.1555 -0.5089
  602SOL     hw 2406   0.003   3.642   0.874  1.1796 -0.0571 -0.3955
  602SOL     hw 2407  -0.076   3.650   1.003 -0.6064  1.3609 -1.5411
  602SOL     vw 2408  -0.008   3.675   0.954  0.4832  0.2866 -0.6301
  603SOL     ow 2409   5.429   3.114   6.169 -0.2189 -0.2133  0.2988
  603SOL     hw 2410   5.355   3.093   6.225 -0.2648 -1.3523 -0.1651
  603SOL     hw 2411   5.391   3.165   6.097 -0.4740 -0.3712  0.3213
  603SOL     vw 2412   5.414   3.118   6.167 -0.2584 -0.3844  0.2403
  604SOL     ow 2413   3.728   5.531   1.407 -0.7407  0.6024  0.0672
  604SOL     hw 2414   3.695   5.485   1.329 -0.1076  1.2752 -0.6191
  604SOL     hw 2415   3.662   5.514   1.474 -0.5571 -1.2729 -0.1631
  604SOL     vw 2416   3.715   5.523   1.405 -0.6329  0.4439 -0.0537
  605SOL     ow 2417   2.957   1.924   3.636 -0.7982 -0.8938 -0.1059
  605SOL     hw 2418   2.904   1.973   3.698 -1.2921 -1.5384 -0.0084
  605SOL     hw 2419   2.935   1.962   3.550 -1.1626 -0.9359 -0.0311
  605SOL     vw 2420   2.948   1.936   3.633 -0.9115 -0.9844 -0.0831
  606SOL     ow 2421   0.277   1.646   6.151  0.1481 -0.3627 -0.2471
  606SOL     hw 2422   0.215   1.575   6.131 -0.2338 -0.2622  0.5325
  606SOL     hw 2423   0.351   1.602   6.193  0.6689 -0.4955 -1.2702
  606SOL     vw 2424   0.278   1.631   6.154  0.1664 -0.3669 -0.2792
  607SOL     ow 2425   5.876   3.841   2.851 -0.3252  0.3088  0.1136
  607SOL     hw 2426   5.898   3.808   2.764  0.0222 -0.5435  0.5117
  607SOL     hw 2427   5.783   3.821   2.861  0.0899 -1.4794  0.7223
  607SOL     vw 2428   5.866   3.834   2.841 -0.2246 -0.0397  0.2465
  608SOL     ow 2429   3.364   0.948   2.124  0.0711 -0.2035  0.4420
  608SOL     hw 2430   3.419   0.877   2.093 -0.2172  0.7403 -2.4791
  608SOL     hw 2431   3.289   0.949   2.065  0.8939  3.5179 -0.8374
  608SOL     vw 2432   3.361   0.939   2.112  0.1416  0.4120 -0.1123
  609SOL     ow 2433   4.103   3.887   6.095  0.0609  0.3832  0.4572
  609SOL     hw 2434   4.131   3.902   6.004 -0.6080 -1.0895 -0.0284
  609SOL     hw 2435   4.183   3.895   6.146  0.8350 -0.6744 -0.5258
  609SOL     vw 2436   4.117   3.890   6.090  0.0751  0.0496  0.2632
  610SOL     ow 2437   0.133   1.868   4.884  0.1891 -0.3725 -0.5499
  610SOL     hw 2438   0.070   1.821   4.830  2.1667 -2.5077 -1.1682
  610SOL     hw 2439   0.081   1.906   4.955 -1.7508 -2.0717 -0.9795
  610SOL     vw 2440   0.118   1.867   4.886  0.1941 -0.8785 -0.6883
  611SOL     ow 2441   6.724   1.498   5.451 -0.0293 -0.0491  0.3136
  611SOL     hw 2442   6.747   1.450   5.531  1.2029  2.1251  1.3569
  611SOL     hw 2443   6.774   1.456   5.382 -0.0416 -1.1020  0.9293
  611SOL     vw 2444   6.733   1.486   5.453  0.1316  0.0988  0.5329
  612SOL     ow 2445   6.638   3.846   3.468  0.4193 -0.4468 -0.0801
  612SOL     hw 2446   6.696   3.855   3.392  0.0719  1.7754 -0.1555
  612SOL     hw 2447   6.695   3.863   3.544 -0.0716  1.7531 -0.1551
  612SOL     vw 2448   6.653   3.849   3.468  0.3085  0.1366 -0.0999
  613SOL     ow 2449   0.242   4.503   0.536 -0.2278 -0.1213  0.4046
  613SOL     hw 2450   0.310   4.567   0.511 -0.2217 -0.7709 -1.3679
  613SOL     hw 2451   0.238   4.442   0.462 -2.2893 -0.4889  0.7639
  613SOL     vw 2452   0.251   4.504   0.523 -0.4990 -0.2556  0.2181
  614SOL     ow 2453   4.046   4.129   1.914  0.4570  0.2998 -0.1679
  614SOL     hw 2454   4.033   4.051   1.968  1.7935  1.6468  2.2862
  614SOL     hw 2455   3.961   4.173   1.916 -0.4752 -1.2694 -2.0335
  614SOL     vw 2456   4.033   4.124   1.921  0.5102  0.2706 -0.0903
  615SOL     ow 2457   2.000   4.813   4.749 -0.0675  0.9775  0.6958
  615SOL     hw 2458   2.041   4.729   4.728  0.5943  1.2970  0.6836
  615SOL     hw 2459   1.949   4.796   4.828  1.4452  0.9692  1.7098
  615SOL     vw 2460   1.999   4.800   4.756  0.2195  1.0185  0.8280
  616SOL     ow 2461   6.959   6.336   4.381  0.0619 -0.5015  0.7961
  616SOL     hw 2462   7.000   6.389   4.312  0.0241 -1.5792 -0.0735
  616SOL     hw 2463   6.944   6.398   4.453  2.1202  0.2004  0.7031
  616SOL     vw 2464   6.963   6.351   4.382  0.3285 -0.5515  0.6688
  617SOL     ow 2465   5.980   6.594   6.544 -0.4062  0.0071  0.0142
  617SOL     hw 2466   6.056   6.563   6.595  0.6472  1.7031 -0.4562
  617SOL     hw 2467   5.945   6.514   6.503  0.7048 -0.9123  0.7864
  617SOL     vw 2468   5.986   6.579   6.545 -0.1206  0.1097  0.0541
  618SOL     ow 2469   4.565   0.598   6.436  0.7089  0.7853 -0.0194
  618SOL     hw 2470   4.492   0.656   6.457 -0.2930 -0.8012  1.1682
  618SOL     hw 2471   4.601   0.574   6.521  1.0940 -0.3000 -0.4714
  618SOL     vw 2472   4.560   0.602   6.450  0.6275  0.4328  0.0777
  619SOL     ow 2473   2.423   2.423   4.181  0.2274  0.3053 -0.2382
  619SOL     hw 2474   2.514   2.403   4.161  0.3771  0.1427  0.5742
  619SOL     hw 2475   2.379   2.338   4.184 -0.5647  0.4751 -3.2643
  619SOL     vw 2476   2.429   2.410   4.179  0.1426  0.3062 -0.5302
  620SOL     ow 2477   4.109   6.215   3.288  0.4572 -0.3562 -0.8410
  620SOL     hw 2478   4.145   6.303   3.274  2.3469 -1.4826 -4.1411
  620SOL     hw 2479   4.161   6.178   3.359 -1.3888  1.5731  1.7121
  620SOL     vw 2480   4.120   6.222   3.295  0.4630 -0.2503 -0.9396
  621SOL     ow 2481   6.211   4.696   5.944 -0.3895 -0.0783  0.5859
  621SOL     hw 2482   6.272   4.764   5.972 -1.5876  1.5300 -0.5116
  621SOL     hw 2483   6.132   4.711   5.996 -0.9704 -0.0584 -0.2774
  621SOL     vw 2484   6.208   4.707   5.955 -0.6242  0.1364  0.3271
  622SOL     ow 2485   3.409   2.425   4.913 -0.0994 -0.1063  0.4080
  622SOL     hw 2486   3.377   2.434   4.823 -0.4365 -2.2307  0.2640
  622SOL     hw 2487   3.423   2.514   4.942 -0.9776  0.6787 -1.4040
  622SOL     vw 2488   3.407   2.438   4.905 -0.2598 -0.2831  0.1500
  623SOL     ow 2489   7.011   2.158   5.512  0.5828 -0.6395 -0.6520
  623SOL     hw 2490   6.981   2.204   5.433  1.6147 -1.8505 -1.7808
  623SOL     hw 2491   7.047   2.228   5.567  1.8059 -0.0039 -2.1834
  623SOL     vw 2492   7.011   2.174   5.509  0.8800 -0.7154 -1.0028
  624SOL     ow 2493   5.590   1.015   1.447 -0.6112  0.1961 -0.0481
  624SOL     hw 2494   5.527   0.942   1.446  1.7234 -1.9332 -0.7100
  624SOL     hw 2495   5.617   1.024   1.356  0.4433  0.7118  0.3016
  624SOL     vw 2496   5.585   1.007   1.435 -0.1643 -0.0168 -0.0893
  625SOL     ow 2497   3.345   6.416   0.246 -0.7134  0.2910  0.4617
  625SOL     hw 2498   3.344   6.412   0.150 -0.5010 -0.1648  0.4715
  625SOL     hw 2499   3.431   6.381   0.270 -1.2201 -0.7395  0.8549
  625SOL     vw 2500   3.356   6.411   0.236 -0.7523  0.0951  0.5149
  626SOL     ow 2501   0.173   4.172   2.858  0.6234  0.9156 -0.1108
  626SOL     hw 2502   0.142   4.202   2.943 -0.9708  1.2618 -0.7734
  626SOL     hw 2503   0.178   4.077   2.867 -3.0744  0.5396 -0.6295
  626SOL     vw 2504   0.170   4.163   2.870 -0.0748  0.9117 -0.2668
  627SOL     ow 2505   6.657   2.987   2.578 -0.0626 -0.5663  0.4894
  627SOL     hw 2506   6.737   2.937   2.562  0.7687  0.8399  0.0994
  627SOL     hw 2507   6.680   3.046   2.650 -0.4216  0.5203 -0.2659
  627SOL     vw 2508   6.671   2.989   2.585 -0.0002 -0.2375  0.3383
  628SOL     ow 2509   4.030   5.382   4.635  0.3855 -0.4683  0.1384
  628SOL     hw 2510   3.966   5.434   4.684  0.2623  0.4271 -0.9479
  628SOL     hw 2511   4.009   5.291   4.659 -0.8959 -0.1615  0.2743
  628SOL     vw 2512   4.019   5.377   4.645  0.2003 -0.3097  0.0129
  629SOL     ow 2513   0.189   5.873   2.706  0.2918  0.4413  0.2529
  629SOL     hw 2514   0.221   5.813   2.774  0.2531  1.3778  1.1310
  629SOL     hw 2515   0.268   5.907   2.665  0.3227 -1.4574 -1.4552
  629SOL     vw 2516   0.204   5.869   2.710  0.2908  0.3142  0.1432
  630SOL     ow 2517   5.810   6.083   2.818  0.2814 -0.6334 -0.1582
  630SOL     hw 2518   5.781   6.160   2.769 -0.7011  0.8779  2.6115
  630SOL     hw 2519   5.739   6.019   2.806 -0.2463 -0.0451 -0.2063
  630SOL     vw 2520   5.797   6.085   2.810  0.0820 -0.3562  0.2009
  631SOL     ow 2521   0.739   5.446   0.722 -0.0375 -0.7149  0.6970
  631SOL     hw 2522   0.693   5.399   0.653  0.5192  0.2720 -0.3708
  631SOL     hw 2523   0.813   5.390   0.744  1.5898  0.3471 -1.7483
  631SOL     vw 2524   0.742   5.432   0.716  0.2507 -0.4449  0.2334
  632SOL     ow 2525   0.685   4.550   3.869 -0.5750  0.6042  0.2726
  632SOL     hw 2526   0.676   4.496   3.791  0.2343  2.1325 -0.9277
  632SOL     hw 2527   0.596   4.582   3.886 -0.5062  1.6411 -1.1011
  632SOL     vw 2528   0.672   4.547   3.861 -0.4591  0.9422 -0.0671
  633SOL     ow 2529   1.760   6.756   1.306  0.3708 -0.3293  0.5706
  633SOL     hw 2530   1.830   6.700   1.273  1.7884  0.3852  2.2603
  633SOL     hw 2531   1.681   6.703   1.296  0.7191 -0.4553 -3.2163
  633SOL     vw 2532   1.759   6.742   1.300  0.6037 -0.2515  0.2939
  634SOL     ow 2533   2.589   1.217   6.271 -0.7235 -0.2862 -0.4786
  634SOL     hw 2534   2.574   1.144   6.212 -0.7126 -1.2964  0.7306
  634SOL     hw 2535   2.669   1.194   6.318 -0.2174  0.9281 -0.6965
  634SOL     vw 2536   2.598   1.204   6.269 -0.6554 -0.2592 -0.3479
  635SOL     ow 2537   4.147   3.703   3.072  0.5556  0.5918 -0.2738
  635SOL     hw 2538   4.057   3.670   3.077  0.9945 -0.8255 -1.0973
  635SOL     hw 2539   4.177   3.678   2.985  2.3249 -0.5506  0.5856
  635SOL     vw 2540   4.139   3.695   3.061  0.8469  0.2540 -0.2692
  636SOL     ow 2541   2.358   1.663   5.974 -0.4901  0.5296 -0.2439
  636SOL     hw 2542   2.372   1.669   5.879  1.8132  0.3972  0.0489
  636SOL     hw 2543   2.366   1.754   6.004 -0.3453  0.4589 -0.0707
  636SOL     vw 2544   2.361   1.676   5.965 -0.1671  0.5028 -0.1824
  637SOL     ow 2545   3.928   4.065   5.374  0.1613  0.6701  0.5077
  637SOL     hw 2546   3.949   4.156   5.356  1.0516  0.3755  0.0025
  637SOL     hw 2547   3.946   4.054   5.468  4.4887 -0.0732 -0.2188
  637SOL     vw 2548   3.933   4.075   5.384  0.8497  0.5333  0.3450
  638SOL     ow 2549   4.449   6.131   5.766 -0.0260 -0.4088 -0.4817
  638SOL     hw 2550   4.537   6.153   5.734  0.4414  0.5660  1.3144
  638SOL     hw 2551   4.391   6.192   5.722  0.3212 -0.4266 -0.9682
  638SOL     vw 2552   4.453   6.142   5.756  0.0813 -0.2825 -0.3090
  639SOL     ow 2553   4.354   1.391   1.220  0.2180 -0.1624  0.4578
  639SOL     hw 2554   4.392   1.303   1.225  0.3545 -0.1371 -0.0265
  639SOL     hw 2555   4.300   1.389   1.142 -0.1188  0.0596  0.6842
  639SOL     vw 2556   4.352   1.379   1.210  0.1919 -0.1298  0.4237
  640SOL     ow 2557   3.902   3.630   4.150 -0.4648  0.7453  0.4092
  640SOL     hw 2558   3.891   3.546   4.105  2.0575  0.4180  0.2366
  640SOL     hw 2559   3.908   3.694   4.080  1.4995  0.4871  0.2630
  640SOL     vw 2560   3.902   3.627   4.135  0.1271  0.6682  0.3669
  641SOL     ow 2561   3.932   0.614   1.042  0.2416 -0.3870 -0.2983
  641SOL     hw 2562   4.003   0.671   1.071  0.6618 -0.6025 -0.8796
  641SOL     hw 2563   3.947   0.531   1.087 -1.2262  0.3705  1.7281
  641SOL     vw 2564   3.943   0.610   1.052  0.1035 -0.3155 -0.1075
  642SOL     ow 2565   6.236   5.872   5.822 -0.1459 -0.1477 -0.2018
  642SOL     hw 2566   6.217   5.966   5.816 -2.1420 -0.3258  1.9077
  642SOL     hw 2567   6.152   5.830   5.803  0.3662 -1.4625  0.3247
  642SOL     vw 2568   6.222   5.879   5.819 -0.3414 -0.3448  0.1459
  643SOL     ow 2569   2.442   4.959   1.266  0.3656 -0.1698 -0.3756
  643SOL     hw 2570   2.529   4.984   1.234 -0.2539  0.0292 -2.0179
  643SOL     hw 2571   2.381   5.008   1.210 -0.8219 -1.1000  0.0612
  643SOL     vw 2572   2.445   4.969   1.254  0.1271 -0.2661 -0.5347
  644SOL     ow 2573   5.212   4.591   2.357 -0.3251  0.4584  0.5282
  644SOL     hw 2574   5.252   4.622   2.276 -2.8741 -1.2462 -1.5521
  644SOL     hw 2575   5.121   4.619   2.352 -0.6302  0.0258  2.6774
  644SOL     vw 2576   5.205   4.599   2.346 -0.7019  0.1764  0.5372
  645SOL     ow 2577   1.804   4.103   4.881  0.5452  0.8217 -0.2638
  645SOL     hw 2578   1.832   4.140   4.797 -0.9174  2.9034  0.0683
  645SOL     hw 2579   1.853   4.153   4.946  2.9441 -1.9151  0.1914
  645SOL     vw 2580   1.814   4.114   4.879  0.6688  0.7353 -0.1600
  646SOL     ow 2581   0.395   2.362   4.216 -0.5862 -0.6305 -0.5083
  646SOL     hw 2582   0.357   2.274   4.216 -1.9989 -0.0638  0.1490
  646SOL     hw 2583   0.385   2.392   4.306 -2.0587  0.9575 -1.1381
  646SOL     vw 2584   0.389   2.354   4.228 -0.9669 -0.3463 -0.5047
  647SOL     ow 2585   1.478   0.068   3.931 -0.4555 -0.3039 -0.0960
  647SOL     hw 2586   1.468  -0.013   3.882 -1.6189  0.9425 -2.0778
  647SOL     hw 2587   1.444   0.049   4.018 -0.7863 -1.9043 -0.5587
  647SOL     vw 2588   1.472   0.055   3.936 -0.6527 -0.3505 -0.4184
  648SOL     ow 2589   5.435   0.045   4.629  0.1312 -0.5679  0.1992
  648SOL     hw 2590   5.488   0.124   4.622  0.1521 -0.4392  1.5777
  648SOL     hw 2591   5.445   0.017   4.720  1.3985 -3.0303 -0.5901
  648SOL     vw 2592   5.444   0.051   4.640  0.3009 -0.8759  0.2770
  649SOL     ow 2593   6.607   0.953   5.860 -0.0507 -0.3322 -0.3964
  649SOL     hw 2594   6.662   1.031   5.863  1.1835 -1.2014  1.4936
  649SOL     hw 2595   6.576   0.942   5.949 -1.5881 -1.0981 -0.9823
  649SOL     vw 2596   6.610   0.962   5.872 -0.0908 -0.5479 -0.2246
  650SOL     ow 2597   4.249   6.080   5.970 -0.0699  0.1056  0.2798
  650SOL     hw 2598   4.315   6.084   5.900 -0.6049 -1.4093 -0.3527
  650SOL     hw 2599   4.296   6.042   6.044 -0.3481 -1.6942 -0.4015
  650SOL     vw 2600   4.264   6.075   5.971 -0.1771 -0.3316  0.1066
  651SOL     ow 2601   4.357   5.167   5.225  0.1871  0.0173  0.3594
  651SOL     hw 2602   4.337   5.075   5.207  3.0255 -0.8133  0.9295
  651SOL     hw 2603   4.452   5.169   5.234  0.1457  2.9298  0.9908
  651SOL     vw 2604   4.367   5.155   5.223  0.5562  0.2918  0.5178
  652SOL     ow 2605   0.814   1.884   6.163  0.1778  0.0902  0.5205
  652SOL     hw 2606   0.799   1.794   6.137  0.4507 -0.2163  1.3907
  652SOL     hw 2607   0.752   1.899   6.235  1.5933 -0.1026  1.8231
  652SOL     vw 2608   0.804   1.874   6.169  0.4005  0.0244  0.8073
  653SOL     ow 2609   1.210   4.214   1.108  0.7779 -0.3883 -0.0184
  653SOL     hw 2610   1.157   4.205   1.187  2.5655  0.1942  1.2915
  653SOL     hw 2611   1.153   4.181   1.038 -1.6184  0.9494  1.1589
  653SOL     vw 2612   1.195   4.208   1.109  0.6976 -0.1349  0.3097
  654SOL     ow 2613   5.498   1.691   5.921  0.6103 -1.0891  0.0772
  654SOL     hw 2614   5.459   1.751   5.857 -0.0407  1.4581  2.6625
  654SOL     hw 2615   5.452   1.608   5.906 -2.5779  0.5440 -0.0652
  654SOL     vw 2616   5.487   1.688   5.910  0.1037 -0.5376  0.3991
  655SOL     ow 2617   5.459   2.718   0.886  0.3425  0.0893 -0.0010
  655SOL     hw 2618   5.506   2.653   0.834  0.7573  0.2453  0.1750
  655SOL     hw 2619   5.483   2.697   0.977 -0.9194 -0.6259  0.1992
  655SOL     vw 2620   5.468   2.707   0.891  0.2308  0.0155  0.0486
  656SOL     ow 2621   4.569   2.725   2.219 -0.1368  0.1505  0.0968
  656SOL     hw 2622   4.488   2.750   2.174 -0.1922 -0.1837  0.0125
  656SOL     hw 2623   4.607   2.808   2.247 -0.1654  0.3523 -0.4493
  656SOL     vw 2624   4.563   2.739   2.217 -0.1478  0.1332  0.0137
  657SOL     ow 2625   4.537   2.155   2.569  0.1227  0.1625 -0.9473
  657SOL     hw 2626   4.519   2.174   2.477 -2.1834 -0.2857 -0.6474
  657SOL     hw 2627   4.454   2.122   2.603  0.8534  0.5518  1.3602
  657SOL     vw 2628   4.523   2.153   2.561 -0.0851  0.1546 -0.6034
  658SOL     ow 2629   4.166   3.362   5.970  0.0787 -0.2002  0.1639
  658SOL     hw 2630   4.104   3.290   5.958 -1.2235  0.3084  2.9884
  658SOL     hw 2631   4.117   3.440   5.945 -1.0682  0.3457  3.5326
  658SOL     vw 2632   4.151   3.363   5.965 -0.2446 -0.0612  0.9811
  659SOL     ow 2633   6.705   2.341   6.913 -0.1280 -0.1054  0.3191
  659SOL     hw 2634   6.633   2.341   6.976 -0.1931 -0.5652  0.2445
  659SOL     hw 2635   6.758   2.265   6.936 -1.4917 -1.7820 -1.6905
  659SOL     vw 2636   6.702   2.331   6.924 -0.3166 -0.3874  0.0443
  660SOL     ow 2637   6.347   3.820   0.951 -0.1111 -1.0991  0.2543
  660SOL     hw 2638   6.322   3.903   0.992  1.0962 -0.7385  0.3094
  660SOL     hw 2639   6.279   3.758   0.979 -0.8095 -0.2303  0.5427
  660SOL     vw 2640   6.335   3.823   0.960 -0.0439 -0.9369  0.2997
  661SOL     ow 2641   4.339   0.856   3.737 -0.2986 -0.5851  0.7524
  661SOL     hw 2642   4.380   0.808   3.665 -0.6097  1.2418 -0.7065
  661SOL     hw 2643   4.306   0.937   3.697 -1.2425  0.1059  2.7871
  661SOL     vw 2644   4.340   0.860   3.722 -0.4640 -0.2529  0.8283
  662SOL     ow 2645   6.292   6.484   0.849 -0.1044 -0.0882 -0.0942
  662SOL     hw 2646   6.319   6.520   0.934  1.2689 -1.3047  0.0302
  662SOL     hw 2647   6.208   6.442   0.866 -0.1311  0.2021  0.5278
  662SOL     vw 2648   6.285   6.484   0.862  0.0732 -0.2103  0.0043
  663SOL     ow 2649   2.205   4.968   2.546  0.1631  0.4531 -0.4464
  663SOL     hw 2650   2.119   5.009   2.531  0.3124  0.5732 -0.9989
  663SOL     hw 2651   2.191   4.910   2.620  0.2161  2.2975  1.0819
  663SOL     vw 2652   2.192   4.966   2.554  0.1898  0.7124 -0.3176
  664SOL     ow 2653   5.978   0.803   0.500  1.1063 -0.0562  0.9464
  664SOL     hw 2654   6.069   0.779   0.521  1.9426  1.4018 -0.7267
  664SOL     hw 2655   5.929   0.723   0.515  2.5482 -0.7033  2.5565
  664SOL     vw 2656   5.984   0.789   0.505  1.4069  0.0508  0.9381
  665SOL     ow 2657   3.453   3.188   1.742  0.4983 -0.2743  0.5589
  665SOL     hw 2658   3.448   3.264   1.800  0.3673 -0.4457  0.7758
  665SOL     hw 2659   3.546   3.166   1.739  0.3254 -1.4212  2.2397
  665SOL     vw 2660   3.465   3.195   1.749  0.4584 -0.4481  0.8093
  666SOL     ow 2661   2.841   0.509   6.080  0.4732 -0.0235 -0.3120
  666SOL     hw 2662   2.857   0.441   6.014  0.5387  0.9095 -1.2946
  666SOL     hw 2663   2.859   0.591   6.034  2.6000  0.5913  1.4943
  666SOL     vw 2664   2.845   0.511   6.065  0.7625  0.1807 -0.2031
  667SOL     ow 2665   6.468   4.711   1.755 -0.6974  0.1055  0.3066
  667SOL     hw 2666   6.412   4.772   1.803  1.2011  1.6252  0.7271
  667SOL     hw 2667   6.545   4.763   1.733  0.5151 -1.8722 -0.2977
  667SOL     vw 2668   6.471   4.726   1.759 -0.2868  0.0451  0.2823
  668SOL     ow 2669   5.508   3.002   3.915 -0.2092  0.4258 -0.6046
  668SOL     hw 2670   5.532   3.017   4.007 -1.0167  0.8411 -0.4565
  668SOL     hw 2671   5.484   2.910   3.912  1.9851 -0.1883 -0.8961
  668SOL     vw 2672   5.508   2.992   3.927 -0.0262  0.3995 -0.6235
  669SOL     ow 2673   2.615   5.787   4.477  0.1701  0.1025  0.1525
  669SOL     hw 2674   2.668   5.841   4.418  1.1688 -1.6209 -0.6227
  669SOL     hw 2675   2.537   5.766   4.427 -0.1243  0.6348  0.3790
  669SOL     vw 2676   2.612   5.792   4.463  0.2630 -0.0544  0.0799
  670SOL     ow 2677   1.151   1.639   5.371 -0.0410 -0.0275 -0.0934
  670SOL     hw 2678   1.110   1.725   5.370 -0.3769 -0.1839 -1.0426
  670SOL     hw 2679   1.162   1.616   5.279  0.1198 -0.9625  0.1418
  670SOL     vw 2680   1.147   1.647   5.359 -0.0641 -0.1715 -0.1876
  671SOL     ow 2681   6.293   6.366   2.261  0.0331  0.3185 -0.7831
  671SOL     hw 2682   6.296   6.454   2.299 -1.4716  0.0800 -0.0123
  671SOL     hw 2683   6.380   6.329   2.276 -0.0529  0.8087  1.0753
  671SOL     vw 2684   6.305   6.372   2.268 -0.1769  0.3517 -0.4362
  672SOL     ow 2685   5.405   6.995   4.898 -0.1466  0.3919  0.0328
  672SOL     hw 2686   5.334   7.054   4.922 -1.0419 -1.1646  1.3995
  672SOL     hw 2687   5.462   6.992   4.975  0.7496  0.6408 -0.5919
  672SOL     vw 2688   5.403   7.002   4.911 -0.1464  0.2194  0.1309
  673SOL     ow 2689   3.853   3.146   3.124 -0.1938 -0.1771  0.7484
  673SOL     hw 2690   3.778   3.205   3.115  0.4620  0.7434  1.1626
  673SOL     hw 2691   3.871   3.115   3.036  0.6762  1.8165  0.1653
  673SOL     vw 2692   3.846   3.150   3.111  0.0076  0.2074  0.7261
  674SOL     ow 2693   4.520   1.038   6.758 -0.5737  0.1761 -0.1413
  674SOL     hw 2694   4.575   1.116   6.750 -0.7691  0.2126 -1.4299
  674SOL     hw 2695   4.452   1.050   6.693  0.3637 -1.8208 -1.6232
  674SOL     vw 2696   4.519   1.050   6.748 -0.4756 -0.0826 -0.5069
  675SOL     ow 2697   1.123   3.738   6.558  0.0204  0.6024 -0.2562
  675SOL     hw 2698   1.099   3.818   6.605 -0.2565 -1.0198  2.5674
  675SOL     hw 2699   1.218   3.741   6.552  0.2324  0.1395  1.9580
  675SOL     vw 2700   1.132   3.749   6.563  0.0118  0.3273  0.4084
  676SOL     ow 2701   2.315   1.346   6.376  0.2480 -0.0486  0.4991
  676SOL     hw 2702   2.292   1.269   6.428 -3.3263 -2.8156 -4.2996
  676SOL     hw 2703   2.258   1.415   6.409 -3.5242 -2.2929 -0.6705
  676SOL     vw 2704   2.304   1.345   6.387 -0.7213 -0.7098 -0.2885
  677SOL     ow 2705   2.963   5.516   6.724  0.2138  0.4027  0.0291
  677SOL     hw 2706   2.960   5.464   6.643  1.1451  1.4052 -0.6809
  677SOL     hw 2707   2.905   5.590   6.707  0.2997  0.5453  0.3493
  677SOL     vw 2708   2.955   5.519   6.711  0.3481  0.5538 -0.0222
  678SOL     ow 2709   6.800   6.205   0.389  0.8217  0.1563  0.2348
  678SOL     hw 2710   6.801   6.202   0.293  0.0954 -2.1458  0.2389
  678SOL     hw 2711   6.726   6.150   0.414  0.4808  1.3894  2.1352
  678SOL     vw 2712   6.790   6.198   0.380  0.6812  0.0153  0.4861
  679SOL     ow 2713   4.068   1.287   2.070  0.1484  0.5581  0.0947
  679SOL     hw 2714   4.155   1.312   2.040  0.0245  2.6032  1.2436
  679SOL     hw 2715   4.013   1.362   2.051 -1.1770 -0.3357  0.2234
  679SOL     vw 2716   4.072   1.300   2.064 -0.0427  0.7100  0.2632
  680SOL     ow 2717   4.756   3.719   5.691 -0.9293  0.3718  0.0053
  680SOL     hw 2718   4.691   3.760   5.633 -1.6876 -1.9909 -0.9334
  680SOL     hw 2719   4.812   3.668   5.633  1.8467  2.2438  0.8022
  680SOL     vw 2720   4.755   3.718   5.676 -0.6630  0.3071 -0.0136
  681SOL     ow 2721   6.571   1.678   2.009  0.2531 -0.2035 -0.1220
  681SOL     hw 2722   6.612   1.657   1.925  1.9722 -0.5289  0.7351
  681SOL     hw 2723   6.639   1.726   2.057 -0.8525  0.3788  0.9137
  681SOL     vw 2724   6.585   1.682   2.005  0.3338 -0.1696  0.1278
  682SOL     ow 2725   6.753   3.270   4.694  0.0252  0.1464 -0.4666
  682SOL     hw 2726   6.763   3.312   4.609 -1.3457 -0.2029 -0.8216
  682SOL     hw 2727   6.740   3.343   4.755  2.4819  0.4968 -0.2733
  682SOL     vw 2728   6.753   3.285   4.691  0.1683  0.1465 -0.4878
  683SOL     ow 2729   1.832   3.419   3.008  0.2317  0.2779 -0.2456
  683SOL     hw 2730   1.775   3.463   2.945 -0.1006 -1.2503 -1.0444
  683SOL     hw 2731   1.802   3.452   3.093 -3.1433 -1.7648 -0.4609
  683SOL     vw 2732   1.821   3.429   3.011 -0.2575 -0.1932 -0.3793
  684SOL     ow 2733   6.089   0.585   2.957  0.2532 -0.1412  0.0875
  684SOL     hw 2734   6.071   0.516   2.893 -2.2988  1.0362 -0.5953
  684SOL     hw 2735   6.147   0.646   2.911 -2.0793  1.0401 -1.4745
  684SOL     vw 2736   6.094   0.584   2.942 -0.3912  0.1700 -0.2087
  685SOL     ow 2737   3.969   6.347   5.699 -0.1975  0.1714  0.4424
  685SOL     hw 2738   4.054   6.340   5.655 -1.2210 -0.0125 -1.6264
  685SOL     hw 2739   3.917   6.403   5.641 -1.3037  0.8582  2.0134
  685SOL     vw 2740   3.973   6.354   5.686 -0.4784  0.2377  0.3767
  686SOL     ow 2741   3.081   1.047   5.114 -0.4360 -0.1279  0.1715
  686SOL     hw 2742   3.170   1.062   5.146 -0.7183  0.9350  0.5134
  686SOL     hw 2743   3.086   0.965   5.065  0.5561 -0.4853  0.8447
  686SOL     vw 2744   3.093   1.038   5.112 -0.3422 -0.0348  0.3054
  687SOL     ow 2745   4.511   6.608   6.014  0.3223 -0.0188 -0.6223
  687SOL     hw 2746   4.478   6.593   5.926  0.0346  1.5525 -0.8147
  687SOL     hw 2747   4.438   6.647   6.061  0.9116  0.5181 -0.1252
  687SOL     vw 2748   4.497   6.611   6.009  0.3622  0.2594 -0.5822
  688SOL     ow 2749   3.767   1.872   6.135 -0.6196 -0.3817 -0.7558
  688SOL     hw 2750   3.856   1.870   6.100 -0.6713  0.3598 -0.9489
  688SOL     hw 2751   3.757   1.961   6.170 -0.4682 -1.1736  1.4467
  688SOL     vw 2752   3.778   1.884   6.135 -0.6064 -0.3883 -0.4909
  689SOL     ow 2753   0.988   0.290   1.615 -0.3243  0.4160  0.4682
  689SOL     hw 2754   0.903   0.283   1.572 -0.8042  0.6991  1.3312
  689SOL     hw 2755   1.052   0.266   1.548 -1.0534  0.6609 -0.3281
  689SOL     vw 2756   0.985   0.286   1.601 -0.4838  0.4856  0.4770
  690SOL     ow 2757   1.195   4.426   5.724  0.2235 -0.0186 -0.3639
  690SOL     hw 2758   1.194   4.444   5.630 -0.8576 -0.3474 -0.4242
  690SOL     hw 2759   1.234   4.339   5.731  0.3253  0.0142 -0.4953
  690SOL     vw 2760   1.200   4.417   5.712  0.0942 -0.0577 -0.3891
  691SOL     ow 2761   0.236   2.693   6.462  0.7796 -0.0102  0.5851
  691SOL     hw 2762   0.243   2.645   6.545 -1.5182 -0.7394  0.4145
  691SOL     hw 2763   0.301   2.651   6.405  1.0147 -0.8064  1.4107
  691SOL     vw 2764   0.245   2.681   6.466  0.5075 -0.2116  0.6714
  692SOL     ow 2765   0.681   5.160   6.242  0.0937 -0.0897  0.3873
  692SOL     hw 2766   0.668   5.066   6.253  0.3113 -0.1129  0.4568
  692SOL     hw 2767   0.658   5.176   6.150  2.2516 -0.6143 -0.3117
  692SOL     vw 2768   0.676   5.150   6.231  0.4072 -0.1619  0.3042
  693SOL     ow 2769   5.290   5.467   3.371 -0.2264 -0.1561 -0.4343
  693SOL     hw 2770   5.242   5.542   3.406  0.0962 -0.3015  0.3474
  693SOL     hw 2771   5.362   5.506   3.321  0.1659  0.0650  0.2875
  693SOL     vw 2772   5.293   5.482   3.369 -0.1321 -0.1464 -0.2359
  694SOL     ow 2773   1.892   3.350   0.842  0.4423 -0.5735 -0.5307
  694SOL     hw 2774   1.896   3.439   0.878  0.3412 -1.4127  1.6760
  694SOL     hw 2775   1.941   3.356   0.760 -1.4562  2.0064 -1.6219
  694SOL     vw 2776   1.899   3.363   0.836  0.1784 -0.3436 -0.3836
  695SOL     ow 2777   4.856   0.054   4.436  0.0689 -0.1491  1.0556
  695SOL     hw 2778   4.903   0.137   4.443  0.0225 -0.0755  0.5269
  695SOL     hw 2779   4.826   0.051   4.345  0.7716 -1.1174  0.8388
  695SOL     vw 2780   4.859   0.065   4.425  0.1557 -0.2671  0.9573
  696SOL     ow 2781   1.458   2.079   4.157  0.1117  0.3486  0.4933
  696SOL     hw 2782   1.369   2.114   4.153  0.3270  0.7886 -1.2570
  696SOL     hw 2783   1.455   1.997   4.109  0.6636  0.4147  0.3321
  696SOL     vw 2784   1.446   2.073   4.150  0.2129  0.4153  0.2410
  697SOL     ow 2785   6.193   5.594   5.154  0.4535  0.5048 -0.5086
  697SOL     hw 2786   6.195   5.629   5.065  0.9931 -1.4264 -1.3113
  697SOL     hw 2787   6.275   5.624   5.193  0.3100  1.1936 -0.7325
  697SOL     vw 2788   6.204   5.602   5.147  0.5057  0.3409 -0.6442
  698SOL     ow 2789   1.683   2.994   3.750  0.6908 -0.2046  0.3784
  698SOL     hw 2790   1.736   2.945   3.687  1.7832  0.6977  0.5778
  698SOL     hw 2791   1.620   3.043   3.696  2.2675  1.3491 -0.1284
  698SOL     vw 2792   1.681   2.994   3.734  1.0429  0.1194  0.3380
  699SOL     ow 2793   3.605   6.781   0.636  0.0129 -0.0579  0.6136
  699SOL     hw 2794   3.610   6.702   0.581 -2.0386 -0.8118  1.4128
  699SOL     hw 2795   3.601   6.853   0.573 -1.3694 -0.8418 -0.2778
  699SOL     vw 2796   3.605   6.780   0.620 -0.4402 -0.2608  0.6014
  700SOL     ow 2797   4.704   0.827   5.323 -0.0065  0.0364  0.0363
  700SOL     hw 2798   4.612   0.805   5.341 -0.1663  0.3233 -0.3928
  700SOL     hw 2799   4.713   0.813   5.228  0.7071 -1.0948  0.2548
  700SOL     vw 2800   4.693   0.822   5.313  0.0665 -0.0750  0.0083
  701SOL     ow 2801   1.961   5.012   5.485  0.5342  0.2028 -0.3517
  701SOL     hw 2802   1.971   5.098   5.526 -1.8940 -1.0223  3.2224
  701SOL     hw 2803   1.892   5.025   5.420 -0.6296  0.7825  0.9512
  701SOL     vw 2804   1.953   5.025   5.482  0.0602  0.1175  0.2918
  702SOL     ow 2805   3.838   0.343   3.822 -0.1671 -0.9154  0.5311
  702SOL     hw 2806   3.927   0.318   3.847 -0.0083  0.1566  1.0980
  702SOL     hw 2807   3.840   0.439   3.818 -1.4554 -0.8281  1.2339
  702SOL     vw 2808   3.850   0.352   3.825 -0.3160 -0.7625  0.6986
  703SOL     ow 2809   1.985   0.633   4.770  0.2988 -0.2556  0.2433
  703SOL     hw 2810   1.894   0.635   4.741  0.7476 -0.3801 -1.3012
  703SOL     hw 2811   2.017   0.547   4.743  0.6636 -0.5479  1.5300
  703SOL     vw 2812   1.977   0.622   4.762  0.4062 -0.3105  0.2091
  704SOL     ow 2813   0.078   6.822   0.002  0.0374  0.1201 -0.3098
  704SOL     hw 2814   0.042   6.910   0.007  0.3473  0.2231  0.2441
  704SOL     hw 2815   0.092   6.796   0.094 -0.0837 -0.5156 -0.4627
  704SOL     vw 2816   0.075   6.830   0.015  0.0623  0.0498 -0.2569
  705SOL     ow 2817   3.222   6.453   0.586 -0.3018 -0.0553  0.1379
  705SOL     hw 2818   3.152   6.504   0.626  0.5470  1.3548 -0.1158
  705SOL     hw 2819   3.227   6.373   0.639 -0.4694  0.9149  1.6709
  705SOL     vw 2820   3.213   6.449   0.598 -0.2118  0.2589  0.3067
  706SOL     ow 2821   3.676   2.804   3.755 -0.6973 -0.3053 -0.6888
  706SOL     hw 2822   3.748   2.745   3.732  1.4842  0.8156  2.6409
  706SOL     hw 2823   3.708   2.891   3.732 -1.7308  0.0619 -0.7743
  706SOL     vw 2824   3.690   2.808   3.749 -0.5459 -0.1088 -0.2607
  707SOL     ow 2825   0.416   3.529   0.886 -0.9801 -0.5397 -0.0716
  707SOL     hw 2826   0.383   3.495   0.969  1.8533  1.0393  1.8701
  707SOL     hw 2827   0.474   3.460   0.854 -0.7553 -0.4574  0.1547
  707SOL     vw 2828   0.419   3.515   0.893 -0.5766 -0.3206  0.2144
  708SOL     ow 2829   4.147   3.202   0.452 -0.2206  0.1876  0.4128
  708SOL     hw 2830   4.181   3.288   0.428 -1.7356  0.8617  0.5737
  708SOL     hw 2831   4.053   3.207   0.435 -0.5275 -1.0573  1.5223
  708SOL     vw 2832   4.139   3.214   0.446 -0.4606  0.1123  0.5804
  709SOL     ow 2833   4.952   6.793   6.502 -0.5972 -0.2757  0.2907
  709SOL     hw 2834   5.019   6.791   6.434  0.1940 -2.8416  1.0065
  709SOL     hw 2835   4.998   6.824   6.580 -0.8945  0.3917  0.2019
  709SOL     vw 2836   4.967   6.796   6.503 -0.5322 -0.5262  0.3736
  710SOL     ow 2837   2.290   5.637   6.392 -0.0679 -0.0209 -0.3144
  710SOL     hw 2838   2.282   5.623   6.298 -3.1775 -1.1007 -0.0059
  710SOL     hw 2839   2.277   5.551   6.431  1.5524  0.3265  1.1626
  710SOL     vw 2840   2.288   5.624   6.385 -0.2644 -0.1173 -0.0787
  711SOL     ow 2841   0.184   4.655   6.844 -0.5200  0.6281 -0.3321
  711SOL     hw 2842   0.233   4.599   6.904 -2.9042 -1.8159 -0.4788
  711SOL     hw 2843   0.245   4.675   6.773  0.6483 -1.1830  0.1133
  711SOL     vw 2844   0.198   4.650   6.843 -0.6804  0.0668 -0.2930
  712SOL     ow 2845   2.670   0.857   4.081  0.2589 -0.2716 -0.2908
  712SOL     hw 2846   2.630   0.865   4.168 -0.6347 -1.9340 -0.5137
  712SOL     hw 2847   2.734   0.786   4.091  2.1082  1.3036 -0.3517
  712SOL     vw 2848   2.673   0.849   4.094  0.3850 -0.2831 -0.3281
  713SOL     ow 2849   3.601   4.973   2.757 -0.0400 -0.0025 -0.1764
  713SOL     hw 2850   3.540   5.033   2.801  1.6271  0.9638  0.9051
  713SOL     hw 2851   3.643   4.925   2.828  0.8245 -0.2787 -0.8616
  713SOL     vw 2852   3.598   4.975   2.772  0.2940  0.0885 -0.1242
  714SOL     ow 2853   2.612   2.079   5.497 -0.0042  0.1751 -0.2028
  714SOL     hw 2854   2.647   2.141   5.433  0.8035 -0.3075 -0.2385
  714SOL     hw 2855   2.529   2.051   5.461 -0.2097  0.9601 -0.3651
  714SOL     vw 2856   2.606   2.084   5.484  0.0752  0.2149 -0.2289
  715SOL     ow 2857   1.867   6.580   4.601  1.1042 -0.0773 -0.2586
  715SOL     hw 2858   1.775   6.551   4.604  0.8645  0.6916  0.0749
  715SOL     hw 2859   1.917   6.502   4.625  0.4505 -0.1298  1.0227
  715SOL     vw 2860   1.861   6.566   4.605  0.9863  0.0172 -0.0458
  716SOL     ow 2861   2.494   2.502   1.740 -0.2013 -0.4892  0.3618
  716SOL     hw 2862   2.504   2.503   1.645  0.8367  0.5984  0.4492
  716SOL     hw 2863   2.446   2.422   1.759 -1.2496 -0.2455 -1.1504
  716SOL     vw 2864   2.489   2.492   1.730 -0.2027 -0.3135  0.1738
  717SOL     ow 2865   4.879   0.075   0.337  0.4642  0.5450  0.7757
  717SOL     hw 2866   4.877   0.087   0.432  0.5346  1.3976  0.6715
  717SOL     hw 2867   4.912  -0.014   0.326  0.7047  0.5263  1.5474
  717SOL     vw 2868   4.883   0.065   0.348  0.5052  0.6552  0.8638
  718SOL     ow 2869   0.417   1.293   5.061 -0.4868 -0.5373  0.2980
  718SOL     hw 2870   0.471   1.279   5.139 -1.4255 -2.1989  0.7073
  718SOL     hw 2871   0.331   1.258   5.086 -1.4140  0.9048 -0.7495
  718SOL     vw 2872   0.413   1.286   5.075 -0.7330 -0.5662  0.2141
  719SOL     ow 2873   2.440   1.304   4.444  0.1513 -0.5300 -0.4460
  719SOL     hw 2874   2.532   1.326   4.460  0.6982 -1.9044 -1.4655
  719SOL     hw 2875   2.440   1.209   4.429 -1.3087 -0.4385 -1.2568
  719SOL     vw 2876   2.452   1.294   4.444  0.0308 -0.6992 -0.6876
  720SOL     ow 2877   3.712   5.148   6.408  0.4940 -0.6551 -0.2442
  720SOL     hw 2878   3.763   5.080   6.453  0.0384 -0.7700  0.0963
  720SOL     hw 2879   3.720   5.125   6.315 -0.8393 -2.0132 -0.0505
  720SOL     vw 2880   3.720   5.136   6.401  0.2580 -0.8495 -0.1738
  721SOL     ow 2881   4.084   3.348   3.153 -0.2272 -0.4172 -0.2608
  721SOL     hw 2882   4.105   3.350   3.060  1.4069  1.6182  0.0588
  721SOL     hw 2883   4.098   3.438   3.182  0.7489 -1.2881  2.2371
  721SOL     vw 2884   4.089   3.360   3.145  0.1173 -0.2636  0.1110
  722SOL     ow 2885   0.542   5.233   3.098  0.1786  0.2393  0.3239
  722SOL     hw 2886   0.606   5.224   3.168  0.1104  2.0175  0.6694
  722SOL     hw 2887   0.578   5.301   3.041  0.5209 -1.5469 -1.7354
  722SOL     vw 2888   0.555   5.241   3.100  0.2148  0.2382  0.0978
  723SOL     ow 2889   1.953   2.023   2.469 -0.6171 -0.7824 -0.3574
  723SOL     hw 2890   2.031   2.046   2.521 -0.2399 -2.4900 -0.1120
  723SOL     hw 2891   1.939   2.099   2.413 -0.6535  0.8708  1.7643
  723SOL     vw 2892   1.962   2.036   2.469 -0.5721 -0.7895 -0.0451
  724SOL     ow 2893   2.805   5.446   2.839 -0.5242 -0.2266 -0.1961
  724SOL     hw 2894   2.857   5.493   2.904 -0.1258  0.4524 -0.9800
  724SOL     hw 2895   2.801   5.356   2.871 -1.8784  0.4547  1.7050
  724SOL     vw 2896   2.811   5.440   2.852 -0.6502 -0.0472 -0.0488
  725SOL     ow 2897   1.281   4.512   0.170  0.3259  0.0872 -0.4717
  725SOL     hw 2898   1.274   4.603   0.197  2.1139  0.3821 -0.9262
  725SOL     hw 2899   1.370   4.486   0.191  0.0336 -1.3875 -0.8875
  725SOL     vw 2900   1.292   4.520   0.176  0.5232 -0.0684 -0.5865
  726SOL     ow 2901   5.901   2.194   2.655  0.5379 -0.5809  0.4646
  726SOL     hw 2902   5.919   2.239   2.738 -0.8090  0.6870  0.1177
  726SOL     hw 2903   5.914   2.261   2.588 -1.5988 -0.6319 -0.0672
  726SOL     vw 2904   5.905   2.209   2.657  0.0787 -0.4202  0.3487
  727SOL     ow 2905   2.084   1.539   3.171 -0.0724  0.4745 -0.1525
  727SOL     hw 2906   2.041   1.491   3.101  0.0833  0.4644 -0.2436
  727SOL     hw 2907   2.136   1.606   3.125  0.2216  0.3117 -0.0597
  727SOL     vw 2908   2.085   1.542   3.155 -0.0130  0.4516 -0.1523
  728SOL     ow 2909   0.477   3.708   0.675 -0.3891 -0.1742 -0.1364
  728SOL     hw 2910   0.490   3.613   0.665  0.3608 -0.1007  0.0516
  728SOL     hw 2911   0.526   3.746   0.602 -0.9164  0.0642 -0.3729
  728SOL     vw 2912   0.485   3.700   0.664 -0.3597 -0.1332 -0.1428
  729SOL     ow 2913   6.143   3.749   1.355 -0.6932 -0.1576 -0.2871
  729SOL     hw 2914   6.167   3.745   1.263  0.3499 -1.1040 -0.0031
  729SOL     hw 2915   6.200   3.816   1.392 -1.0813  0.1916 -0.3152
  729SOL     vw 2916   6.154   3.757   1.348 -0.6070 -0.2364 -0.2533
  730SOL     ow 2917   6.423   0.427   2.225 -0.2137  0.4337 -0.3226
  730SOL     hw 2918   6.352   0.473   2.271  1.8860  1.8752  1.6944
  730SOL     hw 2919   6.384   0.343   2.199 -2.7622  1.3258  0.2529
  730SOL     vw 2920   6.408   0.422   2.228 -0.2728  0.7416  0.0194
  731SOL     ow 2921   2.903   4.734   3.689  0.0993  0.2944 -0.5279
  731SOL     hw 2922   2.976   4.746   3.628  2.6053 -1.0589  1.9657
  731SOL     hw 2923   2.897   4.816   3.737  2.5007 -0.6833  1.6513
  731SOL     vw 2924   2.912   4.746   3.687  0.7470 -0.0131  0.0886
  732SOL     ow 2925   5.418   5.118   2.147  0.0890  0.1975 -0.6573
  732SOL     hw 2926   5.335   5.090   2.185 -0.1021 -1.2074 -1.9872
  732SOL     hw 2927   5.427   5.064   2.068  1.3846  1.6142 -1.5347
  732SOL     vw 2928   5.408   5.107   2.141  0.2346  0.1993 -0.9484
  733SOL     ow 2929   6.942   6.736   2.304  0.2392 -0.0927 -0.4604
  733SOL     hw 2930   7.031   6.720   2.272  0.4401 -0.2890  0.1871
  733SOL     hw 2931   6.908   6.805   2.247  0.3413 -0.9177 -1.5439
  733SOL     vw 2932   6.949   6.743   2.292  0.2792 -0.2275 -0.5180
  734SOL     ow 2933   6.571   5.461   0.127 -0.3932 -0.2519  0.2978
  734SOL     hw 2934   6.489   5.414   0.138 -0.5877 -0.0765 -0.3154
  734SOL     hw 2935   6.617   5.451   0.210 -2.4315  2.3595  1.8918
  734SOL     vw 2936   6.566   5.454   0.139 -0.6878  0.1156  0.4272
  735SOL     ow 2937   6.846   3.479   6.908  0.0877 -0.3326 -0.4979
  735SOL     hw 2938   6.870   3.387   6.916  0.7228 -0.0692  0.8221
  735SOL     hw 2939   6.751   3.480   6.917 -0.0471 -0.9538 -1.6258
  735SOL     vw 2940   6.837   3.467   6.910  0.1535 -0.3798 -0.4725
  736SOL     ow 2941   6.059   2.963   4.178  0.4367  0.3814  0.2903
  736SOL     hw 2942   5.969   2.994   4.188 -0.0125 -1.1315  1.3513
  736SOL     hw 2943   6.056   2.911   4.098  0.3140  0.1721  0.4296
  736SOL     vw 2944   6.046   2.960   4.169  0.3612  0.1541  0.4487
  737SOL     ow 2945   5.662   2.941   1.003 -0.1306 -0.1131 -0.4655
  737SOL     hw 2946   5.712   2.894   1.069  0.1882 -0.4059 -0.9047
  737SOL     hw 2947   5.705   3.027   0.998  0.0038 -0.1786 -0.4650
  737SOL     vw 2948   5.675   2.946   1.011 -0.0703 -0.1603 -0.5234
  738SOL     ow 2949   2.174   3.258   4.057  0.8607  0.0673 -0.1582
  738SOL     hw 2950   2.213   3.171   4.053  0.5449 -0.0531 -0.7468
  738SOL     hw 2951   2.209   3.297   4.137 -0.1542 -1.1501  0.9172
  738SOL     vw 2952   2.184   3.252   4.067  0.6851 -0.1092 -0.0939
  739SOL     ow 2953   5.095   3.515   6.255  0.3878  0.4256 -0.0366
  739SOL     hw 2954   5.053   3.597   6.283 -1.1230  0.2785 -1.6717
  739SOL     hw 2955   5.160   3.542   6.191  0.9322  0.4383  0.5109
  739SOL     vw 2956   5.098   3.529   6.250  0.2604  0.4078 -0.1802
  740SOL     ow 2957   3.136   3.914   3.716  0.5283 -0.2325  0.2849
  740SOL     hw 2958   3.100   3.936   3.630  0.3457 -0.1894  0.3708
  740SOL     hw 2959   3.059   3.898   3.770  0.6543 -1.0385  0.2390
  740SOL     vw 2960   3.121   3.915   3.712  0.5208 -0.3332  0.2902
  741SOL     ow 2961   0.191   4.202   0.696 -0.5257  0.5120 -0.6560
  741SOL     hw 2962   0.175   4.170   0.608 -0.8563 -0.4452 -0.2649
  741SOL     hw 2963   0.145   4.140   0.753  2.0984 -0.6145  0.3668
  741SOL     vw 2964   0.183   4.190   0.692 -0.2231  0.2372 -0.4694
  742SOL     ow 2965   1.702   5.542   0.317 -0.4169  0.3948 -0.2587
  742SOL     hw 2966   1.755   5.589   0.254  1.6600 -1.3958  0.0132
  742SOL     hw 2967   1.707   5.594   0.397 -0.2386  0.9722 -0.6450
  742SOL     vw 2968   1.710   5.555   0.319 -0.1193  0.2348 -0.2738
  743SOL     ow 2969   0.102   4.682   4.361  0.5473 -0.3611 -0.4255
  743SOL     hw 2970   0.078   4.667   4.269  0.3039 -1.1900 -0.2383
  743SOL     hw 2971   0.092   4.596   4.402 -1.3522  0.4137  0.8446
  743SOL     vw 2972   0.097   4.668   4.354  0.2646 -0.3679 -0.2334
  744SOL     ow 2973   0.034   3.609   6.704  0.5369  0.1560  0.2747
  744SOL     hw 2974   0.114   3.573   6.745  1.1943  1.4953  0.2124
  744SOL     hw 2975   0.020   3.552   6.628  1.5169 -0.0263  0.2037
  744SOL     vw 2976   0.043   3.596   6.700  0.7529  0.3088  0.2573
  745SOL     ow 2977   4.700   0.506   2.603 -0.4114 -0.4035 -0.2979
  745SOL     hw 2978   4.699   0.543   2.515 -1.5922  2.5187  0.8205
  745SOL     hw 2979   4.640   0.561   2.653  1.7397 -0.6428  2.8298
  745SOL     vw 2980   4.692   0.518   2.598 -0.2830 -0.0495  0.2623
  746SOL     ow 2981   5.157   3.730   3.778 -0.4804  0.1171 -0.4401
  746SOL     hw 2982   5.138   3.758   3.689 -2.4895  1.3394  0.3118
  746SOL     hw 2983   5.084   3.675   3.803  0.2982 -0.6128  0.3078
  746SOL     vw 2984   5.145   3.727   3.770 -0.6428  0.1822 -0.2424
  747SOL     ow 2985   0.992   3.873   4.070  0.4829  0.0015  0.4695
  747SOL     hw 2986   1.024   3.934   4.004  0.9894  0.1356  0.8340
  747SOL     hw 2987   0.905   3.848   4.040  0.6990  0.0870 -0.2311
  747SOL     vw 2988   0.984   3.878   4.058  0.5782  0.0305  0.4251
  748SOL     ow 2989   3.641   1.804   6.631  0.0424 -0.8483 -0.3100
  748SOL     hw 2990   3.660   1.758   6.714  3.0666  0.6259 -0.0384
  748SOL     hw 2991   3.710   1.775   6.572  1.2870  2.2238 -0.5275
  748SOL     vw 2992   3.653   1.794   6.634  0.6055 -0.2484 -0.3030
  749SOL     ow 2993   6.833   5.316   6.016 -0.6696 -0.2180 -0.1361
  749SOL     hw 2994   6.794   5.331   5.930 -2.1610  2.5392  0.9147
  749SOL     hw 2995   6.758   5.309   6.076  0.3353  0.7387  1.3119
  749SOL     vw 2996   6.818   5.317   6.013 -0.7336  0.2718  0.1936
  750SOL     ow 2997   5.284   4.383   0.789 -0.3599 -0.3029 -0.0637
  750SOL     hw 2998   5.270   4.475   0.768  2.5111  0.0689 -0.8702
  750SOL     hw 2999   5.267   4.376   0.883  0.2983  1.3124  0.2148
  750SOL     vw 3000   5.280   4.394   0.799  0.1056 -0.0408 -0.1334
  751SOL     ow 3001   5.943   1.457   1.108 -0.0690 -0.5774 -0.2534
  751SOL     hw 3002   6.010   1.411   1.158 -1.8094 -2.3628  0.5525
  751SOL     hw 3003   5.898   1.388   1.059 -0.5353  0.7286 -1.7329
  751SOL     vw 3004   5.946   1.442   1.108 -0.3600 -0.6406 -0.3422
  752SOL     ow 3005   1.064   6.154   6.573  0.0208 -0.5620  0.0354
  752SOL     hw 3006   1.013   6.196   6.642 -1.8218 -1.6015 -0.6007
  752SOL     hw 3007   1.065   6.217   6.501  1.1465  0.1479  0.6513
  752SOL     vw 3008   1.057   6.168   6.572 -0.0739 -0.6053  0.0329
  753SOL     ow 3009   5.746   5.214   1.301  0.4806  0.5809 -0.1411
  753SOL     hw 3010   5.674   5.188   1.243  0.8553 -2.2204  0.4969
  753SOL     hw 3011   5.825   5.198   1.249  0.7221  1.2450  0.0185
  753SOL     vw 3012   5.747   5.208   1.287  0.5617  0.2992 -0.0358
  754SOL     ow 3013   1.491   0.416   5.621  0.4259 -0.3920 -0.3431
  754SOL     hw 3014   1.527   0.327   5.629  0.2554 -0.5381 -1.0876
  754SOL     hw 3015   1.567   0.473   5.631  0.4843 -0.6056  0.4806
  754SOL     vw 3016   1.506   0.411   5.623  0.4111 -0.4395 -0.3326
  755SOL     ow 3017   2.843   1.987   4.670  0.4625  0.0786  0.2422
  755SOL     hw 3018   2.753   2.004   4.697 -0.6877 -1.9754 -1.9309
  755SOL     hw 3019   2.855   1.893   4.683  0.4061 -0.7698 -4.1425
  755SOL     vw 3020   2.833   1.977   4.675  0.3034 -0.3043 -0.6230
  756SOL     ow 3021   6.322   0.108   5.215  0.1195  0.5038  0.6284
  756SOL     hw 3022   6.359   0.187   5.254  1.1548  0.6756 -0.6525
  756SOL     hw 3023   6.330   0.121   5.121 -1.8928 -0.1064  0.3203
  756SOL     vw 3024   6.328   0.120   5.208 -0.0095  0.4459  0.4189
  757SOL     ow 3025   5.369   4.970   5.044  0.3948  0.0220 -0.0639
  757SOL     hw 3026   5.421   5.040   5.004  2.3260 -0.1543  1.9256
  757SOL     hw 3027   5.314   5.016   5.108  0.0711 -0.0878 -0.2588
  757SOL     vw 3028   5.368   4.985   5.047  0.6065 -0.0157  0.1729
  758SOL     ow 3029   5.747   4.986   3.415 -0.5833 -0.3551 -0.4275
  758SOL     hw 3030   5.788   5.068   3.443 -1.7874 -0.0231  0.4443
  758SOL     hw 3031   5.691   4.961   3.488 -0.8718 -1.5168 -1.0324
  758SOL     vw 3032   5.745   4.994   3.428 -0.7803 -0.4644 -0.3923
  759SOL     ow 3033   2.435   4.751   0.964 -0.2898  0.4295 -0.4637
  759SOL     hw 3034   2.387   4.743   0.882  0.8443  0.8395 -1.1933
  759SOL     hw 3035   2.512   4.802   0.942  0.1471  0.3687  0.8207
  759SOL     vw 3036   2.439   4.757   0.951 -0.0825  0.4756 -0.3905
  760SOL     ow 3037   3.919   3.014   6.824  0.0609  0.1407  0.2566
  760SOL     hw 3038   4.009   3.013   6.792 -0.3095 -1.9715 -0.9186
  760SOL     hw 3039   3.908   2.930   6.868 -1.5115  0.0667 -0.2069
  760SOL     vw 3040   3.930   3.003   6.825 -0.1955 -0.1478  0.0408
  761SOL     ow 3041   4.312   0.880   6.943 -0.2655 -1.0984 -0.2416
  761SOL     hw 3042   4.252   0.869   6.869 -0.6026  0.6068 -0.2502
  761SOL     hw 3043   4.281   0.816   7.008 -2.0484 -0.3401 -0.2835
  761SOL     vw 3044   4.300   0.870   6.942 -0.5453 -0.7733 -0.2484
  762SOL     ow 3045   4.521   4.536   3.010  0.2978  0.2887 -0.2468
  762SOL     hw 3046   4.521   4.443   2.988  3.6965  0.0430  0.1866
  762SOL     hw 3047   4.491   4.539   3.101  1.5734 -0.6336  0.2415
  762SOL     vw 3048   4.517   4.524   3.020  0.9143  0.1347 -0.1253
  763SOL     ow 3049   0.996   5.433   5.680  0.1391 -0.1289  0.0837
  763SOL     hw 3050   0.972   5.390   5.762  0.7593 -1.0014 -0.1718
  763SOL     hw 3051   0.942   5.512   5.677 -1.8608 -1.4293  0.0452
  763SOL     vw 3052   0.986   5.437   5.691 -0.0430 -0.4158  0.0448
  764SOL     ow 3053   0.584   3.818   0.937  0.6183  0.1419 -0.0349
  764SOL     hw 3054   0.635   3.847   0.861 -0.9513  0.6889 -0.9182
  764SOL     hw 3055   0.571   3.897   0.989  2.1432 -0.3287  1.1284
  764SOL     vw 3056   0.589   3.832   0.934  0.6124  0.1519  0.0020
  765SOL     ow 3057   6.552   0.272   2.041  0.2639 -0.0248  0.0304
  765SOL     hw 3058   6.489   0.250   1.972  2.2513 -0.1468 -1.8473
  765SOL     hw 3059   6.560   0.191   2.092 -0.9509 -0.0492  0.2313
  765SOL     vw 3060   6.544   0.258   2.038  0.3660 -0.0442 -0.1907
  766SOL     ow 3061   4.133   6.683   5.312 -0.0364  0.2770  0.1602
  766SOL     hw 3062   4.112   6.593   5.338  1.2561  0.0353  0.4435
  766SOL     hw 3063   4.221   6.677   5.275 -0.4743  1.2096 -1.0661
  766SOL     vw 3064   4.142   6.671   5.311  0.0761  0.3681  0.0358
  767SOL     ow 3065   1.117   3.972   5.263 -0.5841  0.0532  0.3602
  767SOL     hw 3066   1.186   4.028   5.298  2.1557 -1.8044 -1.7297
  767SOL     hw 3067   1.109   3.999   5.171 -1.8406 -0.5507  0.2703
  767SOL     vw 3068   1.125   3.983   5.255 -0.3883 -0.2714  0.0725
  768SOL     ow 3069   2.891   0.990   1.122  0.3265  0.8141  0.4906
  768SOL     hw 3070   2.909   0.998   1.028  0.2120  0.9433  0.4798
  768SOL     hw 3071   2.948   1.056   1.162  0.8364  0.3334  0.5636
  768SOL     vw 3072   2.901   1.000   1.115  0.3785  0.7677  0.4989
  769SOL     ow 3073   5.217   3.259   5.249 -0.0206 -0.3400  0.1169
  769SOL     hw 3074   5.286   3.304   5.299 -1.7023  0.5052  1.8479
  769SOL     hw 3075   5.136   3.295   5.285 -1.3747 -0.9984 -2.1223
  769SOL     vw 3076   5.216   3.270   5.261 -0.4210 -0.3153  0.0498
  770SOL     ow 3077   0.078   6.897   1.332  0.9203  0.4351  0.8782
  770SOL     hw 3078   0.109   6.826   1.276  1.0617  0.1631  1.2919
  770SOL     hw 3079   0.144   6.902   1.402  0.4369  0.3749  1.3406
  770SOL     vw 3080   0.091   6.888   1.334  0.8752  0.3912  0.9937
  771SOL     ow 3081   2.535   0.538   3.119 -0.2306 -0.8106 -0.3265
  771SOL     hw 3082   2.479   0.613   3.097  0.4766 -0.5671 -1.3470
  771SOL     hw 3083   2.496   0.503   3.199  0.2550  1.5054  1.0248
  771SOL     vw 3084   2.522   0.543   3.126 -0.0733 -0.4729 -0.2830
  772SOL     ow 3085   6.635   0.963   1.313 -0.0155  0.0041  0.2019
  772SOL     hw 3086   6.671   1.022   1.380  1.3234 -1.8309  1.2032
  772SOL     hw 3087   6.709   0.908   1.288 -0.8388 -0.2435 -1.8602
  772SOL     vw 3088   6.650   0.964   1.319  0.0525 -0.2706  0.0620
  773SOL     ow 3089   0.134   1.752   5.900 -0.1894 -0.3328  0.5449
  773SOL     hw 3090   0.060   1.786   5.951 -0.8430  0.4218 -0.8608
  773SOL     hw 3091   0.125   1.793   5.814  0.4529 -2.1448 -0.4430
  773SOL     vw 3092   0.123   1.762   5.895 -0.1909 -0.4722  0.2294
  774SOL     ow 3093   5.645   4.040   5.656 -0.0079  0.4137 -0.7143
  774SOL     hw 3094   5.619   4.090   5.578  0.6164  1.3413 -0.3415
  774SOL     hw 3095   5.564   3.999   5.686 -0.4215  0.7396 -1.3587
  774SOL     vw 3096   5.630   4.041   5.650  0.0203  0.5794 -0.7503
  775SOL     ow 3097   3.581   0.770   5.982  0.2901  0.7187  0.5967
  775SOL     hw 3098   3.497   0.815   5.976  0.1441  0.7609  2.4343
  775SOL     hw 3099   3.596   0.760   6.076  0.9247 -1.9446  0.2808
  775SOL     vw 3100   3.572   0.775   5.994  0.3546  0.3729  0.7975
  776SOL     ow 3101   4.656   6.464   2.180  0.1454  0.8647  0.1489
  776SOL     hw 3102   4.590   6.418   2.127 -1.6080  1.6187  1.5815
  776SOL     hw 3103   4.648   6.424   2.267  1.4913  1.0961  0.3956
  776SOL     vw 3104   4.646   6.453   2.184  0.0916  0.9949  0.3704
  777SOL     ow 3105   0.735   6.340   5.727  0.2949 -0.1275  0.1281
  777SOL     hw 3106   0.697   6.251   5.727  1.0989 -0.4889  0.9101
  777SOL     hw 3107   0.671   6.393   5.679 -0.4547 -1.0241  0.0941
  777SOL     vw 3108   0.721   6.335   5.721  0.3021 -0.2933  0.2270
  778SOL     ow 3109   3.911   3.822   4.440  0.5153  0.3403 -0.0945
  778SOL     hw 3110   3.915   3.899   4.383  0.5351 -0.5281 -1.3043
  778SOL     hw 3111   3.845   3.844   4.506 -0.8679  0.6711 -1.5375
  778SOL     vw 3112   3.903   3.835   4.441  0.3355  0.2693 -0.4444
  779SOL     ow 3113   3.846   1.441   5.019 -0.0959 -0.0289 -0.2006
  779SOL     hw 3114   3.859   1.389   4.939  2.0423  1.3973 -0.8803
  779SOL     hw 3115   3.876   1.384   5.089 -1.5870 -1.1442 -0.4346
  779SOL     vw 3116   3.852   1.427   5.017 -0.0106  0.0122 -0.3214
  780SOL     ow 3117   5.943   6.099   0.777 -0.1016 -0.2882 -0.2313
  780SOL     hw 3118   6.037   6.083   0.791  0.2094  0.6590 -1.0787
  780SOL     hw 3119   5.915   6.145   0.856  0.0403 -0.9797  0.2277
  780SOL     vw 3120   5.952   6.103   0.789 -0.0417 -0.2544 -0.2826
  781SOL     ow 3121   6.338   0.745   3.052  0.4760 -0.3823 -0.1460
  781SOL     hw 3122   6.296   0.756   3.137 -0.0033  1.2318 -0.5654
  781SOL     hw 3123   6.391   0.823   3.041  2.0293 -1.4347 -0.5396
  781SOL     vw 3124   6.339   0.756   3.062  0.6175 -0.3082 -0.2532
  782SOL     ow 3125   0.804   6.387   2.072  0.6671  0.5401 -0.4143
  782SOL     hw 3126   0.745   6.458   2.049  0.4268  0.5961  0.3436
  782SOL     hw 3127   0.754   6.307   2.055 -0.0730  0.5957  1.2763
  782SOL     vw 3128   0.790   6.386   2.067  0.5377  0.5548 -0.0912
  783SOL     ow 3129   3.927   4.622   5.951  0.8627  0.3129  0.1119
  783SOL     hw 3130   3.917   4.696   6.011  0.5774 -0.4420  1.0144
  783SOL     hw 3131   3.840   4.611   5.912  1.2560  1.3431 -1.1122
  783SOL     vw 3132   3.914   4.630   5.954  0.8769  0.3493  0.0691
  784SOL     ow 3133   6.526   0.476   0.092  0.0542 -0.0180 -0.0428
  784SOL     hw 3134   6.498   0.441   0.177 -1.1467  1.3087  0.1448
  784SOL     hw 3135   6.594   0.415   0.063  0.3617 -0.6199  1.7690
  784SOL     vw 3136   6.531   0.463   0.100 -0.0639  0.0776  0.2210
  785SOL     ow 3137   4.252   5.610   4.642 -0.1073  0.1648  0.0180
  785SOL     hw 3138   4.343   5.629   4.665  0.5448  1.2189 -3.0203
  785SOL     hw 3139   4.202   5.682   4.680  0.6410  0.7790 -0.1265
  785SOL     vw 3140   4.258   5.622   4.650  0.0777  0.3848 -0.4022
  786SOL     ow 3141   3.650   0.833   0.177 -0.0622 -0.2021  0.2713
  786SOL     hw 3142   3.617   0.809   0.264  4.7904 -0.4190  2.4128
  786SOL     hw 3143   3.660   0.750   0.131  2.6945 -0.9447  1.9335
  786SOL     vw 3144   3.647   0.819   0.183  0.9416 -0.3287  0.7732
  787SOL     ow 3145   4.012   2.721   2.490 -0.1687  0.1485  0.2668
  787SOL     hw 3146   4.051   2.726   2.403  0.5883 -0.4082  0.5657
  787SOL     hw 3147   4.086   2.720   2.550 -0.6737  0.2006  0.9074
  787SOL     vw 3148   4.027   2.722   2.486 -0.1354  0.0819  0.3908
  788SOL     ow 3149   3.881   3.330   6.812  0.0146 -0.4770  0.7668
  788SOL     hw 3150   3.919   3.393   6.873 -1.7485 -0.6397  2.1366
  788SOL     hw 3151   3.941   3.327   6.738 -0.9636  4.7343 -0.6200
  788SOL     vw 3152   3.894   3.338   6.810 -0.3471  0.1891  0.7646
  789SOL     ow 3153   2.405   1.526   1.480 -0.0397 -0.2933 -0.1767
  789SOL     hw 3154   2.435   1.612   1.449 -1.3115 -0.4159 -1.9313
  789SOL     hw 3155   2.332   1.504   1.422 -1.9544 -1.0760  2.3391
  789SOL     vw 3156   2.399   1.535   1.468 -0.4600 -0.4128 -0.0762
  790SOL     ow 3157   4.582   6.345   5.272  1.3753 -0.0935  0.3209
  790SOL     hw 3158   4.603   6.374   5.361 -1.1956  2.8663  0.1313
  790SOL     hw 3159   4.524   6.271   5.284  0.6284  0.6012  1.1803
  790SOL     vw 3160   4.577   6.339   5.286  0.9377  0.3889  0.4094
  791SOL     ow 3161   0.291   2.989   6.576  0.6076 -0.0838 -0.5006
  791SOL     hw 3162   0.325   2.994   6.665  2.1273  0.7678 -1.0685
  791SOL     hw 3163   0.248   3.074   6.562  2.3419  0.7506 -1.2437
  791SOL     vw 3164   0.290   3.001   6.586  1.0369  0.1386 -0.6738
  792SOL     ow 3165   2.213   1.319   3.368  0.0325 -0.2249 -0.4095
  792SOL     hw 3166   2.294   1.353   3.405 -1.4976 -0.1095  3.2934
  792SOL     hw 3167   2.193   1.242   3.421 -3.1165  0.7887  0.0845
  792SOL     vw 3168   2.221   1.313   3.380 -0.5850 -0.0760  0.1442
  793SOL     ow 3169   6.071   3.374   4.531 -0.3980  0.9673  0.1452
  793SOL     hw 3170   6.027   3.353   4.449  0.4418  0.0982 -0.0891
  793SOL     hw 3171   6.024   3.323   4.598 -0.1882  0.5745 -0.0052
  793SOL     vw 3172   6.059   3.365   4.529 -0.2592  0.8008  0.0942
  794SOL     ow 3173   0.778   5.714   6.410 -0.6386 -0.6310 -0.4621
  794SOL     hw 3174   0.810   5.801   6.384 -2.0517  0.6838  1.8593
  794SOL     hw 3175   0.710   5.694   6.345  0.7542 -0.7994 -1.9446
  794SOL     vw 3176   0.773   5.723   6.398 -0.6413 -0.4799 -0.3514
  795SOL     ow 3177   3.835   3.659   1.106 -0.1496  0.1055  0.3423
  795SOL     hw 3178   3.797   3.584   1.061  2.6704 -0.6490 -0.9818
  795SOL     hw 3179   3.859   3.626   1.192 -3.4240  0.9373  1.7233
  795SOL     vw 3180   3.833   3.645   1.111 -0.2096  0.1158  0.3498
  796SOL     ow 3181   3.380   0.412   3.457 -0.6802  0.4519  0.0343
  796SOL     hw 3182   3.364   0.350   3.386 -1.5181  1.5175 -0.7395
  796SOL     hw 3183   3.329   0.489   3.434  1.0181  1.7793  0.5186
  796SOL     vw 3184   3.371   0.414   3.445 -0.5666  0.7676 -0.0038
  797SOL     ow 3185   5.405   5.968   4.627  0.1582 -1.1814 -0.3096
  797SOL     hw 3186   5.425   5.976   4.534  1.1925 -1.8674 -0.1616
  797SOL     hw 3187   5.447   5.886   4.653  0.0290 -0.9025  0.7981
  797SOL     vw 3188   5.413   5.958   4.618  0.2775 -1.2350 -0.1440
  798SOL     ow 3189   3.387   5.975   3.452  0.1582  0.5340  0.6786
  798SOL     hw 3190   3.412   6.045   3.392  0.3669 -0.3304 -0.2795
  798SOL     hw 3191   3.386   5.896   3.397  1.0084 -0.3998  1.9541
  798SOL     vw 3192   3.390   5.974   3.437  0.2980  0.2966  0.7206
  799SOL     ow 3193   6.176   1.453   4.437  0.3765  0.5437 -0.1339
  799SOL     hw 3194   6.163   1.508   4.360 -1.0499  0.8912  0.3076
  799SOL     hw 3195   6.236   1.384   4.409 -0.3953  0.4611 -1.6513
  799SOL     vw 3196   6.182   1.451   4.423  0.0865  0.5786 -0.2759
  800SOL     ow 3197   2.822   3.656   2.458 -0.0717 -0.3047 -0.4962
  800SOL     hw 3198   2.853   3.574   2.496 -0.1879 -1.2497 -2.3316
  800SOL     hw 3199   2.772   3.630   2.381  0.3527  1.5145 -1.4430
  800SOL     vw 3200   2.820   3.642   2.453 -0.0311 -0.1895 -0.8631
  801SOL     ow 3201   1.480   6.764   5.140  0.5980  0.3590  0.0306
  801SOL     hw 3202   1.547   6.830   5.155  1.7252 -0.6208 -0.4735
  801SOL     hw 3203   1.399   6.804   5.171  1.5021  1.3659  1.1884
  801SOL     vw 3204   1.478   6.778   5.146  0.8660  0.3624  0.1166
  802SOL     ow 3205   3.668   2.281   2.324  0.1112  0.0243  0.2008
  802SOL     hw 3206   3.620   2.205   2.354  1.2734 -1.2284 -0.9686
  802SOL     hw 3207   3.746   2.284   2.379  0.3831 -0.0314 -0.1737
  802SOL     vw 3208   3.672   2.272   2.335  0.3004 -0.1483 -0.0029
  803SOL     ow 3209   6.442   0.556   1.822 -0.4292  0.3530  0.5840
  803SOL     hw 3210   6.440   0.461   1.811  0.7689  0.6051 -3.2231
  803SOL     hw 3211   6.532   0.575   1.850 -0.5597  0.4097  0.9709
  803SOL     vw 3212   6.454   0.546   1.825 -0.2882  0.3938  0.1327
  804SOL     ow 3213   3.774   3.955   6.058 -0.2991  0.1381 -0.2473
  804SOL     hw 3214   3.751   3.889   5.993 -0.3603 -1.6195  1.4798
  804SOL     hw 3215   3.701   4.018   6.055 -2.5679 -2.2385  1.1004
  804SOL     vw 3216   3.761   3.955   6.049 -0.6065 -0.4072  0.1585
  805SOL     ow 3217   1.717   3.471   6.289  0.1064 -0.1975  0.7550
  805SOL     hw 3218   1.668   3.389   6.298 -0.5944 -0.1089 -1.6005
  805SOL     hw 3219   1.749   3.470   6.199  2.2961  0.9685  1.4276
  805SOL     vw 3220   1.715   3.460   6.278  0.3029 -0.0319  0.5329
  806SOL     ow 3221   6.410   6.016   2.936 -0.2637  0.4340  1.0707
  806SOL     hw 3222   6.471   5.944   2.924  1.2767  1.6712  1.1619
  806SOL     hw 3223   6.351   5.987   3.006 -1.4214 -1.7904 -0.6783
  806SOL     vw 3224   6.410   6.003   2.943 -0.2131  0.3035  0.8521
  807SOL     ow 3225   3.405   4.646   1.732 -0.0523 -0.5525  0.1019
  807SOL     hw 3226   3.361   4.615   1.811 -1.8666 -1.6155 -1.2703
  807SOL     hw 3227   3.495   4.615   1.741  1.0851  2.9483  3.6922
  807SOL     vw 3228   3.411   4.638   1.744 -0.1416 -0.2310  0.3945
  808SOL     ow 3229   5.486   3.221   2.448 -0.2035  0.1083  0.0318
  808SOL     hw 3230   5.534   3.250   2.371 -0.2238 -0.3028 -0.1353
  808SOL     hw 3231   5.447   3.137   2.423 -0.9286  0.3836  0.1920
  808SOL     vw 3232   5.487   3.214   2.435 -0.3021  0.0905  0.0309
  809SOL     ow 3233   3.083   2.962   1.398  0.2335  0.1479 -0.2517
  809SOL     hw 3234   3.016   3.000   1.341 -0.1720 -0.1192  0.0440
  809SOL     hw 3235   3.069   2.868   1.392  1.3799  0.0113 -1.1617
  809SOL     vw 3236   3.073   2.955   1.389  0.3313  0.0947 -0.3328
  810SOL     ow 3237   6.362   1.775   2.604  0.2447  0.3410  0.3248
  810SOL     hw 3238   6.351   1.732   2.520  1.4765  0.4709  0.0672
  810SOL     hw 3239   6.345   1.706   2.669 -0.2952  0.1322 -0.0398
  810SOL     vw 3240   6.358   1.760   2.602  0.3362  0.3306  0.2426
  811SOL     ow 3241   0.930   3.822   5.108 -0.2671 -0.6439 -0.1988
  811SOL     hw 3242   1.006   3.811   5.051  0.4030  0.0084  0.5706
  811SOL     hw 3243   0.866   3.760   5.072  0.1563 -0.3107 -1.6213
  811SOL     vw 3244   0.931   3.812   5.096 -0.1228 -0.5138 -0.2851
  812SOL     ow 3245   0.037   3.284   5.556 -0.0089 -0.0501  0.2845
  812SOL     hw 3246  -0.004   3.201   5.531 -0.9388  0.4940 -0.0476
  812SOL     hw 3247   0.045   3.333   5.474  1.1682 -0.0692  0.3679
  812SOL     vw 3248   0.032   3.280   5.542  0.0238  0.0192  0.2520
  813SOL     ow 3249   0.735   0.236   3.212  0.2488  0.2453  0.3502
  813SOL     hw 3250   0.741   0.250   3.307 -2.9096 -0.3106  0.7568
  813SOL     hw 3251   0.641   0.241   3.194  0.7869  0.5359 -2.8214
  813SOL     vw 3252   0.723   0.239   3.222 -0.0969  0.2103 -0.0145
  814SOL     ow 3253   1.980   3.176   1.849  0.3086  0.2277  0.1143
  814SOL     hw 3254   1.945   3.159   1.761  0.7959 -1.0289  0.1482
  814SOL     hw 3255   1.975   3.091   1.893  1.7123  0.4439  0.7152
  814SOL     vw 3256   1.974   3.162   1.843  0.5581  0.0906  0.1981
  815SOL     ow 3257   4.624   0.889   6.980 -0.8835 -0.3614  0.6321
  815SOL     hw 3258   4.621   0.794   6.967 -0.5265 -0.0928 -2.0832
  815SOL     hw 3259   4.703   0.917   6.933 -1.5198  1.3866  0.5289
  815SOL     vw 3260   4.634   0.880   6.972 -0.9205 -0.0954  0.2604
  816SOL     ow 3261   5.023   5.315   6.866  0.5042  0.5353 -0.0394
  816SOL     hw 3262   5.088   5.349   6.804 -0.0393  1.4863 -0.0927
  816SOL     hw 3263   4.968   5.257   6.813 -0.4713  1.9768 -0.6809
  816SOL     vw 3264   5.024   5.312   6.851  0.3035  0.8512 -0.1311
  817SOL     ow 3265   3.614   0.996   4.009  0.1500 -0.1766 -0.2074
  817SOL     hw 3266   3.683   0.962   4.066  1.4744  1.2506 -0.8746
  817SOL     hw 3267   3.640   1.087   3.992 -0.3061 -0.4673 -2.9035
  817SOL     vw 3268   3.627   1.004   4.015  0.2645 -0.0267 -0.6511
  818SOL     ow 3269   0.733   3.898   2.000  0.8946 -0.0145 -0.0770
  818SOL     hw 3270   0.747   3.809   1.967  2.7430 -0.7512  2.3623
  818SOL     hw 3271   0.748   3.891   2.095 -0.5561  2.6026  0.4413
  818SOL     vw 3272   0.737   3.885   2.008  0.9471  0.2334  0.3132
  819SOL     ow 3273   4.791   1.286   4.521 -0.6557 -0.5214 -0.0946
  819SOL     hw 3274   4.748   1.208   4.484 -0.0481 -1.5602  1.3132
  819SOL     hw 3275   4.872   1.252   4.559 -0.9812  0.5937  1.6684
  819SOL     vw 3276   4.796   1.271   4.521 -0.6185 -0.5113  0.3235
  820SOL     ow 3277   6.058   1.429   2.350 -0.6904 -0.1967 -0.3999
  820SOL     hw 3278   6.051   1.440   2.445  0.9606  1.8548 -0.4288
  820SOL     hw 3279   6.137   1.376   2.338 -1.6157 -1.5772 -0.6438
  820SOL     vw 3280   6.068   1.423   2.361 -0.5949 -0.1082 -0.4358
  821SOL     ow 3281   5.032   6.345   0.781 -0.2402  0.0724  0.8730
  821SOL     hw 3282   5.046   6.270   0.723 -1.6083  1.2698 -1.1719
  821SOL     hw 3283   4.943   6.333   0.814  0.2749 -0.2222  2.2284
  821SOL     vw 3284   5.022   6.333   0.778 -0.3529  0.1915  0.7820
  822SOL     ow 3285   6.833   6.165   4.143  0.5230  0.4146  0.0286
  822SOL     hw 3286   6.745   6.180   4.107  0.3079 -0.2217  0.2705
  822SOL     hw 3287   6.890   6.165   4.066  0.5911  2.5953  0.0110
  822SOL     vw 3288   6.829   6.167   4.128  0.5038  0.6185  0.0579
  823SOL     ow 3289   6.320   0.016   0.418  0.1147  0.0617 -0.3992
  823SOL     hw 3290   6.401   0.036   0.370 -0.5637 -1.6621 -2.4011
  823SOL     hw 3291   6.349  -0.030   0.497  1.1004 -1.0291 -1.3634
  823SOL     vw 3292   6.335   0.013   0.422  0.1557 -0.3097 -0.7905
  824SOL     ow 3293   4.708   6.355   6.036 -1.0421 -0.4216  0.3427
  824SOL     hw 3294   4.746   6.364   5.949 -0.6199  0.2847  0.5886
  824SOL     hw 3295   4.777   6.314   6.088 -1.2295 -0.6797  0.3891
  824SOL     vw 3296   4.723   6.351   6.031 -1.0109 -0.3626  0.3810
  825SOL     ow 3297   2.307   1.582   4.495  0.1657  0.3010 -0.6067
  825SOL     hw 3298   2.235   1.637   4.463  0.0443  0.0026 -0.8568
  825SOL     hw 3299   2.292   1.576   4.589 -0.0212  0.4093 -0.6288
  825SOL     vw 3300   2.295   1.588   4.503  0.1251  0.2760 -0.6423
  826SOL     ow 3301   6.319   2.505   1.240 -0.0325  0.7040 -0.2004
  826SOL     hw 3302   6.308   2.412   1.260 -1.0800  1.2118  1.8252
  826SOL     hw 3303   6.403   2.510   1.195 -0.9263 -1.4584 -2.3361
  826SOL     vw 3304   6.329   2.494   1.236 -0.2887  0.4857 -0.2149
  827SOL     ow 3305   1.114   6.729   0.585  0.1909 -0.2452 -0.2409
  827SOL     hw 3306   1.124   6.705   0.492  1.0610 -0.6756 -0.0531
  827SOL     hw 3307   1.155   6.656   0.632  3.3810  1.7363  0.3528
  827SOL     vw 3308   1.121   6.716   0.579  0.7266 -0.0403 -0.1378
  828SOL     ow 3309   1.892   6.065   4.553 -0.0813  0.0372 -0.3561
  828SOL     hw 3310   1.968   6.104   4.597 -0.4291  0.0950  0.2019
  828SOL     hw 3311   1.907   6.082   4.460  0.3179  0.5409 -0.2042
  828SOL     vw 3312   1.904   6.073   4.547 -0.0746  0.1113 -0.2625
  829SOL     ow 3313   4.537   3.261   1.640  0.6034  0.3332 -0.1640
  829SOL     hw 3314   4.545   3.226   1.551  0.6109 -1.8457  0.6420
  829SOL     hw 3315   4.591   3.340   1.639 -0.5780  1.2479 -2.4823
  829SOL     vw 3316   4.545   3.267   1.628  0.4487  0.1665 -0.3635
  830SOL     ow 3317   6.092   1.703   6.234 -0.1889 -0.0272 -0.2249
  830SOL     hw 3318   6.050   1.642   6.173  0.7913 -1.4915  0.5257
  830SOL     hw 3319   6.020   1.745   6.280 -0.8671 -1.8922  0.4632
  830SOL     vw 3320   6.077   1.701   6.232 -0.1488 -0.4664 -0.0353
  831SOL     ow 3321   0.826   4.000   5.362 -0.5843  0.7619  0.0842
  831SOL     hw 3322   0.844   4.067   5.428  1.8296  1.9564 -1.6434
  831SOL     hw 3323   0.741   4.023   5.327 -1.2652  0.9368  1.7378
  831SOL     vw 3324   0.817   4.012   5.366 -0.3556  0.9425  0.0744
  832SOL     ow 3325   3.307   1.398   1.719  0.3668 -0.0834 -0.1457
  832SOL     hw 3326   3.307   1.470   1.657  0.7180  1.3515  1.4424
  832SOL     hw 3327   3.243   1.336   1.684  0.5129  0.6834 -1.8698
  832SOL     vw 3328   3.298   1.399   1.707  0.4324  0.2071 -0.1636
  833SOL     ow 3329   2.104   6.665   5.815  0.6186  0.0158 -0.3074
  833SOL     hw 3330   2.191   6.694   5.787  0.4980  1.3214  0.6050
  833SOL     hw 3331   2.043   6.708   5.754  0.6254 -1.7392 -1.6231
  833SOL     vw 3332   2.107   6.675   5.803  0.6037 -0.0436 -0.3607
  834SOL     ow 3333   1.960   0.481   3.953 -0.2081  0.0900  0.2071
  834SOL     hw 3334   1.928   0.520   3.871  0.9227 -0.9115 -0.7529
  834SOL     hw 3335   1.974   0.556   4.011 -1.4143  0.7872 -0.3674
  834SOL     vw 3336   1.958   0.496   3.950 -0.2181  0.0499  0.0046
  835SOL     ow 3337   4.269   2.636   5.637 -0.0831  0.0182  0.4413
  835SOL     hw 3338   4.179   2.656   5.611  0.4991  0.6623 -1.1884
  835SOL     hw 3339   4.285   2.692   5.712 -0.6456  0.8106 -0.0169
  835SOL     vw 3340   4.259   2.646   5.643 -0.0803  0.2078  0.1662
  836SOL     ow 3341   6.749   6.132   6.180 -0.5762 -0.5260  0.1821
  836SOL     hw 3342   6.777   6.129   6.088 -2.0409  2.2037 -0.4653
  836SOL     hw 3343   6.654   6.147   6.175 -0.5381  0.6286  2.0943
  836SOL     vw 3344   6.740   6.134   6.167 -0.7646 -0.0136  0.3493
  837SOL     ow 3345   4.702   0.185   2.707  0.0232 -1.0620  0.0158
  837SOL     hw 3346   4.617   0.146   2.688 -1.3718  0.1222  3.1866
  837SOL     hw 3347   4.756   0.111   2.736 -1.1386 -1.3303  1.5739
  837SOL     vw 3348   4.698   0.170   2.708 -0.3142 -0.9411  0.6398
  838SOL     ow 3349   6.995   3.434   2.432 -0.6608  0.5250  1.1724
  838SOL     hw 3350   7.029   3.371   2.496 -1.7523 -0.3096  0.9746
  838SOL     hw 3351   6.946   3.380   2.370  1.4041  1.1345 -1.1528
  838SOL     vw 3352   6.993   3.418   2.432 -0.5324  0.4954  0.8394
  839SOL     ow 3353   6.788   0.953   4.686 -0.0424  0.0248 -0.5709
  839SOL     hw 3354   6.728   0.985   4.754  1.5290  0.9628  0.4201
  839SOL     hw 3355   6.734   0.894   4.633 -1.6626  0.3064  0.6861
  839SOL     vw 3356   6.773   0.949   4.688 -0.0486  0.1857 -0.2742
  840SOL     ow 3357   1.709   5.485   2.463  0.3016 -0.0246 -0.0947
  840SOL     hw 3358   1.714   5.390   2.448  2.3030  0.1221 -0.6426
  840SOL     hw 3359   1.717   5.524   2.376  4.1053  0.6772  0.4153
  840SOL     vw 3360   1.711   5.477   2.450  1.0675  0.0875 -0.0997
  841SOL     ow 3361   5.877   6.883   6.062 -0.1115  0.4943  0.1467
  841SOL     hw 3362   5.959   6.904   6.016 -1.5150  3.4884 -1.2666
  841SOL     hw 3363   5.816   6.859   5.992 -1.6007  2.6698  0.6050
  841SOL     vw 3364   5.880   6.882   6.047 -0.4933  1.1766  0.0207
  842SOL     ow 3365   3.870   5.266   0.893  0.5976  0.4990 -0.1415
  842SOL     hw 3366   3.827   5.327   0.833 -0.2956  0.2052  0.1846
  842SOL     hw 3367   3.804   5.247   0.960  1.5249  0.7082  0.8600
  842SOL     vw 3368   3.855   5.271   0.894  0.6020  0.4880  0.0337
  843SOL     ow 3369   1.505   6.438   0.170 -0.3700 -0.0320 -0.4508
  843SOL     hw 3370   1.569   6.421   0.102  0.8117  0.4971  0.5005
  843SOL     hw 3371   1.553   6.483   0.239 -1.7497  0.3390  0.3215
  843SOL     vw 3372   1.520   6.442   0.170 -0.3961  0.0865 -0.2234
  844SOL     ow 3373   1.400   6.597   3.808  0.1340 -0.4860  0.0674
  844SOL     hw 3374   1.432   6.606   3.898 -1.4412 -0.7214  0.6922
  844SOL     hw 3375   1.420   6.506   3.785 -0.5375 -0.8004  0.6603
  844SOL     vw 3376   1.407   6.586   3.817 -0.1624 -0.5589  0.2280
  845SOL     ow 3377   3.527   2.102   5.536 -0.2803  0.7466  0.4816
  845SOL     hw 3378   3.613   2.120   5.499  1.0499 -0.7336  2.6409
  845SOL     hw 3379   3.501   2.018   5.498  0.4038 -0.0282  1.6580
  845SOL     vw 3380   3.535   2.094   5.526 -0.0145  0.4492  0.9215
  846SOL     ow 3381   6.405   4.584   0.716  0.2941  0.0363  0.5831
  846SOL     hw 3382   6.358   4.555   0.638  3.0915  1.5436 -1.8713
  846SOL     hw 3383   6.457   4.508   0.742 -0.4333 -0.3872  0.8190
  846SOL     vw 3384   6.406   4.570   0.709  0.5674  0.1795  0.2904
  847SOL     ow 3385   5.992   4.215   1.870  0.7867 -0.7787  0.6093
  847SOL     hw 3386   6.038   4.178   1.795  0.4588  2.5527 -1.4349
  847SOL     hw 3387   6.027   4.304   1.879  0.4347 -0.8307  4.1572
  847SOL     vw 3388   6.003   4.222   1.862  0.6974 -0.3462  0.8078
  848SOL     ow 3389   2.886   1.642   3.469  0.7532  0.0348 -0.5447
  848SOL     hw 3390   2.901   1.663   3.377  1.4331 -0.1494 -0.4824
  848SOL     hw 3391   2.800   1.600   3.471  0.2217  1.0663 -0.9366
  848SOL     vw 3392   2.877   1.640   3.457  0.7728  0.1466 -0.5883
  849SOL     ow 3393   4.834   6.076   6.660 -0.2520 -0.0306  0.7740
  849SOL     hw 3394   4.871   6.091   6.573  0.6398  1.5762  1.3978
  849SOL     hw 3395   4.741   6.059   6.644  0.1966 -1.4395 -0.6071
  849SOL     vw 3396   4.827   6.076   6.647 -0.0751 -0.0045  0.6738
  850SOL     ow 3397   1.361   6.342   5.972 -0.3637 -0.2417  0.2805
  850SOL     hw 3398   1.324   6.423   6.006 -0.3425 -0.3077  0.4627
  850SOL     hw 3399   1.327   6.274   6.030 -0.3362 -0.3562  0.1631
  850SOL     vw 3400   1.352   6.343   5.984 -0.3573 -0.2654  0.2890
  851SOL     ow 3401   1.344   1.070   1.308  0.4373  0.0074  0.1147
  851SOL     hw 3402   1.369   1.162   1.308  1.6840 -0.3026 -0.4735
  851SOL     hw 3403   1.380   1.036   1.390 -1.8197  0.4595  1.3574
  851SOL     vw 3404   1.352   1.078   1.319  0.3040  0.0262  0.2010
  852SOL     ow 3405   2.940   3.778   5.714  0.5811 -0.0245  0.7944
  852SOL     hw 3406   2.920   3.872   5.713  1.8918  0.2783  0.8492
  852SOL     hw 3407   2.864   3.736   5.674  0.4893  1.1651 -0.3198
  852SOL     vw 3408   2.927   3.785   5.709  0.7420  0.1725  0.6547
  853SOL     ow 3409   6.979   3.564   0.710 -0.0478  0.3760  0.8103
  853SOL     hw 3410   6.926   3.613   0.648  0.4929  0.0260  0.0485
  853SOL     hw 3411   6.933   3.482   0.722  0.8246 -0.3804 -0.6945
  853SOL     vw 3412   6.966   3.560   0.703  0.1386  0.2301  0.5113
  854SOL     ow 3413   4.394   2.989   0.566  0.4175 -0.7654  0.5246
  854SOL     hw 3414   4.473   2.992   0.621  0.0808  0.7433  0.9519
  854SOL     hw 3415   4.425   3.010   0.478  0.4054  0.5615  0.8197
  854SOL     vw 3416   4.409   2.992   0.562  0.3715 -0.3912  0.6199
  855SOL     ow 3417   1.759   4.989   6.401  0.3978  0.0606 -0.0801
  855SOL     hw 3418   1.815   4.941   6.462  1.8729  1.7740  0.0042
  855SOL     hw 3419   1.721   4.922   6.345  2.6984 -1.2126 -0.2476
  855SOL     vw 3420   1.762   4.974   6.401  0.8959  0.1187 -0.0913
  856SOL     ow 3421   5.372   3.637   0.359  0.3848  0.1879  0.3260
  856SOL     hw 3422   5.387   3.579   0.284 -0.4591 -0.6029  0.7509
  856SOL     hw 3423   5.431   3.711   0.345  0.8194 -0.3441 -0.6979
  856SOL     vw 3424   5.382   3.639   0.347  0.3307  0.0134  0.2470
  857SOL     ow 3425   6.749   2.128   0.940  0.0602 -0.0337 -0.1526
  857SOL     hw 3426   6.804   2.204   0.959  1.1133 -1.2951  2.2901
  857SOL     hw 3427   6.674   2.138   0.999 -1.0896  0.3007 -1.5846
  857SOL     vw 3428   6.746   2.139   0.950  0.0474 -0.1559 -0.0193
  858SOL     ow 3429   3.034   3.508   3.405 -0.1104 -0.4948  0.0985
  858SOL     hw 3430   3.069   3.596   3.392  0.9775 -0.8922  0.1501
  858SOL     hw 3431   2.945   3.521   3.437  0.9799  0.6413  3.0195
  858SOL     vw 3432   3.027   3.521   3.407  0.1770 -0.3973  0.4908
  859SOL     ow 3433   0.228   4.311   0.340 -0.0347  0.0540 -0.3227
  859SOL     hw 3434   0.282   4.247   0.293  0.3532 -0.0998  0.3157
  859SOL     hw 3435   0.148   4.263   0.362 -0.0593  0.0142 -0.4977
  859SOL     vw 3436   0.224   4.296   0.337  0.0132  0.0286 -0.2616
  860SOL     ow 3437   5.566   5.449   3.516  0.1010  0.5021 -0.8245
  860SOL     hw 3438   5.559   5.532   3.563 -0.8239 -0.2050  0.3653
  860SOL     hw 3439   5.642   5.459   3.459 -0.0784  2.1999 -0.8070
  860SOL     vw 3440   5.575   5.461   3.515 -0.0446  0.6328 -0.6653
  861SOL     ow 3441   5.315   4.419   2.873 -0.1208  0.1672  0.8267
  861SOL     hw 3442   5.328   4.335   2.830 -1.9359  0.5666 -0.6714
  861SOL     hw 3443   5.234   4.408   2.923 -1.4738  1.4804 -0.9097
  861SOL     vw 3444   5.306   4.406   2.874 -0.5388  0.3934  0.3998
  862SOL     ow 3445   4.803   1.050   5.447  0.8401 -0.0955 -0.3563
  862SOL     hw 3446   4.883   1.024   5.492 -0.2324 -1.5959  0.8158
  862SOL     hw 3447   4.758   0.968   5.429 -1.2149  0.7441  0.5772
  862SOL     vw 3448   4.807   1.036   5.451  0.4272 -0.1826 -0.0787
  863SOL     ow 3449   0.279   5.174   0.169 -0.0800  0.1458 -0.7049
  863SOL     hw 3450   0.342   5.239   0.199 -0.5948  1.2736 -1.9542
  863SOL     hw 3451   0.333   5.107   0.127  0.3608  0.6504 -0.9676
  863SOL     vw 3452   0.295   5.174   0.167 -0.0898  0.3612 -0.9044
  864SOL     ow 3453   1.886   3.170   3.180 -0.5017 -0.1508  0.4721
  864SOL     hw 3454   1.962   3.212   3.219 -1.2379  2.8131 -1.0164
  864SOL     hw 3455   1.820   3.170   3.250  0.3052 -1.3139  1.2782
  864SOL     vw 3456   1.887   3.175   3.195 -0.4923  0.0868  0.3819
  865SOL     ow 3457   0.138   0.813   0.430 -0.4228  0.4528 -0.2861
  865SOL     hw 3458   0.213   0.837   0.485  0.1019 -1.5320 -0.0505
  865SOL     hw 3459   0.171   0.818   0.341 -0.6786  1.7142 -0.3224
  865SOL     vw 3460   0.152   0.816   0.426 -0.3873  0.3574 -0.2598
  866SOL     ow 3461   1.705   4.803   3.528 -0.1115 -0.1097  0.8180
  866SOL     hw 3462   1.727   4.747   3.454 -0.2232  2.3267 -1.2179
  866SOL     hw 3463   1.625   4.765   3.564 -0.4151 -1.0433 -0.7283
  866SOL     vw 3464   1.697   4.791   3.523 -0.1664  0.0885  0.3455
  867SOL     ow 3465   3.921   1.123   2.344 -1.2461  0.0520 -0.6142
  867SOL     hw 3466   3.936   1.144   2.436 -3.3277  1.3193 -0.5064
  867SOL     hw 3467   3.869   1.043   2.347 -1.3808  0.1376 -0.6959
  867SOL     vw 3468   3.916   1.115   2.357 -1.5385  0.2306 -0.6107
  868SOL     ow 3469   2.131   3.517   1.825 -0.7379 -0.0590 -0.2355
  868SOL     hw 3470   2.226   3.511   1.837 -0.9626 -0.7785  1.4215
  868SOL     hw 3471   2.120   3.589   1.763  0.8707  0.4062 -0.0418
  868SOL     vw 3472   2.142   3.526   1.819 -0.5554 -0.0926  0.0086
  869SOL     ow 3473   3.143   0.061   5.493  0.7227  0.0281  0.4463
  869SOL     hw 3474   3.209  -0.002   5.467  1.8089  0.6495  1.6004
  869SOL     hw 3475   3.177   0.101   5.573  0.1952  2.2504 -0.3584
  869SOL     vw 3476   3.156   0.058   5.500  0.7963  0.4033  0.4921
  870SOL     ow 3477   0.249   6.095   6.811 -0.0069  0.0234  0.6522
  870SOL     hw 3478   0.169   6.060   6.772 -0.5429  3.4437 -1.8268
  870SOL     hw 3479   0.227   6.104   6.904 -1.2659 -2.0539  0.6249
  870SOL     vw 3480   0.235   6.092   6.818 -0.2437  0.2005  0.3214
  871SOL     ow 3481   0.003   6.230   6.399  0.2167 -0.2674  0.2119
  871SOL     hw 3482   0.021   6.309   6.451  1.2724 -1.1680  1.2727
  871SOL     hw 3483   0.073   6.227   6.334  0.2528 -0.3979  0.2565
  871SOL     vw 3484   0.014   6.240   6.398  0.3607 -0.4034  0.3579
  872SOL     ow 3485   6.006   4.556   0.854  0.6245  0.3319  0.1029
  872SOL     hw 3486   6.068   4.548   0.782 -0.7867  0.2063 -1.1626
  872SOL     hw 3487   6.050   4.518   0.929  1.9936  0.0979 -0.7912
  872SOL     vw 3488   6.020   4.550   0.855  0.6189  0.2847 -0.1820
  873SOL     ow 3489   5.325   3.999   3.783  0.1384  0.4695  0.3640
  873SOL     hw 3490   5.385   4.019   3.711  0.7575  0.1451  0.7856
  873SOL     hw 3491   5.339   4.069   3.846  2.3604 -1.1972  1.8750
  873SOL     vw 3492   5.335   4.011   3.782  0.5133  0.2069  0.6189
  874SOL     ow 3493   1.936   3.402   3.997 -0.4140  0.1036 -0.7714
  874SOL     hw 3494   1.906   3.403   4.087  0.1994  1.9573 -0.5322
  874SOL     hw 3495   1.860   3.428   3.945 -0.2414  1.1076 -0.5468
  874SOL     vw 3496   1.922   3.406   4.002 -0.3103  0.4807 -0.7100
  875SOL     ow 3497   2.951   0.419   1.554 -0.2059  0.4124  0.4275
  875SOL     hw 3498   2.984   0.508   1.567 -1.9880  1.3874 -1.1806
  875SOL     hw 3499   2.978   0.396   1.465  0.4594 -0.7845  0.9125
  875SOL     vw 3500   2.959   0.428   1.544 -0.3533  0.3832  0.2794
  876SOL     ow 3501   6.227   3.943   0.702 -0.6248  0.0235  0.2530
  876SOL     hw 3502   6.268   3.878   0.759 -1.9991  0.4672  1.8281
  876SOL     hw 3503   6.285   3.947   0.626 -1.3523 -4.3754 -0.8467
  876SOL     vw 3504   6.240   3.935   0.699 -0.9024 -0.4984  0.3157
  877SOL     ow 3505   4.031   2.169   1.464  0.2020  0.1128  0.2759
  877SOL     hw 3506   3.953   2.113   1.469  0.6661 -0.8539 -2.1471
  877SOL     hw 3507   4.086   2.139   1.537 -0.8429 -0.5253  0.8307
  877SOL     vw 3508   4.028   2.157   1.475  0.1252 -0.0991  0.0294
  878SOL     ow 3509   6.103   6.938   5.127 -0.0888  0.7237 -0.2749
  878SOL     hw 3510   6.137   6.935   5.038 -0.0795 -1.1884 -0.2504
  878SOL     hw 3511   6.078   6.847   5.146  0.7955  0.8939  1.9997
  878SOL     vw 3512   6.104   6.925   5.118  0.0288  0.4938  0.0279
  879SOL     ow 3513   1.520   1.056   6.035  0.3432  0.3620  0.1989
  879SOL     hw 3514   1.582   1.081   6.103  0.0641  0.2867  0.4835
  879SOL     hw 3515   1.472   1.137   6.016  1.6163  0.8436 -1.1918
  879SOL     vw 3516   1.522   1.070   6.041  0.4744  0.4156  0.0532
  880SOL     ow 3517   5.236   6.198   1.600 -0.0189  0.6650 -0.7184
  880SOL     hw 3518   5.144   6.221   1.586  0.3699  1.4608 -2.2778
  880SOL     hw 3519   5.234   6.105   1.625 -1.3322  1.1120  1.0399
  880SOL     vw 3520   5.223   6.189   1.601 -0.1409  0.8292 -0.6921
  881SOL     ow 3521   0.091   2.278   1.575 -0.2764 -0.0806 -0.0205
  881SOL     hw 3522   0.169   2.324   1.543  0.0511 -0.9234 -0.4710
  881SOL     hw 3523   0.017   2.325   1.536  0.0933 -0.8174 -1.6902
  881SOL     vw 3524   0.092   2.290   1.566 -0.1844 -0.2888 -0.3003
  882SOL     ow 3525   3.185   2.585   2.715 -0.3751  0.3069 -0.0241
  882SOL     hw 3526   3.182   2.489   2.711  1.0417  0.2799 -2.3250
  882SOL     hw 3527   3.245   2.604   2.787  2.1039 -0.7063 -1.6846
  882SOL     vw 3528   3.193   2.574   2.724  0.1390  0.1696 -0.5468
  883SOL     ow 3529   3.959   4.569   1.032 -0.2924  0.3616  0.6130
  883SOL     hw 3530   3.957   4.626   1.110  0.6551 -0.1995  1.0627
  883SOL     hw 3531   3.871   4.579   0.994 -0.3792  1.5829  1.0622
  883SOL     vw 3532   3.947   4.578   1.037 -0.1788  0.4485  0.7315
  884SOL     ow 3533   3.812   0.744   2.763 -0.0565  0.7511  0.2513
  884SOL     hw 3534   3.759   0.710   2.835 -2.9604  1.3610 -1.4187
  884SOL     hw 3535   3.788   0.837   2.758  2.9726  1.6622  0.7980
  884SOL     vw 3536   3.802   0.752   2.771 -0.0399  0.9518  0.1031
  885SOL     ow 3537   2.704   0.545   2.861 -0.0992  0.4059  0.3103
  885SOL     hw 3538   2.705   0.482   2.789 -1.2579  0.0577  0.5877
  885SOL     hw 3539   2.658   0.621   2.826 -0.2522  0.4184  0.5408
  885SOL     vw 3540   2.698   0.547   2.847 -0.2724  0.3615  0.3773
  886SOL     ow 3541   0.672   3.259   2.462 -0.2643 -1.0300  0.0079
  886SOL     hw 3542   0.580   3.283   2.456  0.2451  0.7988 -1.2403
  886SOL     hw 3543   0.696   3.233   2.373  1.7075  3.9646 -1.2711
  886SOL     vw 3544   0.663   3.258   2.449  0.0630 -0.1297 -0.3257
  887SOL     ow 3545   5.879   3.678   1.416 -0.4598  0.6393  0.4982
  887SOL     hw 3546   5.966   3.714   1.402  0.1980 -0.7829  0.7523
  887SOL     hw 3547   5.821   3.735   1.365  0.6831  1.2565 -0.1554
  887SOL     vw 3548   5.883   3.690   1.407 -0.2220  0.5331  0.4455
  888SOL     ow 3549   0.117   3.032   3.981  0.5556  1.1056 -1.0300
  888SOL     hw 3550   0.023   3.027   3.998  0.8842 -0.1630  0.7984
  888SOL     hw 3551   0.133   2.966   3.914  0.3862 -0.2647  0.2150
  888SOL     vw 3552   0.107   3.022   3.974  0.5766  0.7575 -0.6244
  889SOL     ow 3553   1.874   2.443   6.499 -0.0315 -0.3637 -0.8429
  889SOL     hw 3554   1.953   2.456   6.551  0.1048 -2.5586 -0.3911
  889SOL     hw 3555   1.894   2.481   6.414 -0.3454  3.5532  0.6473
  889SOL     vw 3556   1.887   2.449   6.495 -0.0550 -0.1365 -0.5870
  890SOL     ow 3557   3.491   0.417   5.028 -0.1371 -0.3873 -0.6797
  890SOL     hw 3558   3.505   0.401   5.122  1.9601  2.9119 -0.2839
  890SOL     hw 3559   3.426   0.487   5.025  1.1357  0.8149 -1.5323
  890SOL     vw 3560   3.484   0.424   5.040  0.3077  0.2066 -0.7401
  891SOL     ow 3561   4.124   5.287   1.709 -0.3528 -0.3275 -0.5857
  891SOL     hw 3562   4.137   5.300   1.803 -1.7290  1.0217 -0.5323
  891SOL     hw 3563   4.145   5.195   1.694  1.6634 -0.1248  0.6908
  891SOL     vw 3564   4.128   5.276   1.720 -0.2685 -0.1225 -0.4103
  892SOL     ow 3565   5.208   1.317   4.276  0.3701 -0.1414  0.0162
  892SOL     hw 3566   5.218   1.409   4.301 -0.4276  0.4512 -1.7047
  892SOL     hw 3567   5.258   1.269   4.342  1.0016  1.5328  0.8179
  892SOL     vw 3568   5.216   1.323   4.288  0.3483  0.1577 -0.1049
  893SOL     ow 3569   6.292   2.644   0.736 -0.3007 -0.3219  0.3619
  893SOL     hw 3570   6.248   2.567   0.699 -0.0573 -0.5961  0.6458
  893SOL     hw 3571   6.382   2.637   0.705 -0.3077 -0.0809  0.2843
  893SOL     vw 3572   6.298   2.633   0.727 -0.2694 -0.3262  0.3891
  894SOL     ow 3573   4.178   1.504   2.421  0.0275 -0.0831 -0.0824
  894SOL     hw 3574   4.102   1.558   2.401  0.3418  0.3949 -0.0027
  894SOL     hw 3575   4.142   1.417   2.440 -0.4947  0.1472 -0.0116
  894SOL     vw 3576   4.164   1.500   2.421  0.0000  0.0104 -0.0626
  895SOL     ow 3577   5.635   0.610   5.401 -0.1784 -0.0228  0.3362
  895SOL     hw 3578   5.615   0.529   5.353  0.8361 -0.6083  0.8634
  895SOL     hw 3579   5.581   0.604   5.480  2.4803 -2.0135  2.1777
  895SOL     vw 3580   5.625   0.598   5.405  0.3066 -0.3627  0.6487
  896SOL     ow 3581   5.378   6.824   5.828 -0.0148 -1.0421  0.0078
  896SOL     hw 3582   5.296   6.867   5.803  0.7541  0.8366  0.5666
  896SOL     hw 3583   5.368   6.735   5.796 -2.3168 -0.9068  0.1184
  896SOL     vw 3584   5.366   6.818   5.821 -0.2170 -0.7765  0.0961
  897SOL     ow 3585   5.075   4.407   0.083 -0.5657  0.2727  0.0493
  897SOL     hw 3586   5.120   4.413  -0.001 -0.1903 -1.1960  0.1241
  897SOL     hw 3587   4.999   4.464   0.073  0.6915  1.9654 -0.4557
  897SOL     vw 3588   5.071   4.415   0.071 -0.3500  0.3023 -0.0074
  898SOL     ow 3589   2.280   6.238   2.182 -0.2005 -0.9826  0.0656
  898SOL     hw 3590   2.327   6.262   2.262 -0.8721  0.6808  0.0054
  898SOL     hw 3591   2.349   6.227   2.116  0.2176  0.3585  0.2384
  898SOL     vw 3592   2.295   6.240   2.184 -0.2340 -0.5863  0.0806
  899SOL     ow 3593   0.067   1.453   4.002 -0.6032 -0.4108  0.0817
  899SOL     hw 3594   0.075   1.514   4.075 -0.8712  0.0764 -0.2824
  899SOL     hw 3595   0.055   1.367   4.043 -1.9597  0.0083  0.6356
  899SOL     vw 3596   0.066   1.450   4.017 -0.8175 -0.2912  0.1066
  900SOL     ow 3597   3.987   2.767   4.737 -0.0518 -0.1388 -0.5113
  900SOL     hw 3598   4.077   2.786   4.709  0.7258 -0.4493  1.5153
  900SOL     hw 3599   3.996   2.687   4.789 -1.4920 -0.0955 -0.1715
  900SOL     vw 3600   4.000   2.759   4.740 -0.1392 -0.1742 -0.1988
  901SOL     ow 3601   4.907   3.901   1.272  0.1075 -0.4627  0.0226
  901SOL     hw 3602   4.955   3.954   1.335 -0.8785  0.5375 -0.0371
  901SOL     hw 3603   4.953   3.915   1.189  0.1424 -0.0794  0.1039
  901SOL     vw 3604   4.919   3.910   1.269 -0.0179 -0.2800  0.0255
  902SOL     ow 3605   2.135   5.873   6.300  0.0458  0.3274 -0.5730
  902SOL     hw 3606   2.044   5.876   6.273 -0.3970 -2.8292  0.1895
  902SOL     hw 3607   2.179   5.936   6.243 -2.5638  1.9738 -0.9277
  902SOL     vw 3608   2.129   5.882   6.289 -0.3570  0.1278 -0.5190
  903SOL     ow 3609   1.181   2.855   1.587 -0.2268  0.5974 -0.0264
  903SOL     hw 3610   1.140   2.814   1.663 -0.8703  1.2012 -0.0353
  903SOL     hw 3611   1.136   2.939   1.578  0.4823  0.9343 -0.5192
  903SOL     vw 3612   1.170   2.860   1.596 -0.2182  0.7215 -0.0926
  904SOL     ow 3613   4.591   6.777   2.078  0.0653  0.0422 -0.1506
  904SOL     hw 3614   4.646   6.834   2.026  0.7508 -0.5023 -0.0304
  904SOL     hw 3615   4.552   6.835   2.144 -0.8356  0.7382 -1.2651
  904SOL     vw 3616   4.593   6.792   2.080  0.0370  0.0622 -0.2817
  905SOL     ow 3617   0.118   0.509   5.270  0.5262  0.2754  0.3472
  905SOL     hw 3618   0.124   0.482   5.362  0.7651 -0.4384  0.1226
  905SOL     hw 3619   0.024   0.517   5.254  0.4962  0.9767  0.8128
  905SOL     vw 3620   0.106   0.507   5.280  0.5537  0.2738  0.3788
  906SOL     ow 3621   2.039   0.436   0.755 -0.0839 -0.0233 -0.4447
  906SOL     hw 3622   1.955   0.389   0.756  0.0058 -0.1825 -0.3482
  906SOL     hw 3623   2.060   0.450   0.847 -0.5307  0.9716 -0.4777
  906SOL     vw 3624   2.030   0.432   0.767 -0.1312  0.0869 -0.4363
  907SOL     ow 3625   4.439   4.783   0.493  0.8884 -0.2520  0.2575
  907SOL     hw 3626   4.432   4.797   0.398  0.8429 -1.2783  0.0974
  907SOL     hw 3627   4.410   4.692   0.506  0.7839 -0.0836  1.2703
  907SOL     vw 3628   4.434   4.773   0.482  0.8688 -0.3653  0.3700
  908SOL     ow 3629   0.061   4.286   3.782 -0.1120 -0.3314  0.5234
  908SOL     hw 3630   0.036   4.250   3.866  0.7779  0.2129  1.0419
  908SOL     hw 3631   0.148   4.251   3.765  0.7181  1.4084  0.9810
  908SOL     vw 3632   0.069   4.277   3.791  0.1149 -0.0300  0.6522
  909SOL     ow 3633   3.756   6.770   0.907 -0.9001 -0.1452  0.0107
  909SOL     hw 3634   3.843   6.809   0.914 -1.2486  1.2282 -2.2944
  909SOL     hw 3635   3.769   6.677   0.928  1.0822  0.0815 -0.0623
  909SOL     vw 3636   3.769   6.763   0.910 -0.6846  0.0658 -0.3031
  910SOL     ow 3637   4.532   2.801   3.188 -0.3481 -0.7057  0.3775
  910SOL     hw 3638   4.532   2.771   3.097 -1.9365  0.6431 -0.1306
  910SOL     hw 3639   4.455   2.858   3.194  0.7457  0.7173  2.0612
  910SOL     vw 3640   4.522   2.805   3.177 -0.4137 -0.3401  0.5326
  911SOL     ow 3641   4.985   2.321   6.673  0.4964 -0.4859 -0.0582
  911SOL     hw 3642   4.982   2.307   6.578 -0.2492  0.7022 -0.2310
  911SOL     hw 3643   4.899   2.293   6.704  0.6872 -0.7381  0.2533
  911SOL     vw 3644   4.973   2.316   6.665  0.4232 -0.3624 -0.0398
  912SOL     ow 3645   0.903   4.203   1.894 -0.0713  0.2476 -0.3585
  912SOL     hw 3646   0.989   4.211   1.852 -0.4975  1.7704 -1.0272
  912SOL     hw 3647   0.908   4.263   1.969 -1.1380  1.8448 -1.5024
  912SOL     vw 3648   0.915   4.212   1.898 -0.2682  0.6592 -0.5977
  913SOL     ow 3649   2.586   1.473   6.412  0.3061  0.3305  0.2283
  913SOL     hw 3650   2.577   1.557   6.457  1.4965  2.4433 -3.0510
  913SOL     hw 3651   2.670   1.480   6.365 -1.2132 -1.1159 -3.0272
  913SOL     vw 3652   2.596   1.485   6.411  0.2627  0.4184 -0.6340
  914SOL     ow 3653   2.604   4.455   1.459 -0.2896  0.3375  0.6170
  914SOL     hw 3654   2.604   4.405   1.541  2.9719  1.8665  1.7304
  914SOL     hw 3655   2.646   4.398   1.396 -0.5324  0.0960  0.6679
  914SOL     vw 3656   2.609   4.441   1.462  0.1087  0.5078  0.7707
  915SOL     ow 3657   3.306   3.011   1.177  0.2223  0.2906  0.3974
  915SOL     hw 3658   3.298   2.916   1.178 -0.4376  0.3427  0.6540
  915SOL     hw 3659   3.314   3.036   1.269  1.1346  0.4326  0.2899
  915SOL     vw 3660   3.306   3.002   1.189  0.2556  0.3163  0.4171
  916SOL     ow 3661   1.507   0.902   4.280  0.1670  0.0117  0.7255
  916SOL     hw 3662   1.456   0.853   4.215  1.2276 -1.5678  1.0270
  916SOL     hw 3663   1.450   0.906   4.357  0.0123 -0.6171  0.6452
  916SOL     vw 3664   1.492   0.896   4.282  0.2865 -0.2796  0.7551
  917SOL     ow 3665   6.805   1.168   4.441 -0.7661 -0.4794  0.1583
  917SOL     hw 3666   6.792   1.132   4.353 -1.7169  0.2414 -0.0080
  917SOL     hw 3667   6.740   1.237   4.449  1.8985  2.3033 -0.1072
  917SOL     vw 3668   6.795   1.172   4.430 -0.5398 -0.0172  0.1013
  918SOL     ow 3669   4.903   2.676   0.195 -0.6468  0.1505 -0.2549
  918SOL     hw 3670   4.913   2.581   0.201 -0.8795  0.1037 -0.5596
  918SOL     hw 3671   4.991   2.710   0.180 -0.5424 -0.0029  0.0002
  918SOL     vw 3672   4.916   2.668   0.194 -0.6640  0.1240 -0.2615
  919SOL     ow 3673   0.803   0.191   4.648 -0.2513 -0.0635  0.3645
  919SOL     hw 3674   0.803   0.158   4.738 -2.0224  0.0255  0.4366
  919SOL     hw 3675   0.715   0.227   4.636  0.7612  2.2691 -0.5771
  919SOL     vw 3676   0.791   0.191   4.659 -0.3514  0.2560  0.2496
  920SOL     ow 3677   4.126   6.374   1.729 -0.0846 -0.1943 -0.5852
  920SOL     hw 3678   4.207   6.357   1.776 -0.7501  0.1773  0.7280
  920SOL     hw 3679   4.071   6.298   1.746 -0.7294  0.4141  0.1662
  920SOL     vw 3680   4.129   6.362   1.737 -0.2577 -0.0651 -0.3128
  921SOL     ow 3681   2.805   2.230   4.484 -0.0471 -0.1424  0.3927
  921SOL     hw 3682   2.756   2.295   4.534  0.5349  1.1499 -0.6370
  921SOL     hw 3683   2.810   2.268   4.396 -1.4141 -2.5212 -0.8104
  921SOL     vw 3684   2.799   2.244   4.479 -0.1507 -0.2859  0.0980
  922SOL     ow 3685   2.770   4.807   4.320  0.2635  0.5691  0.2064
  922SOL     hw 3686   2.679   4.803   4.351 -0.6137  1.5930 -1.9965
  922SOL     hw 3687   2.822   4.820   4.399 -1.5529  0.5111  1.4730
  922SOL     vw 3688   2.765   4.808   4.334 -0.0918  0.6962  0.0827
  923SOL     ow 3689   5.508   6.240   1.412 -0.0201 -0.0217  0.5472
  923SOL     hw 3690   5.462   6.161   1.382  0.8523 -0.4594  0.3296
  923SOL     hw 3691   5.578   6.253   1.348 -1.0943  1.8544 -0.3177
  923SOL     vw 3692   5.511   6.231   1.400 -0.0467  0.1681  0.4044
  924SOL     ow 3693   0.224   2.801   0.879  0.2228 -0.4469  0.3449
  924SOL     hw 3694   0.194   2.772   0.965  0.9693 -0.5367  0.5781
  924SOL     hw 3695   0.235   2.721   0.829  2.2032 -0.6283  0.9630
  924SOL     vw 3696   0.222   2.787   0.884  0.5826 -0.4827  0.4572
  925SOL     ow 3697   2.170   0.087   6.398 -0.5020 -0.1873 -0.2616
  925SOL     hw 3698   2.148   0.026   6.468  0.2108 -0.2358 -0.0739
  925SOL     hw 3699   2.085   0.122   6.369 -0.7699  0.2751  1.0185
  925SOL     vw 3700   2.156   0.084   6.403 -0.4431 -0.1327 -0.0682
  926SOL     ow 3701   5.355   2.529   3.048 -0.1249  0.7128 -0.4989
  926SOL     hw 3702   5.323   2.617   3.028 -0.1669  1.6135  2.8598
  926SOL     hw 3703   5.276   2.477   3.065 -0.0577  0.9665  0.6957
  926SOL     vw 3704   5.341   2.534   3.048 -0.1216  0.8650  0.1018
  927SOL     ow 3705   4.856   6.610   2.006  0.2072  0.3107 -0.3784
  927SOL     hw 3706   4.866   6.541   1.941  0.4379  0.3986 -0.4371
  927SOL     hw 3707   4.906   6.684   1.971  1.3405 -0.0355  0.4536
  927SOL     vw 3708   4.864   6.610   1.993  0.3872  0.2766 -0.2764
  928SOL     ow 3709   0.986   2.153   4.572  1.2720 -0.1841  0.0805
  928SOL     hw 3710   1.063   2.148   4.630  2.0906  0.7844 -0.8769
  928SOL     hw 3711   1.023   2.150   4.484  0.2700  0.9727 -0.4004
  928SOL     vw 3712   1.001   2.152   4.568  1.2478  0.0963 -0.1094
  929SOL     ow 3713   6.927   2.517   6.709  0.1261 -0.0236  0.1008
  929SOL     hw 3714   6.885   2.496   6.626  0.8916 -0.0799 -0.2764
  929SOL     hw 3715   7.009   2.559   6.685 -0.4953  1.7422  0.8266
  929SOL     vw 3716   6.932   2.520   6.695  0.1450  0.2021  0.1466
  930SOL     ow 3717   2.972   4.100   2.694 -0.1974 -0.2847 -0.3522
  930SOL     hw 3718   2.916   4.171   2.726 -0.4353 -0.4931 -0.2999
  930SOL     hw 3719   2.978   4.039   2.768  1.8561  0.7520  0.4023
  930SOL     vw 3720   2.965   4.101   2.708  0.0422 -0.1752 -0.2458
  931SOL     ow 3721   3.308   5.075   0.445  0.1621 -0.1571  0.2937
  931SOL     hw 3722   3.377   5.042   0.388  1.7130 -0.1129  2.0330
  931SOL     hw 3723   3.228   5.069   0.393  1.2986 -1.2694 -1.4104
  931SOL     vw 3724   3.307   5.070   0.431  0.5165 -0.2978  0.2984
  932SOL     ow 3725   1.416   5.638   2.474 -0.0097 -0.0056  0.5932
  932SOL     hw 3726   1.421   5.693   2.395  2.3917  0.5010  0.9934
  932SOL     hw 3727   1.428   5.699   2.546 -1.0520 -0.6153  1.3074
  932SOL     vw 3728   1.419   5.653   2.473  0.1696 -0.0193  0.7402
  933SOL     ow 3729   4.720   2.024   2.767 -0.1246  0.1432 -0.0126
  933SOL     hw 3730   4.801   2.014   2.717  0.7975  0.1849  1.4233
  933SOL     hw 3731   4.663   2.077   2.710  1.1350  0.7762 -0.7316
  933SOL     vw 3732   4.723   2.030   2.752  0.1631  0.2322  0.0818
  934SOL     ow 3733   6.911   3.009   1.793 -0.6565 -0.6678 -0.0594
  934SOL     hw 3734   6.997   3.000   1.833 -1.1471  0.5634  1.3590
  934SOL     hw 3735   6.853   2.956   1.848 -1.5233  1.8433  1.6124
  934SOL     vw 3736   6.914   3.000   1.806 -0.8357 -0.1740  0.3483
  935SOL     ow 3737   3.807   2.508   3.156 -0.1603  0.3586  0.0620
  935SOL     hw 3738   3.721   2.516   3.115  0.6735  3.5976 -1.3992
  935SOL     hw 3739   3.855   2.447   3.100 -1.1167 -0.5854  0.2342
  935SOL     vw 3740   3.802   2.501   3.143 -0.1765  0.6614 -0.1080
  936SOL     ow 3741   3.650   3.401   2.399  0.0877  0.3468  0.0381
  936SOL     hw 3742   3.600   3.409   2.480  0.2127  1.7346  0.0111
  936SOL     hw 3743   3.727   3.456   2.413  1.8021 -1.9842  0.1902
  936SOL     vw 3744   3.654   3.409   2.412  0.3304  0.2222  0.0545
  937SOL     ow 3745   3.999   6.194   6.277  0.3662  0.3467  0.2649
  937SOL     hw 3746   4.046   6.276   6.263 -0.3143  0.7294  0.1825
  937SOL     hw 3747   4.067   6.127   6.276  1.3153  1.1311  2.9316
  937SOL     vw 3748   4.014   6.196   6.275  0.4017  0.5009  0.6058
  938SOL     ow 3749   2.797   4.528   5.419  0.3266  1.2156 -0.7368
  938SOL     hw 3750   2.892   4.526   5.405  0.5950 -0.0839  0.9149
  938SOL     hw 3751   2.787   4.508   5.512 -1.6820 -4.2259 -1.7300
  938SOL     vw 3752   2.809   4.525   5.429  0.0970  0.3262 -0.6499
  939SOL     ow 3753   4.744   6.608   6.200 -0.6595  0.0640  0.4751
  939SOL     hw 3754   4.820   6.580   6.251  0.4893  0.1224 -1.1330
  939SOL     hw 3755   4.762   6.699   6.178 -1.6557  0.3651  0.8429
  939SOL     vw 3756   4.757   6.616   6.204 -0.6392  0.1113  0.3116
  940SOL     ow 3757   0.852   2.518   0.922  0.0443  0.0973  0.1476
  940SOL     hw 3758   0.869   2.471   0.841  1.3182 -0.1705  0.5519
  940SOL     hw 3759   0.870   2.454   0.991  1.2777  0.9991  0.6870
  940SOL     vw 3760   0.857   2.503   0.920  0.3751  0.1808  0.2721
  941SOL     ow 3761   5.224   1.895   1.042  0.6773  0.0735 -0.8934
  941SOL     hw 3762   5.298   1.928   0.991  1.4798  0.6146  0.5596
  941SOL     hw 3763   5.241   1.801   1.050  2.5121  0.5097  1.3525
  941SOL     vw 3764   5.236   1.887   1.036  1.0252  0.2024 -0.4054
  942SOL     ow 3765   4.166   5.833   4.022 -0.4200  0.5393  0.4212
  942SOL     hw 3766   4.093   5.795   3.973 -0.1869  0.5030  0.0977
  942SOL     hw 3767   4.243   5.785   3.991 -0.0996  1.3861 -0.1176
  942SOL     vw 3768   4.166   5.822   4.011 -0.3471  0.6464  0.3073
  943SOL     ow 3769   2.142   6.951   6.004  0.0920  0.3975  0.4807
  943SOL     hw 3770   2.098   7.019   6.056 -1.7014 -0.7034  0.4914
  943SOL     hw 3771   2.212   6.919   6.061  0.9017  2.1195  0.5195
  943SOL     vw 3772   2.145   6.956   6.018 -0.0377  0.4795  0.4871
  944SOL     ow 3773   4.138   4.537   3.317 -0.0799  0.0856 -0.0570
  944SOL     hw 3774   4.199   4.583   3.374 -0.7245  0.3019  0.4833
  944SOL     hw 3775   4.170   4.552   3.229  1.2840 -0.7593  0.2758
  944SOL     vw 3776   4.150   4.545   3.313  0.0153  0.0026  0.0581
  945SOL     ow 3777   4.298   1.770   0.126 -0.0085 -0.7018  0.7026
  945SOL     hw 3778   4.258   1.734   0.047  0.8865 -1.0785  0.4035
  945SOL     hw 3779   4.228   1.769   0.191 -0.2383 -2.2394  0.4706
  945SOL     vw 3780   4.283   1.765   0.124  0.0792 -0.9543  0.6325
  946SOL     ow 3781   1.130   4.915   6.640 -0.4797  1.2682  0.4821
  946SOL     hw 3782   1.140   4.977   6.712 -1.8733  5.3458 -2.3957
  946SOL     hw 3783   1.218   4.909   6.602 -0.2377  1.1374  1.0563
  946SOL     vw 3784   1.143   4.923   6.644 -0.6316  1.7889  0.1781
  947SOL     ow 3785   6.777   3.763   6.827 -0.4422  0.2345 -0.0547
  947SOL     hw 3786   6.811   3.830   6.767 -0.0180 -0.6827 -0.8779
  947SOL     hw 3787   6.711   3.808   6.879 -0.6615  1.1202 -1.0627
  947SOL     vw 3788   6.773   3.778   6.826 -0.4151  0.2303 -0.2964
  948SOL     ow 3789   3.083   4.346   2.566 -0.7147  0.2796 -0.0291
  948SOL     hw 3790   3.107   4.426   2.519  0.6573  0.1924  0.4553
  948SOL     hw 3791   3.007   4.370   2.618 -0.1391  1.3636  0.3350
  948SOL     vw 3792   3.076   4.359   2.566 -0.4579  0.4113  0.0829
  949SOL     ow 3793   5.969   3.811   3.461 -0.2501 -0.3923 -0.2026
  949SOL     hw 3794   5.983   3.796   3.367  1.6306  1.8944 -0.4081
  949SOL     hw 3795   5.922   3.734   3.492  1.3460 -2.4329 -2.5069
  949SOL     vw 3796   5.965   3.799   3.452  0.2086 -0.3598 -0.5338
  950SOL     ow 3797   2.485   0.020   6.402  0.3087 -0.1759 -0.0183
  950SOL     hw 3798   2.521  -0.043   6.340 -0.5027 -0.4523 -0.2234
  950SOL     hw 3799   2.518  -0.008   6.488 -0.2050 -1.0015 -0.0859
  950SOL     vw 3800   2.494   0.008   6.405  0.1339 -0.3214 -0.0541
  951SOL     ow 3801   5.513   1.593   5.190  0.5154 -0.5683 -0.4581
  951SOL     hw 3802   5.596   1.639   5.206  2.1682 -2.4946 -2.7970
  951SOL     hw 3803   5.446   1.656   5.215  2.6531  1.6322  0.1697
  951SOL     vw 3804   5.515   1.608   5.196  1.0152 -0.5322 -0.6840
  952SOL     ow 3805   4.356   5.001   2.212 -0.2950 -0.8093  0.1838
  952SOL     hw 3806   4.388   4.929   2.157  0.6757  0.3153 -0.7762
  952SOL     hw 3807   4.266   5.016   2.181 -0.4729 -1.5230  0.3265
  952SOL     vw 3808   4.348   4.993   2.201 -0.1903 -0.7551  0.0761
  953SOL     ow 3809   5.950   6.886   6.467 -0.4139 -0.1348  0.2264
  953SOL     hw 3810   5.960   6.961   6.408  0.5173  0.2871  0.9045
  953SOL     hw 3811   5.916   6.924   6.548  2.0805 -0.0749  1.3209
  953SOL     vw 3812   5.947   6.901   6.470  0.0381 -0.0713  0.4601
  954SOL     ow 3813   6.237   6.720   6.463  0.1823 -0.1179 -0.6890
  954SOL     hw 3814   6.304   6.690   6.402  2.0586  2.1004  0.0745
  954SOL     hw 3815   6.287   6.746   6.541 -1.6966  0.7904  0.2802
  954SOL     vw 3816   6.253   6.720   6.465  0.1822  0.2942 -0.4604
  955SOL     ow 3817   1.486   5.401   3.458  0.1300 -0.3722 -0.6838
  955SOL     hw 3818   1.579   5.405   3.479 -0.4303 -1.2800  2.4345
  955SOL     hw 3819   1.481   5.341   3.383  2.0587  0.2319 -1.3587
  955SOL     vw 3820   1.498   5.394   3.451  0.3106 -0.4122 -0.3614
  956SOL     ow 3821   2.707   3.057   6.031 -0.2572 -0.4340 -0.7908
  956SOL     hw 3822   2.759   3.134   6.008 -0.6754  0.9542  2.3893
  956SOL     hw 3823   2.652   3.086   6.104 -0.5125 -3.6728  0.4842
  956SOL     vw 3824   2.707   3.071   6.038 -0.3461 -0.6781 -0.2034
  957SOL     ow 3825   2.836   1.572   2.799  0.0609 -0.1720 -0.0089
  957SOL     hw 3826   2.750   1.580   2.841 -0.3003  1.3301 -0.9505
  957SOL     hw 3827   2.894   1.627   2.852 -0.0693  0.5695 -0.6245
  957SOL     vw 3828   2.832   1.580   2.812 -0.0039  0.1240 -0.2145
  958SOL     ow 3829   6.116   5.329   5.058  0.0719  0.4766  0.0230
  958SOL     hw 3830   6.055   5.301   4.989  0.5286  0.8456 -0.5336
  958SOL     hw 3831   6.203   5.315   5.020  0.3218  1.4745  0.2038
  958SOL     vw 3832   6.119   5.323   5.044  0.1652  0.6573 -0.0265
  959SOL     ow 3833   3.014   5.344   2.690 -0.0326  0.5303 -0.1425
  959SOL     hw 3834   2.940   5.376   2.742 -0.1521  0.4088 -0.2371
  959SOL     hw 3835   3.084   5.408   2.706  0.1093  0.2028  0.6032
  959SOL     vw 3836   3.014   5.357   2.699 -0.0297  0.4711 -0.0566
  960SOL     ow 3837   1.844   1.610   0.388 -0.4933 -0.0765  0.3086
  960SOL     hw 3838   1.826   1.703   0.373  0.9816  0.5123  1.8995
  960SOL     hw 3839   1.862   1.604   0.482  0.1632 -1.8517  0.0980
  960SOL     vw 3840   1.844   1.621   0.399 -0.2121 -0.2329  0.4907
  961SOL     ow 3841   5.979   1.516   4.695 -0.3273 -0.2371  0.1464
  961SOL     hw 3842   5.894   1.541   4.659  0.1351  1.4346  0.1237
  961SOL     hw 3843   5.976   1.545   4.786  0.7074  1.1485 -0.2318
  961SOL     vw 3844   5.967   1.523   4.703 -0.1299  0.1662  0.0937
  962SOL     ow 3845   4.251   1.235   1.486 -0.1497  0.5227 -0.0954
  962SOL     hw 3846   4.166   1.226   1.530 -0.5194  0.2429 -0.8562
  962SOL     hw 3847   4.309   1.176   1.534 -0.2561  1.0739  0.7340
  962SOL     vw 3848   4.247   1.226   1.498 -0.2124  0.5586 -0.0864
  963SOL     ow 3849   3.787   1.648   2.997  0.1559  0.1153  0.1854
  963SOL     hw 3850   3.821   1.615   2.914 -1.1820  1.1765 -0.8398
  963SOL     hw 3851   3.863   1.682   3.043  0.9338 -0.6001 -0.5467
  963SOL     vw 3852   3.801   1.648   2.993  0.0819  0.1609 -0.0466
  964SOL     ow 3853   5.210   6.554   0.755 -0.6468  0.0279 -0.3840
  964SOL     hw 3854   5.298   6.516   0.759 -0.1650  1.1319  0.0537
  964SOL     hw 3855   5.151   6.480   0.765  0.2540 -0.5988  0.4612
  964SOL     vw 3856   5.214   6.539   0.757 -0.4647  0.0906 -0.2147
  965SOL     ow 3857   1.904   6.863   5.882 -0.3589  0.1486  0.0072
  965SOL     hw 3858   1.887   6.957   5.883  2.4607  0.7683  1.4919
  965SOL     hw 3859   1.860   6.831   5.804 -2.5504  2.4276  0.1795
  965SOL     vw 3860   1.896   6.871   5.872 -0.2761  0.5310  0.2258
  966SOL     ow 3861   0.986   0.074   3.245 -0.4548 -0.2459 -0.2126
  966SOL     hw 3862   0.946   0.149   3.200  0.5224  1.5587  1.7512
  966SOL     hw 3863   0.938   0.068   3.328 -1.1384 -2.4653 -0.6916
  966SOL     vw 3864   0.974   0.083   3.250 -0.4160 -0.3006 -0.0168
  967SOL     ow 3865   3.496   4.743   1.449 -0.7679 -0.5222 -0.4355
  967SOL     hw 3866   3.433   4.758   1.379 -1.3810  1.7592  0.5086
  967SOL     hw 3867   3.549   4.670   1.419 -1.3185  0.0735 -3.0511
  967SOL     vw 3868   3.495   4.735   1.436 -0.9215 -0.1428 -0.6559
  968SOL     ow 3869   1.596   1.424   0.208  0.0561 -0.3509  0.4399
  968SOL     hw 3870   1.590   1.351   0.147 -1.1245  0.0108  0.1070
  968SOL     hw 3871   1.555   1.498   0.162 -0.5847  0.0079  1.5400
  968SOL     vw 3872   1.590   1.424   0.194 -0.1842 -0.2558  0.5411
  969SOL     ow 3873   4.708   0.291   1.630  0.0430  0.5267  0.2120
  969SOL     hw 3874   4.751   0.373   1.655  0.2458 -0.4956  3.8276
  969SOL     hw 3875   4.779   0.227   1.631 -0.2182  0.1214 -2.0182
  969SOL     vw 3876   4.723   0.294   1.633  0.0353  0.3383  0.3947
  970SOL     ow 3877   2.124   2.722   6.050  0.0790 -0.8116  0.5582
  970SOL     hw 3878   2.188   2.747   5.984  0.4762  0.1123  1.2694
  970SOL     hw 3879   2.167   2.654   6.101  0.8490  0.3837  1.5551
  970SOL     vw 3880   2.138   2.716   6.048  0.2328 -0.5320  0.7837
  971SOL     ow 3881   4.651   5.698   6.160 -0.3022  0.2149  0.9851
  971SOL     hw 3882   4.671   5.619   6.210 -0.3746 -1.3228 -1.2447
  971SOL     hw 3883   4.618   5.760   6.225  0.7870 -1.1781  2.9939
  971SOL     vw 3884   4.649   5.696   6.175 -0.1678 -0.1719  0.9558
  972SOL     ow 3885   3.426   4.243   1.839  0.0020  0.5253  0.2563
  972SOL     hw 3886   3.464   4.305   1.901 -1.9645  0.6965  1.3805
  972SOL     hw 3887   3.499   4.187   1.813  1.2454  1.5612  1.3689
  972SOL     vw 3888   3.441   4.244   1.844 -0.0933  0.6847  0.5515
  973SOL     ow 3889   1.495   6.173   5.760  0.1100  0.0273  0.5002
  973SOL     hw 3890   1.491   6.196   5.667  1.7101  1.8630  0.8228
  973SOL     hw 3891   1.544   6.091   5.762 -1.7631 -1.1717 -0.3822
  973SOL     vw 3892   1.501   6.165   5.748  0.0740  0.1113  0.4263
  974SOL     ow 3893   5.806   0.680   2.938 -0.5656  0.1188  0.8756
  974SOL     hw 3894   5.895   0.658   2.966 -0.8937 -1.8544  0.4667
  974SOL     hw 3895   5.769   0.728   3.012 -0.5480 -2.7393  2.8637
  974SOL     vw 3896   5.813   0.684   2.951 -0.6070 -0.5186  1.0840
  975SOL     ow 3897   2.668   4.808   5.436  0.2954  0.3673 -0.9248
  975SOL     hw 3898   2.674   4.895   5.398  0.2182  0.7282 -0.1417
  975SOL     hw 3899   2.688   4.821   5.529 -2.6734  0.0824 -0.1282
  975SOL     vw 3900   2.672   4.821   5.444 -0.1066  0.3772 -0.7164
  976SOL     ow 3901   2.538   5.679   3.420  0.0655 -0.2370 -0.4111
  976SOL     hw 3902   2.444   5.665   3.425  0.0904 -0.0834  0.5259
  976SOL     hw 3903   2.563   5.712   3.506  1.1920 -1.6075 -0.1681
  976SOL     vw 3904   2.529   5.681   3.432  0.2173 -0.3977 -0.2555
  977SOL     ow 3905   0.535   3.751   4.446 -0.5005  0.3926  0.3274
  977SOL     hw 3906   0.447   3.721   4.424 -0.7221  0.4593  1.1244
  977SOL     hw 3907   0.561   3.699   4.522  0.7093 -0.6342 -0.7303
  977SOL     vw 3908   0.527   3.740   4.453 -0.3701  0.2658  0.2930
  978SOL     ow 3909   5.190   6.348   4.154 -0.4589 -0.5033 -0.2070
  978SOL     hw 3910   5.243   6.427   4.141 -0.3527 -0.6639 -0.8124
  978SOL     hw 3911   5.254   6.277   4.158 -0.5003 -0.4773  1.1648
  978SOL     vw 3912   5.206   6.349   4.153 -0.4504 -0.5207 -0.1059
  979SOL     ow 3913   3.551   1.834   3.061  0.3176 -0.5815 -0.1730
  979SOL     hw 3914   3.609   1.895   3.106 -1.0311 -0.5540  1.6287
  979SOL     hw 3915   3.538   1.873   2.975 -0.4061  1.6595  0.8745
  979SOL     vw 3916   3.557   1.847   3.056  0.0442 -0.2822  0.2029
  980SOL     ow 3917   6.630   6.655   2.480 -0.4679 -0.1302 -0.2180
  980SOL     hw 3918   6.571   6.696   2.417 -1.2933  2.2112  1.9496
  980SOL     hw 3919   6.655   6.725   2.540  0.9620 -2.0552  1.5852
  980SOL     vw 3920   6.626   6.669   2.479 -0.3881 -0.0753  0.3059
  981SOL     ow 3921   4.836   2.659   0.718  0.0046  0.4982  0.3761
  981SOL     hw 3922   4.869   2.748   0.718 -0.7269  0.7770  0.2012
  981SOL     hw 3923   4.813   2.642   0.627  1.1580 -0.2705  0.2012
  981SOL     vw 3924   4.837   2.668   0.706  0.0601  0.4337  0.3299
  982SOL     ow 3925   2.153   2.867   2.476 -0.7802  1.2751  0.1254
  982SOL     hw 3926   2.117   2.807   2.411 -0.1388 -0.5212  1.3490
  982SOL     hw 3927   2.083   2.877   2.540 -0.3378  0.5394  0.7351
  982SOL     vw 3928   2.139   2.860   2.476 -0.6372  0.9412  0.3673
  983SOL     ow 3929   0.862   1.461   4.745 -0.4076  0.0260 -0.2598
  983SOL     hw 3930   0.826   1.488   4.660 -0.3713  1.5829  0.1816
  983SOL     hw 3931   0.851   1.538   4.801 -2.3769 -1.6264  1.8000
  983SOL     vw 3932   0.856   1.475   4.741 -0.6626  0.0134  0.0701
  984SOL     ow 3933   2.118   4.064   6.048 -0.7283 -0.2754 -1.1433
  984SOL     hw 3934   2.156   4.152   6.047 -1.2683  0.0379  0.8226
  984SOL     hw 3935   2.187   4.008   6.085 -1.3467 -0.1009  0.3675
  984SOL     vw 3936   2.132   4.068   6.053 -0.8813 -0.2112 -0.6847
  985SOL     ow 3937   4.921   1.328   4.265  0.3028 -0.1899 -0.2867
  985SOL     hw 3938   4.876   1.249   4.235  1.0517 -0.6875 -0.1284
  985SOL     hw 3939   5.013   1.313   4.243  0.5684  0.2858  0.4725
  985SOL     vw 3940   4.927   1.315   4.258  0.4368 -0.1928 -0.1657
  986SOL     ow 3941   2.916   0.025   5.241 -0.5379 -0.1102  0.0322
  986SOL     hw 3942   2.930  -0.069   5.248 -1.3763 -0.4246 -1.7697
  986SOL     hw 3943   2.847   0.033   5.175  1.2831  1.8465 -1.7968
  986SOL     vw 3944   2.909   0.014   5.233 -0.4082  0.1065 -0.4470
  987SOL     ow 3945   6.708   3.836   5.141 -0.3944  0.3370 -0.0150
  987SOL     hw 3946   6.726   3.764   5.202 -0.7634  0.1952 -0.0727
  987SOL     hw 3947   6.667   3.794   5.066  2.1665  0.1636 -1.4354
  987SOL     vw 3948   6.705   3.821   5.139 -0.1051  0.2954 -0.2100
  988SOL     ow 3949   0.977   4.764   4.446 -0.1426  0.6437 -0.7419
  988SOL     hw 3950   0.973   4.670   4.462  2.2818  0.4692 -0.8872
  988SOL     hw 3951   0.892   4.797   4.477 -0.9609 -1.5276 -0.5035
  988SOL     vw 3952   0.965   4.756   4.452  0.0693  0.3340 -0.7298
  989SOL     ow 3953   4.039   4.661   4.224  0.4459  0.1444 -0.0179
  989SOL     hw 3954   4.020   4.744   4.267  0.4102 -0.0896  0.4250
  989SOL     hw 3955   4.084   4.686   4.143  0.3282  0.5982  0.0528
  989SOL     vw 3956   4.043   4.675   4.219  0.4256  0.1731  0.0498
  990SOL     ow 3957   5.792   0.962   2.886 -0.5002  0.3974  0.0777
  990SOL     hw 3958   5.846   1.041   2.890 -0.1255  0.0773  2.0605
  990SOL     hw 3959   5.736   0.966   2.964 -2.1464 -0.1589 -1.0076
  990SOL     vw 3960   5.792   0.973   2.897 -0.6683  0.2818  0.1962
  991SOL     ow 3961   5.851   4.457   4.249 -0.1732  0.1835  0.8531
  991SOL     hw 3962   5.777   4.409   4.287  0.0554  0.4908  1.7097
  991SOL     hw 3963   5.929   4.411   4.282  0.0508 -1.2392 -1.4614
  991SOL     vw 3964   5.852   4.445   4.259 -0.1137  0.0365  0.6607
  992SOL     ow 3965   1.442   1.868   0.551 -0.3018 -0.2887  0.0638
  992SOL     hw 3966   1.517   1.926   0.537 -0.0575 -1.0202 -1.9423
  992SOL     hw 3967   1.440   1.812   0.474 -0.3753 -3.1542  1.9888
  992SOL     vw 3968   1.452   1.868   0.539 -0.2793 -0.7634  0.0531
  993SOL     ow 3969   5.791   1.300   4.125 -0.3779  0.0942  0.6640
  993SOL     hw 3970   5.827   1.388   4.135  0.2437  0.0329 -0.8297
  993SOL     hw 3971   5.764   1.295   4.033  0.6636 -1.6465  0.4072
  993SOL     vw 3972   5.792   1.311   4.114 -0.1585 -0.1436  0.4330
  994SOL     ow 3973   5.945   5.838   0.546 -0.1132  0.2774  0.1203
  994SOL     hw 3974   5.998   5.871   0.473  2.2341 -1.0223  1.1207
  994SOL     hw 3975   5.887   5.773   0.507  1.4416 -0.7502 -0.5712
  994SOL     vw 3976   5.944   5.834   0.531  0.4015 -0.0296  0.1611
  995SOL     ow 3977   4.867   6.067   6.949  0.2813 -0.0463  0.9289
  995SOL     hw 3978   4.876   6.161   6.959 -2.3501  0.4653 -0.4918
  995SOL     hw 3979   4.866   6.033   7.038  0.8814  1.2986  1.4727
  995SOL     vw 3980   4.868   6.075   6.962  0.0134  0.1986  0.8132
  996SOL     ow 3981   4.236   5.646   1.620 -0.1530  0.2475 -0.0591
  996SOL     hw 3982   4.183   5.607   1.551  0.1650  1.7734 -1.2257
  996SOL     hw 3983   4.174   5.668   1.689 -1.3430  2.9982 -1.8395
  996SOL     vw 3984   4.221   5.644   1.620 -0.2680  0.8116 -0.4479
  997SOL     ow 3985   5.718   3.719   5.546  0.0614  0.3921  0.7987
  997SOL     hw 3986   5.774   3.696   5.472  1.5929 -1.2033  2.3500
  997SOL     hw 3987   5.688   3.635   5.580  0.5313  0.9935  2.8082
  997SOL     vw 3988   5.721   3.705   5.540  0.3257  0.2609  1.2684
  998SOL     ow 3989   3.024   4.519   3.523  0.3141  0.3271  0.0446
  998SOL     hw 3990   3.077   4.550   3.596 -0.6443 -0.2099  0.9967
  998SOL     hw 3991   3.030   4.588   3.457  1.0866  0.8745  0.6785
  998SOL     vw 3992   3.032   4.532   3.524  0.2896  0.3285  0.2537
  999SOL     ow 3993   0.217   2.213   1.898 -0.3300 -0.3999  0.6885
  999SOL     hw 3994   0.304   2.184   1.924  0.1359  1.5482  1.4681
  999SOL     hw 3995   0.223   2.309   1.895 -2.6540 -0.1460  1.6591
  999SOL     vw 3996   0.229   2.222   1.901 -0.5751 -0.1094  0.9194
 1000SOL     ow 3997   3.659   2.324   0.702 -0.6314  0.3123 -0.8166
 1000SOL     hw 3998   3.630   2.270   0.629  1.3565  0.4011 -1.7275
 1000SOL     hw 3999   3.645   2.269   0.779 -0.0013 -0.9584 -1.5734
 1000SOL     vw 4000   3.654   2.310   0.703 -0.2860  0.1562 -1.0366
 1001SOL     ow 4001   3.026   0.205   4.211 -0.3434 -1.0160  0.1752
 1001SOL     hw 4002   3.051   0.126   4.163 -2.0614 -0.4379 -1.8201
 1001SOL     hw 4003   3.071   0.277   4.167 -2.4345 -0.4034 -1.0970
 1001SOL     vw 4004   3.035   0.204   4.199 -0.8460 -0.8589 -0.2558
 1002SOL     ow 4005   6.911   1.018   0.387  0.4440 -0.1463 -0.4462
 1002SOL     hw 4006   6.845   1.053   0.328  0.4933  0.5568 -0.0836
 1002SOL     hw 4007   6.938   1.092   0.441 -0.8374 -1.1398  1.6422
 1002SOL     vw 4008   6.906   1.032   0.386  0.2816 -0.1846 -0.1228
 1003SOL     ow 4009   4.551   0.056   4.564 -0.2665  0.3603  0.1141
 1003SOL     hw 4010   4.503   0.104   4.498 -1.4142 -0.1079  0.5702
 1003SOL     hw 4011   4.492   0.053   4.639 -1.1215 -3.3361 -0.5026
 1003SOL     vw 4012   4.537   0.062   4.566 -0.5307 -0.1891  0.0930
 1004SOL     ow 4013   3.700   5.572   3.444 -0.4853  0.3003 -0.0338
 1004SOL     hw 4014   3.614   5.595   3.410 -2.0415 -0.6281  2.8974
 1004SOL     hw 4015   3.699   5.604   3.535  0.0278 -4.3658  1.9146
 1004SOL     vw 4016   3.689   5.579   3.452 -0.6229 -0.4380  0.6100
 1005SOL     ow 4017   3.398   2.000   6.544  0.0435  0.2702  0.0139
 1005SOL     hw 4018   3.479   2.047   6.528  0.5954 -1.1002 -1.3847
 1005SOL     hw 4019   3.340   2.027   6.473 -1.3231  2.3572  1.7756
 1005SOL     vw 4020   3.401   2.009   6.533 -0.0641  0.3649  0.0620
 1006SOL     ow 4021   5.727   5.992   6.816  0.0347  0.2836  0.0419
 1006SOL     hw 4022   5.650   5.936   6.803  0.7320 -0.5354 -0.6554
 1006SOL     hw 4023   5.740   5.992   6.911 -1.6094  1.5373  0.3198
 1006SOL     vw 4024   5.719   5.985   6.827 -0.0901  0.3405 -0.0134
 1007SOL     ow 4025   3.264   6.800   6.048  0.5591  0.3549  0.1742
 1007SOL     hw 4026   3.254   6.895   6.038  1.1218  0.4887  0.8777
 1007SOL     hw 4027   3.358   6.785   6.048  0.4762 -0.3514 -1.1879
 1007SOL     vw 4028   3.275   6.810   6.046  0.6223  0.2792  0.0873
 1008SOL     ow 4029   1.079   6.180   0.188  0.1985  0.4524  0.4426
 1008SOL     hw 4030   1.056   6.089   0.206  1.0888  0.4215  1.5517
 1008SOL     hw 4031   1.004   6.215   0.140 -0.2108 -0.8207  0.1266
 1008SOL     vw 4032   1.066   6.173   0.184  0.2620  0.2804  0.5473
 1009SOL     ow 4033   4.440   1.160   0.025 -0.3534 -1.1523 -0.6482
 1009SOL     hw 4034   4.523   1.204   0.046 -0.1955 -1.0335 -1.4819
 1009SOL     hw 4035   4.383   1.181   0.099 -0.2766  0.4489 -0.9965
 1009SOL     vw 4036   4.444   1.169   0.037 -0.3223 -0.9254 -0.8042
 1010SOL     ow 4037   5.441   1.419   7.000 -0.6629 -0.3961 -0.0397
 1010SOL     hw 4038   5.533   1.423   7.027 -0.8734  1.8062  0.6054
 1010SOL     hw 4039   5.444   1.408   6.905  0.3220  0.6004 -0.1552
 1010SOL     vw 4040   5.454   1.418   6.991 -0.5610  0.0259  0.0300
 1011SOL     ow 4041   1.740   2.286   1.419 -0.2458  0.1007  0.1515
 1011SOL     hw 4042   1.746   2.371   1.375 -0.6826 -0.6864 -1.4801
 1011SOL     hw 4043   1.663   2.294   1.476  0.3026  1.1167  0.7806
 1011SOL     vw 4044   1.730   2.299   1.421 -0.2311  0.1309  0.0193
 1012SOL     ow 4045   0.398   4.710   4.984  0.6298 -0.2198 -0.2600
 1012SOL     hw 4046   0.381   4.620   4.956  0.3782 -0.7733  1.5510
 1012SOL     hw 4047   0.456   4.745   4.916  2.2072 -2.3297 -0.1318
 1012SOL     vw 4048   0.403   4.703   4.971  0.8047 -0.5710 -0.0041
 1013SOL     ow 4049   2.366   5.647   0.269  0.3040 -0.2092 -0.0431
 1013SOL     hw 4050   2.461   5.652   0.254  0.2884  2.2245  0.2099
 1013SOL     hw 4051   2.334   5.734   0.245 -1.7114 -0.6050  1.0149
 1013SOL     vw 4052   2.374   5.659   0.264  0.0360  0.0598  0.1299
 1014SOL     ow 4053   4.746   0.224   3.007  0.1551 -0.0610  0.0883
 1014SOL     hw 4054   4.768   0.149   2.951  0.1387  0.0792 -0.1100
 1014SOL     hw 4055   4.813   0.224   3.075 -0.7731 -1.2235  1.0514
 1014SOL     vw 4056   4.758   0.214   3.008  0.0303 -0.1959  0.1893
 1015SOL     ow 4057   6.461   6.196   0.790 -1.2533 -0.5241  0.0139
 1015SOL     hw 4058   6.435   6.169   0.879  1.0842  1.8736  1.5467
 1015SOL     hw 4059   6.543   6.149   0.774  0.6196  2.2053  1.0022
 1015SOL     vw 4060   6.468   6.186   0.800 -0.6981  0.1523  0.3466
 1016SOL     ow 4061   6.375   1.192   5.637  0.1085  0.2662 -0.4473
 1016SOL     hw 4062   6.374   1.098   5.618 -0.1839 -0.1011  1.2323
 1016SOL     hw 4063   6.283   1.213   5.654  0.2593  0.7320 -0.2046
 1016SOL     vw 4064   6.362   1.182   5.637  0.0896  0.2792 -0.1938
 1017SOL     ow 4065   2.961   1.326   2.887 -0.2921  0.3229 -0.2640
 1017SOL     hw 4066   2.899   1.395   2.863  0.2765  0.2549 -2.0578
 1017SOL     hw 4067   3.041   1.347   2.838  0.7280 -0.2461  1.0908
 1017SOL     vw 4068   2.963   1.338   2.877 -0.0824  0.2388 -0.3219
 1018SOL     ow 4069   2.862   4.957   3.815 -0.4871 -0.7066  0.0698
 1018SOL     hw 4070   2.934   5.020   3.821  1.3021 -2.6922  0.4225
 1018SOL     hw 4071   2.785   5.011   3.793  1.2035  1.4066 -1.0494
 1018SOL     vw 4072   2.861   4.973   3.813 -0.0280 -0.6897 -0.0315
 1019SOL     ow 4073   1.200   1.878   0.749 -0.5687 -0.8263 -1.1523
 1019SOL     hw 4074   1.245   1.811   0.801 -0.1809 -0.5446 -1.1218
 1019SOL     hw 4075   1.133   1.912   0.808 -0.2513 -0.6382 -0.8936
 1019SOL     vw 4076   1.197   1.874   0.763 -0.4756 -0.7643 -1.1141
 1020SOL     ow 4077   1.326   3.753   4.128  0.2033  0.1089 -0.2129
 1020SOL     hw 4078   1.368   3.722   4.208 -1.5204 -1.9099 -0.0082
 1020SOL     hw 4079   1.398   3.765   4.066  1.2382 -2.1979  0.4330
 1020SOL     vw 4080   1.341   3.751   4.130  0.1125 -0.4617 -0.1006
 1021SOL     ow 4081   3.748   1.101   3.343 -0.3888 -0.2526  0.0183
 1021SOL     hw 4082   3.780   1.181   3.384 -0.8199 -0.0835  0.0325
 1021SOL     hw 4083   3.683   1.067   3.404 -0.7429 -0.2168 -0.3308
 1021SOL     vw 4084   3.743   1.107   3.356 -0.4923 -0.2255 -0.0259
 1022SOL     ow 4085   4.082   6.003   5.695 -0.0651  0.3729 -0.0722
 1022SOL     hw 4086   4.027   5.977   5.621 -0.5755  1.3357 -0.0466
 1022SOL     hw 4087   4.170   6.010   5.658 -0.1574 -0.0197 -0.3765
 1022SOL     vw 4088   4.086   6.000   5.680 -0.1447  0.4480 -0.1087
 1023SOL     ow 4089   5.091   1.924   4.746  0.3148 -0.1727 -0.0137
 1023SOL     hw 4090   5.160   1.888   4.803 -0.6829  1.4449  2.3861
 1023SOL     hw 4091   5.012   1.878   4.774 -0.4439  1.6506  1.0007
 1023SOL     vw 4092   5.090   1.913   4.758  0.0830  0.2813  0.4368
 1024SOL     ow 4093   1.854   3.406   6.710  0.4293  0.9349 -0.7525
 1024SOL     hw 4094   1.788   3.336   6.710  0.0297  1.3094 -0.6991
 1024SOL     hw 4095   1.817   3.474   6.654  1.9519  0.0463 -3.0103
 1024SOL     vw 4096   1.841   3.406   6.702  0.5776  0.8672 -1.0431
 1025SOL     ow 4097   3.242   3.671   6.856  0.2269  0.0743  0.4908
 1025SOL     hw 4098   3.235   3.576   6.847 -3.7235  0.2330  0.1718
 1025SOL     hw 4099   3.173   3.695   6.917 -0.3552  2.9292 -1.0921
 1025SOL     vw 4100   3.232   3.662   6.863 -0.3712  0.4721  0.2398
 1026SOL     ow 4101   6.436   2.838   2.367  0.0292  0.1334 -0.7201
 1026SOL     hw 4102   6.484   2.799   2.294 -0.6512 -0.6722 -0.7541
 1026SOL     hw 4103   6.344   2.824   2.344 -0.1867 -0.3797  0.4248
 1026SOL     vw 4104   6.430   2.831   2.354 -0.0892 -0.0407 -0.5736
 1027SOL     ow 4105   0.173   4.209   2.525  0.1401  0.5748 -0.3239
 1027SOL     hw 4106   0.258   4.246   2.500  0.3168 -0.9249 -2.1317
 1027SOL     hw 4107   0.134   4.180   2.443 -1.9903  0.8826  0.5071
 1027SOL     vw 4108   0.179   4.210   2.511 -0.1177  0.4175 -0.4528
 1028SOL     ow 4109   1.167   1.591   1.984  0.6267 -0.3275 -0.5923
 1028SOL     hw 4110   1.235   1.638   2.033  1.1552 -2.4920  0.8397
 1028SOL     hw 4111   1.215   1.536   1.922  0.1396 -0.9963 -0.3905
 1028SOL     vw 4112   1.182   1.590   1.982  0.6322 -0.7014 -0.3768
 1029SOL     ow 4113   0.395   5.614   2.626  0.8794  0.4970  0.0234
 1029SOL     hw 4114   0.351   5.614   2.711  0.8282  1.0920  0.0068
 1029SOL     hw 4115   0.479   5.658   2.642  0.6363  1.1109 -0.3376
 1029SOL     vw 4116   0.400   5.620   2.639  0.8405  0.6564 -0.0265
 1030SOL     ow 4117   5.251   4.466   2.589  0.4713 -0.0589 -0.3169
 1030SOL     hw 4118   5.277   4.375   2.576 -0.9404 -0.4765 -0.3447
 1030SOL     hw 4119   5.254   4.505   2.502  1.5631  0.0832 -0.2358
 1030SOL     vw 4120   5.255   4.459   2.576  0.4292 -0.0954 -0.3098
 1031SOL     ow 4121   6.046   5.309   0.581  0.0957  0.0525  0.0619
 1031SOL     hw 4122   5.988   5.233   0.578  0.2841 -0.0549 -1.4576
 1031SOL     hw 4123   5.987   5.384   0.576 -0.0221 -0.0069  0.5003
 1031SOL     vw 4124   6.031   5.309   0.580  0.1049  0.0305 -0.0808
 1032SOL     ow 4125   6.868   3.386   0.224  0.3213 -0.2789  0.2601
 1032SOL     hw 4126   6.908   3.299   0.227 -1.0404 -0.9110  1.7398
 1032SOL     hw 4127   6.869   3.410   0.132  0.8893 -1.7963 -0.1546
 1032SOL     vw 4128   6.873   3.378   0.212  0.2167 -0.5624  0.4006
 1033SOL     ow 4129   3.106   2.460   5.074  0.3367 -0.0564 -0.2943
 1033SOL     hw 4130   3.089   2.442   5.167  0.7576  0.0673 -0.1865
 1033SOL     hw 4131   3.044   2.528   5.051 -0.7126 -1.0463 -0.4834
 1033SOL     vw 4132   3.096   2.466   5.084  0.2537 -0.1707 -0.3049
 1034SOL     ow 4133   5.923   2.554   6.117 -0.0022  0.3170 -0.7433
 1034SOL     hw 4134   5.903   2.629   6.174 -1.1103  0.0471 -0.7572
 1034SOL     hw 4135   5.950   2.593   6.034 -0.6981  0.7126 -0.7921
 1034SOL     vw 4136   5.924   2.569   6.114 -0.2401  0.3335 -0.7517
 1035SOL     ow 4137   4.819   2.579   5.758  0.5275  0.2351  0.1213
 1035SOL     hw 4138   4.773   2.619   5.832 -0.6027 -0.6778 -0.0555
 1035SOL     hw 4139   4.864   2.504   5.796  2.0739  1.2268  0.3258
 1035SOL     vw 4140   4.819   2.574   5.773  0.5822  0.2455  0.1249
 1036SOL     ow 4141   5.170   3.785   0.546 -1.0960 -0.3496  0.5275
 1036SOL     hw 4142   5.193   3.858   0.604 -1.5326  0.9146 -0.8291
 1036SOL     hw 4143   5.076   3.794   0.531 -0.6647  0.7628 -2.1236
 1036SOL     vw 4144   5.161   3.796   0.552 -1.0967 -0.0360 -0.0013
 1037SOL     ow 4145   4.208   5.805   0.104  0.2181  0.2080  0.6517
 1037SOL     hw 4146   4.264   5.800   0.026  0.7459  0.3702  1.0149
 1037SOL     hw 4147   4.251   5.748   0.167  0.4298  0.9660  1.2098
 1037SOL     vw 4148   4.221   5.797   0.102  0.3159  0.3293  0.7732
 1038SOL     ow 4149   2.083   4.969   5.773 -0.3562 -0.5350  0.1269
 1038SOL     hw 4150   2.042   4.931   5.851 -2.2997  0.3781 -0.3825
 1038SOL     hw 4151   2.158   5.019   5.807 -0.8079 -0.6332  1.3341
 1038SOL     vw 4152   2.088   4.970   5.788 -0.6722 -0.4275  0.2189
 1039SOL     ow 4153   6.965   4.788   5.869 -0.0701  0.2886 -0.3681
 1039SOL     hw 4154   6.896   4.767   5.932 -1.3866 -1.6190 -2.2714
 1039SOL     hw 4155   6.919   4.835   5.799  1.0793  1.1365 -0.5860
 1039SOL     vw 4156   6.949   4.791   5.868 -0.0921  0.1490 -0.6480
 1040SOL     ow 4157   2.577   6.199   5.270 -0.4078 -0.2946 -0.2240
 1040SOL     hw 4158   2.614   6.269   5.215  0.9661 -0.6001  0.2641
 1040SOL     hw 4159   2.638   6.126   5.258  0.3461 -0.1475  2.2173
 1040SOL     vw 4160   2.590   6.199   5.261 -0.1271 -0.3154  0.1626
 1041SOL     ow 4161   1.717   1.525   5.142 -0.3611 -0.7098 -0.6132
 1041SOL     hw 4162   1.722   1.617   5.113 -0.3090 -0.0391  1.3800
 1041SOL     hw 4163   1.638   1.491   5.101 -2.0171  1.1137  0.8761
 1041SOL     vw 4164   1.708   1.533   5.132 -0.5727 -0.3807 -0.1538
 1042SOL     ow 4165   6.814   3.604   2.621 -0.1606  0.4798  0.6494
 1042SOL     hw 4166   6.848   3.543   2.686 -0.3614 -0.3494 -0.0091
 1042SOL     hw 4167   6.730   3.566   2.594 -0.6161  1.4042  0.7283
 1042SOL     vw 4168   6.807   3.591   2.626 -0.2470  0.4923  0.5730
 1043SOL     ow 4169   2.460   4.200   1.190 -0.1927  0.0427 -0.0256
 1043SOL     hw 4170   2.550   4.212   1.220 -0.7536 -1.9029  2.8711
 1043SOL     hw 4171   2.459   4.114   1.148 -1.1639 -1.3925  2.6889
 1043SOL     vw 4172   2.471   4.191   1.189 -0.3948 -0.4032  0.7147
 1044SOL     ow 4173   5.162   0.205   0.986  0.0699  0.2780  0.0023
 1044SOL     hw 4174   5.204   0.165   0.910 -0.8446  0.9996 -0.9179
 1044SOL     hw 4175   5.069   0.187   0.973 -0.3785  2.5453 -0.3985
 1044SOL     vw 4176   5.155   0.198   0.974 -0.1097  0.6723 -0.1720
 1045SOL     ow 4177   0.581   1.850   3.263  0.1555  0.5496 -0.2559
 1045SOL     hw 4178   0.527   1.864   3.185  0.1567 -3.5579 -1.2138
 1045SOL     hw 4179   0.653   1.794   3.232  0.3107 -1.0126  2.5937
 1045SOL     vw 4180   0.584   1.844   3.248  0.1762 -0.1984 -0.0063
 1046SOL     ow 4181   3.551   0.359   3.670  0.2144  0.2052  0.3475
 1046SOL     hw 4182   3.495   0.364   3.592 -0.4290  2.0945  0.8864
 1046SOL     hw 4183   3.493   0.383   3.742  1.5938  1.7343  0.9840
 1046SOL     vw 4184   3.536   0.363   3.669  0.3115  0.6562  0.5023
 1047SOL     ow 4185   5.982   6.710   6.253  0.7820 -0.3893 -0.3175
 1047SOL     hw 4186   6.004   6.638   6.193  2.7989  1.8550 -2.5001
 1047SOL     hw 4187   5.940   6.775   6.197 -0.5060  0.4049  1.4863
 1047SOL     vw 4188   5.979   6.709   6.238  0.8783  0.0119 -0.3676
 1048SOL     ow 4189   1.191   4.787   2.972 -0.2420 -0.1163  0.1858
 1048SOL     hw 4190   1.201   4.870   2.926  3.0075  0.5969  1.8907
 1048SOL     hw 4191   1.280   4.755   2.984 -1.2714 -2.9244  1.2913
 1048SOL     vw 4192   1.204   4.794   2.968  0.0510 -0.3927  0.5565
 1049SOL     ow 4193   2.676   4.802   3.471  0.3477  0.2734 -0.5381
 1049SOL     hw 4194   2.595   4.824   3.426 -0.5897  0.4618  1.1794
 1049SOL     hw 4195   2.745   4.819   3.406 -0.8326  1.8843 -1.4324
 1049SOL     vw 4196   2.675   4.807   3.456  0.0684  0.5107 -0.4295
 1050SOL     ow 4197   6.296   2.899   4.367 -0.0226 -0.3425  0.0260
 1050SOL     hw 4198   6.384   2.925   4.396  0.9280 -2.6762 -0.5148
 1050SOL     hw 4199   6.287   2.808   4.396 -0.7671 -1.3610 -3.0218
 1050SOL     vw 4200   6.307   2.890   4.375  0.0048 -0.7848 -0.4475
 1051SOL     ow 4201   5.416   2.053   1.808 -0.0749 -0.4264  0.2580
 1051SOL     hw 4202   5.405   2.123   1.744  1.2221 -0.6871 -0.2850
 1051SOL     hw 4203   5.502   2.069   1.846  0.3276 -1.8242 -0.0135
 1051SOL     vw 4204   5.426   2.064   1.804  0.1495 -0.6453  0.1505
 1052SOL     ow 4205   0.837   5.609   6.672 -0.7275 -0.5725  0.0479
 1052SOL     hw 4206   0.843   5.538   6.736 -2.0528 -0.4902  0.2978
 1052SOL     hw 4207   0.830   5.688   6.726 -0.5749 -0.3788 -0.2154
 1052SOL     vw 4208   0.836   5.610   6.688 -0.8822 -0.5362  0.0460
 1053SOL     ow 4209   4.170   1.770   4.474 -0.6498 -0.4419 -0.0268
 1053SOL     hw 4210   4.124   1.688   4.492  0.6762 -1.2111  0.0237
 1053SOL     hw 4211   4.257   1.758   4.513 -0.1067  0.6158 -0.8491
 1053SOL     vw 4212   4.175   1.758   4.482 -0.4034 -0.4037 -0.1285
 1054SOL     ow 4213   3.771   0.483   0.786 -0.1909  0.0399  0.0193
 1054SOL     hw 4214   3.679   0.505   0.805 -0.4812  0.5626 -1.8116
 1054SOL     hw 4215   3.767   0.433   0.705  1.0285 -1.5443  0.8921
 1054SOL     vw 4216   3.758   0.479   0.778 -0.0684 -0.1001 -0.1071
 1055SOL     ow 4217   4.657   5.130   5.550 -0.7922 -0.0755 -0.0512
 1055SOL     hw 4218   4.705   5.212   5.558 -0.1260 -0.5356  0.9216
 1055SOL     hw 4219   4.626   5.129   5.460 -0.2944  0.9587 -0.2497
 1055SOL     vw 4220   4.659   5.140   5.539 -0.6385  0.0000  0.0510
 1056SOL     ow 4221   3.115   0.203   4.789 -0.1407 -0.0305  0.0040
 1056SOL     hw 4222   3.044   0.262   4.813 -1.0545 -0.2412 -1.9927
 1056SOL     hw 4223   3.076   0.116   4.792  1.0950 -0.6192  2.5587
 1056SOL     vw 4224   3.101   0.199   4.793 -0.0981 -0.1359  0.0777
 1057SOL     ow 4225   5.944   2.211   4.764  0.0500 -0.2701  0.1307
 1057SOL     hw 4226   5.932   2.118   4.782 -0.7362 -0.1051  0.4680
 1057SOL     hw 4227   6.024   2.235   4.812 -0.3534 -0.5238  0.9401
 1057SOL     vw 4228   5.953   2.202   4.773 -0.1070 -0.2818  0.2818
 1058SOL     ow 4229   5.985   6.594   1.687  0.8373  0.2002 -0.5050
 1058SOL     hw 4230   6.036   6.666   1.649  1.4672  0.3605  0.5960
 1058SOL     hw 4231   5.935   6.635   1.757 -0.1697 -0.1235 -1.0129
 1058SOL     vw 4232   5.985   6.609   1.691  0.7873  0.1786 -0.4268
 1059SOL     ow 4233   2.762   6.323   6.959 -0.7991  0.2500  0.0673
 1059SOL     hw 4234   2.734   6.236   6.988 -1.1129  0.2506 -0.2252
 1059SOL     hw 4235   2.856   6.314   6.946 -1.0814 -0.5932 -1.7674
 1059SOL     vw 4236   2.771   6.310   6.961 -0.8775  0.1390 -0.2131
 1060SOL     ow 4237   5.006   3.890   4.655  0.5934 -0.2678  0.0934
 1060SOL     hw 4238   4.998   3.794   4.653 -0.3880 -0.1796 -0.4503
 1060SOL     hw 4239   4.923   3.922   4.620 -0.0664  0.8364  2.4843
 1060SOL     vw 4240   4.994   3.881   4.650  0.3767 -0.1105  0.3371
 1061SOL     ow 4241   6.139   0.303   3.467 -0.1657  0.2906  0.4337
 1061SOL     hw 4242   6.127   0.398   3.473  0.6400  0.3232  2.0266
 1061SOL     hw 4243   6.163   0.276   3.555  0.7698 -1.2368 -0.2413
 1061SOL     vw 4244   6.140   0.312   3.479  0.0641  0.0934  0.5548
 1062SOL     ow 4245   2.055   3.703   0.272 -0.3594 -0.1182  0.1690
 1062SOL     hw 4246   2.100   3.624   0.301  2.4394  1.7118  1.2016
 1062SOL     hw 4247   2.110   3.738   0.202 -1.8620  0.6427 -0.6887
 1062SOL     vw 4248   2.068   3.697   0.267 -0.1884  0.2235  0.1921
 1063SOL     ow 4249   1.030   5.567   6.351  0.0125  0.2106  0.2010
 1063SOL     hw 4250   1.119   5.580   6.381  0.7504 -1.1639 -1.2451
 1063SOL     hw 4251   1.029   5.603   6.262 -1.0026  0.6070  0.3587
 1063SOL     vw 4252   1.041   5.574   6.343 -0.0241  0.0818  0.0312
 1064SOL     ow 4253   5.938   0.786   2.675  0.3402  0.3268 -0.6438
 1064SOL     hw 4254   5.968   0.705   2.633  1.6822  0.0803  0.6910
 1064SOL     hw 4255   6.017   0.823   2.715 -0.4257  1.8105 -0.4256
 1064SOL     vw 4256   5.953   0.780   2.675  0.4165  0.4900 -0.4387
 1065SOL     ow 4257   2.371   2.028   0.494  0.0054  0.3554  0.8504
 1065SOL     hw 4258   2.391   2.001   0.405 -1.5412 -0.4622  0.7105
 1065SOL     hw 4259   2.456   2.029   0.539  0.9652  1.8845 -0.8707
 1065SOL     vw 4260   2.385   2.024   0.488 -0.0720  0.4492  0.6048
 1066SOL     ow 4261   4.491   2.615   6.545 -0.3091  0.1037 -0.0892
 1066SOL     hw 4262   4.435   2.571   6.609 -0.4747 -0.2239 -0.4548
 1066SOL     hw 4263   4.476   2.709   6.560 -1.5987  0.0253 -0.7191
 1066SOL     vw 4264   4.482   2.622   6.555 -0.5012  0.0501 -0.2205
 1067SOL     ow 4265   0.935   3.922   1.135  0.5712 -0.5948  0.2072
 1067SOL     hw 4266   0.951   4.007   1.175 -0.0326 -0.8667  1.0410
 1067SOL     hw 4267   0.870   3.939   1.067 -0.3615 -0.5546  1.0900
 1067SOL     vw 4268   0.928   3.935   1.131  0.3685 -0.6253  0.4337
 1068SOL     ow 4269   3.865   0.625   1.520  0.2914  0.1204 -0.3484
 1068SOL     hw 4270   3.828   0.610   1.606  1.3831 -0.0023  0.1220
 1068SOL     hw 4271   3.908   0.542   1.498  2.3778  0.9916  0.2152
 1068SOL     vw 4272   3.866   0.612   1.528  0.7108  0.2192 -0.2119
 1069SOL     ow 4273   5.191   6.105   2.250 -0.1145  0.7400  0.0230
 1069SOL     hw 4274   5.285   6.088   2.254  0.1249  1.8601 -0.2877
 1069SOL     hw 4275   5.185   6.197   2.222 -1.2953  0.7424  0.2320
 1069SOL     vw 4276   5.202   6.115   2.247 -0.2384  0.8881  0.0095
 1070SOL     ow 4277   0.810   1.547   0.613 -0.3886  0.3938 -0.7801
 1070SOL     hw 4278   0.849   1.537   0.700 -0.5559  2.0540 -0.4803
 1070SOL     hw 4279   0.866   1.496   0.555  0.1015 -0.2053  0.1975
 1070SOL     vw 4280   0.822   1.539   0.617 -0.3460  0.5338 -0.6115
 1071SOL     ow 4281   4.880   2.833   0.447  0.1746  0.5962 -0.2896
 1071SOL     hw 4282   4.971   2.841   0.474  0.2937 -1.2425 -0.0474
 1071SOL     hw 4283   4.831   2.886   0.510  0.8532 -0.3605  1.0949
 1071SOL     vw 4284   4.885   2.841   0.459  0.2797  0.2273 -0.0750
 1072SOL     ow 4285   3.309   3.187   0.910 -0.1065  0.5492  0.2766
 1072SOL     hw 4286   3.222   3.148   0.905  0.2892 -0.4643  0.9198
 1072SOL     hw 4287   3.346   3.174   0.823  1.1383 -3.3492  1.1633
 1072SOL     vw 4288   3.303   3.180   0.898  0.1099 -0.0988  0.4784
 1073SOL     ow 4289   2.357   4.302   4.976  0.1395 -0.2215  0.2201
 1073SOL     hw 4290   2.296   4.348   5.034  0.2379  0.9158 -0.5614
 1073SOL     hw 4291   2.372   4.362   4.903  1.3784 -0.9174 -0.1319
 1073SOL     vw 4292   2.351   4.316   4.974  0.3159 -0.1631  0.0703
 1074SOL     ow 4293   5.496   0.202   3.304  0.2581 -0.3314  0.6293
 1074SOL     hw 4294   5.457   0.223   3.219  0.7113  3.0243  1.1121
 1074SOL     hw 4295   5.538   0.118   3.290 -2.2490 -1.3644 -1.5413
 1074SOL     vw 4296   5.497   0.194   3.291 -0.0126 -0.0249  0.4066
 1075SOL     ow 4297   6.471   1.371   5.411  0.1332 -0.8446  0.4069
 1075SOL     hw 4298   6.431   1.317   5.480  1.3821 -0.6209  1.3274
 1075SOL     hw 4299   6.480   1.311   5.337 -1.3697 -1.0493  0.3600
 1075SOL     vw 4300   6.467   1.356   5.411  0.0997 -0.8422  0.5219
 1076SOL     ow 4301   5.996   2.664   5.892 -0.2916  0.2195 -0.1194
 1076SOL     hw 4302   5.915   2.645   5.845  0.5686  0.2476 -1.6919
 1076SOL     hw 4303   6.056   2.594   5.867  0.8101  1.2997 -0.6501
 1076SOL     vw 4304   5.994   2.653   5.883 -0.0329  0.3656 -0.3970
 1077SOL     ow 4305   6.827   0.160   3.682  0.3501 -0.0169  0.3146
 1077SOL     hw 4306   6.757   0.165   3.748  0.8542  1.2206  0.7810
 1077SOL     hw 4307   6.885   0.091   3.714 -0.0556 -0.2666  0.5230
 1077SOL     vw 4308   6.825   0.152   3.695  0.3633  0.1134  0.4038
 1078SOL     ow 4309   0.487   3.896   6.383  0.1881  0.2680 -0.1234
 1078SOL     hw 4310   0.540   3.947   6.322  0.1739 -1.2113 -1.4157
 1078SOL     hw 4311   0.528   3.810   6.385 -1.3747 -0.5074 -0.1091
 1078SOL     vw 4312   0.499   3.892   6.375 -0.0199 -0.0296 -0.2923
 1079SOL     ow 4313   6.043   0.050   3.403  0.2720  0.4889  0.0194
 1079SOL     hw 4314   6.128   0.057   3.360  1.5509  0.9628  2.4236
 1079SOL     hw 4315   6.049  -0.029   3.457  0.8308  2.5720  3.2921
 1079SOL     vw 4316   6.055   0.041   3.405  0.5145  0.8262  0.7684
 1080SOL     ow 4317   1.725   1.157   6.200  0.1528  0.8953 -0.4488
 1080SOL     hw 4318   1.719   1.099   6.275  0.3033 -1.3251 -2.0671
 1080SOL     hw 4319   1.811   1.198   6.208  0.1216  0.7778  0.6159
 1080SOL     vw 4320   1.736   1.155   6.211  0.1686  0.5868 -0.5219
 1081poe    c31 4321   2.588   0.581   5.385 -0.5794 -0.0182  0.5410
 1081poe     o2 4322   2.673   0.692   5.394 -0.0467 -0.3312 -0.3984
 1081poe    c23 4323   2.790   0.676   5.317  0.2852  0.2919 -0.0333
 1081poe    c23 4324   2.865   0.811   5.307  0.9860 -0.0799  0.1190
 1081poe     o2 4325   2.932   0.829   5.430  0.1274  0.0645  0.5758
 1081poe    c23 4326   3.037   0.923   5.423 -0.1997  0.4167  0.3694
 1081poe    c23 4327   2.981   1.067   5.428 -0.0322  0.4961 -0.0228
 1081poe     o2 4328   2.931   1.086   5.559 -0.8109 -0.4248 -0.1719
 1081poe    c23 4329   2.865   1.209   5.581  0.0054 -0.0120  0.0200
 1081poe    c23 4330   2.853   1.243   5.730  0.4512 -0.2195  0.1060
 1081poe     o2 4331   2.785   1.129   5.779 -0.3167  0.0619 -0.2840
 1081poe    c31 4332   2.725   1.146   5.905  0.0234 -0.3414 -0.0680
 1082poe    c31 4333   3.717   0.682   3.862  0.3216  0.1669  0.6679
 1082poe     o2 4334   3.828   0.610   3.813  0.0329  0.0978  0.1054
 1082poe    c23 4335   3.878   0.660   3.691  0.6284 -0.1196  0.2571
 1082poe    c23 4336   3.838   0.580   3.566  0.5850 -0.3770  0.4354
 1082poe     o2 4337   3.881   0.447   3.551  1.2262 -0.1129 -0.1263
 1082poe    c23 4338   3.826   0.387   3.435  1.0367  0.3210 -0.2612
 1082poe    c23 4339   3.850   0.236   3.447 -0.4928  0.0826 -0.0096
 1082poe     o2 4340   3.761   0.183   3.543 -0.3480 -0.0876  0.0331
 1082poe    c23 4341   3.794   0.048   3.562 -0.4339 -0.0662  0.3521
 1082poe    c23 4342   3.689   0.007   3.667 -0.3524 -0.1714  0.3931
 1082poe     o2 4343   3.682   0.110   3.764  0.4102 -0.0128  0.2875
 1082poe    c31 4344   3.597   0.062   3.865 -0.2733  0.7806  0.0988
 1083poe    c31 4345   1.729   0.917   1.182  0.0282 -0.5664  0.6916
 1083poe     o2 4346   1.765   0.977   1.304  0.2045  0.4823  0.1373
 1083poe    c23 4347   1.758   1.117   1.290 -0.5708  0.4349  0.0237
 1083poe    c23 4348   1.770   1.183   1.429 -0.5428  0.1636  0.1506
 1083poe     o2 4349   1.881   1.128   1.498 -0.6035 -0.6770 -0.4002
 1083poe    c23 4350   1.857   1.139   1.636  0.3579 -0.1107 -0.2717
 1083poe    c23 4351   1.880   0.997   1.690  0.2486 -0.0048  0.0579
 1083poe     o2 4352   1.830   0.905   1.595 -0.4362  0.1272  0.2839
 1083poe    c23 4353   1.784   0.792   1.665  0.0745 -0.1588  0.1659
 1083poe    c23 4354   1.713   0.697   1.567 -0.7306  0.5778  0.0213
 1083poe     o2 4355   1.789   0.691   1.448 -0.4122  0.5634  0.2238
 1083poe    c31 4356   1.762   0.589   1.354  1.0140  0.3098  0.0732
 1084poe    c31 4357   0.728   6.888   6.906  0.0066 -0.0839 -0.4962
 1084poe     o2 4358   0.737   6.951   6.780  0.5763 -0.1843 -0.5086
 1084poe    c23 4359   0.615   6.943   6.710  0.2293  0.2927  0.0284
 1084poe    c23 4360   0.651   6.950   6.561 -0.1467 -0.7953 -0.1267
 1084poe     o2 4361   0.708   7.074   6.525 -0.9257 -0.4383 -0.1415
 1084poe    c23 4362   0.749   7.073   6.390  1.3359 -0.3331  0.5145
 1084poe    c23 4363   0.781   7.221   6.357 -0.0178 -0.0631  0.3862
 1084poe     o2 4364   0.838   7.287   6.467 -0.4699  0.3224  0.3926
 1084poe    c23 4365   0.856   7.422   6.430 -0.7252  0.2598  0.0324
 1084poe    c23 4366   0.894   7.494   6.561 -0.2373  0.4227 -0.1941
 1084poe     o2 4367   0.803   7.451   6.660  0.2425 -0.1644  0.0040
 1084poe    c31 4368   0.811   7.533   6.775 -0.1422 -0.2313  0.0789
 1085poe    c31 4369   5.345   6.291   4.806  0.0434  0.0610  0.2684
 1085poe     o2 4370   5.260   6.191   4.755 -0.0801  0.1293  0.3384
 1085poe    c23 4371   5.174   6.239   4.654 -0.3514 -0.2222  0.3988
 1085poe    c23 4372   5.060   6.145   4.610 -0.3205  0.0057 -0.1741
 1085poe     o2 4373   5.121   6.022   4.579 -0.4177 -0.1355  0.1966
 1085poe    c23 4374   5.047   5.947   4.485 -0.5678  0.0365  0.1781
 1085poe    c23 4375   5.125   5.816   4.469  0.0014  0.3509  0.3372
 1085poe     o2 4376   5.191   5.768   4.584  0.1359 -0.2330  0.0225
 1085poe    c23 4377   5.275   5.657   4.560 -0.6352 -0.7950 -0.1173
 1085poe    c23 4378   5.360   5.625   4.684 -0.2145  0.1524 -0.1513
 1085poe     o2 4379   5.435   5.738   4.722  0.0790 -0.0044 -0.2537
 1085poe    c31 4380   5.505   5.699   4.838 -0.2008 -0.6785 -0.3041
 1086poe    c31 4381   5.661   6.509   6.426 -0.0723  0.1250 -0.4496
 1086poe     o2 4382   5.797   6.505   6.390  0.3590 -0.0784  1.1174
 1086poe    c23 4383   5.834   6.397   6.307  0.2626  0.4333  0.3942
 1086poe    c23 4384   5.987   6.376   6.311  0.2570  0.1977 -0.4289
 1086poe     o2 4385   6.034   6.354   6.442  0.4815  0.4707 -0.4618
 1086poe    c23 4386   6.175   6.348   6.438  0.4693  0.0899 -0.4027
 1086poe    c23 4387   6.244   6.359   6.575  0.1057 -0.4892 -0.1687
 1086poe     o2 4388   6.221   6.488   6.627 -0.0480 -0.5112 -0.1838
 1086poe    c23 4389   6.310   6.514   6.733 -0.4609 -0.5557  0.1800
 1086poe    c23 4390   6.299   6.653   6.798  0.4358 -0.2940 -0.2112
 1086poe     o2 4391   6.348   6.759   6.719  0.2578  0.2566  0.4052
 1086poe    c31 4392   6.332   6.875   6.798  0.3716  0.1030  0.6575
 1087poe    c31 4393   3.261   0.012   4.020 -0.1335  0.1453 -0.2974
 1087poe     o2 4394   3.136  -0.038   4.060  0.0635  0.1277  0.3179
 1087poe    c23 4395   3.147  -0.142   4.154  0.4665 -0.2585 -0.1509
 1087poe    c23 4396   3.015  -0.167   4.229  0.4480  0.2877 -0.0011
 1087poe     o2 4397   2.969  -0.068   4.319  0.1225 -0.0991  0.2645
 1087poe    c23 4398   2.831  -0.051   4.342  0.0496 -0.3149 -0.0201
 1087poe    c23 4399   2.789   0.031   4.465 -0.1015 -0.4930  0.0488
 1087poe     o2 4400   2.853   0.157   4.470 -0.5700 -0.2735  0.5745
 1087poe    c23 4401   2.791   0.256   4.548 -0.6269  0.1948 -0.0565
 1087poe    c23 4402   2.869   0.387   4.523 -0.5098  0.1489  0.0720
 1087poe     o2 4403   2.993   0.349   4.467 -0.3707  0.3472  0.2435
 1087poe    c31 4404   3.044   0.472   4.419  0.1728 -0.1440 -0.4556
 1088poe    c31 4405   0.746   5.747   2.708  0.0503  0.6316  0.1464
 1088poe     o2 4406   0.622   5.807   2.680 -0.0514  0.1079 -0.5496
 1088poe    c23 4407   0.639   5.932   2.616  0.2365  0.4094  0.1014
 1088poe    c23 4408   0.508   6.013   2.615  0.1500  0.2712  0.2389
 1088poe     o2 4409   0.401   5.935   2.567  0.4345  0.1141 -0.1443
 1088poe    c23 4410   0.382   5.974   2.433 -0.0388 -0.6770 -0.3166
 1088poe    c23 4411   0.259   5.912   2.364 -0.4814 -0.2509  0.0841
 1088poe     o2 4412   0.243   5.774   2.389 -0.2252 -0.3128 -0.0859
 1088poe    c23 4413   0.114   5.730   2.351 -0.3153  0.0147 -0.1693
 1088poe    c23 4414   0.072   5.607   2.435 -0.1752 -0.4920 -0.8306
 1088poe     o2 4415   0.186   5.525   2.439  0.1338 -0.0226  0.3447
 1088poe    c31 4416   0.166   5.397   2.383  0.3059  0.1861 -0.2027
 1089poe    c31 4417   2.348   6.245   1.862  0.0844  0.3622  0.0231
 1089poe     o2 4418   2.413   6.163   1.957 -0.0401 -0.5073 -0.6324
 1089poe    c23 4419   2.551   6.174   1.929 -0.0223  0.8843 -0.1133
 1089poe    c23 4420   2.635   6.071   2.007 -0.9895  0.1653  0.0021
 1089poe     o2 4421   2.672   6.115   2.136 -0.3944  0.1706 -0.1680
 1089poe    c23 4422   2.593   6.065   2.242 -0.2492 -0.0171 -0.1481
 1089poe    c23 4423   2.670   5.949   2.309 -0.2978 -0.2258 -0.4546
 1089poe     o2 4424   2.801   5.998   2.326 -0.4510 -0.0540  0.2533
 1089poe    c23 4425   2.876   5.926   2.421 -0.2445 -0.0481  0.0930
 1089poe    c23 4426   3.026   5.946   2.393 -0.3959  0.4115 -0.4087
 1089poe     o2 4427   3.060   6.083   2.394 -0.0920  0.3337  0.2314
 1089poe    c31 4428   3.194   6.092   2.438  0.3359 -0.4765 -0.8516
 1090poe    c31 4429   1.227   0.740   1.330  0.9237 -0.3813  0.6021
 1090poe     o2 4430   1.232   0.795   1.201  0.0735 -0.3827  0.5661
 1090poe    c23 4431   1.318   0.727   1.113  0.1216 -0.0993  0.3947
 1090poe    c23 4432   1.311   0.800   0.977  0.1858 -0.1021  0.3896
 1090poe     o2 4433   1.342   0.934   1.007  0.0245 -0.0205  0.1922
 1090poe    c23 4434   1.346   1.007   0.886  0.1743 -0.4465 -0.0667
 1090poe    c23 4435   1.420   1.142   0.894 -0.1387 -0.2640 -0.2201
 1090poe     o2 4436   1.365   1.206   1.007 -0.1920  0.5127 -0.6784
 1090poe    c23 4437   1.450   1.297   1.073 -0.3451  0.2818 -0.1550
 1090poe    c23 4438   1.379   1.401   1.162  0.5245  0.4275  0.3803
 1090poe     o2 4439   1.338   1.334   1.279  0.0185  0.0852  0.0114
 1090poe    c31 4440   1.231   1.406   1.338 -0.1592 -0.1316 -0.0460
 1091poe    c31 4441   5.932   3.295   6.696  0.7674  0.0684 -0.3693
 1091poe     o2 4442   5.891   3.410   6.626  0.0550 -0.0259 -0.1083
 1091poe    c23 4443   5.808   3.374   6.518  0.2338 -0.4841 -0.0926
 1091poe    c23 4444   5.795   3.493   6.422  0.4476 -0.1538  0.2859
 1091poe     o2 4445   5.824   3.613   6.490 -0.9422  0.0890  0.4828
 1091poe    c23 4446   5.833   3.725   6.404 -0.1315  0.0969  0.5754
 1091poe    c23 4447   5.952   3.816   6.439 -0.0165  0.0888  0.2194
 1091poe     o2 4448   5.968   3.818   6.579 -0.0185 -0.9874  0.2392
 1091poe    c23 4449   6.062   3.913   6.625 -0.4834 -0.2009 -0.4164
 1091poe    c23 4450   6.000   4.053   6.639  0.0758  0.0384 -0.3567
 1091poe     o2 4451   5.880   4.047   6.713  0.2255  0.2545 -0.0906
 1091poe    c31 4452   5.774   4.134   6.681 -0.1450  0.0442  0.5621
 1092poe    c31 4453   5.999   4.613   4.912  0.4850  0.5106 -1.0903
 1092poe     o2 4454   6.005   4.727   4.994 -0.9646 -0.5077  0.4941
 1092poe    c23 4455   5.878   4.771   5.037 -0.8631 -0.3220  0.6034
 1092poe    c23 4456   5.877   4.886   5.141  0.2088  0.0490  0.2141
 1092poe     o2 4457   5.996   4.860   5.213 -0.2292 -0.1694  0.8642
 1092poe    c23 4458   6.030   4.956   5.310 -0.1805  0.2933  0.3941
 1092poe    c23 4459   6.169   4.915   5.361  0.1654  0.5558 -0.3285
 1092poe     o2 4460   6.229   4.849   5.252 -0.0778  0.2493 -0.2784
 1092poe    c23 4461   6.355   4.798   5.291 -0.1772  0.1571 -0.0742
 1092poe    c23 4462   6.392   4.721   5.163  0.6396  0.2087  0.1219
 1092poe     o2 4463   6.280   4.652   5.110  0.8850  0.1377 -0.3075
 1092poe    c31 4464   6.327   4.580   4.998  0.4509  0.1980 -0.5273
 1093poe    c31 4465   5.626   4.693   3.281  0.0017  0.4419  0.4403
 1093poe     o2 4466   5.764   4.724   3.282  0.1641 -0.2344 -0.0825
 1093poe    c23 4467   5.805   4.750   3.150 -0.1259 -0.3205 -0.1896
 1093poe    c23 4468   5.950   4.800   3.141 -0.0896 -0.3441  0.2606
 1093poe     o2 4469   5.972   4.906   3.231  1.0186 -0.2859 -0.0597
 1093poe    c23 4470   6.083   4.984   3.195  0.8271 -0.1204 -0.2947
 1093poe    c23 4471   6.049   5.110   3.278 -0.7740 -0.6509 -0.1233
 1093poe     o2 4472   6.026   5.084   3.414 -1.0506 -0.3399 -0.1092
 1093poe    c23 4473   6.031   5.208   3.480  0.0176 -0.3113 -0.2263
 1093poe    c23 4474   5.942   5.209   3.606  0.3880 -0.6349  0.0409
 1093poe     o2 4475   5.805   5.198   3.576  0.3092 -0.3073  0.2757
 1093poe    c31 4476   5.727   5.199   3.694 -0.6414 -0.2076 -0.3409
 1094poe    c31 4477   5.757   5.576   1.326  0.4272 -0.0446 -0.2451
 1094poe     o2 4478   5.792   5.478   1.420 -0.3366  0.2236  0.3256
 1094poe    c23 4479   5.918   5.511   1.475 -0.2104 -0.0393  0.1968
 1094poe    c23 4480   5.942   5.439   1.609  0.2724 -0.3009 -0.0271
 1094poe     o2 4481   5.905   5.304   1.590  0.3043 -0.3329  0.1380
 1094poe    c23 4482   5.935   5.210   1.690  0.0679  0.1503  0.6675
 1094poe    c23 4483   5.909   5.074   1.623 -0.2265  0.4874  0.0849
 1094poe     o2 4484   5.772   5.068   1.588 -0.1798 -0.3436  0.0210
 1094poe    c23 4485   5.695   4.958   1.632  0.0319 -0.4878  0.0349
 1094poe    c23 4486   5.576   4.952   1.535  0.0772 -0.1280 -0.0446
 1094poe     o2 4487   5.503   5.071   1.556  0.4452  0.1284 -0.2071
 1094poe    c31 4488   5.399   5.083   1.462  0.4384  0.1136 -0.2017
 1095poe    c31 4489   3.728   0.379   5.913 -0.2590  0.5246  0.1011
 1095poe     o2 4490   3.696   0.310   6.032  0.1824  0.2074  0.0400
 1095poe    c23 4491   3.572   0.243   6.027 -0.0375  0.6148 -0.0411
 1095poe    c23 4492   3.526   0.223   6.173 -0.1867 -0.4452 -0.2257
 1095poe     o2 4493   3.642   0.175   6.238  0.0929 -0.0516 -0.4261
 1095poe    c23 4494   3.626   0.152   6.376 -0.2994 -0.1596 -0.4883
 1095poe    c23 4495   3.773   0.146   6.421 -0.3774 -0.0757 -0.2154
 1095poe     o2 4496   3.835   0.257   6.361  0.2539 -0.2800  0.0420
 1095poe    c23 4497   3.974   0.276   6.372  0.2228 -0.1111  0.1542
 1095poe    c23 4498   4.005   0.413   6.309  0.6046 -0.3450 -0.1720
 1095poe     o2 4499   3.933   0.408   6.188  0.0824 -0.1241  0.1247
 1095poe    c31 4500   4.008   0.480   6.092  0.5534 -0.2693  0.3821
 1096poe    c31 4501   2.072   4.584   4.161  0.3210 -0.1188 -0.5125
 1096poe     o2 4502   1.975   4.484   4.136  0.2389 -0.2776  0.4111
 1096poe    c23 4503   1.870   4.509   4.227  0.3422  1.1911  0.1490
 1096poe    c23 4504   1.761   4.409   4.186  0.8919  0.5494  0.2372
 1096poe     o2 4505   1.828   4.286   4.166 -0.0895  0.0509 -0.0637
 1096poe    c23 4506   1.745   4.195   4.097  0.1405 -0.1917 -0.0190
 1096poe    c23 4507   1.831   4.067   4.107  0.2238 -0.0897  0.6425
 1096poe     o2 4508   1.957   4.117   4.068  0.0052 -0.5576 -0.6992
 1096poe    c23 4509   2.062   4.051   4.135 -0.3212  0.4448  0.8333
 1096poe    c23 4510   2.189   4.120   4.082 -0.5502 -0.1540 -0.5236
 1096poe     o2 4511   2.175   4.255   4.119 -0.0949 -0.2817  0.1309
 1096poe    c31 4512   2.298   4.314   4.082 -0.2316 -0.1643 -0.1401
 1097poe    c31 4513   6.947   5.070   1.222  0.7919  0.3314  0.3742
 1097poe     o2 4514   6.880   5.194   1.233 -0.0067 -0.0677  0.1465
 1097poe    c23 4515   6.978   5.295   1.222  0.3207 -0.3546  0.3542
 1097poe    c23 4516   6.975   5.368   1.358 -0.3058  0.8343 -0.2752
 1097poe     o2 4517   6.844   5.413   1.383 -0.4622  0.3467 -0.1984
 1097poe    c23 4518   6.831   5.510   1.484 -0.2742 -0.3846  0.5398
 1097poe    c23 4519   6.682   5.542   1.505 -0.2048  0.2696  0.0789
 1097poe     o2 4520   6.598   5.429   1.508  0.2516 -0.0859 -0.3443
 1097poe    c23 4521   6.467   5.459   1.465  0.1021 -0.2241  0.0115
 1097poe    c23 4522   6.371   5.354   1.523 -0.2512  0.1090  0.0349
 1097poe     o2 4523   6.432   5.227   1.518 -0.2653  0.1051 -0.0292
 1097poe    c31 4524   6.333   5.129   1.540  0.5153 -0.8871 -0.8283
 1098poe    c31 4525   0.090   6.719   4.468  0.4575  0.1557 -0.5572
 1098poe     o2 4526   0.089   6.619   4.567 -0.1945  0.6104 -0.0936
 1098poe    c23 4527  -0.017   6.645   4.655 -0.5574  0.3725 -0.4574
 1098poe    c23 4528  -0.075   6.528   4.738  0.1185 -0.0035 -0.5092
 1098poe     o2 4529  -0.168   6.450   4.666 -0.2820 -0.3670  0.3829
 1098poe    c23 4530  -0.238   6.353   4.741  0.0146 -0.3716  0.6583
 1098poe    c23 4531  -0.166   6.218   4.758  0.6434 -0.0781  0.3857
 1098poe     o2 4532  -0.186   6.142   4.640 -0.3057  0.1076  0.4147
 1098poe    c23 4533  -0.136   6.010   4.644 -0.1367  0.1758  0.5626
 1098poe    c23 4534  -0.158   5.942   4.508  0.2964  0.1711  0.4934
 1098poe     o2 4535  -0.106   6.016   4.400 -0.2099 -0.3495 -0.1140
 1098poe    c31 4536  -0.027   5.935   4.316  0.1026 -0.0876 -0.0748
 1099poe    c31 4537   1.903   6.629   3.428  0.1302 -0.5081 -1.0673
 1099poe     o2 4538   1.947   6.718   3.328  0.0402  0.3585 -0.3480
 1099poe    c23 4539   1.920   6.848   3.373 -0.1142  0.2383 -0.0934
 1099poe    c23 4540   1.979   6.945   3.269 -0.0379 -0.0595 -0.3253
 1099poe     o2 4541   1.931   6.918   3.139  0.3238 -0.7877 -0.3118
 1099poe    c23 4542   1.998   6.983   3.034  0.1219 -0.4788 -0.2487
 1099poe    c23 4543   1.937   6.954   2.895  0.3225 -0.5408 -0.3238
 1099poe     o2 4544   1.916   6.815   2.889 -0.2776 -0.4678  0.0446
 1099poe    c23 4545   1.954   6.767   2.762  0.4745  0.0743  0.0609
 1099poe    c23 4546   2.009   6.624   2.780 -0.0913 -0.1328  0.1534
 1099poe     o2 4547   1.905   6.564   2.854 -0.1888 -0.0875  0.0529
 1099poe    c31 4548   1.891   6.432   2.805 -0.2718 -0.1522  0.2479
 1100poe    c31 4549   0.819   2.938   0.412  0.1345  0.0639 -0.0011
 1100poe     o2 4550   0.838   2.861   0.529 -0.3633 -0.0080  0.0380
 1100poe    c23 4551   0.974   2.861   0.567 -0.3838 -0.5044  0.1073
 1100poe    c23 4552   0.993   2.752   0.675  0.0996  0.2759  0.8264
 1100poe     o2 4553   0.925   2.795   0.790 -0.0749 -0.3218  0.9491
 1100poe    c23 4554   1.019   2.850   0.879  0.1344  0.0522  0.4998
 1100poe    c23 4555   0.943   2.919   0.994  0.2718  0.1575  0.5279
 1100poe     o2 4556   0.845   2.837   1.055  0.0709  0.0052  0.0032
 1100poe    c23 4557   0.730   2.912   1.087  0.4495  0.3067  0.6759
 1100poe    c23 4558   0.617   2.808   1.106 -0.0589  0.5580 -0.8673
 1100poe     o2 4559   0.610   2.738   0.984 -0.0453 -0.6501 -0.1788
 1100poe    c31 4560   0.513   2.636   0.991 -0.7747  0.0581  0.2088
 1101poe    c31 4561   5.417   3.443   5.430 -0.0997 -0.2364  0.3631
 1101poe     o2 4562   5.452   3.337   5.345  0.2109 -0.1629  0.3998
 1101poe    c23 4563   5.591   3.311   5.345  0.3809  0.7083 -0.0313
 1101poe    c23 4564   5.603   3.198   5.241  0.2549  0.5399  0.1349
 1101poe     o2 4565   5.599   3.255   5.112 -0.5292  0.3925  0.0888
 1101poe    c23 4566   5.582   3.164   5.006 -0.7312  0.0707  0.3959
 1101poe    c23 4567   5.462   3.068   4.995 -0.1098 -0.6678 -0.1411
 1101poe     o2 4568   5.339   3.139   4.997  0.2239 -0.0887  0.1105
 1101poe    c23 4569   5.271   3.135   4.873  0.5975  0.3944 -0.1134
 1101poe    c23 4570   5.130   3.195   4.882  0.4332  0.0136 -0.1774
 1101poe     o2 4571   5.062   3.144   4.995 -0.0529 -0.1740 -0.5475
 1101poe    c31 4572   4.922   3.156   5.009 -0.0276 -0.4615 -0.0083
 1102poe    c31 4573   3.114   5.801   4.008  0.5525 -0.3827  0.1087
 1102poe     o2 4574   3.057   5.723   4.111  0.4289 -0.0615  0.2869
 1102poe    c23 4575   2.938   5.663   4.065  0.3224  0.2355  0.1726
 1102poe    c23 4576   2.873   5.615   4.196 -0.2339 -0.0300 -0.1964
 1102poe     o2 4577   2.981   5.567   4.272 -0.1950 -0.1669 -0.3374
 1102poe    c23 4578   2.930   5.524   4.397  0.1696  0.0391 -0.1164
 1102poe    c23 4579   3.045   5.438   4.452  0.4602  0.3777 -0.1903
 1102poe     o2 4580   3.168   5.506   4.444  0.1986  0.9574  0.5932
 1102poe    c23 4581   3.279   5.424   4.472 -0.2121 -0.0072 -0.5582
 1102poe    c23 4582   3.391   5.499   4.546  0.2069 -0.8239 -0.3525
 1102poe     o2 4583   3.431   5.616   4.478  0.1821 -0.5430  0.1102
 1102poe    c31 4584   3.522   5.680   4.565  0.0249 -0.4872  0.2340
 1103poe    c31 4585   4.170   6.319   5.298 -0.3443 -0.1989 -0.1349
 1103poe     o2 4586   4.094   6.415   5.368 -0.0931 -0.2948  0.2733
 1103poe    c23 4587   3.963   6.368   5.349 -0.1960  0.1483 -0.1381
 1103poe    c23 4588   3.855   6.468   5.396 -0.6181 -0.4517  0.1805
 1103poe     o2 4589   3.874   6.532   5.520  0.1476  0.1760 -0.2500
 1103poe    c23 4590   3.787   6.639   5.545  0.0888 -0.0285  0.4618
 1103poe    c23 4591   3.869   6.728   5.640 -0.5156  0.8823  0.1506
 1103poe     o2 4592   3.976   6.774   5.560 -0.0743 -0.3940 -0.0109
 1103poe    c23 4593   4.054   6.858   5.641 -0.3418  0.5289 -0.7008
 1103poe    c23 4594   4.178   6.920   5.573  0.3881  0.2528  0.3498
 1103poe     o2 4595   4.120   6.972   5.456 -0.1134 -0.3066  0.3462
 1103poe    c31 4596   4.164   7.105   5.439  0.4370 -0.5516 -0.2010
 1104poe    c31 4597   0.548   4.655   4.367 -0.5659 -0.1464 -0.9296
 1104poe     o2 4598   0.667   4.607   4.307 -0.1094  0.0749 -0.2075
 1104poe    c23 4599   0.657   4.477   4.253 -0.3651 -0.2049  0.5002
 1104poe    c23 4600   0.790   4.410   4.216 -0.3235  0.2040 -0.1000
 1104poe     o2 4601   0.859   4.486   4.119 -0.1068  0.1677  0.0263
 1104poe    c23 4602   0.999   4.476   4.130 -0.1199  0.3945  0.4455
 1104poe    c23 4603   1.052   4.507   3.989 -0.6867 -0.3764  0.0539
 1104poe     o2 4604   1.001   4.627   3.936  0.2778  0.1467  0.2841
 1104poe    c23 4605   1.025   4.649   3.799 -0.0297  0.0681  0.2178
 1104poe    c23 4606   0.959   4.788   3.783  0.3183  0.1804 -0.2771
 1104poe     o2 4607   0.837   4.814   3.849  0.5880  0.4247  0.1313
 1104poe    c31 4608   0.757   4.901   3.772 -0.1346 -0.1384  0.2439
 1105poe    c31 4609   5.394   3.432   6.438  0.5036  0.1822  0.1266
 1105poe     o2 4610   5.290   3.337   6.440  0.4391  0.2496  0.0345
 1105poe    c23 4611   5.327   3.233   6.528  0.2992 -0.4653 -0.7396
 1105poe    c23 4612   5.229   3.115   6.549 -0.0777  0.0806  0.6750
 1105poe     o2 4613   5.224   3.050   6.424 -0.1261  0.4145  0.4997
 1105poe    c23 4614   5.213   2.912   6.455  0.3455  0.3338  0.3173
 1105poe    c23 4615   5.197   2.850   6.315  0.2039  0.3676  0.3183
 1105poe     o2 4616   5.328   2.853   6.263  0.0390 -0.3042 -0.1524
 1105poe    c23 4617   5.334   2.796   6.134 -0.0281  0.3183 -0.4373
 1105poe    c23 4618   5.477   2.761   6.086  0.1847  0.5657  0.0074
 1105poe     o2 4619   5.563   2.872   6.095  0.3270  0.4348  0.2522
 1105poe    c31 4620   5.670   2.826   6.017  0.0647 -0.2634  0.2974
 1106poe    c31 4621   6.553   6.719   4.469 -0.0894  0.0446 -0.2921
 1106poe     o2 4622   6.438   6.642   4.440 -0.2294  0.1552 -0.0262
 1106poe    c23 4623   6.330   6.711   4.382  0.1730  0.5539 -0.3097
 1106poe    c23 4624   6.244   6.788   4.484 -0.5848  0.1669 -0.6449
 1106poe     o2 4625   6.176   6.701   4.571 -0.2331 -0.0549 -0.5894
 1106poe    c23 4626   6.067   6.634   4.511 -0.4090 -0.2377 -0.0708
 1106poe    c23 4627   5.974   6.591   4.626 -0.0310 -0.5444  0.1228
 1106poe     o2 4628   6.055   6.528   4.723  0.1260 -0.3131  0.1436
 1106poe    c23 4629   5.983   6.487   4.838 -0.0743  0.1813  0.1959
 1106poe    c23 4630   6.090   6.437   4.936  0.1388 -0.1089 -0.1794
 1106poe     o2 4631   6.209   6.510   4.914 -0.1936  0.3920 -0.3351
 1106poe    c31 4632   6.301   6.496   5.020  0.0537 -0.1570 -0.6171
 1107poe    c31 4633   6.520   0.816   4.464  0.5210 -0.5939 -0.1378
 1107poe     o2 4634   6.656   0.844   4.488  0.3404  0.2058  0.0083
 1107poe    c23 4635   6.734   0.789   4.384 -0.0417 -0.0799 -0.1320
 1107poe    c23 4636   6.887   0.791   4.407 -0.0724 -0.3615  0.0961
 1107poe     o2 4637   6.943   0.908   4.462  0.6656 -0.2033 -0.9555
 1107poe    c23 4638   7.076   0.879   4.499  0.3722 -0.9053 -0.4144
 1107poe    c23 4639   7.133   1.021   4.519 -0.0470 -0.7748 -0.1168
 1107poe     o2 4640   7.041   1.101   4.589  0.1331 -0.3198 -0.3949
 1107poe    c23 4641   7.097   1.228   4.613 -0.0445 -0.4255  0.5947
 1107poe    c23 4642   7.009   1.288   4.725 -0.2837 -0.9266  0.6825
 1107poe     o2 4643   6.873   1.269   4.697 -0.3584 -0.0727  0.4272
 1107poe    c31 4644   6.803   1.372   4.763 -0.0004  0.3404  0.1609
 1108poe    c31 4645   2.079   1.977   2.849 -0.4984  0.0381 -0.0296
 1108poe     o2 4646   2.026   1.914   2.734 -0.1429 -0.1946 -0.0690
 1108poe    c23 4647   1.965   1.795   2.778  0.1183 -0.2862  0.0463
 1108poe    c23 4648   1.905   1.716   2.661  0.0054  0.7229 -0.5887
 1108poe     o2 4649   1.795   1.788   2.609 -0.5250 -0.0143 -0.5025
 1108poe    c23 4650   1.746   1.718   2.497 -0.3921 -0.1323 -0.4871
 1108poe    c23 4651   1.634   1.801   2.432  0.0043  0.1921 -0.7664
 1108poe     o2 4652   1.669   1.936   2.414  0.3103  0.1630 -0.3860
 1108poe    c23 4653   1.581   2.001   2.326 -0.4576 -0.2366  0.0826
 1108poe    c23 4654   1.602   2.153   2.311  0.2096 -0.3240  0.1042
 1108poe     o2 4655   1.721   2.176   2.239  0.3797  0.1353  0.5308
 1108poe    c31 4656   1.735   2.308   2.191  0.6819 -0.2313 -0.4085
 1109poe    c31 4657   0.426   0.426   5.479  0.1965  0.0902 -0.3967
 1109poe     o2 4658   0.419   0.508   5.364  0.1842 -0.0952 -0.5288
 1109poe    c23 4659   0.495   0.474   5.250  0.4397  0.5782 -0.5627
 1109poe    c23 4660   0.409   0.382   5.162 -0.3338  0.3646  0.3983
 1109poe     o2 4661   0.311   0.456   5.092 -0.4338 -0.1642 -0.0295
 1109poe    c23 4662   0.290   0.381   4.975  0.2989 -0.0627 -0.2303
 1109poe    c23 4663   0.219   0.460   4.864 -0.0706  0.1809  0.1773
 1109poe     o2 4664   0.127   0.547   4.926 -0.2436 -0.0812  0.2871
 1109poe    c23 4665   0.058   0.634   4.839  0.3092 -0.2158 -0.2945
 1109poe    c23 4666  -0.016   0.750   4.909  0.1156 -0.7472  0.3906
 1109poe     o2 4667   0.072   0.840   4.972 -0.3423  0.1416 -0.2135
 1109poe    c31 4668   0.004   0.949   5.029  0.1121  0.3050  0.0270
 1110poe    c31 4669   4.853   3.973   0.540 -0.0996  1.0270 -0.4206
 1110poe     o2 4670   4.925   3.867   0.479  0.4775  1.0388  0.2184
 1110poe    c23 4671   4.868   3.832   0.355 -0.3776 -0.4317  0.9973
 1110poe    c23 4672   4.947   3.711   0.302 -0.3463 -0.0027  0.0499
 1110poe     o2 4673   4.958   3.611   0.401  0.3925  0.2745  0.2516
 1110poe    c23 4674   5.033   3.501   0.354 -0.0526  0.2354 -0.3851
 1110poe    c23 4675   5.088   3.414   0.468 -0.4140  0.5816  0.0562
 1110poe     o2 4676   5.191   3.473   0.545 -0.0038 -0.5019  0.3675
 1110poe    c23 4677   5.211   3.401   0.664  0.1836 -0.5349  0.3152
 1110poe    c23 4678   5.365   3.397   0.680  0.2311  0.0098  0.0145
 1110poe     o2 4679   5.395   3.526   0.630 -0.3324  0.1572  0.0407
 1110poe    c31 4680   5.524   3.575   0.659 -0.2539 -0.5366  0.9163
 1111poe    c31 4681   4.285   0.538   3.841 -0.4188  0.4248 -0.0273
 1111poe     o2 4682   4.261   0.645   3.930  0.1153  0.0746  0.5444
 1111poe    c23 4683   4.140   0.631   4.000 -0.2639  0.3639 -0.0466
 1111poe    c23 4684   4.129   0.752   4.094 -0.6605  0.0545  0.3112
 1111poe     o2 4685   4.151   0.859   4.004 -0.1020  0.0501  0.4389
 1111poe    c23 4686   4.152   0.981   4.074 -0.0206  0.2486  0.0928
 1111poe    c23 4687   4.150   1.080   3.956 -0.4132  0.0112 -0.1022
 1111poe     o2 4688   4.254   1.061   3.863 -0.4779  0.2683 -0.2265
 1111poe    c23 4689   4.298   1.190   3.824  0.7589 -0.0173  0.1725
 1111poe    c23 4690   4.405   1.181   3.715  0.7403 -0.4131  0.1869
 1111poe     o2 4691   4.352   1.107   3.607  0.4825 -0.4515  0.3392
 1111poe    c31 4692   4.423   1.124   3.486 -0.4030  0.1994 -0.1016
 1112poe    c31 4693   2.161   1.657   0.335 -0.3215 -0.3706 -0.4622
 1112poe     o2 4694   2.286   1.594   0.355  0.0001  0.4180  0.0774
 1112poe    c23 4695   2.320   1.514   0.243  0.0112  0.1414  0.2782
 1112poe    c23 4696   2.452   1.443   0.280  0.2823  0.1090 -0.7249
 1112poe     o2 4697   2.542   1.529   0.345 -0.6025  0.1454  0.5004
 1112poe    c23 4698   2.668   1.558   0.287 -0.2213 -0.8567  0.8033
 1112poe    c23 4699   2.743   1.655   0.380 -0.2517 -0.2140  0.1713
 1112poe     o2 4700   2.743   1.597   0.509 -0.0388 -0.2203  0.1691
 1112poe    c23 4701   2.815   1.671   0.605 -0.1058 -0.1530  0.1679
 1112poe    c23 4702   2.818   1.579   0.729  0.3798 -0.1583  0.1525
 1112poe     o2 4703   2.689   1.523   0.743  0.1711  0.3562  0.2868
 1112poe    c31 4704   2.662   1.450   0.860  0.0643 -0.5960 -0.3212
 1113poe    c31 4705   6.500   1.053   3.665  0.3302  0.3258 -0.2606
 1113poe     o2 4706   6.408   1.121   3.748 -0.1800 -0.6951  0.0265
 1113poe    c23 4707   6.282   1.108   3.686 -0.1963 -0.2423 -0.0421
 1113poe    c23 4708   6.172   1.147   3.787 -0.1471  0.4449 -0.2496
 1113poe     o2 4709   6.145   1.035   3.868  0.0403  0.4267 -0.2098
 1113poe    c23 4710   6.044   1.080   3.955 -0.1686 -0.2924 -0.0737
 1113poe    c23 4711   6.047   1.002   4.088 -0.3426  0.3258  0.2950
 1113poe     o2 4712   6.069   0.869   4.049 -0.1982  0.3148  0.4133
 1113poe    c23 4713   6.086   0.776   4.154 -0.4299  0.3748  0.5048
 1113poe    c23 4714   6.125   0.633   4.111  0.2944  0.5008  0.7228
 1113poe     o2 4715   6.225   0.644   4.013  0.1660  0.1735  0.5547
 1113poe    c31 4716   6.259   0.522   3.950  0.2535  0.2874  0.3806
 1114poe    c31 4717   6.451   4.450   6.683  0.4066  0.0496 -0.7974
 1114poe     o2 4718   6.390   4.558   6.616 -0.2421 -0.2523 -0.6957
 1114poe    c23 4719   6.486   4.655   6.581 -0.4975  0.1403 -0.3256
 1114poe    c23 4720   6.431   4.796   6.554 -0.2815  0.2414 -0.2402
 1114poe     o2 4721   6.344   4.803   6.443 -0.1090  0.0958 -0.3838
 1114poe    c23 4722   6.321   4.936   6.404  0.3035  0.1768 -0.3502
 1114poe    c23 4723   6.208   4.930   6.301 -0.0930 -0.3780  0.1161
 1114poe     o2 4724   6.087   4.881   6.355 -0.3544  0.3920  0.2451
 1114poe    c23 4725   5.979   4.893   6.264 -0.4571 -0.0726  0.3032
 1114poe    c23 4726   5.940   4.747   6.233  0.1445 -0.2576  0.3959
 1114poe     o2 4727   6.016   4.675   6.138 -0.1173  0.0519 -0.0528
 1114poe    c31 4728   5.931   4.574   6.088  0.2777 -0.4274  0.2432
 1115poe    c31 4729   1.682   6.285   6.911  0.0602  0.1852  0.7076
 1115poe     o2 4730   1.683   6.371   7.022 -0.2098  0.6775  0.3339
 1115poe    c23 4731   1.818   6.405   7.046  0.0962 -0.2889  0.0193
 1115poe    c23 4732   1.837   6.548   7.099 -0.3100 -0.0686 -0.4268
 1115poe     o2 4733   1.818   6.656   7.010  0.0488  0.0142 -0.4003
 1115poe    c23 4734   1.680   6.683   7.012  0.0459 -0.0261 -0.0151
 1115poe    c23 4735   1.640   6.831   7.028  0.0777 -0.0336  0.1353
 1115poe     o2 4736   1.703   6.877   7.146 -0.3876 -0.1789  0.4450
 1115poe    c23 4737   1.660   7.010   7.169 -0.4272 -0.0970 -0.0809
 1115poe    c23 4738   1.741   7.066   7.287  0.1578 -0.4517 -0.3096
 1115poe     o2 4739   1.881   7.065   7.265  0.2393 -0.6584  0.1868
 1115poe    c31 4740   1.955   7.105   7.378 -0.5327 -0.7556  0.7365
 1116poe    c31 4741   1.482   0.476   6.568  0.0972 -0.2664  0.0270
 1116poe     o2 4742   1.537   0.355   6.615  0.6283  0.0685  0.2701
 1116poe    c23 4743   1.674   0.363   6.647  0.7460 -0.5106 -0.0803
 1116poe    c23 4744   1.715   0.214   6.651 -0.1609 -0.7591  0.2043
 1116poe     o2 4745   1.675   0.161   6.527  0.5406 -0.1950 -0.2713
 1116poe    c23 4746   1.694   0.021   6.532  0.8352 -0.1199  0.8447
 1116poe    c23 4747   1.659  -0.046   6.398 -0.1795 -0.4730  1.2782
 1116poe     o2 4748   1.536   0.009   6.356  0.2797 -0.0735  0.4373
 1116poe    c23 4749   1.488  -0.039   6.232 -0.4676  0.2456  0.5989
 1116poe    c23 4750   1.550   0.021   6.105 -0.6123  0.0794  0.4501
 1116poe     o2 4751   1.516   0.157   6.093  0.9521  0.4707  0.3490
 1116poe    c31 4752   1.531   0.194   5.958  0.5848 -0.0706  0.1596
 1117poe    c31 4753   1.674   2.721   5.770  0.0608 -0.5223  0.5679
 1117poe     o2 4754   1.591   2.802   5.849  0.0697  0.1810 -0.1297
 1117poe    c23 4755   1.488   2.731   5.915 -0.6938  0.8007 -0.6412
 1117poe    c23 4756   1.424   2.829   6.015  0.1218  0.2381  0.4572
 1117poe     o2 4757   1.390   2.955   5.961  0.0904 -0.1615 -0.4784
 1117poe    c23 4758   1.384   3.067   6.046 -0.0032 -0.1737 -0.4680
 1117poe    c23 4759   1.366   3.203   5.977 -0.1435  0.1162  0.1273
 1117poe     o2 4760   1.269   3.177   5.878 -0.1843 -0.0940  0.2228
 1117poe    c23 4761   1.249   3.298   5.808 -0.1208 -0.0954  0.2025
 1117poe    c23 4762   1.271   3.257   5.661 -0.7994 -0.4016  0.1796
 1117poe     o2 4763   1.247   3.122   5.632  0.0261 -0.4575 -0.2549
 1117poe    c31 4764   1.234   3.101   5.493 -0.1011  0.2614 -0.3515
 1118poe    c31 4765   0.788   3.925   4.614  0.4709 -0.2384  0.1898
 1118poe     o2 4766   0.656   3.954   4.656  0.4426  0.3358 -0.2809
 1118poe    c23 4767   0.638   3.884   4.777 -0.0804 -0.6006 -0.8829
 1118poe    c23 4768   0.487   3.878   4.809  0.0352  0.1762 -0.1574
 1118poe     o2 4769   0.420   3.815   4.703  0.1010  0.3266 -0.2885
 1118poe    c23 4770   0.281   3.840   4.698  0.0448  0.1050  0.1431
 1118poe    c23 4771   0.252   3.959   4.605  0.0081  0.0043  0.0238
 1118poe     o2 4772   0.344   3.948   4.499  0.1244 -0.1786  0.1429
 1118poe    c23 4773   0.337   4.063   4.417  0.5428 -0.1773  0.1099
 1118poe    c23 4774   0.453   4.064   4.316  0.1928 -0.1194 -0.2934
 1118poe     o2 4775   0.575   4.037   4.381  0.1036  0.3162  0.0597
 1118poe    c31 4776   0.679   4.037   4.285  0.5045 -0.2529  0.4868
 1119poe    c31 4777   5.542   2.903   2.343  0.6524  0.8126  0.0779
 1119poe     o2 4778   5.459   2.986   2.421 -0.0258 -0.4668  0.7438
 1119poe    c23 4779   5.352   2.918   2.484 -1.3046  0.0714 -0.7609
 1119poe    c23 4780   5.335   2.958   2.632  0.3948  0.1275 -0.5615
 1119poe     o2 4781   5.329   3.095   2.664 -0.0777 -0.0845  0.2769
 1119poe    c23 4782   5.359   3.107   2.802  0.2225 -0.5866  0.2553
 1119poe    c23 4783   5.346   3.254   2.846  0.0522 -0.4690 -0.1802
 1119poe     o2 4784   5.438   3.328   2.770 -0.0659 -0.3675 -0.2238
 1119poe    c23 4785   5.427   3.467   2.791 -0.1150 -0.4338  0.2020
 1119poe    c23 4786   5.555   3.529   2.730 -0.5691  0.1450 -0.1828
 1119poe     o2 4787   5.605   3.435   2.637 -0.4253 -0.0730  0.1122
 1119poe    c31 4788   5.692   3.509   2.555 -0.1256 -0.2742  0.2460
 1120poe    c31 4789   2.822   5.140   1.457  0.6222 -0.3858 -0.0496
 1120poe     o2 4790   2.832   5.034   1.549 -0.1331 -0.1388  0.3286
 1120poe    c23 4791   2.740   4.936   1.508 -0.0360 -0.3294  0.5613
 1120poe    c23 4792   2.761   4.798   1.572 -0.0332 -0.4929  0.2120
 1120poe     o2 4793   2.761   4.826   1.711  0.2227  0.2722  0.0612
 1120poe    c23 4794   2.841   4.734   1.782  0.0075  0.0941  0.0742
 1120poe    c23 4795   2.881   4.807   1.912 -0.6930  0.1774  0.2465
 1120poe     o2 4796   2.941   4.923   1.859 -0.6495  0.2385  0.4307
 1120poe    c23 4797   3.028   4.996   1.942  0.4665 -0.3282 -0.2173
 1120poe    c23 4798   3.065   5.123   1.863  0.2722 -0.4731 -0.5383
 1120poe     o2 4799   2.964   5.156   1.770  0.2813  0.4164 -0.2347
 1120poe    c31 4800   2.953   5.296   1.753 -0.0659  0.4384  0.1585
 1121poe    c31 4801   4.781   3.610   1.936 -0.3123  0.6518 -0.0909
 1121poe     o2 4802   4.741   3.695   1.830 -0.2658  0.8700  0.0661
 1121poe    c23 4803   4.829   3.796   1.788  0.5396  0.4208  0.6358
 1121poe    c23 4804   4.749   3.897   1.703  0.3415  0.0775  0.4124
 1121poe     o2 4805   4.717   3.855   1.572  0.0045  0.4437  0.3743
 1121poe    c23 4806   4.644   3.951   1.499 -0.0647 -0.1635 -0.3618
 1121poe    c23 4807   4.559   3.886   1.388  0.1722 -0.3002 -0.4629
 1121poe     o2 4808   4.631   3.787   1.318  0.3159 -0.0841 -0.6233
 1121poe    c23 4809   4.570   3.751   1.196 -0.3612 -0.1954 -0.2557
 1121poe    c23 4810   4.644   3.630   1.135  0.2049  0.0732 -0.1129
 1121poe     o2 4811   4.779   3.659   1.164  0.3375 -0.1370 -0.5197
 1121poe    c31 4812   4.856   3.563   1.095 -0.1748 -0.4191 -0.7098
 1122poe    c31 4813   0.109   4.172   3.356 -0.2826  0.7907  0.1908
 1122poe     o2 4814   0.228   4.157   3.281 -0.5485  0.4271 -0.1665
 1122poe    c23 4815   0.290   4.282   3.259  0.2834  0.0133 -0.1882
 1122poe    c23 4816   0.399   4.275   3.151 -0.1569 -0.6801 -0.5936
 1122poe     o2 4817   0.471   4.162   3.196 -0.1674 -0.4140  0.0982
 1122poe    c23 4818   0.561   4.109   3.101  0.6604  0.0962  0.5890
 1122poe    c23 4819   0.640   4.010   3.188  0.1571  0.0329  0.9830
 1122poe     o2 4820   0.544   3.921   3.239 -0.2164 -0.0104  0.2108
 1122poe    c23 4821   0.609   3.822   3.316 -0.3046  0.2181  0.5813
 1122poe    c23 4822   0.509   3.718   3.369  0.0417 -0.4132  0.0085
 1122poe     o2 4823   0.426   3.780   3.465  0.3439 -0.0161  0.0137
 1122poe    c31 4824   0.357   3.686   3.544  0.5795 -0.0788  0.1471
 1123poe    c31 4825   5.300   5.886   1.322 -0.4400  0.2575  0.9488
 1123poe     o2 4826   5.311   6.025   1.303 -0.4758  0.2102  0.5699
 1123poe    c23 4827   5.193   6.087   1.258 -0.2221  0.2995  0.0194
 1123poe    c23 4828   5.212   6.233   1.211  0.5961  0.1831 -0.0147
 1123poe     o2 4829   5.212   6.319   1.323  0.7738 -0.1815  0.2668
 1123poe    c23 4830   5.224   6.452   1.279  0.4179 -0.0683  0.5110
 1123poe    c23 4831   5.243   6.547   1.399 -0.2333  0.3165  0.3170
 1123poe     o2 4832   5.341   6.492   1.485 -0.0382 -0.2258 -0.2481
 1123poe    c23 4833   5.380   6.563   1.600 -0.0795 -0.7523  0.0977
 1123poe    c23 4834   5.495   6.472   1.646  0.5040 -0.1131 -0.0822
 1123poe     o2 4835   5.459   6.338   1.668 -0.4361  0.1819  0.2040
 1123poe    c31 4836   5.546   6.281   1.764 -0.1118 -0.1184 -0.2659
 1124poe    c31 4837   5.367   0.459   3.105  0.4580 -0.7534  0.7564
 1124poe     o2 4838   5.381   0.319   3.114 -0.0660 -0.8465  0.1915
 1124poe    c23 4839   5.397   0.261   2.986  0.2648 -0.2369 -0.0501
 1124poe    c23 4840   5.395   0.107   2.988  0.3599 -0.2472 -0.6385
 1124poe     o2 4841   5.509   0.052   3.049  0.4316  0.2440 -0.3223
 1124poe    c23 4842   5.498  -0.088   3.062 -0.2064  0.3174 -0.0544
 1124poe    c23 4843   5.601  -0.121   3.172 -0.7649  0.4603  0.5213
 1124poe     o2 4844   5.566  -0.102   3.307 -0.7713  0.0723  0.5762
 1124poe    c23 4845   5.682  -0.124   3.383 -0.4645  0.2449  0.1659
 1124poe    c23 4846   5.649  -0.115   3.533  0.5450  0.0666  0.4110
 1124poe     o2 4847   5.619   0.012   3.588  0.6064  0.0959  0.3743
 1124poe    c31 4848   5.630   0.006   3.728  0.0134  0.2663  0.4293
 1125poe    c31 4849   2.132   6.855   4.738 -0.2739  0.7823  0.0668
 1125poe     o2 4850   2.017   6.855   4.657  0.0173 -0.2112 -0.3627
 1125poe    c23 4851   2.009   6.976   4.586 -0.5403 -0.0635 -0.0589
 1125poe    c23 4852   1.899   6.980   4.479 -0.5626 -0.2514 -0.0433
 1125poe     o2 4853   1.889   6.851   4.423  0.4076 -0.2351 -0.2798
 1125poe    c23 4854   1.774   6.850   4.342  0.3957 -0.0800 -0.2655
 1125poe    c23 4855   1.706   6.715   4.309  0.3715 -0.1023 -0.1246
 1125poe     o2 4856   1.658   6.656   4.427  0.5609  0.0545  0.0320
 1125poe    c23 4857   1.613   6.528   4.387  0.0529  0.1348  0.3294
 1125poe    c23 4858   1.542   6.461   4.505 -0.1474  0.6466  0.5010
 1125poe     o2 4859   1.644   6.435   4.599  0.3732 -0.0213 -0.2414
 1125poe    c31 4860   1.596   6.366   4.711 -0.2232 -0.3134 -0.6705
 1126poe    c31 4861   3.709   4.325   6.889 -0.0524  0.5064  0.0670
 1126poe     o2 4862   3.847   4.339   6.862 -0.0865  0.3844 -0.1735
 1126poe    c23 4863   3.924   4.421   6.947  0.1422  0.5800 -0.5630
 1126poe    c23 4864   4.075   4.406   6.919  0.3530  0.7680  0.4168
 1126poe     o2 4865   4.113   4.452   6.791  0.1741  0.0973  0.1195
 1126poe    c23 4866   4.253   4.472   6.788  0.2150 -0.1841  0.0863
 1126poe    c23 4867   4.319   4.485   6.649 -0.3677 -0.0690 -0.1870
 1126poe     o2 4868   4.229   4.572   6.584 -0.6276 -0.2670 -0.0933
 1126poe    c23 4869   4.270   4.599   6.452 -0.0621  0.1909  0.1678
 1126poe    c23 4870   4.150   4.678   6.395  0.0273  0.1755 -0.0450
 1126poe     o2 4871   4.037   4.598   6.424 -0.1323  0.4497  0.0943
 1126poe    c31 4872   3.957   4.563   6.313 -0.0379  0.1683  0.1152
 1127poe    c31 4873   5.076   5.751   5.435  0.8042  0.5117 -0.3099
 1127poe     o2 4874   5.116   5.849   5.529  0.1892 -0.3306  0.8489
 1127poe    c23 4875   5.062   5.976   5.503 -0.5433 -0.7238  0.3958
 1127poe    c23 4876   5.066   6.069   5.626  0.6089 -0.9090  0.5055
 1127poe     o2 4877   5.184   6.051   5.702  0.7182 -0.3505  0.4700
 1127poe    c23 4878   5.177   6.113   5.829  0.4973  0.1313  0.2284
 1127poe    c23 4879   5.281   6.035   5.913  0.4236  0.0966  0.2874
 1127poe     o2 4880   5.266   5.899   5.882  0.0034  0.2602 -0.2428
 1127poe    c23 4881   5.359   5.820   5.952 -0.2234 -0.1648 -0.4177
 1127poe    c23 4882   5.307   5.722   6.059  0.4035 -0.1208 -0.0652
 1127poe     o2 4883   5.213   5.629   6.010  0.2494  0.0609 -0.1178
 1127poe    c31 4884   5.153   5.562   6.119  0.6905  0.6590  0.5024
 1128poe    c31 4885   1.554   3.124   3.439  0.1668 -0.0809 -0.5588
 1128poe     o2 4886   1.504   3.109   3.569  0.2684  0.3666 -0.4667
 1128poe    c23 4887   1.377   3.169   3.581 -0.1006 -0.5844  0.6308
 1128poe    c23 4888   1.335   3.196   3.727 -0.9932 -0.3775  0.3455
 1128poe     o2 4889   1.358   3.090   3.817  0.4614 -0.5977 -0.2577
 1128poe    c23 4890   1.336   3.124   3.952  0.3756 -0.4325 -0.3129
 1128poe    c23 4891   1.370   3.004   4.043  0.0188 -0.3512 -0.0690
 1128poe     o2 4892   1.508   2.975   4.040 -0.0192 -0.5616  0.2227
 1128poe    c23 4893   1.535   2.876   4.136  0.3503  0.0067  0.7047
 1128poe    c23 4894   1.687   2.848   4.144  0.2927 -0.5755 -0.1547
 1128poe     o2 4895   1.761   2.948   4.078 -0.2215  0.2328  0.4778
 1128poe    c31 4896   1.894   2.925   4.120 -0.1981 -0.0558  0.2464
 1129poe    c31 4897   1.204   0.666   2.075  0.1394 -0.1057  0.3972
 1129poe     o2 4898   1.234   0.528   2.075 -0.1038 -0.1597  0.1647
 1129poe    c23 4899   1.254   0.501   1.938 -0.4165  0.0239  0.0813
 1129poe    c23 4900   1.209   0.362   1.889 -0.1729 -0.1539  0.3574
 1129poe     o2 4901   1.072   0.334   1.904 -0.2767 -0.0120 -0.2726
 1129poe    c23 4902   1.044   0.226   1.991 -0.1286  0.3746  0.2637
 1129poe    c23 4903   1.005   0.093   1.924  0.2868  0.2162  0.3334
 1129poe     o2 4904   0.901   0.110   1.830  0.0939 -0.4505  0.4180
 1129poe    c23 4905   0.814  -0.000   1.816  0.1142 -0.4578  0.3462
 1129poe    c23 4906   0.835  -0.099   1.700  0.1140  0.3418 -0.3438
 1129poe     o2 4907   0.932  -0.199   1.717  0.4799  0.5961 -0.9086
 1129poe    c31 4908   0.918  -0.294   1.613  0.1368 -0.3523 -0.0119
 1130poe    c31 4909   0.543   2.994   3.831 -0.4177 -0.4501 -0.4953
 1130poe     o2 4910   0.478   3.114   3.865 -0.3272 -0.6272  0.3155
 1130poe    c23 4911   0.396   3.149   3.756  0.0588 -0.2204  0.1521
 1130poe    c23 4912   0.312   3.274   3.788  0.4859 -0.0121  0.4740
 1130poe     o2 4913   0.202   3.245   3.871  0.0917 -0.2680 -0.1269
 1130poe    c23 4914   0.126   3.363   3.878 -0.6240 -0.7467  0.2902
 1130poe    c23 4915   0.028   3.359   3.997 -0.3850  0.4067  0.5420
 1130poe     o2 4916   0.094   3.309   4.111  0.2849  0.5707  0.2330
 1130poe    c23 4917   0.022   3.334   4.230 -0.3774  0.2573 -0.0934
 1130poe    c23 4918   0.120   3.312   4.348 -0.6105 -0.2255  0.0124
 1130poe     o2 4919   0.144   3.175   4.369  0.0492 -0.1155 -0.0182
 1130poe    c31 4920   0.240   3.165   4.472  0.6467  0.0031 -0.5596
 1131poe    c31 4921   3.730   0.076   0.771 -0.5113  0.3106  0.5075
 1131poe     o2 4922   3.627  -0.008   0.818 -0.2757 -0.0728  0.3373
 1131poe    c23 4923   3.506   0.064   0.824 -0.1786  0.0600  0.7189
 1131poe    c23 4924   3.412  -0.017   0.915 -0.4058 -0.5784 -0.0743
 1131poe     o2 4925   3.419  -0.151   0.870  0.5966 -0.5527 -0.0203
 1131poe    c23 4926   3.334  -0.241   0.938  0.1091  0.2002  0.3809
 1131poe    c23 4927   3.388  -0.380   0.902  0.4617  0.3697  0.2456
 1131poe     o2 4928   3.529  -0.380   0.906  0.4933 -0.1789 -0.4804
 1131poe    c23 4929   3.583  -0.504   0.866  0.7671 -0.1922 -0.0846
 1131poe    c23 4930   3.687  -0.559   0.965  0.4427  0.0094  0.3707
 1131poe     o2 4931   3.800  -0.475   0.962  0.4407  0.0050  0.1817
 1131poe    c31 4932   3.922  -0.528   1.010  0.4283 -0.3055 -0.1226
 1132poe    c31 4933   2.334   2.743   2.727  0.3613 -0.5188  0.1302
 1132poe     o2 4934   2.400   2.786   2.610 -0.4948  0.1013 -0.1338
 1132poe    c23 4935   2.476   2.683   2.552 -0.7241  0.4723 -1.1033
 1132poe    c23 4936   2.532   2.745   2.423  0.2456  0.3617 -0.7442
 1132poe     o2 4937   2.426   2.827   2.378 -0.5499 -0.1694  0.1213
 1132poe    c23 4938   2.461   2.889   2.256  0.1470  0.4472  0.6225
 1132poe    c23 4939   2.354   2.994   2.217 -0.2224 -0.1963 -0.1313
 1132poe     o2 4940   2.331   3.077   2.329  0.0684  0.2926 -0.4288
 1132poe    c23 4941   2.269   3.201   2.303 -1.0857 -0.1413  0.1959
 1132poe    c23 4942   2.291   3.303   2.416 -0.0092 -0.3911  0.2250
 1132poe     o2 4943   2.240   3.256   2.539 -0.4840 -0.0094  0.1784
 1132poe    c31 4944   2.236   3.364   2.630 -0.4730 -0.0335  0.2077
 1133poe    c31 4945   4.763   5.552   6.421  0.0752 -0.4459  1.0796
 1133poe     o2 4946   4.663   5.517   6.327  0.5289 -0.0102  0.4314
 1133poe    c23 4947   4.585   5.406   6.362  0.0366  0.2114  0.0475
 1133poe    c23 4948   4.442   5.443   6.318 -0.0246  0.3390  0.3485
 1133poe     o2 4949   4.439   5.468   6.179 -0.0858 -0.4265  0.2051
 1133poe    c23 4950   4.306   5.507   6.155  0.1426  0.4806  0.3528
 1133poe    c23 4951   4.288   5.552   6.009  0.4860 -0.5807 -0.0244
 1133poe     o2 4952   4.381   5.650   5.967  0.6124 -0.6792  0.0230
 1133poe    c23 4953   4.349   5.698   5.838  0.3557 -0.8063  0.0368
 1133poe    c23 4954   4.462   5.796   5.801 -0.4733  0.0378 -0.2837
 1133poe     o2 4955   4.587   5.740   5.835 -0.2892  0.6694  0.0921
 1133poe    c31 4956   4.684   5.842   5.834  0.7847 -0.3354 -0.4331
 1134poe    c31 4957   0.139   4.465   5.558  0.4811  0.1796 -0.5421
 1134poe     o2 4958   0.147   4.545   5.673  0.4699  0.6213 -0.8465
 1134poe    c23 4959   0.258   4.500   5.747  0.1629 -0.0927 -0.8153
 1134poe    c23 4960   0.270   4.595   5.868 -1.1359  0.0381 -0.7688
 1134poe     o2 4961   0.142   4.605   5.926 -0.8356  0.0931 -0.1038
 1134poe    c23 4962   0.174   4.635   6.060 -0.7817  0.1111 -0.1204
 1134poe    c23 4963   0.060   4.614   6.161 -0.2403 -0.5191  0.3662
 1134poe     o2 4964  -0.055   4.682   6.119  0.1836 -0.1556 -0.2196
 1134poe    c23 4965  -0.176   4.634   6.172 -0.0362  0.5177 -0.0938
 1134poe    c23 4966  -0.304   4.683   6.102 -0.7388 -0.2796  0.6048
 1134poe     o2 4967  -0.290   4.670   5.963  0.5114 -0.1045  0.7099
 1134poe    c31 4968  -0.416   4.678   5.901  0.7831  0.2375  0.1877
 1135poe    c31 4969   1.659   5.975   4.861 -0.5185  0.0095  0.0451
 1135poe     o2 4970   1.713   5.903   4.752 -0.0557  0.0690  0.2301
 1135poe    c23 4971   1.640   5.783   4.745 -0.5804  0.4046 -0.1699
 1135poe    c23 4972   1.704   5.710   4.625 -0.5709  0.1774 -0.0261
 1135poe     o2 4973   1.696   5.791   4.510  0.5696  0.3778  0.0227
 1135poe    c23 4974   1.734   5.722   4.393 -0.2904  0.0603 -0.0811
 1135poe    c23 4975   1.744   5.821   4.275  0.1760  0.0551 -0.0481
 1135poe     o2 4976   1.855   5.906   4.293 -0.2835  0.6631 -0.0443
 1135poe    c23 4977   1.876   5.973   4.171 -0.2904 -0.2421 -0.5556
 1135poe    c23 4978   2.009   6.050   4.183 -0.3201 -0.1240 -0.9678
 1135poe     o2 4979   1.977   6.145   4.282  0.3494 -0.0915 -0.7769
 1135poe    c31 4980   2.038   6.272   4.273  0.1126  0.1270  0.5121
 1136poe    c31 4981   6.832   0.214   4.420  0.2991  0.2747 -0.2715
 1136poe     o2 4982   6.773   0.274   4.533  0.2843  0.2686 -0.2760
 1136poe    c23 4983   6.848   0.386   4.574 -0.2937  0.3052  0.7086
 1136poe    c23 4984   6.771   0.462   4.684  0.1264  0.6714  0.7554
 1136poe     o2 4985   6.639   0.484   4.640  0.3428  0.2202 -0.1533
 1136poe    c23 4986   6.562   0.567   4.725  0.1587  0.1080 -0.2083
 1136poe    c23 4987   6.547   0.543   4.876  0.0834 -0.6403 -0.3305
 1136poe     o2 4988   6.674   0.556   4.937 -0.2234  0.2128  0.1514
 1136poe    c23 4989   6.665   0.524   5.074 -0.1957  0.3004  0.1736
 1136poe    c23 4990   6.796   0.481   5.144  0.1372 -0.1126 -0.6894
 1136poe     o2 4991   6.892   0.581   5.170  0.1870 -0.2973 -0.1432
 1136poe    c31 4992   6.858   0.701   5.235 -0.2269 -0.5081  0.0281
 1137poe    c31 4993   1.109   2.045   0.416  0.2421  0.2761  0.0434
 1137poe     o2 4994   1.212   2.074   0.507  0.1823 -0.1131  0.2362
 1137poe    c23 4995   1.194   2.199   0.572 -0.0348  0.0411 -0.1186
 1137poe    c23 4996   1.331   2.233   0.633  0.0330 -0.3671 -0.0397
 1137poe     o2 4997   1.365   2.129   0.722 -0.0863 -0.2706  0.1180
 1137poe    c23 4998   1.470   2.164   0.810 -0.0822 -0.0008  0.0067
 1137poe    c23 4999   1.496   2.051   0.911  0.4429 -0.0840 -0.2190
 1137poe     o2 5000   1.487   1.927   0.845 -0.4189  0.0318 -0.3251
 1137poe    c23 5001   1.482   1.830   0.948 -0.4706  0.3207 -0.0530
 1137poe    c23 5002   1.450   1.692   0.887  0.4177 -0.0289  0.2537
 1137poe     o2 5003   1.316   1.690   0.843  0.4957 -0.0367  0.0190
 1137poe    c31 5004   1.265   1.574   0.780  0.3475 -0.1264  0.3044
 1138poe    c31 5005   1.296   4.038   2.398 -0.5370 -0.1938 -0.5787
 1138poe     o2 5006   1.345   3.912   2.359  0.0666 -0.1429  0.0085
 1138poe    c23 5007   1.368   3.832   2.473  0.0357 -0.1895 -0.0176
 1138poe    c23 5008   1.486   3.735   2.455  0.3707  0.2643 -0.2889
 1138poe     o2 5009   1.461   3.648   2.346  0.3650  0.1203 -0.1724
 1138poe    c23 5010   1.569   3.559   2.332  0.3235  0.1153 -0.4539
 1138poe    c23 5011   1.529   3.466   2.215  0.1080 -0.0544 -0.2448
 1138poe     o2 5012   1.494   3.541   2.101 -0.4951  0.1850  0.0920
 1138poe    c23 5013   1.492   3.442   2.001 -0.0376  0.1019  0.1636
 1138poe    c23 5014   1.482   3.504   1.860  0.1956 -0.4371 -0.0939
 1138poe     o2 5015   1.599   3.560   1.804 -0.1335  0.3843  0.0342
 1138poe    c31 5016   1.577   3.624   1.680 -0.2269  0.5212  0.1204
 1139poe    c31 5017   5.451   6.212   3.323 -0.0599  0.2755 -0.5242
 1139poe     o2 5018   5.560   6.287   3.274  0.6892 -0.5571 -0.1844
 1139poe    c23 5019   5.515   6.414   3.230  0.4353 -0.5460  0.1048
 1139poe    c23 5020   5.633   6.512   3.216 -0.2390  0.1316 -0.9207
 1139poe     o2 5021   5.743   6.444   3.159 -0.1103  0.1109 -0.6464
 1139poe    c23 5022   5.864   6.515   3.151  0.4178 -0.6358  0.4598
 1139poe    c23 5023   5.954   6.456   3.040 -0.0291  0.0756 -0.2882
 1139poe     o2 5024   5.946   6.321   3.080 -0.1897 -0.0525 -0.7415
 1139poe    c23 5025   6.028   6.241   2.998 -0.4441 -0.3770 -0.6780
 1139poe    c23 5026   6.047   6.097   3.050  0.2356 -0.2414 -0.5415
 1139poe     o2 5027   6.144   6.070   3.148 -0.5198  0.0792  0.3128
 1139poe    c31 5028   6.131   5.938   3.196 -0.2245 -0.0491  0.0466
 1140poe    c31 5029   1.976   5.693   0.110 -0.0316 -0.2284 -0.3800
 1140poe     o2 5030   1.883   5.587   0.117  0.0502 -0.2814 -0.0705
 1140poe    c23 5031   1.872   5.507   0.001  0.2221  0.0965 -0.3503
 1140poe    c23 5032   1.741   5.427   0.009  0.3097 -0.0734 -0.6157
 1140poe     o2 5033   1.716   5.347   0.122  0.0550  0.0477 -0.5836
 1140poe    c23 5034   1.764   5.215   0.102  0.6764  0.1537  0.1491
 1140poe    c23 5035   1.778   5.152   0.241 -0.2267  0.4687  0.3888
 1140poe     o2 5036   1.661   5.198   0.305 -0.4114  0.4102  0.0950
 1140poe    c23 5037   1.671   5.165   0.442  0.0796 -0.2539 -0.0961
 1140poe    c23 5038   1.571   5.246   0.527  0.3153  0.0217 -0.0841
 1140poe     o2 5039   1.559   5.378   0.478  0.0802  0.4115  1.0000
 1140poe    c31 5040   1.474   5.455   0.560 -0.6298 -0.0067  0.6653
 1141poe    c31 5041   5.354   1.734   3.207 -0.2288  0.2893 -0.0327
 1141poe     o2 5042   5.293   1.613   3.245 -0.1460  0.3483  0.2916
 1141poe    c23 5043   5.169   1.644   3.303 -0.2835  0.1505  0.1064
 1141poe    c23 5044   5.080   1.519   3.292 -0.4692  0.2688  0.2461
 1141poe     o2 5045   5.157   1.401   3.301  0.0061  0.5171 -0.4622
 1141poe    c23 5046   5.091   1.277   3.289  0.4601  0.1904  0.3339
 1141poe    c23 5047   5.222   1.198   3.271  0.2330 -0.0677 -0.1922
 1141poe     o2 5048   5.308   1.249   3.172 -0.0365  0.6105 -0.0834
 1141poe    c23 5049   5.425   1.170   3.171 -0.3094  0.2085 -0.2230
 1141poe    c23 5050   5.530   1.254   3.097  0.0847 -0.0510  0.0425
 1141poe     o2 5051   5.518   1.377   3.165 -0.0554 -0.1564  0.2077
 1141poe    c31 5052   5.591   1.470   3.090 -0.2072 -0.4413 -0.3006
 1142poe    c31 5053   1.567   0.340   4.049 -0.5554 -0.5704  0.2027
 1142poe     o2 5054   1.503   0.344   3.923 -0.0357  0.0207 -0.0483
 1142poe    c23 5055   1.388   0.425   3.933  0.4559  0.7955 -0.5651
 1142poe    c23 5056   1.314   0.436   3.799 -0.0671 -0.3147 -0.3803
 1142poe     o2 5057   1.310   0.302   3.757 -0.8532 -0.4413  0.0708
 1142poe    c23 5058   1.233   0.295   3.639 -0.3166  0.4502 -0.3460
 1142poe    c23 5059   1.176   0.152   3.628  0.4759  0.1256 -0.2619
 1142poe     o2 5060   1.278   0.061   3.592  0.3740 -0.2884  0.4707
 1142poe    c23 5061   1.236  -0.073   3.590  0.5933 -0.3499 -0.0468
 1142poe    c23 5062   1.333  -0.147   3.496  0.3579 -0.5652 -0.1221
 1142poe     o2 5063   1.467  -0.144   3.540  0.2919 -0.8416  0.0984
 1142poe    c31 5064   1.556  -0.179   3.436 -0.0185  0.5544 -0.6490
 1143poe    c31 5065   3.711   5.202   5.595  0.4216 -0.0702  0.5582
 1143poe     o2 5066   3.702   5.340   5.569  0.1208  0.0017  1.0370
 1143poe    c23 5067   3.821   5.376   5.503 -0.0756 -0.4776  0.4117
 1143poe    c23 5068   3.827   5.530   5.500 -0.2351 -0.4774  0.0184
 1143poe     o2 5069   3.691   5.556   5.472 -0.2079 -0.0268  0.2930
 1143poe    c23 5070   3.660   5.691   5.446  0.1364 -0.0649 -0.3468
 1143poe    c23 5071   3.528   5.725   5.374  0.0598  0.6139  0.1075
 1143poe     o2 5072   3.418   5.660   5.433  0.0463 -0.1149 -0.7004
 1143poe    c23 5073   3.306   5.664   5.348 -0.1664  0.3584 -0.4012
 1143poe    c23 5074   3.197   5.565   5.395  0.6868 -0.1782  0.4867
 1143poe     o2 5075   3.236   5.429   5.391  0.0390 -0.3483 -0.3323
 1143poe    c31 5076   3.116   5.358   5.371 -0.2557 -0.0806  0.4268
 1144poe    c31 5077   4.114   0.855   1.662  0.0961 -0.5274 -0.1821
 1144poe     o2 5078   4.037   0.852   1.544 -0.0961  0.0062 -0.0720
 1144poe    c23 5079   4.129   0.886   1.443  0.0619 -0.3551 -0.0538
 1144poe    c23 5080   4.044   0.953   1.334  0.3761  0.1191 -0.0138
 1144poe     o2 5081   3.926   0.878   1.315  0.1041  0.6160 -0.3266
 1144poe    c23 5082   3.827   0.939   1.235 -0.7812 -0.2798  0.0607
 1144poe    c23 5083   3.707   0.842   1.242 -0.2381 -0.9884 -0.2314
 1144poe     o2 5084   3.669   0.801   1.371  0.1402  0.0276  0.2191
 1144poe    c23 5085   3.533   0.766   1.382  0.0426  0.1404 -0.5855
 1144poe    c23 5086   3.498   0.743   1.530  0.5322 -0.0300 -0.4962
 1144poe     o2 5087   3.529   0.854   1.611  0.3427 -0.1758 -0.2224
 1144poe    c31 5088   3.504   0.827   1.747  0.9395 -0.2576 -0.1273
 1145poe    c31 5089   5.439   0.562   6.574  0.0485  0.0116  0.2128
 1145poe     o2 5090   5.536   0.553   6.472 -0.1498 -0.6863  0.0787
 1145poe    c23 5091   5.647   0.469   6.499 -0.1984 -0.4975  0.8867
 1145poe    c23 5092   5.707   0.447   6.359 -0.8088  0.7248  0.4197
 1145poe     o2 5093   5.758   0.559   6.289  0.1525  0.4953  0.7354
 1145poe    c23 5094   5.892   0.541   6.252 -0.1509  0.5873 -0.4546
 1145poe    c23 5095   5.930   0.685   6.215 -0.1771  0.6465 -0.2487
 1145poe     o2 5096   5.833   0.729   6.122 -0.3042  0.5016 -0.1832
 1145poe    c23 5097   5.840   0.866   6.092 -0.2342  0.6174  0.3558
 1145poe    c23 5098   5.720   0.899   6.002 -0.4334  0.7729  0.6770
 1145poe     o2 5099   5.595   0.850   6.046  0.0434 -0.5986  0.5435
 1145poe    c31 5100   5.483   0.915   5.989 -0.2975 -0.7895  0.9888
 1146poe    c31 5101   5.723   1.179   4.895  0.0970  0.5958  0.0532
 1146poe     o2 5102   5.698   1.225   5.026 -0.4531  0.3004  0.0515
 1146poe    c23 5103   5.773   1.154   5.122  0.0096 -0.0237 -0.5463
 1146poe    c23 5104   5.742   1.221   5.257  0.1038 -0.5248 -0.2742
 1146poe     o2 5105   5.604   1.194   5.268  0.0001  0.1170  0.0437
 1146poe    c23 5106   5.554   1.256   5.385  0.0799 -0.0736  0.1805
 1146poe    c23 5107   5.401   1.258   5.373  0.1186 -0.0202 -0.3420
 1146poe     o2 5108   5.366   1.285   5.239 -0.3197 -0.4633 -0.3207
 1146poe    c23 5109   5.226   1.282   5.221 -0.3671  0.1944 -0.0895
 1146poe    c23 5110   5.167   1.278   5.079  0.3762  0.3791 -0.4068
 1146poe     o2 5111   5.226   1.372   4.992  1.2215 -0.6675 -0.9918
 1146poe    c31 5112   5.150   1.413   4.881  0.2078 -0.0795 -0.0991
 1147poe    c31 5113   6.523   4.608   4.251  0.3948  0.2508 -0.3242
 1147poe     o2 5114   6.544   4.517   4.356 -0.7859  0.7994  0.3997
 1147poe    c23 5115   6.654   4.546   4.439  0.0446  0.5081 -0.5875
 1147poe    c23 5116   6.726   4.409   4.441  0.0371  0.5041 -0.5720
 1147poe     o2 5117   6.622   4.314   4.436  0.7242 -0.2769 -0.3119
 1147poe    c23 5118   6.688   4.191   4.416  0.0351 -0.6681 -0.2087
 1147poe    c23 5119   6.583   4.102   4.487 -0.0680  0.0715  0.5943
 1147poe     o2 5120   6.460   4.132   4.426  0.2526  0.0142 -0.0998
 1147poe    c23 5121   6.398   4.016   4.374  0.5048 -0.1130 -0.1185
 1147poe    c23 5122   6.255   4.044   4.323  0.4418  0.4742  0.3631
 1147poe     o2 5123   6.257   4.106   4.197  0.4963 -0.4242 -0.0883
 1147poe    c31 5124   6.134   4.113   4.129  0.7097  0.2956 -0.4092
 1148poe    c31 5125   0.918   1.154   2.297 -0.4652  0.1352  0.2253
 1148poe     o2 5126   1.000   1.269   2.299  0.3997 -0.4703  0.0655
 1148poe    c23 5127   1.112   1.268   2.213  0.3067 -0.5395 -0.0540
 1148poe    c23 5128   1.216   1.374   2.253  0.2033 -0.5051  0.1225
 1148poe     o2 5129   1.268   1.343   2.381 -0.2097 -0.2019  0.3683
 1148poe    c23 5130   1.393   1.279   2.378 -0.1395 -0.0416 -0.4937
 1148poe    c23 5131   1.380   1.190   2.503 -0.3179  0.3573 -0.2249
 1148poe     o2 5132   1.342   1.282   2.603 -0.1954 -0.1913  0.3352
 1148poe    c23 5133   1.350   1.218   2.728 -0.2385 -0.2632  0.3008
 1148poe    c23 5134   1.331   1.334   2.828  0.6092  0.1145  0.0326
 1148poe     o2 5135   1.226   1.414   2.780  0.2602 -0.2323  0.2104
 1148poe    c31 5136   1.184   1.501   2.882 -0.3911 -0.7157  0.3660
 1149poe    c31 5137   4.663   2.750   2.856 -0.8022  0.8789  0.4325
 1149poe     o2 5138   4.585   2.703   2.964 -0.1612 -0.1888  0.4386
 1149poe    c23 5139   4.575   2.563   2.952  0.3678 -0.1974  0.0962
 1149poe    c23 5140   4.489   2.487   3.054  0.0150 -0.3497 -0.3117
 1149poe     o2 5141   4.535   2.519   3.184  0.4182 -0.2769 -0.4703
 1149poe    c23 5142   4.477   2.436   3.282  0.6883  0.1648  0.0664
 1149poe    c23 5143   4.533   2.469   3.421  0.6894  0.0484  0.0936
 1149poe     o2 5144   4.547   2.610   3.426  0.4419  0.0736  0.0961
 1149poe    c23 5145   4.573   2.642   3.561  0.3678 -0.1593  0.1665
 1149poe    c23 5146   4.614   2.791   3.563 -0.0104 -0.0524 -0.0050
 1149poe     o2 5147   4.708   2.817   3.461 -0.3892  0.0425 -0.3356
 1149poe    c31 5148   4.728   2.954   3.435  0.9054  0.1019  0.8875
 1150poe    c31 5149   2.374   3.283   5.540  0.1446  0.5015  0.3350
 1150poe     o2 5150   2.424   3.154   5.511  0.0150  0.3981  0.5651
 1150poe    c23 5151   2.473   3.095   5.629 -0.0822 -0.1011  0.3583
 1150poe    c23 5152   2.530   2.954   5.607 -0.3013 -0.2152  0.5199
 1150poe     o2 5153   2.436   2.883   5.530 -0.0341 -0.6539  0.5950
 1150poe    c23 5154   2.504   2.782   5.459  0.3818 -0.1254  0.2422
 1150poe    c23 5155   2.403   2.688   5.391 -0.1061  0.0616  0.7026
 1150poe     o2 5156   2.324   2.756   5.296 -0.4065 -0.2780  0.7113
 1150poe    c23 5157   2.213   2.682   5.250 -0.0402 -0.1563 -0.4148
 1150poe    c23 5158   2.108   2.763   5.172  0.3095  1.1313  0.4291
 1150poe     o2 5159   2.146   2.840   5.060  0.6613 -0.3536 -0.5025
 1150poe    c31 5160   2.127   2.759   4.946 -0.3553 -0.1670 -0.4714
 1151poe    c31 5161   0.508   5.544   3.337 -0.3060  0.7327  0.2246
 1151poe     o2 5162   0.391   5.484   3.389 -0.0511  0.0063 -0.0325
 1151poe    c23 5163   0.312   5.416   3.294  0.0055 -0.5335  0.3033
 1151poe    c23 5164   0.168   5.385   3.337 -0.1441 -1.1802 -0.6236
 1151poe     o2 5165   0.167   5.296   3.446  0.3607 -0.5575 -0.1022
 1151poe    c23 5166   0.037   5.294   3.501  0.0842 -0.2996 -0.7422
 1151poe    c23 5167   0.035   5.243   3.646 -0.4988  1.0479 -0.2519
 1151poe     o2 5168   0.103   5.324   3.738 -0.0938  0.1716  0.2371
 1151poe    c23 5169   0.098   5.263   3.865 -0.3121  0.0924  0.1905
 1151poe    c23 5170   0.160   5.331   3.989 -0.0749  0.3017 -0.0428
 1151poe     o2 5171   0.300   5.346   3.976 -0.0641  0.4616  0.2626
 1151poe    c31 5172   0.352   5.283   4.091  0.5103  0.9249  0.2597
 1152poe    c31 5173   2.939   0.324   5.489  0.4324 -0.2220  0.4582
 1152poe     o2 5174   3.000   0.282   5.369  0.0492 -0.1040  0.2231
 1152poe    c23 5175   3.049   0.394   5.298 -0.5514 -0.0322 -0.0923
 1152poe    c23 5176   3.105   0.348   5.162 -0.2065  0.1258 -0.0063
 1152poe     o2 5177   3.156   0.222   5.199 -0.9927 -0.1124  0.2990
 1152poe    c23 5178   3.225   0.168   5.089 -0.4045  0.3236  0.4451
 1152poe    c23 5179   3.321   0.061   5.144  0.0856  0.4949 -0.0673
 1152poe     o2 5180   3.264  -0.053   5.204  0.1702  0.5918  0.1995
 1152poe    c23 5181   3.200  -0.146   5.119  0.6563  0.1661  0.2899
 1152poe    c23 5182   3.133  -0.262   5.194 -0.2461  0.2811 -0.3201
 1152poe     o2 5183   3.028  -0.221   5.279  0.3507  0.1896  0.4691
 1152poe    c31 5184   3.046  -0.246   5.417 -0.3643  0.4385  0.6082
 1153poe    c31 5185   2.309   5.452   0.879  0.0224  0.2672  0.5305
 1153poe     o2 5186   2.246   5.335   0.926  0.5369 -0.2426 -0.0225
 1153poe    c23 5187   2.331   5.223   0.919  0.3801 -0.3844  0.3052
 1153poe    c23 5188   2.273   5.101   0.993 -0.0441 -0.5094 -0.2321
 1153poe     o2 5189   2.257   5.120   1.131  0.4501 -0.5036 -0.1754
 1153poe    c23 5190   2.130   5.093   1.187  0.2672  0.7951  0.0615
 1153poe    c23 5191   2.115   5.097   1.340 -0.4877  0.2061  0.0079
 1153poe     o2 5192   2.166   4.985   1.408 -0.2906  0.4496  0.2659
 1153poe    c23 5193   2.165   4.987   1.549 -0.6301  0.0340  0.2723
 1153poe    c23 5194   2.218   4.851   1.598 -0.1619  0.0635 -0.1406
 1153poe     o2 5195   2.351   4.825   1.559 -0.0623  0.4848 -0.0824
 1153poe    c31 5196   2.396   4.707   1.622  0.2052  0.0609 -1.0601
 1154poe    c31 5197   2.157   0.927   1.026 -0.3903 -0.2762  0.1713
 1154poe     o2 5198   2.058   0.837   1.070 -0.4985 -0.1244  0.2358
 1154poe    c23 5199   2.066   0.717   0.998 -0.7834 -0.3258  0.5331
 1154poe    c23 5200   2.122   0.590   1.064  0.0970 -0.0596  0.3137
 1154poe     o2 5201   2.147   0.480   0.979  0.2883  0.6372 -0.5353
 1154poe    c23 5202   2.215   0.385   1.056 -0.0306  0.3333 -0.6267
 1154poe    c23 5203   2.301   0.302   0.958  0.5954  0.0976  0.1108
 1154poe     o2 5204   2.393   0.377   0.882  0.1948  0.4119 -0.0653
 1154poe    c23 5205   2.457   0.280   0.803  0.4446 -0.0857  0.7297
 1154poe    c23 5206   2.593   0.329   0.751  0.0759  0.3292  0.1330
 1154poe     o2 5207   2.582   0.428   0.651  0.4933 -0.1115 -0.3589
 1154poe    c31 5208   2.709   0.461   0.599  0.6340  0.6867  0.4538
 1155poe    c31 5209   4.142   3.404   6.615 -0.0794 -0.5584  0.3939
 1155poe     o2 5210   4.025   3.326   6.617 -0.0491 -0.6045  0.4183
 1155poe    c23 5211   4.022   3.218   6.527  0.2551  0.0703 -0.4187
 1155poe    c23 5212   3.878   3.188   6.482  0.1415  0.4789 -0.3291
 1155poe     o2 5213   3.803   3.149   6.595  0.1257  0.1601 -0.4479
 1155poe    c23 5214   3.667   3.160   6.558 -0.0517  0.6174  0.3174
 1155poe    c23 5215   3.589   3.089   6.671  0.1895 -0.1847 -0.0113
 1155poe     o2 5216   3.638   3.137   6.794  0.1958  0.7323 -0.3612
 1155poe    c23 5217   3.567   3.099   6.910  0.7159  0.1577 -0.2280
 1155poe    c23 5218   3.630   3.159   7.037  0.5632  0.0996 -0.1246
 1155poe     o2 5219   3.770   3.140   7.038  0.4642 -0.6337  0.0140
 1155poe    c31 5220   3.843   3.193   7.146  0.8275  0.2297 -0.6441
 1156poe    c31 5221   0.750   3.565   1.082  0.3404 -0.0312 -0.3629
 1156poe     o2 5222   0.859   3.624   1.148  0.0396  0.3811 -0.2304
 1156poe    c23 5223   0.964   3.537   1.183  0.6668  0.9179 -0.7495
 1156poe    c23 5224   1.007   3.571   1.327 -0.2857  0.0390 -0.2482
 1156poe     o2 5225   0.999   3.710   1.345 -0.0361  0.0302 -0.0595
 1156poe    c23 5226   1.076   3.759   1.453 -0.0923  0.0797 -0.0417
 1156poe    c23 5227   1.074   3.700   1.595 -0.0709 -0.3958 -0.2358
 1156poe     o2 5228   0.962   3.734   1.673  0.6621  0.3691  0.5149
 1156poe    c23 5229   0.862   3.634   1.671  0.2614  0.7820 -0.5109
 1156poe    c23 5230   0.835   3.568   1.807  0.3368  0.5961 -0.5868
 1156poe     o2 5231   0.790   3.664   1.900  0.2271  0.2077 -0.2331
 1156poe    c31 5232   0.754   3.600   2.020  0.1100  0.3734 -0.1800
 1157poe    c31 5233   1.193   0.546   5.657 -0.4048  0.4599  0.0586
 1157poe     o2 5234   1.205   0.441   5.563  0.4313  0.2129  0.4348
 1157poe    c23 5235   1.089   0.411   5.489  0.5741 -0.2041  0.3794
 1157poe    c23 5236   1.142   0.405   5.345 -0.1047  0.8134  0.0807
 1157poe     o2 5237   1.269   0.345   5.349 -0.4835 -0.0346 -0.2378
 1157poe    c23 5238   1.343   0.353   5.229 -0.0094  0.1665  0.0604
 1157poe    c23 5239   1.478   0.279   5.232 -0.2362 -0.2571  0.0240
 1157poe     o2 5240   1.539   0.286   5.359  0.0866 -0.2680 -0.1298
 1157poe    c23 5241   1.675   0.249   5.358  0.0403 -0.4293 -0.7998
 1157poe    c23 5242   1.672   0.102   5.405 -0.5472 -0.1277  0.1431
 1157poe     o2 5243   1.652   0.072   5.541 -0.5085  0.0964  0.1982
 1157poe    c31 5244   1.777   0.087   5.603 -0.4277 -0.1533  0.0953
 1158poe    c31 5245   5.158   1.078   2.786  0.0358  0.3126  0.1726
 1158poe     o2 5246   5.050   1.148   2.729 -0.4226 -0.3115  0.2590
 1158poe    c23 5247   4.977   1.234   2.813 -0.1081 -0.0124  0.2268
 1158poe    c23 5248   4.994   1.386   2.795  0.2698 -0.0764  0.0486
 1158poe     o2 5249   4.931   1.425   2.675 -0.1362 -0.5931  0.0926
 1158poe    c23 5250   4.931   1.565   2.657 -0.1977 -0.6458 -0.3493
 1158poe    c23 5251   4.934   1.600   2.508 -0.3426  0.2364 -0.1496
 1158poe     o2 5252   4.827   1.534   2.444 -0.6661  0.3251  0.2935
 1158poe    c23 5253   4.862   1.541   2.307 -0.2986  0.3315  0.3877
 1158poe    c23 5254   4.785   1.432   2.230  1.0131 -0.3639  0.0241
 1158poe     o2 5255   4.819   1.305   2.281 -0.1216 -0.5818  0.2695
 1158poe    c31 5256   4.752   1.214   2.198 -0.3083  0.1870 -0.4425
 1159poe    c31 5257   1.285   4.142   0.731  1.1304  0.3842 -0.0193
 1159poe     o2 5258   1.371   4.165   0.841  0.7036  0.3827  0.3183
 1159poe    c23 5259   1.493   4.097   0.821  0.0003 -0.9074  0.3079
 1159poe    c23 5260   1.591   4.131   0.935 -0.2098  0.4509  0.0954
 1159poe     o2 5261   1.509   4.181   1.038 -0.2007  0.1797  0.2344
 1159poe    c23 5262   1.569   4.176   1.166  0.0537 -0.2856  0.0966
 1159poe    c23 5263   1.600   4.036   1.223  0.3773  0.0025  0.6301
 1159poe     o2 5264   1.471   3.980   1.221  0.2141  0.3824  0.2443
 1159poe    c23 5265   1.471   3.839   1.218 -0.3090  0.3918 -0.4402
 1159poe    c23 5266   1.345   3.774   1.158  0.1213 -0.4009 -0.5131
 1159poe     o2 5267   1.323   3.811   1.024 -0.0811 -0.0829 -0.3926
 1159poe    c31 5268   1.196   3.761   0.988  0.0330 -0.5873 -0.0997
 1160poe    c31 5269   2.953   2.021   1.207 -0.0779 -0.4886 -0.5943
 1160poe     o2 5270   2.894   2.046   1.332  0.1094  0.1495 -0.6281
 1160poe    c23 5271   2.791   2.137   1.302  0.0239  0.2519 -0.0342
 1160poe    c23 5272   2.694   2.144   1.422 -0.0675 -0.2052 -0.0816
 1160poe     o2 5273   2.776   2.154   1.537 -0.6538  0.6330  0.2710
 1160poe    c23 5274   2.727   2.193   1.663 -0.4468  0.8787  0.2764
 1160poe    c23 5275   2.850   2.212   1.755  0.3226 -0.0817 -0.5327
 1160poe     o2 5276   2.941   2.110   1.721  0.0898 -0.3437 -0.3729
 1160poe    c23 5277   3.071   2.145   1.762 -0.0321 -0.5235  0.1716
 1160poe    c23 5278   3.178   2.059   1.692  0.2230 -0.3020  0.2889
 1160poe     o2 5279   3.144   2.064   1.555 -0.1950 -0.3857  0.3892
 1160poe    c31 5280   3.261   2.038   1.482 -0.6145 -0.3105 -0.3162
 1161poe    c31 5281   2.746   6.610   4.228  0.1863  0.8428 -0.1252
 1161poe     o2 5282   2.874   6.554   4.209 -0.0027  0.1847  0.4886
 1161poe    c23 5283   2.875   6.475   4.093  0.1840 -0.1212  0.6983
 1161poe    c23 5284   3.018   6.441   4.046  0.1506  0.4723  0.1641
 1161poe     o2 5285   3.086   6.359   4.137  0.1241  0.1715 -0.0867
 1161poe    c23 5286   3.152   6.435   4.236 -0.2177 -0.0945  0.3519
 1161poe    c23 5287   3.204   6.367   4.364 -0.6252 -0.2726  0.4255
 1161poe     o2 5288   3.321   6.292   4.340 -0.6727 -0.1811 -0.1182
 1161poe    c23 5289   3.428   6.322   4.427 -0.5659 -0.7836 -0.0352
 1161poe    c23 5290   3.537   6.225   4.377  0.0203 -0.1261 -0.0549
 1161poe     o2 5291   3.481   6.095   4.378 -0.4595  0.0786  0.3859
 1161poe    c31 5292   3.583   5.998   4.380  0.2307  0.7432 -0.8497
 1162poe    c31 5293   1.876   0.917   4.997 -0.4096 -0.1661 -0.4104
 1162poe     o2 5294   1.995   0.842   4.993 -0.1213  0.3008 -0.5889
 1162poe    c23 5295   2.050   0.892   5.114  0.1103 -0.3377 -0.4285
 1162poe    c23 5296   2.193   0.835   5.111  0.1763 -0.1765 -0.3680
 1162poe     o2 5297   2.184   0.712   5.042  0.7297 -0.5744  0.2658
 1162poe    c23 5298   2.308   0.654   5.006  0.6743 -0.7636  0.3806
 1162poe    c23 5299   2.287   0.504   4.978  0.2273 -0.6050 -0.1591
 1162poe     o2 5300   2.195   0.484   4.873  0.2408 -0.3240 -0.2238
 1162poe    c23 5301   2.198   0.350   4.830 -0.0543 -0.4308  0.0815
 1162poe    c23 5302   2.203   0.337   4.676 -0.4147 -0.1698  0.0471
 1162poe     o2 5303   2.085   0.366   4.604 -0.1723  0.4699 -0.1044
 1162poe    c31 5304   2.101   0.335   4.468 -0.0837  0.0188  0.0059
 1163poe    c31 5305   4.478   6.286   6.299  0.4358  0.1131  0.3096
 1163poe     o2 5306   4.566   6.395   6.286  0.3979  0.0928 -0.1236
 1163poe    c23 5307   4.656   6.376   6.393 -0.1061 -0.8633  0.1423
 1163poe    c23 5308   4.612   6.428   6.532 -0.4387  0.0229 -0.2857
 1163poe     o2 5309   4.640   6.565   6.522 -1.3659  0.1663 -1.1411
 1163poe    c23 5310   4.597   6.631   6.639  0.5027 -0.3109 -0.1410
 1163poe    c23 5311   4.540   6.774   6.631 -0.0218 -0.5317 -0.3796
 1163poe     o2 5312   4.634   6.867   6.581 -0.0541 -0.1172  0.3166
 1163poe    c23 5313   4.602   7.003   6.595 -0.2886 -0.1829  0.4196
 1163poe    c23 5314   4.727   7.093   6.598 -0.6913  0.4606 -1.0542
 1163poe     o2 5315   4.809   7.044   6.495  0.3763  0.1593 -0.0851
 1163poe    c31 5316   4.913   7.137   6.473  0.6437 -0.0595  0.2445
 1164poe    c31 5317   2.175   4.018   4.870 -0.8778  0.3532  0.3829
 1164poe     o2 5318   2.279   4.024   4.965 -0.0804 -0.8674 -0.3903
 1164poe    c23 5319   2.251   3.977   5.095  0.1262  0.6036  0.2072
 1164poe    c23 5320   2.380   3.980   5.179  0.0336  0.0567  0.3758
 1164poe     o2 5321   2.443   4.102   5.145  0.3446 -0.3374 -0.5007
 1164poe    c23 5322   2.558   4.094   5.226  0.0758  0.0140 -0.0757
 1164poe    c23 5323   2.663   4.201   5.190  0.0994  0.0266  0.0290
 1164poe     o2 5324   2.677   4.198   5.049  0.5824 -0.4488  0.0813
 1164poe    c23 5325   2.763   4.291   4.988  0.4636 -0.3715  0.0323
 1164poe    c23 5326   2.728   4.322   4.841  0.1623  0.0375  0.1868
 1164poe     o2 5327   2.686   4.207   4.772 -0.6863  0.6030 -0.2482
 1164poe    c31 5328   2.671   4.234   4.634 -0.0246 -0.2166 -0.4880
 1165poe    c31 5329   1.118   0.689   3.169  0.1486 -0.0555 -0.0791
 1165poe     o2 5330   1.011   0.662   3.083  0.1350 -0.3687  0.0363
 1165poe    c23 5331   1.032   0.727   2.960  0.6340 -0.0827  0.2708
 1165poe    c23 5332   0.959   0.652   2.846  0.1233 -0.0767  0.5920
 1165poe     o2 5333   0.829   0.650   2.902 -0.1337  0.1003  0.0077
 1165poe    c23 5334   0.746   0.582   2.811 -0.0787 -0.7178  0.5571
 1165poe    c23 5335   0.617   0.579   2.896 -0.4369 -0.4962  0.0263
 1165poe     o2 5336   0.652   0.562   3.031 -0.1501 -0.3204 -0.0249
 1165poe    c23 5337   0.570   0.645   3.110  0.6584  0.6016 -0.1441
 1165poe    c23 5338   0.632   0.638   3.251 -0.2797 -0.5400  0.2238
 1165poe     o2 5339   0.772   0.653   3.244 -0.2842 -0.7562 -0.4742
 1165poe    c31 5340   0.831   0.651   3.373 -0.5996 -0.1348 -0.3129
 1166poe    c31 5341   6.172   0.192   0.141 -0.0397 -0.8923 -0.4185
 1166poe     o2 5342   6.119   0.136   0.259 -0.1537 -0.2222 -0.1467
 1166poe    c23 5343   5.985   0.170   0.284 -0.1058  0.0154 -0.2151
 1166poe    c23 5344   5.929   0.108   0.414  0.3537  0.0719  0.0101
 1166poe     o2 5345   5.980  -0.023   0.425 -0.0859 -0.1371 -0.4075
 1166poe    c23 5346   5.920  -0.081   0.539  0.4365 -0.3219 -0.2259
 1166poe    c23 5347   6.014  -0.179   0.613  0.3521  0.0239  0.3478
 1166poe     o2 5348   6.138  -0.119   0.642  0.2987 -0.0177  0.6627
 1166poe    c23 5349   6.224  -0.197   0.723  0.3078 -0.6220  0.0795
 1166poe    c23 5350   6.350  -0.115   0.755 -0.2422  0.2093  0.1440
 1166poe     o2 5351   6.428  -0.084   0.642  0.1920 -0.0371  0.3745
 1166poe    c31 5352   6.556  -0.035   0.676 -0.0210  0.2970  0.6923
 1167poe    c31 5353   4.804   0.451   3.715  0.1412  0.0320 -0.0436
 1167poe     o2 5354   4.796   0.588   3.683 -0.2570  0.0266  0.0269
 1167poe    c23 5355   4.767   0.593   3.545 -0.4085  0.2852  0.0679
 1167poe    c23 5356   4.748   0.744   3.526  0.2344  0.2949 -0.4979
 1167poe     o2 5357   4.841   0.811   3.609  0.0255 -0.0609  0.0248
 1167poe    c23 5358   4.843   0.950   3.586  0.2681 -0.0883 -0.1200
 1167poe    c23 5359   4.946   1.033   3.665  0.3095 -0.3013  0.0495
 1167poe     o2 5360   4.920   1.009   3.801 -0.1170  0.0598  0.0334
 1167poe    c23 5361   5.025   1.040   3.890  0.1176 -0.3729 -0.0869
 1167poe    c23 5362   5.001   1.015   4.040  0.4177  0.5739  0.1295
 1167poe     o2 5363   5.011   0.875   4.056 -0.1320  0.4899 -0.2148
 1167poe    c31 5364   5.012   0.858   4.196 -0.2813  0.0136 -0.2688
 1168poe    c31 5365   6.399   0.162   2.479  0.0437 -0.6294 -0.4379
 1168poe     o2 5366   6.353   0.194   2.350  0.6303  0.0110 -0.4951
 1168poe    c23 5367   6.310   0.077   2.284  0.7393  0.0995 -0.7232
 1168poe    c23 5368   6.222   0.109   2.161  0.2158  0.0755 -0.3561
 1168poe     o2 5369   6.281   0.181   2.056  0.4227 -0.2599 -0.4688
 1168poe    c23 5370   6.197   0.209   1.947 -0.2024  0.3528  0.1589
 1168poe    c23 5371   6.271   0.186   1.814 -0.5145  0.7148 -0.0786
 1168poe     o2 5372   6.369   0.283   1.786 -0.0839  0.2478 -0.1961
 1168poe    c23 5373   6.448   0.249   1.675  0.2386 -0.2255  0.1710
 1168poe    c23 5374   6.597   0.268   1.708  0.2544 -0.3863  0.1941
 1168poe     o2 5375   6.643   0.399   1.683  0.1438 -0.4661 -0.4351
 1168poe    c31 5376   6.764   0.422   1.751  0.2245 -0.0343 -0.7216
 1169poe    c31 5377   6.415   2.049   2.444 -0.1501  0.0647  0.1862
 1169poe     o2 5378   6.483   1.997   2.555 -0.1379 -0.3232 -0.0019
 1169poe    c23 5379   6.501   2.078   2.669 -0.0972 -0.0075 -0.2334
 1169poe    c23 5380   6.614   2.030   2.762  0.2123  0.3059 -0.4457
 1169poe     o2 5381   6.589   1.892   2.759 -0.1232  0.3626 -0.3858
 1169poe    c23 5382   6.680   1.815   2.836 -0.3599  0.5807  0.1130
 1169poe    c23 5383   6.646   1.669   2.802 -0.0360  0.5154  0.0697
 1169poe     o2 5384   6.624   1.662   2.663 -0.1205 -0.2189  0.1150
 1169poe    c23 5385   6.619   1.531   2.611 -0.1659 -0.3225  0.3824
 1169poe    c23 5386   6.588   1.518   2.461  0.2681  0.0680  0.2568
 1169poe     o2 5387   6.473   1.595   2.434  0.0181 -0.2556  0.3939
 1169poe    c31 5388   6.438   1.604   2.297 -0.5189  0.0768  0.5495
 1170poe    c31 5389   1.360   6.475   5.266  0.4226 -0.7820  0.2662
 1170poe     o2 5390   1.491   6.477   5.212  0.2102  0.0245 -0.2258
 1170poe    c23 5391   1.587   6.408   5.287  0.6420  0.7890 -0.0620
 1170poe    c23 5392   1.704   6.384   5.191  0.0539 -0.7289 -0.4353
 1170poe     o2 5393   1.711   6.502   5.114  0.0444 -0.5671 -0.1884
 1170poe    c23 5394   1.796   6.503   5.001 -0.1022  0.3257 -0.2971
 1170poe    c23 5395   1.786   6.633   4.919  0.0673  0.0299 -0.7879
 1170poe     o2 5396   1.650   6.667   4.904 -0.0536 -0.2615 -0.3586
 1170poe    c23 5397   1.635   6.768   4.807  0.1787 -0.3744 -0.5111
 1170poe    c23 5398   1.485   6.793   4.779  0.0924  0.0872  0.3597
 1170poe     o2 5399   1.417   6.679   4.733  0.7225 -0.0493 -0.2573
 1170poe    c31 5400   1.336   6.718   4.625  0.4067  0.0173  0.0001
 1171poe    c31 5401   4.562   3.876   5.425  0.4006  0.0635  0.1313
 1171poe     o2 5402   4.580   3.854   5.563 -0.0604 -0.2321  0.1458
 1171poe    c23 5403   4.561   3.975   5.633 -0.0690 -0.4656  0.5482
 1171poe    c23 5404   4.579   3.963   5.786  0.6728  0.3508  0.5335
 1171poe     o2 5405   4.710   3.978   5.835  0.7665  0.4009  0.2724
 1171poe    c23 5406   4.714   3.977   5.976 -0.3939  0.0992  0.3122
 1171poe    c23 5407   4.864   3.998   6.004 -0.2107 -0.1994 -0.4205
 1171poe     o2 5408   4.928   3.910   5.915 -0.4931 -0.8528  0.0067
 1171poe    c23 5409   5.067   3.934   5.918 -0.5770 -0.3122 -0.2861
 1171poe    c23 5410   5.126   3.840   5.811  0.2260 -0.3154  0.1462
 1171poe     o2 5411   5.047   3.812   5.698 -0.1202 -0.2861  0.3769
 1171poe    c31 5412   5.101   3.723   5.602 -0.7462  0.1861 -0.4308
 1172poe    c31 5413   1.439   6.013   0.341 -0.4515  0.8604 -0.0774
 1172poe     o2 5414   1.331   6.068   0.412 -0.7540  0.0612  0.0924
 1172poe    c23 5415   1.237   5.976   0.463 -0.7606 -0.0498 -0.1175
 1172poe    c23 5416   1.139   6.056   0.550 -0.4611  0.0110  0.1710
 1172poe     o2 5417   1.058   6.139   0.469  0.4499  0.0786 -0.6907
 1172poe    c23 5418   0.958   6.204   0.544  0.1811 -0.2357 -0.7673
 1172poe    c23 5419   0.883   6.301   0.451 -0.1166 -0.0625 -0.3537
 1172poe     o2 5420   0.986   6.387   0.407  0.0082  0.0137  0.0871
 1172poe    c23 5421   0.933   6.479   0.314  0.1809  0.0305  0.0050
 1172poe    c23 5422   1.050   6.546   0.239 -0.1806 -0.0492 -0.6351
 1172poe     o2 5423   1.120   6.637   0.320 -0.0853 -0.2008 -0.5453
 1172poe    c31 5424   1.233   6.696   0.259  0.3251  0.0368  0.4239
 1173poe    c31 5425   5.855   0.570   6.990 -0.2547  0.4151 -0.3301
 1173poe     o2 5426   5.984   0.621   7.012  0.1384 -0.6976  0.0253
 1173poe    c23 5427   6.058   0.580   7.124 -0.0067 -0.2475  0.2881
 1173poe    c23 5428   6.164   0.684   7.163 -0.0285 -0.0181 -0.2594
 1173poe     o2 5429   6.291   0.683   7.102  0.2194  0.0659  0.2499
 1173poe    c23 5430   6.370   0.795   7.137  0.0237  0.1326  0.4851
 1173poe    c23 5431   6.466   0.835   7.023  0.3339 -0.3962  0.5560
 1173poe     o2 5432   6.533   0.722   6.971  0.1185 -0.1283 -0.3035
 1173poe    c23 5433   6.621   0.760   6.867 -0.0412  0.8996 -0.0779
 1173poe    c23 5434   6.679   0.649   6.777 -0.3734  0.5599  0.1217
 1173poe     o2 5435   6.568   0.569   6.744 -0.2066  0.2942  0.2042
 1173poe    c31 5436   6.616   0.476   6.650  0.0815  0.3075  0.3363
 1174poe    c31 5437   2.697   2.849   6.970 -0.1558 -0.0773 -0.0460
 1174poe     o2 5438   2.691   2.899   7.101  0.2886  0.2999 -0.1695
 1174poe    c23 5439   2.573   2.972   7.128  0.4358  0.5081 -0.0842
 1174poe    c23 5440   2.595   3.007   7.276 -0.2056  0.7226 -0.0392
 1174poe     o2 5441   2.719   3.066   7.305  0.1059  0.3899 -0.6631
 1174poe    c23 5442   2.738   3.085   7.444 -0.0859  0.6272 -0.6680
 1174poe    c23 5443   2.866   3.166   7.472 -0.0358  0.7293 -1.1808
 1174poe     o2 5444   2.970   3.114   7.392  0.1502 -0.6073 -0.1143
 1174poe    c23 5445   3.091   3.184   7.412  0.0083 -0.5283  0.4795
 1174poe    c23 5446   3.200   3.099   7.344  0.6352  0.1749  0.5897
 1174poe     o2 5447   3.139   3.010   7.253  0.2278  0.7463  0.3000
 1174poe    c31 5448   3.241   2.952   7.174 -0.0131  0.5756  0.1113
 1175poe    c31 5449   1.195   1.870   6.057 -0.7446 -0.3748 -0.2916
 1175poe     o2 5450   1.082   1.954   6.044 -0.3517  0.3902  0.9823
 1175poe    c23 5451   1.116   2.054   5.950  0.4914 -0.7677  0.0077
 1175poe    c23 5452   0.981   2.112   5.904  0.1918 -0.9515  0.6396
 1175poe     o2 5453   0.924   2.152   6.026 -0.3525  0.4905 -0.0696
 1175poe    c23 5454   0.843   2.267   6.017 -0.6368  0.3127  0.1751
 1175poe    c23 5455   0.776   2.303   6.151 -0.1257  0.3729  0.4201
 1175poe     o2 5456   0.701   2.191   6.192 -0.1205 -0.0169 -0.5917
 1175poe    c23 5457   0.718   2.168   6.331 -0.3918 -0.1033 -0.5726
 1175poe    c23 5458   0.624   2.060   6.388 -0.1541  0.1377  0.2808
 1175poe     o2 5459   0.649   1.930   6.341 -0.2945 -0.0141  0.6224
 1175poe    c31 5460   0.570   1.826   6.395 -0.2647 -0.3244  0.0761
 1176poe    c31 5461   4.100   1.962   6.431 -0.2005  0.0373 -0.3084
 1176poe     o2 5462   4.152   1.949   6.301  0.3951 -0.0725 -0.0636
 1176poe    c23 5463   4.083   2.047   6.227 -0.0746 -0.0914  0.3440
 1176poe    c23 5464   4.099   2.040   6.074 -0.6382 -0.2237  0.2884
 1176poe     o2 5465   4.019   1.941   6.012 -0.2400 -0.5172  0.2387
 1176poe    c23 5466   4.090   1.822   5.986  0.1235 -0.2821  0.1583
 1176poe    c23 5467   4.037   1.684   6.026  0.0064 -0.3064 -0.0819
 1176poe     o2 5468   3.900   1.675   5.991 -0.0747  0.2710  0.0713
 1176poe    c23 5469   3.868   1.593   5.881 -0.0307  0.4012 -0.0392
 1176poe    c23 5470   3.767   1.484   5.924  0.3646  0.2441  0.5048
 1176poe     o2 5471   3.647   1.545   5.967  0.0030 -0.0242 -0.1018
 1176poe    c31 5472   3.561   1.434   5.969 -0.1517  0.0923 -0.2941
 1177poe    c31 5473   4.866   1.787   1.527 -0.2182  0.4874 -0.8575
 1177poe     o2 5474   4.990   1.820   1.468  0.4254 -0.0465  0.1595
 1177poe    c23 5475   5.108   1.748   1.494  0.1776 -0.6254 -0.3058
 1177poe    c23 5476   5.201   1.765   1.373 -0.1070  0.6976 -0.3516
 1177poe     o2 5477   5.241   1.894   1.335 -0.2211  0.8767  0.1342
 1177poe    c23 5478   5.343   1.940   1.421 -0.3156 -0.3397  0.9031
 1177poe    c23 5479   5.354   2.092   1.407  0.4376 -0.4893 -0.2189
 1177poe     o2 5480   5.329   2.122   1.271  0.5104 -0.0630 -0.1424
 1177poe    c23 5481   5.347   2.259   1.247  0.1475 -0.0720 -0.4911
 1177poe    c23 5482   5.292   2.263   1.104  0.1642  0.0142 -0.4953
 1177poe     o2 5483   5.170   2.192   1.096  0.1680 -0.0345 -0.1320
 1177poe    c31 5484   5.108   2.203   0.970  0.7070 -0.3454 -0.4299
 1178poe    c31 5485   2.047   2.132   1.192 -0.2541  0.5306 -0.2778
 1178poe     o2 5486   1.933   2.061   1.235  0.1603  0.0656  0.0650
 1178poe    c23 5487   1.956   1.925   1.266  0.3823  0.1179  0.1346
 1178poe    c23 5488   1.844   1.894   1.367 -0.2949  0.4648 -0.5003
 1178poe     o2 5489   1.844   1.984   1.475  0.0531  0.2860 -0.3520
 1178poe    c23 5490   1.727   1.964   1.552  0.1555  0.3800 -0.1705
 1178poe    c23 5491   1.757   2.017   1.693  0.7619 -0.7858  0.1471
 1178poe     o2 5492   1.794   2.151   1.668  0.0919 -0.6067  0.1040
 1178poe    c23 5493   1.823   2.218   1.788  0.3347 -0.4410 -0.0476
 1178poe    c23 5494   1.806   2.371   1.794  0.4535 -0.4538  0.7610
 1178poe     o2 5495   1.906   2.430   1.713 -0.1973  0.5317  0.6553
 1178poe    c31 5496   1.892   2.563   1.670  0.0426  0.5163  0.5312
 1179poe    c31 5497   5.939   1.969   2.910  0.3847 -0.3071 -0.2585
 1179poe     o2 5498   5.923   1.931   2.775  0.0318 -0.0621 -0.2879
 1179poe    c23 5499   6.025   1.845   2.730  0.1631  0.0105 -0.1280
 1179poe    c23 5500   6.013   1.816   2.580  0.0077 -0.0230 -0.1088
 1179poe     o2 5501   5.977   1.937   2.516  0.4779  0.3221  0.2796
 1179poe    c23 5502   6.065   1.948   2.407  0.6542 -0.0390  0.3829
 1179poe    c23 5503   6.055   2.077   2.323 -1.0302 -0.1900  0.3168
 1179poe     o2 5504   6.084   2.195   2.393  0.4590  0.0389 -0.6324
 1179poe    c23 5505   6.028   2.303   2.321  0.3141  0.1297 -0.3834
 1179poe    c23 5506   6.035   2.433   2.404  0.1189 -0.0668 -0.0544
 1179poe     o2 5507   5.949   2.448   2.514 -0.0538  0.4864 -0.2597
 1179poe    c31 5508   5.972   2.567   2.585 -0.8025  0.3470  0.2288
 1180poe    c31 5509   4.010   2.147   2.157  0.3046 -0.1765  0.2582
 1180poe     o2 5510   3.894   2.227   2.149  0.4133 -0.0199  0.2426
 1180poe    c23 5511   3.936   2.361   2.134  0.8738 -0.2334 -0.4344
 1180poe    c23 5512   3.853   2.432   2.026  0.1377  0.1735  0.3858
 1180poe     o2 5513   3.720   2.404   2.065  0.1546 -0.1968  0.1766
 1180poe    c23 5514   3.628   2.437   1.964  0.1271 -0.7732  0.0070
 1180poe    c23 5515   3.483   2.431   2.016  0.2998 -0.1837  0.5788
 1180poe     o2 5516   3.453   2.301   2.062 -0.0736 -0.2492  0.1587
 1180poe    c23 5517   3.318   2.284   2.099 -0.2734 -0.0518 -0.4635
 1180poe    c23 5518   3.273   2.145   2.148  0.2962 -0.2265 -0.4257
 1180poe     o2 5519   3.267   2.075   2.026  0.3457 -0.0816 -0.5120
 1180poe    c31 5520   3.178   1.968   2.052  0.3685 -0.0650 -0.3625
 1181poe    c31 5521   7.012   4.949   0.279  0.3593  0.3407 -0.2459
 1181poe     o2 5522   7.024   4.834   0.199 -0.2859  0.1554 -0.0834
 1181poe    c23 5523   7.048   4.718   0.276  0.2356 -0.0047 -0.4846
 1181poe    c23 5524   7.154   4.641   0.194  0.5546  0.4095 -0.4646
 1181poe     o2 5525   7.098   4.576   0.082 -0.1556  0.4954 -0.1662
 1181poe    c23 5526   7.036   4.451   0.099  0.0538  0.4374  0.1940
 1181poe    c23 5527   6.985   4.381  -0.028 -0.2443  0.4698  0.2932
 1181poe     o2 5528   6.918   4.484  -0.097 -0.5527  0.5180  0.6626
 1181poe    c23 5529   6.850   4.450  -0.216 -0.2001 -0.0012  0.6055
 1181poe    c23 5530   6.824   4.581  -0.293  0.3555 -0.4374 -0.3415
 1181poe     o2 5531   6.946   4.652  -0.288  0.3566 -0.4579 -0.1015
 1181poe    c31 5532   6.963   4.766  -0.368 -0.3891 -0.1515  0.1681
 1182poe    c31 5533   6.398   0.101   5.927  0.4637 -0.5059 -0.3199
 1182poe     o2 5534   6.469   0.150   6.039 -0.4783  0.1219  0.0057
 1182poe    c23 5535   6.424   0.104   6.165  0.2643 -0.7295 -0.0342
 1182poe    c23 5536   6.528   0.085   6.276  0.2266 -0.5617  0.0303
 1182poe     o2 5537   6.612   0.197   6.287 -0.4377 -0.0704  0.1555
 1182poe    c23 5538   6.732   0.156   6.349 -0.3799 -0.3961 -0.1712
 1182poe    c23 5539   6.818   0.277   6.392 -0.2679 -0.5135 -0.0637
 1182poe     o2 5540   6.807   0.377   6.293  0.4980 -0.6643 -0.3003
 1182poe    c23 5541   6.877   0.497   6.311  0.1925 -0.4462 -0.5522
 1182poe    c23 5542   6.852   0.577   6.182 -0.0107 -0.3111 -0.4292
 1182poe     o2 5543   6.715   0.579   6.150 -0.0097 -0.6974 -0.4549
 1182poe    c31 5544   6.689   0.652   6.033 -0.2525  0.3707  0.2566
 1183poe    c31 5545   2.141   4.303   1.280 -0.1658 -0.2608 -0.3847
 1183poe     o2 5546   2.199   4.349   1.160  0.2736  0.0836 -0.0453
 1183poe    c23 5547   2.103   4.306   1.066  0.2516 -0.4797  0.2290
 1183poe    c23 5548   2.156   4.359   0.931  0.0409  0.1109  0.3754
 1183poe     o2 5549   2.292   4.325   0.920  0.1087  0.6427 -0.4894
 1183poe    c23 5550   2.366   4.375   0.810  0.5467  0.2114 -0.3925
 1183poe    c23 5551   2.509   4.327   0.843  0.2659 -0.4174 -0.0712
 1183poe     o2 5552   2.553   4.359   0.973 -0.5773  0.4815  0.0092
 1183poe    c23 5553   2.691   4.332   0.985 -0.6258  0.3006  0.1718
 1183poe    c23 5554   2.751   4.364   1.123  0.1648 -0.8893  0.1197
 1183poe     o2 5555   2.714   4.295   1.240 -0.1972  0.0401  0.5680
 1183poe    c31 5556   2.825   4.231   1.300  0.3039  0.5718  0.2178
 1184poe    c31 5557   2.545   1.797   2.617  0.3038 -0.5677 -0.2739
 1184poe     o2 5558   2.681   1.793   2.650  0.3860  0.1952 -0.5107
 1184poe    c23 5559   2.706   1.891   2.749 -0.2128 -0.0650 -0.0980
 1184poe    c23 5560   2.855   1.929   2.741 -0.2167 -0.0280 -0.0003
 1184poe     o2 5561   2.933   1.814   2.715  0.3716  0.2037  0.6947
 1184poe    c23 5562   3.068   1.838   2.684  0.1420 -0.0088 -0.5424
 1184poe    c23 5563   3.102   1.733   2.577  0.4050  0.5842 -1.0465
 1184poe     o2 5564   2.982   1.683   2.521  0.1934 -0.2735  0.1373
 1184poe    c23 5565   2.990   1.605   2.404  0.2895 -0.5612  0.3335
 1184poe    c23 5566   2.889   1.493   2.433  0.1039 -0.4603  0.0753
 1184poe     o2 5567   2.782   1.559   2.496  0.1933 -0.2801  0.0375
 1184poe    c31 5568   2.686   1.462   2.528 -0.0458  0.2629  1.0283
 1185poe    c31 5569   5.849   1.410   3.708 -0.4971  0.4110  0.7621
 1185poe     o2 5570   5.756   1.381   3.809 -0.3112 -0.3372  0.7242
 1185poe    c23 5571   5.662   1.308   3.735 -0.1594  0.2043 -0.0068
 1185poe    c23 5572   5.538   1.267   3.817 -0.3489 -0.4210 -0.5919
 1185poe     o2 5573   5.586   1.168   3.905 -0.4669  0.2934  0.2917
 1185poe    c23 5574   5.482   1.101   3.971 -0.1631  0.3858  0.8693
 1185poe    c23 5575   5.537   0.994   4.068  0.6186 -0.0810 -0.0783
 1185poe     o2 5576   5.611   1.040   4.178  0.2305  0.1114  0.1035
 1185poe    c23 5577   5.698   0.936   4.217 -0.1820 -0.1609  0.3058
 1185poe    c23 5578   5.768   0.969   4.350  0.2158  0.0840  0.0368
 1185poe     o2 5579   5.791   1.107   4.334 -0.2771  0.2304  0.5731
 1185poe    c31 5580   5.888   1.143   4.430  0.1526 -0.0734  0.2535
 1186poe    c31 5581   3.795   6.815   2.680 -0.2465  0.2896 -0.4910
 1186poe     o2 5582   3.880   6.718   2.623 -0.0787  0.2315 -0.1474
 1186poe    c23 5583   3.993   6.688   2.702 -0.6657 -0.5356  0.4132
 1186poe    c23 5584   4.063   6.569   2.634 -0.3224 -0.1798  0.1355
 1186poe     o2 5585   4.038   6.582   2.496 -0.5155 -0.0480  0.1830
 1186poe    c23 5586   4.088   6.480   2.413 -0.2232 -0.1750  0.5122
 1186poe    c23 5587   4.118   6.548   2.278  0.0331 -0.4547  0.4265
 1186poe     o2 5588   4.001   6.611   2.230  0.5109 -0.0330 -0.1933
 1186poe    c23 5589   4.041   6.666   2.106  0.3413  0.5822  0.0225
 1186poe    c23 5590   3.922   6.708   2.016 -0.3623 -0.5136  0.4246
 1186poe     o2 5591   3.824   6.778   2.089 -0.1596  0.2320 -0.0184
 1186poe    c31 5592   3.696   6.750   2.037 -0.2580  0.3746  0.1453
 1187poe    c31 5593   1.111   5.328   6.571  0.1102  0.1487 -0.8041
 1187poe     o2 5594   0.975   5.361   6.580  0.0206 -0.4593  0.1685
 1187poe    c23 5595   0.893   5.264   6.518 -0.0054 -0.3098 -0.0332
 1187poe    c23 5596   0.747   5.305   6.548  0.0682  0.0667 -0.1838
 1187poe     o2 5597   0.719   5.429   6.486  0.0794 -0.1127 -0.5523
 1187poe    c23 5598   0.581   5.455   6.476  0.0321 -0.2202 -0.1961
 1187poe    c23 5599   0.556   5.476   6.325 -0.2831 -0.1671 -0.1360
 1187poe     o2 5600   0.582   5.609   6.288 -0.1783 -0.1236  0.0915
 1187poe    c23 5601   0.594   5.616   6.148 -0.0724 -0.1213  0.1006
 1187poe    c23 5602   0.603   5.761   6.098 -0.1750 -0.1511 -0.0070
 1187poe     o2 5603   0.687   5.848   6.172 -0.4957 -0.0700  0.2673
 1187poe    c31 5604   0.676   5.979   6.121 -0.2499 -0.0736  0.1997
 1188poe    c31 5605   3.110   6.150   2.787 -0.1606  0.1045  0.6436
 1188poe     o2 5606   3.079   6.273   2.725  0.1740 -0.2662 -0.2852
 1188poe    c23 5607   3.192   6.352   2.757 -0.2011  0.0072  0.4007
 1188poe    c23 5608   3.201   6.481   2.673 -0.7666 -0.3499 -0.2254
 1188poe     o2 5609   3.087   6.564   2.684 -0.2637  0.3366 -0.1544
 1188poe    c23 5610   3.104   6.679   2.605  0.2026  0.5348  0.2281
 1188poe    c23 5611   3.030   6.807   2.649  0.2609  0.6989 -0.1405
 1188poe     o2 5612   2.896   6.773   2.674  0.4269 -0.3487 -0.6247
 1188poe    c23 5613   2.816   6.776   2.557  0.1851 -0.4528 -0.4624
 1188poe    c23 5614   2.678   6.721   2.597 -0.1756  0.4355 -0.4629
 1188poe     o2 5615   2.694   6.617   2.690 -0.0753  0.5788 -0.3190
 1188poe    c31 5616   2.567   6.583   2.742  0.1780  0.3800  0.1766
 1189poe    c31 5617   2.673   5.206   4.540 -0.2311 -0.7730  0.1330
 1189poe     o2 5618   2.764   5.128   4.614  0.0359 -0.2188  0.3930
 1189poe    c23 5619   2.716   5.004   4.659 -0.8655 -0.3395 -0.8399
 1189poe    c23 5620   2.840   4.913   4.675 -0.5472  0.2628  0.1971
 1189poe     o2 5621   2.867   4.821   4.572 -0.1100 -0.2009  0.7180
 1189poe    c23 5622   2.942   4.711   4.617  0.0393 -0.2331  0.3921
 1189poe    c23 5623   2.939   4.594   4.517  0.5108  0.2151 -0.1540
 1189poe     o2 5624   2.974   4.636   4.387  0.2521 -0.4345 -0.4400
 1189poe    c23 5625   2.972   4.522   4.304  0.2389 -0.4361 -0.4376
 1189poe    c23 5626   3.008   4.556   4.159  0.2610  0.0618 -0.3186
 1189poe     o2 5627   2.900   4.612   4.089 -0.5223 -0.3204  0.5674
 1189poe    c31 5628   2.903   4.548   3.963 -0.2011 -0.1296  0.4755
 1190poe    c31 5629   4.822   2.723   6.469 -1.1145 -0.0424  0.5402
 1190poe     o2 5630   4.761   2.621   6.394  0.2021  0.0148 -0.6530
 1190poe    c23 5631   4.850   2.512   6.382  0.2972 -0.0660  0.6008
 1190poe    c23 5632   4.773   2.386   6.338  0.4170  0.1252 -0.1798
 1190poe     o2 5633   4.649   2.402   6.404  0.2376 -0.1793 -0.4421
 1190poe    c23 5634   4.596   2.272   6.423 -0.1033  0.0424  0.1356
 1190poe    c23 5635   4.447   2.282   6.463 -0.0728  0.3159  0.1857
 1190poe     o2 5636   4.428   2.339   6.590  0.0013 -0.3883  0.5157
 1190poe    c23 5637   4.293   2.347   6.632 -0.2082 -0.5990 -0.1068
 1190poe    c23 5638   4.274   2.396   6.777  0.1716  0.3076 -0.3526
 1190poe     o2 5639   4.318   2.529   6.778  0.0925  0.3334 -0.1259
 1190poe    c31 5640   4.307   2.595   6.902  0.5420 -0.0303  0.1114
 1191poe    c31 5641   2.566   3.689   4.910  0.1600 -0.4415 -0.2076
 1191poe     o2 5642   2.691   3.624   4.925 -0.0410 -0.7750  0.0395
 1191poe    c23 5643   2.671   3.488   4.953 -0.5895 -0.5552  0.7654
 1191poe    c23 5644   2.805   3.431   5.005  0.1604  0.7166  0.2552
 1191poe     o2 5645   2.915   3.436   4.917  0.3410 -0.5607  0.3892
 1191poe    c23 5646   3.028   3.449   5.000  0.3560  0.1626  0.2653
 1191poe    c23 5647   3.149   3.419   4.910  0.0106 -0.4304 -0.0043
 1191poe     o2 5648   3.149   3.509   4.802  0.2025 -0.8492 -0.3547
 1191poe    c23 5649   3.252   3.474   4.711  0.6986 -0.0643 -0.1075
 1191poe    c23 5650   3.267   3.592   4.615  0.7745 -0.3604 -0.4616
 1191poe     o2 5651   3.142   3.624   4.559  0.6945  0.0174 -0.0707
 1191poe    c31 5652   3.143   3.749   4.493 -0.4165  0.1382  0.1194
 1192poe    c31 5653   2.430   3.943   1.561 -0.5045 -0.0692  0.0716
 1192poe     o2 5654   2.509   3.879   1.463  0.4061  0.5099  0.4055
 1192poe    c23 5655   2.455   3.749   1.448  0.2688  0.6621 -0.4814
 1192poe    c23 5656   2.543   3.650   1.369  0.2280  0.3392 -0.1239
 1192poe     o2 5657   2.667   3.614   1.426 -0.0985 -0.2201  0.2334
 1192poe    c23 5658   2.739   3.518   1.353 -0.1350 -0.2799  0.2751
 1192poe    c23 5659   2.880   3.524   1.415 -0.1644  0.1720  0.2996
 1192poe     o2 5660   2.870   3.522   1.556  0.3766  0.6914  0.3484
 1192poe    c23 5661   2.996   3.527   1.619  0.4640  0.1721  0.2163
 1192poe    c23 5662   2.969   3.528   1.771  0.1381  0.3750  0.1588
 1192poe     o2 5663   2.863   3.618   1.794  0.2374  0.6401 -0.4046
 1192poe    c31 5664   2.858   3.645   1.932 -0.2253 -0.0264 -0.2904
 1193poe    c31 5665   5.629   5.117   5.325  0.6415  0.2183 -0.2752
 1193poe     o2 5666   5.660   5.029   5.431 -0.5004  0.2578  0.0972
 1193poe    c23 5667   5.671   5.102   5.551  0.0509 -0.1843  0.3188
 1193poe    c23 5668   5.713   5.020   5.675  0.7042 -0.5084 -0.1134
 1193poe     o2 5669   5.608   4.943   5.729  0.0827  0.5717  0.2578
 1193poe    c23 5670   5.655   4.910   5.857  0.4864 -0.0092 -0.0353
 1193poe    c23 5671   5.639   4.762   5.900  0.1831  0.2374  0.7194
 1193poe     o2 5672   5.730   4.664   5.856 -0.8567 -0.7160  0.6809
 1193poe    c23 5673   5.714   4.621   5.723 -0.1907 -0.5248  0.5350
 1193poe    c23 5674   5.770   4.479   5.702 -0.3296 -0.5034  0.0016
 1193poe     o2 5675   5.904   4.458   5.662 -0.3035  0.0306 -0.2028
 1193poe    c31 5676   5.931   4.319   5.666 -0.3667  0.0366  0.5938
 1194poe    c31 5677   1.288   0.915   0.306  0.1516 -0.2000  0.6607
 1194poe     o2 5678   1.186   0.819   0.303 -0.5018  0.5018 -0.2063
 1194poe    c23 5679   1.258   0.713   0.361  0.1375  0.5435 -0.9071
 1194poe    c23 5680   1.172   0.592   0.320  0.0524  0.2935 -0.0130
 1194poe     o2 5681   1.051   0.606   0.392 -0.1079 -0.1573 -0.1913
 1194poe    c23 5682   0.959   0.509   0.349  0.1043 -0.4248 -0.0508
 1194poe    c23 5683   0.837   0.588   0.298  0.2968 -0.2872 -0.2964
 1194poe     o2 5684   0.894   0.683   0.210 -0.0599  0.0646 -0.1505
 1194poe    c23 5685   0.790   0.764   0.159 -0.5357 -0.2507  0.3073
 1194poe    c23 5686   0.860   0.885   0.093  0.2569 -0.5028  0.6682
 1194poe     o2 5687   0.949   0.953   0.178 -0.1452 -0.0968  0.7660
 1194poe    c31 5688   1.005   1.062   0.109 -0.5088 -0.2855  0.1684
 1195poe    c31 5689   0.246   0.975   6.445 -0.1823  0.1192  0.3130
 1195poe     o2 5690   0.149   1.020   6.537 -0.5998 -0.3122  0.0856
 1195poe    c23 5691   0.028   1.009   6.464 -0.7055 -0.5865  0.3021
 1195poe    c23 5692  -0.096   0.998   6.554 -0.8845 -0.3917  0.0799
 1195poe     o2 5693  -0.122   1.125   6.611 -0.2648 -0.2715  0.1026
 1195poe    c23 5694  -0.246   1.129   6.677  0.0473 -0.0549  0.6824
 1195poe    c23 5695  -0.276   1.277   6.710 -0.1882  0.0377  0.0633
 1195poe     o2 5696  -0.158   1.330   6.766  0.0443 -0.5166  0.1079
 1195poe    c23 5697  -0.173   1.408   6.882  0.6751 -0.3689  0.0918
 1195poe    c23 5698  -0.055   1.498   6.925  0.5543 -0.3164  0.3128
 1195poe     o2 5699   0.059   1.435   6.872  0.3516 -0.2191 -0.2479
 1195poe    c31 5700   0.178   1.505   6.900  0.4384 -0.5152  0.1426
 1196poe    c31 5701   6.180   1.715   2.092 -1.1545 -0.5037 -0.7381
 1196poe     o2 5702   6.271   1.721   1.984 -0.2900 -0.5467 -0.0206
 1196poe    c23 5703   6.205   1.722   1.860  0.0885  0.5316 -0.2219
 1196poe    c23 5704   6.312   1.708   1.751  0.3160 -0.1117  0.0805
 1196poe     o2 5705   6.424   1.782   1.794  0.0957  0.2126  0.0979
 1196poe    c23 5706   6.516   1.804   1.690  0.1734  0.7632  0.2823
 1196poe    c23 5707   6.608   1.686   1.656 -0.5202  0.3161 -0.0533
 1196poe     o2 5708   6.676   1.647   1.773 -0.4284 -0.2225 -0.2826
 1196poe    c23 5709   6.789   1.565   1.754 -0.2420 -0.0573  0.1125
 1196poe    c23 5710   6.808   1.454   1.859 -0.2689 -0.1014  0.0704
 1196poe     o2 5711   6.731   1.341   1.825 -0.1097 -0.1283 -0.2097
 1196poe    c31 5712   6.645   1.327   1.936 -0.3339 -0.2896 -0.4035
 1197poe    c31 5713   5.691   2.725   7.008 -0.3663 -0.5366  1.1400
 1197poe     o2 5714   5.805   2.770   7.077 -0.3433  0.4869  0.4754
 1197poe    c23 5715   5.914   2.729   6.997 -0.5967  0.7984 -0.0269
 1197poe    c23 5716   6.034   2.815   7.038 -0.1137 -0.0262  0.3135
 1197poe     o2 5717   5.990   2.949   7.049  0.5062  0.2226 -0.1815
 1197poe    c23 5718   6.103   3.028   7.082  0.3800  0.1779  0.3675
 1197poe    c23 5719   6.053   3.171   7.109  0.2312  0.1941  0.0047
 1197poe     o2 5720   5.972   3.168   7.224 -0.3759  0.2816 -0.4154
 1197poe    c23 5721   5.963   3.290   7.293 -0.3971 -0.1299  0.3159
 1197poe    c23 5722   5.839   3.378   7.266  0.0874  0.7308  0.8359
 1197poe     o2 5723   5.865   3.491   7.186  0.2743 -0.0312 -0.1961
 1197poe    c31 5724   5.741   3.539   7.141  0.1906 -0.0315  0.0352
 1198poe    c31 5725   5.691   2.346   5.038 -0.4436  0.2698  0.3086
 1198poe     o2 5726   5.636   2.292   5.156 -0.0093 -0.3978  0.2094
 1198poe    c23 5727   5.525   2.376   5.176 -0.1735 -0.3833 -0.7101
 1198poe    c23 5728   5.429   2.316   5.280 -0.0844  0.1473 -0.3146
 1198poe     o2 5729   5.512   2.252   5.375 -0.4768  0.5198  0.2890
 1198poe    c23 5730   5.456   2.131   5.419 -0.0058  0.2997  0.2872
 1198poe    c23 5731   5.560   2.064   5.511 -0.1198  0.0508  0.2362
 1198poe     o2 5732   5.681   2.073   5.440 -0.3001  0.1553 -0.0575
 1198poe    c23 5733   5.784   1.999   5.502 -0.3491  0.0189 -0.1370
 1198poe    c23 5734   5.898   1.984   5.400 -0.2690  0.1452 -0.0680
 1198poe     o2 5735   5.886   2.095   5.314 -0.1037  0.3631  0.1873
 1198poe    c31 5736   6.006   2.121   5.246  0.0166 -0.8018 -0.0705
 1199poe    c31 5737   6.409   5.393   0.456 -0.1816  0.1891 -0.5932
 1199poe     o2 5738   6.365   5.411   0.323  0.1558 -0.0852 -0.7417
 1199poe    c23 5739   6.253   5.496   0.318  1.0999  1.2160 -0.3122
 1199poe    c23 5740   6.208   5.523   0.173  0.1959  0.7560 -0.1244
 1199poe     o2 5741   6.309   5.582   0.094  0.3379  0.5634 -0.0869
 1199poe    c23 5742   6.260   5.661  -0.011 -0.4321 -0.1952 -0.3078
 1199poe    c23 5743   6.373   5.652  -0.115  0.0552 -0.1786  0.2169
 1199poe     o2 5744   6.486   5.698  -0.045  0.3819 -0.6555  0.0098
 1199poe    c23 5745   6.588   5.752  -0.126 -0.5876  0.6967 -0.3559
 1199poe    c23 5746   6.711   5.798  -0.045  0.1697 -0.8461 -0.5887
 1199poe     o2 5747   6.747   5.680   0.025 -0.2721 -0.4582  0.3061
 1199poe    c31 5748   6.847   5.720   0.115 -0.4629 -0.5563  0.5610
 1200poe    c31 5749   3.740   5.537   6.258 -0.1820  0.0271 -0.0191
 1200poe     o2 5750   3.804   5.444   6.342 -0.6091 -0.1928  0.0671
 1200poe    c23 5751   3.940   5.471   6.367 -0.4190 -0.2824 -0.8061
 1200poe    c23 5752   4.009   5.350   6.432  0.5087  0.6583  0.0233
 1200poe     o2 5753   3.934   5.314   6.546  0.1753  0.2046 -0.3349
 1200poe    c23 5754   3.994   5.211   6.621 -0.0456  0.1008 -0.3001
 1200poe    c23 5755   3.898   5.125   6.706  0.1610  0.1103 -0.0561
 1200poe     o2 5756   3.814   5.044   6.628 -0.3935  0.3830  0.2496
 1200poe    c23 5757   3.738   4.978   6.727  0.3666 -0.2173  0.4451
 1200poe    c23 5758   3.647   4.864   6.678  0.0410  0.1064  0.2955
 1200poe     o2 5759   3.722   4.755   6.630 -0.3638 -0.1199  0.1732
 1200poe    c31 5760   3.645   4.682   6.537  0.4650 -0.3338 -0.3531
 1201poe    c31 5761   3.964   5.440   2.740  0.4737 -0.0198 -0.3666
 1201poe     o2 5762   3.997   5.509   2.622 -0.2235 -0.0198 -0.5673
 1201poe    c23 5763   4.070   5.624   2.655 -0.3110 -0.2230  0.3421
 1201poe    c23 5764   4.085   5.708   2.527  0.1967 -0.2318  0.3937
 1201poe     o2 5765   3.969   5.737   2.452  0.3596 -0.5868 -0.0063
 1201poe    c23 5766   4.001   5.800   2.330  0.0663 -0.4903 -0.0325
 1201poe    c23 5767   3.878   5.857   2.255  0.4922  0.1887 -0.2206
 1201poe     o2 5768   3.793   5.745   2.262 -0.2648  0.7669 -0.0514
 1201poe    c23 5769   3.678   5.752   2.181  0.1600 -0.5607 -0.8073
 1201poe    c23 5770   3.562   5.655   2.211  0.2643 -0.4178  0.0731
 1201poe     o2 5771   3.504   5.670   2.339  0.4477 -0.2004  0.1311
 1201poe    c31 5772   3.382   5.601   2.354  0.2788  0.1572  0.4314
 1202poe    c31 5773   3.725   4.509   1.688  0.7129  0.3869 -0.4277
 1202poe     o2 5774   3.665   4.633   1.717 -0.1406 -0.1455  0.1261
 1202poe    c23 5775   3.763   4.733   1.735  0.0310 -0.3418  0.2821
 1202poe    c23 5776   3.696   4.861   1.789 -0.2012 -0.0673 -0.6434
 1202poe     o2 5777   3.589   4.900   1.705 -0.7845  0.2283  0.2249
 1202poe    c23 5778   3.601   5.039   1.687 -1.0347  0.2291  0.0581
 1202poe    c23 5779   3.482   5.082   1.599 -0.3456  0.0537 -0.9755
 1202poe     o2 5780   3.375   4.993   1.622 -0.0895  0.0402  0.2344
 1202poe    c23 5781   3.293   5.008   1.509  0.2740 -0.0762 -0.0451
 1202poe    c23 5782   3.185   4.899   1.509 -0.0086  0.2037  0.0103
 1202poe     o2 5783   3.244   4.771   1.503 -0.2303  0.1079 -0.1627
 1202poe    c31 5784   3.151   4.667   1.489 -0.5024  0.3239  0.0397
 1203poe    c31 5785   4.093   4.712   3.892  0.0183  0.5969 -0.0771
 1203poe     o2 5786   4.163   4.690   4.013  0.1337  0.4555 -0.1692
 1203poe    c23 5787   4.302   4.665   4.012  0.1172  0.3311  0.4620
 1203poe    c23 5788   4.390   4.666   4.139  0.3783  0.3210  0.2812
 1203poe     o2 5789   4.329   4.573   4.225  0.1711 -0.0110 -0.2166
 1203poe    c23 5790   4.401   4.602   4.343 -0.4233  0.2154  0.0955
 1203poe    c23 5791   4.320   4.551   4.464 -0.1235  0.1897  0.2885
 1203poe     o2 5792   4.185   4.538   4.426 -0.0078  0.0534 -0.0825
 1203poe    c23 5793   4.108   4.480   4.530  0.0429  0.6836  0.3117
 1203poe    c23 5794   3.970   4.441   4.473  0.4906  0.2403 -0.4825
 1203poe     o2 5795   3.993   4.365   4.356 -0.2863 -0.2211 -0.3374
 1203poe    c31 5796   3.875   4.369   4.279 -0.3130 -0.3103 -0.3012
 1204poe    c31 5797   3.465   0.991   6.916  0.3472 -0.4741 -0.0703
 1204poe     o2 5798   3.563   1.045   7.002  0.2608  0.2525 -0.4187
 1204poe    c23 5799   3.669   1.078   6.915  0.2815  0.7577 -0.2048
 1204poe    c23 5800   3.774   1.154   6.998  0.3526  0.7005 -0.2412
 1204poe     o2 5801   3.808   1.078   7.111 -0.2911  0.5130 -0.1707
 1204poe    c23 5802   3.909   1.134   7.192 -0.2465 -0.3393  0.3788
 1204poe    c23 5803   3.891   1.063   7.328 -0.5019 -0.3543  0.3371
 1204poe     o2 5804   3.756   1.051   7.368 -0.3456  0.4445  1.1061
 1204poe    c23 5805   3.740   0.952   7.467  0.6922 -0.4389  0.4097
 1204poe    c23 5806   3.595   0.950   7.518  0.4571  0.1202 -0.2233
 1204poe     o2 5807   3.518   0.912   7.406  0.3414 -0.4662  0.0511
 1204poe    c31 5808   3.379   0.906   7.428  0.2331 -0.0089 -0.4895
 1205poe    c31 5809   6.687   2.299   5.989 -0.3098 -1.0360  0.5307
 1205poe     o2 5810   6.704   2.201   5.889 -0.7757 -0.4793 -0.1012
 1205poe    c23 5811   6.658   2.227   5.758 -0.2549  0.8187 -0.0434
 1205poe    c23 5812   6.623   2.113   5.661  0.1511  0.5225  0.1552
 1205poe     o2 5813   6.738   2.036   5.632 -0.0071  0.2017  0.3787
 1205poe    c23 5814   6.698   1.903   5.608  0.4857  0.1638 -0.2387
 1205poe    c23 5815   6.813   1.825   5.542 -0.0641 -0.2024 -0.7754
 1205poe     o2 5816   6.933   1.885   5.584 -0.3810  0.0183 -0.1745
 1205poe    c23 5817   7.034   1.795   5.541 -0.2402  0.1952 -0.2167
 1205poe    c23 5818   7.171   1.865   5.530  0.2139 -0.6084  0.2472
 1205poe     o2 5819   7.207   1.879   5.666 -0.2553  0.2626  0.2896
 1205poe    c31 5820   7.314   1.971   5.670 -0.0005  0.0180 -0.5834
 1206poe    c31 5821   4.882   6.305   0.143 -0.6634 -0.3152 -0.0666
 1206poe     o2 5822   4.914   6.301   0.006 -0.0525 -0.1899  0.0658
 1206poe    c23 5823   5.000   6.402  -0.041  0.1807 -0.2457  0.3674
 1206poe    c23 5824   5.061   6.359  -0.176  0.6255  0.2306  0.4158
 1206poe     o2 5825   5.123   6.233  -0.163  0.0733 -0.0776  0.1090
 1206poe    c23 5826   5.193   6.197  -0.280  0.1456  0.1188  0.0906
 1206poe    c23 5827   5.221   6.046  -0.272  0.2616  0.1391  0.0704
 1206poe     o2 5828   5.103   5.969  -0.267  0.2028  0.1914 -0.4499
 1206poe    c23 5829   5.124   5.836  -0.308  0.0765 -0.0066  0.1210
 1206poe    c23 5830   4.990   5.761  -0.313  0.2435 -0.3008  0.0259
 1206poe     o2 5831   4.891   5.824  -0.235  0.1945 -0.2534 -0.0746
 1206poe    c31 5832   4.776   5.747  -0.210 -0.4412  0.7076  0.0110
 1207poe    c31 5833   0.210   6.491   1.027 -0.3109  0.2625  0.4082
 1207poe     o2 5834   0.334   6.503   0.962 -0.3797  0.3962  0.3027
 1207poe    c23 5835   0.320   6.626   0.893 -0.0381  0.1854 -0.1479
 1207poe    c23 5836   0.455   6.658   0.825  0.0992 -0.3393 -0.1274
 1207poe     o2 5837   0.562   6.599   0.895  0.1693 -0.0997 -0.0330
 1207poe    c23 5838   0.692   6.645   0.864  0.2831  0.0252  0.6123
 1207poe    c23 5839   0.780   6.569   0.965  0.2069  0.3054  0.8917
 1207poe     o2 5840   0.735   6.435   0.956  0.8090  0.1236  0.4458
 1207poe    c23 5841   0.780   6.371   1.073  0.3146 -0.8497  0.1117
 1207poe    c23 5842   0.673   6.262   1.094 -0.2396 -0.3572 -0.1512
 1207poe     o2 5843   0.557   6.343   1.102 -0.2858 -0.4730  0.3469
 1207poe    c31 5844   0.474   6.292   1.204 -0.1654 -0.3335  0.5173
 1208poe    c31 5845   2.039   3.233   5.327 -0.3667 -0.0783 -0.8538
 1208poe     o2 5846   2.136   3.272   5.233  0.5164  0.1734  0.1587
 1208poe    c23 5847   2.114   3.405   5.190 -0.1772 -0.0366 -0.1429
 1208poe    c23 5848   2.086   3.399   5.039 -0.0305 -0.3336 -0.1599
 1208poe     o2 5849   2.201   3.382   4.959 -0.1433 -0.4446 -0.3000
 1208poe    c23 5850   2.172   3.384   4.821 -0.6555 -0.0140 -0.1912
 1208poe    c23 5851   2.182   3.247   4.752  0.6356  0.0714 -0.2033
 1208poe     o2 5852   2.309   3.188   4.741  0.5855  0.1003 -0.9931
 1208poe    c23 5853   2.331   3.053   4.704  0.6322 -0.2527  0.2727
 1208poe    c23 5854   2.473   3.018   4.751  0.7860 -0.2760 -0.2002
 1208poe     o2 5855   2.476   3.000   4.891 -0.3086 -0.1581 -0.1530
 1208poe    c31 5856   2.607   3.004   4.945 -0.1894 -0.2675 -0.4299
 1209poe    c31 5857   2.494   4.804   2.450 -0.1418 -0.5010 -0.0207
 1209poe     o2 5858   2.389   4.855   2.370  0.0948  0.1178  0.0564
 1209poe    c23 5859   2.430   4.844   2.236  0.4813 -0.7915  0.2420
 1209poe    c23 5860   2.305   4.884   2.155  0.6410 -0.3440  0.2163
 1209poe     o2 5861   2.258   5.004   2.213 -0.1016 -0.7550  0.4820
 1209poe    c23 5862   2.163   5.063   2.127  0.3650 -0.1839  0.3493
 1209poe    c23 5863   2.131   5.205   2.176 -0.2311 -0.3077  0.3256
 1209poe     o2 5864   2.114   5.204   2.316  0.0575  0.3885  0.3701
 1209poe    c23 5865   2.063   5.329   2.356 -0.1442  0.6522 -0.6689
 1209poe    c23 5866   2.095   5.345   2.506  0.0610 -0.2704 -0.6092
 1209poe     o2 5867   2.231   5.324   2.534  0.0225 -0.4130 -0.5244
 1209poe    c31 5868   2.243   5.296   2.671 -0.1929 -0.2486 -0.4727
 1210poe    c31 5869   4.052   6.033   6.847 -0.3251 -0.5715  0.4784
 1210poe     o2 5870   4.020   5.993   6.978  0.1544  0.0805  0.8049
 1210poe    c23 5871   3.974   6.106   7.049 -0.1772  0.3492  0.1637
 1210poe    c23 5872   3.874   6.067   7.159 -0.2378 -0.2871 -0.1122
 1210poe     o2 5873   3.924   5.947   7.214  0.3430 -0.3094 -0.6650
 1210poe    c23 5874   3.826   5.881   7.292  0.2329  0.1839 -0.3786
 1210poe    c23 5875   3.873   5.754   7.364 -0.3941  0.1650  0.0053
 1210poe     o2 5876   3.874   5.642   7.279  0.2002  0.0863  0.1143
 1210poe    c23 5877   3.945   5.530   7.327  0.3265  0.2317  0.2701
 1210poe    c23 5878   3.939   5.421   7.218 -0.5819  0.3861  0.1567
 1210poe     o2 5879   3.987   5.462   7.092 -0.3981  0.2896  0.1962
 1210poe    c31 5880   4.037   5.347   7.026  0.1742  0.5960  0.0891
 1211poe    c31 5881   3.673   3.568   4.451  0.6583  0.4385 -0.2705
 1211poe     o2 5882   3.806   3.539   4.415  0.4800 -0.0724 -0.5181
 1211poe    c23 5883   3.899   3.487   4.507 -0.0345 -0.5055 -0.2352
 1211poe    c23 5884   4.037   3.479   4.439  0.2210 -0.0655  0.2176
 1211poe     o2 5885   4.065   3.605   4.381  0.3434 -0.5641 -0.8465
 1211poe    c23 5886   4.200   3.638   4.359  0.4211 -0.3662 -0.1114
 1211poe    c23 5887   4.239   3.787   4.371 -0.2135 -0.2024 -0.0380
 1211poe     o2 5888   4.161   3.856   4.276 -0.6262 -0.2827  0.2396
 1211poe    c23 5889   4.148   3.996   4.289 -0.4281 -0.2319 -0.1000
 1211poe    c23 5890   4.034   4.031   4.191 -0.1199 -0.3345 -0.4997
 1211poe     o2 5891   3.911   3.972   4.226 -0.0027  0.1268  0.7573
 1211poe    c31 5892   3.806   4.014   4.142  0.1422 -0.0507  0.4857
 1212poe    c31 5893   5.227   0.959   1.046 -0.4429  0.2458 -0.5951
 1212poe     o2 5894   5.101   0.958   0.982 -0.6461 -0.6626 -0.1906
 1212poe    c23 5895   5.021   1.072   0.995  0.0177 -0.2456  0.2823
 1212poe    c23 5896   4.946   1.117   0.868  0.0898  0.3831  0.4559
 1212poe     o2 5897   4.826   1.046   0.847  0.0879  0.5097  0.0390
 1212poe    c23 5898   4.771   1.092   0.725 -0.2020  0.4445  0.1456
 1212poe    c23 5899   4.654   1.000   0.683 -0.5546  0.2896  1.4207
 1212poe     o2 5900   4.679   0.864   0.708 -0.2569  0.1677  0.4818
 1212poe    c23 5901   4.573   0.786   0.657 -0.0282  0.4213 -0.4059
 1212poe    c23 5902   4.618   0.644   0.693  0.7135  0.5804 -0.6842
 1212poe     o2 5903   4.685   0.652   0.817 -0.1896  0.2560 -0.1602
 1212poe    c31 5904   4.703   0.521   0.865 -0.0899  0.2032 -0.3396
 1213poe    c31 5905   6.173   2.682   5.369 -0.4831  0.3234 -0.0373
 1213poe     o2 5906   6.301   2.704   5.423 -0.1533 -0.2177 -0.5897
 1213poe    c23 5907   6.298   2.718   5.563  0.5721  0.8749 -0.6692
 1213poe    c23 5908   6.438   2.750   5.619  0.2823  0.0147  0.5904
 1213poe     o2 5909   6.536   2.665   5.565  0.1412 -0.0226  0.3929
 1213poe    c23 5910   6.659   2.664   5.635  0.0437  0.1541  0.5676
 1213poe    c23 5911   6.760   2.569   5.569  0.1596  0.1347  0.7718
 1213poe     o2 5912   6.769   2.608   5.434 -0.1612 -0.8110  0.4630
 1213poe    c23 5913   6.873   2.537   5.371 -0.3965 -0.3923 -0.4256
 1213poe    c23 5914   6.886   2.596   5.230  0.6930 -0.5560 -0.4031
 1213poe     o2 5915   6.759   2.608   5.169  0.6559  0.0544 -0.2208
 1213poe    c31 5916   6.766   2.606   5.028  0.3202 -0.4715 -0.2336
 1214poe    c31 5917   4.587   3.382   5.835  0.2946 -0.1722 -0.5581
 1214poe     o2 5918   4.462   3.320   5.853  0.2835  0.0701  0.2526
 1214poe    c23 5919   4.471   3.180   5.837 -0.2021  0.0669 -0.0341
 1214poe    c23 5920   4.487   3.114   5.975 -0.8599 -0.0869 -0.0318
 1214poe     o2 5921   4.414   3.203   6.057 -0.5834  0.3177 -0.2244
 1214poe    c23 5922   4.411   3.152   6.189 -0.0573  0.9311  0.0312
 1214poe    c23 5923   4.345   3.258   6.280 -0.2264  0.3036  0.6518
 1214poe     o2 5924   4.339   3.373   6.197  0.0541  0.0596  0.2862
 1214poe    c23 5925   4.294   3.494   6.253 -0.0667  0.1770 -0.0618
 1214poe    c23 5926   4.346   3.612   6.168  0.4127 -0.1271 -0.1945
 1214poe     o2 5927   4.370   3.555   6.041  0.1959 -0.5605 -0.0438
 1214poe    c31 5928   4.412   3.655   5.952 -0.3709 -0.0363  0.2682
 1215poe    c31 5929   5.367   0.090   6.585 -0.1831  0.1926  0.0983
 1215poe     o2 5930   5.436   0.132   6.701  0.0362 -0.3047  0.1493
 1215poe    c23 5931   5.519   0.033   6.759  0.7315  0.2369  0.0908
 1215poe    c23 5932   5.577   0.064   6.898  1.1101  0.7060 -0.1714
 1215poe     o2 5933   5.471   0.084   6.988  1.3382 -0.0520  0.2731
 1215poe    c23 5934   5.516   0.106   7.120  0.4804 -0.0663  0.5723
 1215poe    c23 5935   5.399   0.076   7.217 -0.2329  1.2036  0.1294
 1215poe     o2 5936   5.290   0.155   7.175 -0.3141  0.5088 -1.0061
 1215poe    c23 5937   5.197   0.178   7.278 -0.0708 -0.4084 -0.5671
 1215poe    c23 5938   5.100   0.287   7.228  0.1242  0.1340  0.2172
 1215poe     o2 5939   5.054   0.246   7.101 -0.3084  0.6197  0.2110
 1215poe    c31 5940   4.914   0.249   7.084 -0.2598 -0.4517 -0.5497
 1216poe    c31 5941   5.766   5.546   3.932 -0.7862  0.0618 -0.2261
 1216poe     o2 5942   5.814   5.676   3.960  0.0559 -0.2745 -0.0657
 1216poe    c23 5943   5.954   5.679   3.968  0.0746  0.4065 -0.5688
 1216poe    c23 5944   5.983   5.804   4.054  0.1279  0.0102 -0.0031
 1216poe     o2 5945   5.909   5.907   3.993 -0.2946 -0.2288  0.1029
 1216poe    c23 5946   5.974   6.031   4.007 -1.1012  0.1947  0.2040
 1216poe    c23 5947   5.948   6.121   3.885  0.0060  0.3528  0.0678
 1216poe     o2 5948   5.810   6.151   3.897  0.0946  0.7018  0.2260
 1216poe    c23 5949   5.761   6.219   3.784 -0.4744 -0.1723 -0.0625
 1216poe    c23 5950   5.610   6.240   3.799 -0.4097  0.5112 -0.3449
 1216poe     o2 5951   5.541   6.118   3.787 -0.2253  0.3847 -0.1285
 1216poe    c31 5952   5.432   6.130   3.875  0.1577 -0.0967  0.4183
 1217poe    c31 5953   3.721   6.763   1.634 -0.0243  0.0785  0.4015
 1217poe     o2 5954   3.745   6.875   1.717  0.8227 -0.1659  0.5039
 1217poe    c23 5955   3.667   6.989   1.686  0.6132 -0.4581 -0.0548
 1217poe    c23 5956   3.712   7.119   1.754  0.2176 -0.1427 -0.3901
 1217poe     o2 5957   3.823   7.176   1.690  0.6827 -0.2264  0.3272
 1217poe    c23 5958   3.819   7.262   1.578  0.4138 -0.1372  0.4042
 1217poe    c23 5959   3.952   7.297   1.509  0.6181 -0.0145  0.8560
 1217poe     o2 5960   3.956   7.419   1.439  0.3976 -0.7468 -0.4855
 1217poe    c23 5961   4.078   7.421   1.369  0.5323  0.2861 -0.2437
 1217poe    c23 5962   4.069   7.355   1.230  0.3456  0.1574 -0.1705
 1217poe     o2 5963   3.976   7.406   1.137 -0.3490 -0.3799  0.2150
 1217poe    c31 5964   3.846   7.354   1.152 -0.4923  0.1353  0.7929
 1218poe    c31 5965   1.815   4.755   6.668  0.6140 -0.2205 -0.0540
 1218poe     o2 5966   1.864   4.863   6.592 -0.5887  0.6266  0.3408
 1218poe    c23 5967   1.970   4.931   6.655  0.2888 -0.1361 -0.2966
 1218poe    c23 5968   1.915   5.066   6.702  0.6395 -0.1226  0.0882
 1218poe     o2 5969   1.884   5.158   6.598 -0.4923 -0.2960  0.2537
 1218poe    c23 5970   1.800   5.264   6.636 -0.6644 -0.2705 -0.1978
 1218poe    c23 5971   1.774   5.371   6.529  0.1569  0.2838  0.1505
 1218poe     o2 5972   1.765   5.307   6.404  0.2953 -0.1959  0.3840
 1218poe    c23 5973   1.770   5.394   6.293 -0.1705 -0.1655  0.3865
 1218poe    c23 5974   1.752   5.307   6.167  0.3179  0.1392  0.1022
 1218poe     o2 5975   1.810   5.184   6.202 -0.1266  0.0009  0.3615
 1218poe    c31 5976   1.801   5.085   6.102  0.3889  0.6287 -0.3129
 1219poe    c31 5977   3.842   1.524   2.401 -0.0413  0.1241  0.1450
 1219poe     o2 5978   3.960   1.600   2.397  0.0829 -0.1006 -0.6649
 1219poe    c23 5979   3.927   1.722   2.461  0.0760 -0.3756 -0.1365
 1219poe    c23 5980   4.036   1.830   2.452 -0.0829 -0.1914  0.1668
 1219poe     o2 5981   4.158   1.793   2.512  0.3237  0.1145 -0.4569
 1219poe    c23 5982   4.163   1.834   2.647 -0.1547  0.3152 -0.5004
 1219poe    c23 5983   4.309   1.814   2.690 -0.5454 -0.5657  0.4594
 1219poe     o2 5984   4.361   1.697   2.630 -0.7927 -0.3458 -0.1950
 1219poe    c23 5985   4.495   1.673   2.666 -0.7885 -0.1995 -0.1093
 1219poe    c23 5986   4.503   1.528   2.614  0.1604 -0.1894 -0.0115
 1219poe     o2 5987   4.448   1.508   2.486  0.2589  0.4984 -0.1673
 1219poe    c31 5988   4.469   1.379   2.430 -1.2619  0.0665  0.2180
 1220poe    c31 5989   2.864   4.298   0.616 -0.0858 -0.4283  0.7632
 1220poe     o2 5990   2.924   4.419   0.656  0.2613 -0.3106 -0.1019
 1220poe    c23 5991   2.867   4.537   0.604  0.2627 -0.1699  0.2122
 1220poe    c23 5992   2.959   4.646   0.661  0.2793 -0.5049  0.8366
 1220poe     o2 5993   3.090   4.627   0.611  0.0471 -0.3721  0.1721
 1220poe    c23 5994   3.172   4.687   0.710  0.1319 -0.6116  0.2458
 1220poe    c23 5995   3.309   4.688   0.641 -0.0886  0.3954 -0.1955
 1220poe     o2 5996   3.343   4.570   0.571 -0.1644  0.1006  0.2624
 1220poe    c23 5997   3.478   4.555   0.534 -0.0882  0.2639  0.4781
 1220poe    c23 5998   3.544   4.645   0.428 -0.7724  0.2980  0.0815
 1220poe     o2 5999   3.491   4.643   0.297 -0.0842 -0.0431 -0.1986
 1220poe    c31 6000   3.529   4.546   0.203 -0.2072 -0.1918 -0.0964
 1221poe    c31 6001   1.083   5.752   1.083 -0.4536 -0.0445 -0.8321
 1221poe     o2 6002   1.038   5.747   1.216  0.0202 -0.2124 -0.6741
 1221poe    c23 6003   0.902   5.784   1.224  0.0727 -0.1351 -0.0285
 1221poe    c23 6004   0.843   5.746   1.361  0.1025 -0.2633 -0.0510
 1221poe     o2 6005   0.846   5.610   1.398 -0.3143 -0.1439  0.4352
 1221poe    c23 6006   0.781   5.592   1.522  0.0429  0.5701  0.7357
 1221poe    c23 6007   0.850   5.476   1.596  0.4163  0.3351  0.0263
 1221poe     o2 6008   0.853   5.353   1.526  0.0162  0.4197 -0.1418
 1221poe    c23 6009   0.901   5.248   1.607 -0.4517  0.1380 -0.2250
 1221poe    c23 6010   0.913   5.130   1.509 -0.3742  0.5323 -0.6972
 1221poe     o2 6011   0.977   5.183   1.396  0.5714  0.3375 -0.2677
 1221poe    c31 6012   1.011   5.083   1.303 -0.5738  0.1426 -0.4938
 1222poe    c31 6013   5.286   5.312   0.106 -0.3216  0.5662  0.1239
 1222poe     o2 6014   5.157   5.343   0.153 -0.6325  0.2106 -0.4838
 1222poe    c23 6015   5.142   5.477   0.194  0.0993  0.1909 -0.1402
 1222poe    c23 6016   4.993   5.496   0.226  0.0567 -0.2968 -0.0383
 1222poe     o2 6017   4.923   5.424   0.127 -0.2657 -0.4819  0.3181
 1222poe    c23 6018   4.786   5.418   0.160 -0.2185 -0.4609  0.5221
 1222poe    c23 6019   4.718   5.366   0.032  0.0261 -0.2767  0.3171
 1222poe     o2 6020   4.772   5.244  -0.013  0.6011  0.1414 -0.1577
 1222poe    c23 6021   4.692   5.200  -0.120  0.3464 -0.2167  0.1759
 1222poe    c23 6022   4.760   5.092  -0.206 -0.4779  0.1022 -0.8993
 1222poe     o2 6023   4.877   5.142  -0.266 -0.0209 -0.3894 -0.4229
 1222poe    c31 6024   4.929   5.055  -0.364 -0.3888 -0.3820 -0.6237
 1223poe    c31 6025   1.805   0.092   1.976 -0.4065 -0.0111  0.3990
 1223poe     o2 6026   1.870  -0.031   1.950 -0.5239  0.0295 -0.0957
 1223poe    c23 6027   1.963   0.001   1.849 -0.1603  0.4191  0.3609
 1223poe    c23 6028   2.040  -0.116   1.785 -0.2773  0.4662  0.1361
 1223poe     o2 6029   1.967  -0.230   1.744  0.0841  0.3185 -0.0999
 1223poe    c23 6030   2.064  -0.326   1.709 -0.3030 -0.0553 -0.1613
 1223poe    c23 6031   2.003  -0.438   1.624  0.0180 -0.5117  0.2006
 1223poe     o2 6032   1.876  -0.474   1.675 -0.4073 -0.1748 -0.6001
 1223poe    c23 6033   1.800  -0.546   1.581 -0.6509 -0.2797 -0.3225
 1223poe    c23 6034   1.673  -0.589   1.658  0.1068 -0.2475  0.9671
 1223poe     o2 6035   1.615  -0.479   1.724 -0.2155 -0.1650  0.5469
 1223poe    c31 6036   1.519  -0.527   1.816 -0.0926 -0.2373  0.6365
 1224poe    c31 6037   0.335   1.538   0.992  0.1226  0.0086 -0.5228
 1224poe     o2 6038   0.319   1.398   0.992 -0.4384  0.0693  0.0597
 1224poe    c23 6039   0.374   1.360   0.868 -0.0133  0.7171  0.0439
 1224poe    c23 6040   0.452   1.229   0.888 -0.0521  0.6626 -0.1615
 1224poe     o2 6041   0.378   1.144   0.973  0.2876  0.2925 -0.2299
 1224poe    c23 6042   0.450   1.046   1.044 -0.3387 -0.0290 -0.0318
 1224poe    c23 6043   0.347   0.964   1.124 -0.0050 -0.1036  0.3211
 1224poe     o2 6044   0.259   1.054   1.187 -0.1839 -0.2911  0.3387
 1224poe    c23 6045   0.133   1.042   1.124  0.2374  0.4494 -0.6743
 1224poe    c23 6046   0.037   1.156   1.161 -0.0677  0.1141 -0.4258
 1224poe     o2 6047   0.081   1.268   1.088  0.3365 -0.0735 -0.4697
 1224poe    c31 6048  -0.003   1.377   1.116  1.0018  0.2625  0.2543
 1225poe    c31 6049   6.277   1.768   3.033  0.5147  0.4549  0.5258
 1225poe     o2 6050   6.249   1.638   3.080  0.0401  0.4565  0.2434
 1225poe    c23 6051   6.184   1.653   3.204 -0.2110 -0.4158  0.2250
 1225poe    c23 6052   6.152   1.516   3.266 -0.6036 -0.3824  0.1003
 1225poe     o2 6053   6.266   1.439   3.237 -0.3769  0.0028 -0.0318
 1225poe    c23 6054   6.244   1.303   3.266 -0.5242  0.0005 -0.1553
 1225poe    c23 6055   6.352   1.207   3.213  0.1065  0.7202 -0.1938
 1225poe     o2 6056   6.468   1.285   3.194  0.3497  0.3374 -0.2928
 1225poe    c23 6057   6.563   1.214   3.118  0.3995 -0.0014  0.0781
 1225poe    c23 6058   6.705   1.275   3.130  0.4973 -0.2972  0.4266
 1225poe     o2 6059   6.710   1.393   3.053 -0.5378  0.0337  0.8410
 1225poe    c31 6060   6.832   1.460   3.079 -0.0624 -0.5678  0.2072
 1226poe    c31 6061   4.072   0.497   6.687  0.0940 -0.2828  0.2532
 1226poe     o2 6062   4.069   0.356   6.679  0.1934 -0.2528 -0.3844
 1226poe    c23 6063   4.199   0.302   6.692  0.1642 -0.2018  0.1403
 1226poe    c23 6064   4.196   0.151   6.661 -0.1928 -0.0916 -0.3835
 1226poe     o2 6065   4.121   0.097   6.767  0.1355 -0.1486 -0.1790
 1226poe    c23 6066   4.079  -0.037   6.757  0.0236 -0.1296  0.0072
 1226poe    c23 6067   3.979  -0.066   6.871 -0.3527  0.6227 -0.1284
 1226poe     o2 6068   3.852  -0.040   6.817 -0.2580  0.3234 -0.5036
 1226poe    c23 6069   3.758  -0.046   6.922  0.2711  0.5847 -0.0064
 1226poe    c23 6070   3.612  -0.014   6.884 -0.1114 -0.1383  0.8119
 1226poe     o2 6071   3.584   0.109   6.821 -0.0481 -0.4754  0.1115
 1226poe    c31 6072   3.445   0.132   6.820  0.0841  0.3517  0.1252
 1227poe    c31 6073   2.724   4.658   0.174  0.5847 -0.3669 -0.1386
 1227poe     o2 6074   2.629   4.568   0.121  0.2924 -0.0732 -0.1219
 1227poe    c23 6075   2.692   4.456   0.062  0.2551 -0.4820  0.5932
 1227poe    c23 6076   2.564   4.373   0.041 -0.2796  0.4372  0.0927
 1227poe     o2 6077   2.466   4.453  -0.020 -0.0307  0.0324 -0.8542
 1227poe    c23 6078   2.368   4.367  -0.075 -0.2460 -0.2028 -0.1142
 1227poe    c23 6079   2.253   4.451  -0.132  0.1424  0.6583  0.3562
 1227poe     o2 6080   2.280   4.503  -0.261  0.2037  0.1025  0.1459
 1227poe    c23 6081   2.175   4.548  -0.342  0.1589  0.5952  0.4751
 1227poe    c23 6082   2.212   4.614  -0.476  0.4015  0.4156  0.4536
 1227poe     o2 6083   2.252   4.749  -0.466  0.5055  0.4141  0.0984
 1227poe    c31 6084   2.262   4.798  -0.598 -0.4320 -0.2111 -0.2170
 1228poe    c31 6085   1.844   5.673   2.167  0.2437 -0.7575  0.5366
 1228poe     o2 6086   1.753   5.573   2.205 -0.0681 -0.4533  0.5940
 1228poe    c23 6087   1.641   5.579   2.120 -0.0892  0.0093  0.6491
 1228poe    c23 6088   1.546   5.457   2.126 -0.0966 -0.0340 -0.2367
 1228poe     o2 6089   1.508   5.426   2.258  0.1783 -0.3520 -0.2299
 1228poe    c23 6090   1.404   5.331   2.265 -0.0710 -0.0504  0.1432
 1228poe    c23 6091   1.329   5.331   2.400 -0.0005 -0.6797  0.1840
 1228poe     o2 6092   1.423   5.344   2.505  0.0630  0.0859  0.0400
 1228poe    c23 6093   1.372   5.293   2.626  0.1408 -0.6924 -0.2459
 1228poe    c23 6094   1.472   5.332   2.736  0.1092 -0.1811 -0.3951
 1228poe     o2 6095   1.544   5.450   2.705 -0.1564 -0.0111 -0.3667
 1228poe    c31 6096   1.621   5.469   2.821 -0.2249 -0.6897 -0.1999
 1229poe    c31 6097   2.677   5.670   6.758  0.3531 -0.0598  0.0389
 1229poe     o2 6098   2.795   5.714   6.695  0.4964 -0.5226 -0.0162
 1229poe    c23 6099   2.789   5.827   6.611 -0.3640 -0.1018  0.6057
 1229poe    c23 6100   2.930   5.840   6.551 -0.2682 -0.3345  0.7793
 1229poe     o2 6101   2.955   5.739   6.456 -0.3056  0.0243  0.3839
 1229poe    c23 6102   3.086   5.687   6.467 -0.2823  0.0185  0.0761
 1229poe    c23 6103   3.143   5.635   6.334 -0.0196 -0.1449  0.2515
 1229poe     o2 6104   3.054   5.559   6.256  0.2665 -0.0964 -0.1308
 1229poe    c23 6105   3.121   5.481   6.161 -0.3118 -0.6170 -0.1237
 1229poe    c23 6106   3.082   5.537   6.023 -0.1652  0.4773  0.2748
 1229poe     o2 6107   2.942   5.554   6.018 -0.1822  0.1718 -0.3863
 1229poe    c31 6108   2.894   5.546   5.886 -0.4082 -0.1626 -0.2854
 1230poe    c31 6109   5.281   1.727   4.969 -0.4799 -0.4888 -0.5150
 1230poe     o2 6110   5.286   1.845   4.892 -0.1466  0.3619  0.7678
 1230poe    c23 6111   5.363   1.943   4.957  0.5287  0.0997  0.3742
 1230poe    c23 6112   5.400   2.060   4.864 -0.2657  0.4232  0.4583
 1230poe     o2 6113   5.284   2.131   4.826 -0.4440 -0.0946  0.0168
 1230poe    c23 6114   5.303   2.270   4.813  0.3691 -0.2227 -0.2546
 1230poe    c23 6115   5.162   2.325   4.786  0.0356 -0.7815  0.3097
 1230poe     o2 6116   5.109   2.241   4.686 -0.1721 -0.0365 -0.2186
 1230poe    c23 6117   4.973   2.262   4.653 -0.2165  0.3682  0.2087
 1230poe    c23 6118   4.925   2.184   4.529  0.2488  0.0397  0.2298
 1230poe     o2 6119   4.966   2.050   4.540  0.2536  0.0234  0.0101
 1230poe    c31 6120   4.926   1.987   4.420  0.4574 -0.5425  0.2342
 1231poe    c31 6121   3.556   0.766   6.336 -0.2302  0.3068 -0.3011
 1231poe     o2 6122   3.632   0.758   6.218 -0.4696  0.6662 -0.4841
 1231poe    c23 6123   3.764   0.790   6.256 -0.6184  0.2011  0.4603
 1231poe    c23 6124   3.854   0.863   6.155 -0.8396  0.0901  0.1821
 1231poe     o2 6125   3.872   0.795   6.032  0.0209  0.4351  0.1102
 1231poe    c23 6126   3.992   0.818   5.962 -0.1435  0.0177 -0.3088
 1231poe    c23 6127   3.994   0.748   5.825 -0.8507 -0.5819 -0.0163
 1231poe     o2 6128   3.863   0.755   5.773 -0.8007  0.5366 -0.0156
 1231poe    c23 6129   3.861   0.750   5.632  0.3335 -0.4359 -0.0136
 1231poe    c23 6130   3.713   0.756   5.589  0.3382 -0.5165 -0.0399
 1231poe     o2 6131   3.636   0.821   5.688  0.4682 -0.5850  0.1072
 1231poe    c31 6132   3.523   0.880   5.627  0.7285  0.0416  0.2253
 1232poe    c31 6133   4.512   2.176   5.107  0.3132  0.3660  0.7105
 1232poe     o2 6134   4.606   2.126   5.200  0.6868  0.3181  0.3104
 1232poe    c23 6135   4.720   2.074   5.137  0.3202  0.6957 -0.6850
 1232poe    c23 6136   4.829   2.057   5.244 -0.3565  0.1978 -0.0674
 1232poe     o2 6137   4.763   2.024   5.364  0.1057 -0.7023 -0.0529
 1232poe    c23 6138   4.849   2.012   5.476  0.2601 -0.0896 -0.1056
 1232poe    c23 6139   4.777   1.924   5.579 -0.5896  0.3366 -0.3272
 1232poe     o2 6140   4.643   1.968   5.590 -0.7224  0.0181 -0.6453
 1232poe    c23 6141   4.586   1.901   5.700 -0.1981  0.0493 -0.3457
 1232poe    c23 6142   4.470   1.979   5.765  0.1645  0.2623  0.0454
 1232poe     o2 6143   4.375   2.014   5.667  0.0471  0.9004  0.3804
 1232poe    c31 6144   4.252   2.043   5.728 -0.0204 -0.3472  0.8581
 1233poe    c31 6145   4.477   0.373   2.862  0.2547 -0.3764 -0.1322
 1233poe     o2 6146   4.418   0.297   2.966 -0.1930  0.3912  0.1799
 1233poe    c23 6147   4.340   0.189   2.921 -0.1325  0.4589 -0.0926
 1233poe    c23 6148   4.323   0.096   3.042  0.0770  0.4394 -0.0783
 1233poe     o2 6149   4.453   0.083   3.095 -0.0772 -0.6724  0.0581
 1233poe    c23 6150   4.455  -0.012   3.199 -0.2171 -0.8319 -0.0842
 1233poe    c23 6151   4.598  -0.030   3.253  0.0150  0.1538 -0.3537
 1233poe     o2 6152   4.677   0.087   3.262 -0.5469  0.4665  0.6193
 1233poe    c23 6153   4.790   0.053   3.339  0.0005  0.0279 -0.3587
 1233poe    c23 6154   4.894   0.166   3.333  0.1510 -0.0601  0.4055
 1233poe     o2 6155   4.918   0.206   3.200 -0.1503 -0.3297  0.2700
 1233poe    c31 6156   5.052   0.249   3.205 -0.1023 -0.4580  0.1039
 1234poe    c31 6157   3.226   2.619   4.698  0.1674 -0.3228 -0.4844
 1234poe     o2 6158   3.176   2.513   4.776  0.0927 -0.2576 -0.4439
 1234poe    c23 6159   3.086   2.421   4.718 -0.6233  0.0933  0.0889
 1234poe    c23 6160   3.124   2.272   4.731  0.2149  0.2845 -0.1236
 1234poe     o2 6161   3.172   2.236   4.858  0.0991  0.6625  0.0290
 1234poe    c23 6162   3.201   2.102   4.893 -1.2325  0.4203  0.2636
 1234poe    c23 6163   3.211   2.095   5.046 -0.1946 -0.4098  0.1715
 1234poe     o2 6164   3.280   2.213   5.082 -0.5505 -0.1215 -0.0697
 1234poe    c23 6165   3.338   2.199   5.210  0.3113  0.0143 -0.4378
 1234poe    c23 6166   3.437   2.313   5.240  0.2395 -0.0188 -0.0728
 1234poe     o2 6167   3.374   2.431   5.197 -0.3388 -0.2119  0.2399
 1234poe    c31 6168   3.469   2.531   5.225 -0.7388  0.2338  0.0121
 1235poe    c31 6169   2.972   1.365   1.070  0.2549  1.1130  0.1500
 1235poe     o2 6170   2.921   1.280   0.970  0.4922  0.3000  0.7125
 1235poe    c23 6171   3.029   1.248   0.885  0.0715  0.0883  0.2465
 1235poe    c23 6172   2.992   1.132   0.791  0.2857  0.0309  0.2313
 1235poe     o2 6173   3.002   1.008   0.856  0.5264  0.0247  0.1837
 1235poe    c23 6174   2.933   0.917   0.773 -0.0607  0.1207  0.5573
 1235poe    c23 6175   2.926   0.769   0.813 -0.0732 -0.0652 -0.1282
 1235poe     o2 6176   2.867   0.770   0.941  0.1758 -0.0825 -0.0124
 1235poe    c23 6177   2.773   0.665   0.952  0.2783 -0.1292  0.4184
 1235poe    c23 6178   2.674   0.718   1.058 -0.3675 -0.0501 -0.2132
 1235poe     o2 6179   2.742   0.739   1.180 -0.4861 -0.6575 -0.0342
 1235poe    c31 6180   2.664   0.763   1.295 -0.2343 -0.2290  0.0520
 1236poe    c31 6181   5.998   4.538   1.919  0.3960  0.5114  0.2268
 1236poe     o2 6182   6.119   4.468   1.941  0.3206  0.3328  0.0700
 1236poe    c23 6183   6.201   4.526   2.039  0.2425 -0.3261  0.5304
 1236poe    c23 6184   6.328   4.439   2.050  0.1669 -0.4030  0.8020
 1236poe     o2 6185   6.409   4.462   1.937 -0.3224 -0.1688  0.4954
 1236poe    c23 6186   6.528   4.391   1.961  0.1860  0.3318 -0.5173
 1236poe    c23 6187   6.572   4.316   1.833  0.2084 -0.2024 -0.1983
 1236poe     o2 6188   6.593   4.429   1.751  0.3416  0.1027  0.2476
 1236poe    c23 6189   6.661   4.399   1.632  0.0667  0.7686 -0.0844
 1236poe    c23 6190   6.632   4.508   1.527 -0.1043  0.5563 -0.2585
 1236poe     o2 6191   6.494   4.532   1.542 -0.0819  0.4084  0.2181
 1236poe    c31 6192   6.424   4.543   1.420  0.1791  0.2118  0.0512
 1237poe    c31 6193   4.499   2.558   4.643  0.2625 -0.6710 -0.4809
 1237poe     o2 6194   4.444   2.625   4.532 -0.3760  0.2960  0.4031
 1237poe    c23 6195   4.352   2.543   4.463  0.4579 -0.4863  0.2034
 1237poe    c23 6196   4.274   2.630   4.362  0.6718 -1.1871 -0.5786
 1237poe     o2 6197   4.362   2.712   4.288 -0.0964 -0.0854 -0.2976
 1237poe    c23 6198   4.301   2.818   4.218 -0.1605  0.3253  0.3651
 1237poe    c23 6199   4.414   2.900   4.152 -0.2214  0.3626  0.3068
 1237poe     o2 6200   4.502   2.933   4.256  0.1160  0.0886  0.1099
 1237poe    c23 6201   4.612   3.006   4.206 -0.0171 -0.1375 -0.5234
 1237poe    c23 6202   4.673   3.096   4.315 -0.6063  0.2498 -0.5089
 1237poe     o2 6203   4.714   3.020   4.426 -0.3997  0.6884 -0.2830
 1237poe    c31 6204   4.783   3.077   4.535 -0.1996  0.1933 -0.1489
 1238poe    c31 6205   1.119   4.963   4.734 -1.1604 -0.2203  0.1309
 1238poe     o2 6206   1.172   4.869   4.643  0.6565 -0.0026  0.9175
 1238poe    c23 6207   1.239   4.755   4.694 -0.1330 -0.7246  0.3723
 1238poe    c23 6208   1.342   4.719   4.585 -0.1200  0.4711 -0.0284
 1238poe     o2 6209   1.277   4.725   4.460 -0.1520 -0.1624 -0.0440
 1238poe    c23 6210   1.348   4.649   4.365  0.1723  0.1319 -0.0371
 1238poe    c23 6211   1.356   4.742   4.242 -0.3140  0.3782  0.1162
 1238poe     o2 6212   1.236   4.810   4.213 -0.1921  0.2942 -0.5929
 1238poe    c23 6213   1.241   4.880   4.091  0.3358 -0.0263 -0.7603
 1238poe    c23 6214   1.145   4.999   4.077  0.1404 -0.0594  0.2337
 1238poe     o2 6215   1.147   5.089   4.186  0.6960  0.5120 -0.2404
 1238poe    c31 6216   1.044   5.183   4.168  0.1290 -0.0078  0.2372
 1239poe    c31 6217   4.922   0.459   2.873 -0.0311  0.2793 -0.0801
 1239poe     o2 6218   4.937   0.389   2.752 -0.0068 -0.2277  0.2150
 1239poe    c23 6219   5.047   0.301   2.757  0.0918 -0.1183 -0.0388
 1239poe    c23 6220   5.060   0.226   2.622  0.4394  0.1580 -0.1596
 1239poe     o2 6221   4.930   0.209   2.572  0.2968  0.2695  0.1658
 1239poe    c23 6222   4.956   0.164   2.441 -0.0268  0.0601  0.1717
 1239poe    c23 6223   4.827   0.202   2.367  0.2812 -0.0665 -0.4429
 1239poe     o2 6224   4.777   0.330   2.400 -0.0284 -0.3864  0.3717
 1239poe    c23 6225   4.697   0.378   2.294  0.1344 -0.2566  0.3062
 1239poe    c23 6226   4.718   0.528   2.265 -0.1169 -0.2827 -0.0128
 1239poe     o2 6227   4.676   0.619   2.364 -0.5227 -0.4142 -0.0594
 1239poe    c31 6228   4.634   0.738   2.302 -0.2082 -0.0331  0.4482
 1240poe    c31 6229   4.567   3.304   1.314 -0.2323  0.1619  0.2865
 1240poe     o2 6230   4.608   3.192   1.389 -0.1734 -0.2444 -0.3522
 1240poe    c23 6231   4.523   3.088   1.344  0.1162 -0.7837  0.3281
 1240poe    c23 6232   4.524   2.971   1.444  0.3912 -0.6220  0.5178
 1240poe     o2 6233   4.474   2.984   1.575 -0.0390 -0.1868  0.3133
 1240poe    c23 6234   4.557   2.901   1.653  0.5182  0.0072 -0.0631
 1240poe    c23 6235   4.522   2.893   1.803 -0.5798 -0.0713 -0.3107
 1240poe     o2 6236   4.511   3.029   1.838  0.4802 -0.0964  0.1629
 1240poe    c23 6237   4.486   3.046   1.976  0.4005 -0.2927  0.1727
 1240poe    c23 6238   4.464   3.198   1.991  0.0055 -0.3160 -0.1454
 1240poe     o2 6239   4.406   3.276   1.889  0.2133 -0.4552 -0.3704
 1240poe    c31 6240   4.363   3.403   1.930  0.1873 -0.6780  0.3003
 1241poe    c31 6241   2.732   1.292   0.016 -0.4549  0.2955  0.6296
 1241poe     o2 6242   2.614   1.238  -0.039 -0.1672  0.2718  0.0303
 1241poe    c23 6243   2.568   1.331  -0.135  0.2582 -0.3008 -0.7365
 1241poe    c23 6244   2.452   1.263  -0.210 -0.2286 -0.1654 -0.1131
 1241poe     o2 6245   2.341   1.238  -0.126  0.1809 -0.3186  0.3877
 1241poe    c23 6246   2.253   1.162  -0.205  0.3816 -0.3748  0.2168
 1241poe    c23 6247   2.150   1.099  -0.110  0.0212  0.2934  0.2760
 1241poe     o2 6248   2.212   1.018  -0.012 -0.0149 -0.7641 -0.5627
 1241poe    c23 6249   2.118   0.987   0.088 -0.4839  0.0639 -0.7366
 1241poe    c23 6250   2.196   0.907   0.195  0.3936  0.8549 -0.7790
 1241poe     o2 6251   2.269   0.810   0.124 -0.0983 -0.0736 -0.0381
 1241poe    c31 6252   2.323   0.724   0.222 -0.0125  0.4184  0.3481
 1242poe    c31 6253   3.271   6.749   0.449  0.0788  0.5441 -0.5000
 1242poe     o2 6254   3.201   6.640   0.393  0.1137  0.0851  0.3398
 1242poe    c23 6255   3.116   6.688   0.291  0.5258  0.2686  0.0844
 1242poe    c23 6256   3.013   6.576   0.265  0.5510  0.3648 -0.4399
 1242poe     o2 6257   3.073   6.450   0.281 -0.0087  0.0619 -0.7355
 1242poe    c23 6258   2.986   6.345   0.243  0.1636 -0.3208 -0.0833
 1242poe    c23 6259   3.069   6.227   0.295 -0.3209 -0.4743  0.3545
 1242poe     o2 6260   3.090   6.234   0.434 -0.2403 -0.0428  0.3206
 1242poe    c23 6261   3.153   6.117   0.481  0.1781 -0.1760 -0.5626
 1242poe    c23 6262   3.141   6.109   0.634 -0.1038  0.8779 -0.5235
 1242poe     o2 6263   3.200   6.215   0.706  0.7639  0.2619 -0.3124
 1242poe    c31 6264   3.214   6.202   0.846 -0.2926  0.0394 -0.2169
 1243poe    c31 6265   6.178   3.250   4.115 -0.4052  0.0322  0.2939
 1243poe     o2 6266   6.235   3.190   4.229 -0.6059  0.1821  0.4731
 1243poe    c23 6267   6.376   3.199   4.230 -0.5948 -0.0150  0.6870
 1243poe    c23 6268   6.440   3.220   4.369 -0.2351  0.4690  0.4500
 1243poe     o2 6269   6.369   3.137   4.457 -0.1834 -0.4235 -0.3362
 1243poe    c23 6270   6.424   3.140   4.587 -0.1278  0.0928 -0.3698
 1243poe    c23 6271   6.339   3.091   4.706  0.0147  0.6866 -0.0189
 1243poe     o2 6272   6.223   3.170   4.693 -0.5161 -0.0987 -0.1442
 1243poe    c23 6273   6.127   3.113   4.779 -0.0208  0.0306  0.5049
 1243poe    c23 6274   6.015   3.203   4.833  0.3476  0.7137  0.1433
 1243poe     o2 6275   5.945   3.241   4.716  0.0840  0.2746  0.1539
 1243poe    c31 6276   5.830   3.320   4.739 -0.1998 -0.0653 -0.0964
 1244poe    c31 6277   2.634   6.187   1.066  0.5681 -0.0576  0.1724
 1244poe     o2 6278   2.656   6.290   0.972 -0.6291 -0.0557 -0.1200
 1244poe    c23 6279   2.786   6.331   0.937 -0.6125  0.1181  0.1376
 1244poe    c23 6280   2.805   6.316   0.785  0.0177  0.0372  0.2188
 1244poe     o2 6281   2.712   6.386   0.704 -0.1256 -0.2267  0.1554
 1244poe    c23 6282   2.666   6.288   0.614  0.2495 -0.0293 -0.2501
 1244poe    c23 6283   2.570   6.353   0.513  0.0599 -0.1649 -0.1565
 1244poe     o2 6284   2.502   6.454   0.585  0.4398  0.1834 -0.2806
 1244poe    c23 6285   2.420   6.534   0.503  0.0390 -0.1477 -0.2077
 1244poe    c23 6286   2.385   6.651   0.596  0.0693 -0.2290 -0.0951
 1244poe     o2 6287   2.501   6.710   0.651 -0.1204  0.0551  0.0025
 1244poe    c31 6288   2.476   6.840   0.701  0.3496 -0.0786  0.5996
 1245poe    c31 6289   3.389   6.842   3.463  0.1842  0.0326 -0.0507
 1245poe     o2 6290   3.312   6.958   3.487 -0.2989 -0.3386  0.2187
 1245poe    c23 6291   3.252   7.003   3.367  0.8887  0.3367 -0.1405
 1245poe    c23 6292   3.157   7.123   3.385 -0.1304 -0.4443 -0.2364
 1245poe     o2 6293   3.045   7.099   3.467  0.0033 -0.2048  0.0125
 1245poe    c23 6294   2.949   7.203   3.463 -0.0550 -0.2720 -0.3559
 1245poe    c23 6295   2.897   7.267   3.593  0.1061 -0.2291 -0.3119
 1245poe     o2 6296   2.850   7.171   3.684  0.7034 -0.0363  0.2050
 1245poe    c23 6297   2.830   7.211   3.818  0.3361  0.0921  0.1130
 1245poe    c23 6298   2.765   7.111   3.915  0.3352 -0.0150  0.0021
 1245poe     o2 6299   2.828   6.991   3.876  0.0401  0.0587 -0.7090
 1245poe    c31 6300   2.742   6.883   3.904 -0.1742  0.3913 -0.0540
 1246poe    c31 6301   0.791   5.819   3.326 -1.1553 -0.8678  0.1169
 1246poe     o2 6302   0.854   5.877   3.437 -0.8203 -0.2366 -0.3954
 1246poe    c23 6303   0.784   5.878   3.560  0.6598 -0.6446  0.4791
 1246poe    c23 6304   0.865   5.956   3.665  0.2976 -0.1708  0.4142
 1246poe     o2 6305   0.908   6.080   3.614 -0.3406 -0.0218  0.2310
 1246poe    c23 6306   0.966   6.167   3.709  0.2595 -0.0099 -0.1400
 1246poe    c23 6307   1.117   6.142   3.726  0.0698 -0.8226  0.4089
 1246poe     o2 6308   1.174   6.152   3.598  0.3063 -0.0450  0.5708
 1246poe    c23 6309   1.313   6.133   3.584  0.2692 -0.2290  0.4440
 1246poe    c23 6310   1.372   6.177   3.449  0.0666 -0.4099  0.2975
 1246poe     o2 6311   1.328   6.106   3.335 -0.3101 -0.0079  0.1885
 1246poe    c31 6312   1.449   6.082   3.266 -0.4586  0.2105 -0.1504
 1247poe    c31 6313   5.918   4.096   0.821 -0.8029  0.6878 -0.7711
 1247poe     o2 6314   5.923   3.978   0.744 -0.1300  0.1291  0.1077
 1247poe    c23 6315   5.877   3.862   0.809  0.1948 -0.0801 -0.0309
 1247poe    c23 6316   5.865   3.756   0.698  0.0622 -0.0940 -0.0041
 1247poe     o2 6317   5.980   3.761   0.616  0.2885 -0.6570  0.2723
 1247poe    c23 6318   5.974   3.679   0.502 -0.7014  0.5250 -0.5529
 1247poe    c23 6319   6.118   3.673   0.448 -0.5375  0.2358 -0.0891
 1247poe     o2 6320   6.171   3.803   0.434  0.0175 -0.0192 -0.3905
 1247poe    c23 6321   6.296   3.817   0.371  0.0997 -0.1854 -0.2667
 1247poe    c23 6322   6.335   3.966   0.361 -0.3834 -0.0187  0.2980
 1247poe     o2 6323   6.358   4.028   0.486 -0.3711  0.6245 -0.0188
 1247poe    c31 6324   6.419   4.153   0.463 -0.4970  0.5450 -0.8308
 1248poe    c31 6325   4.081   2.094   1.800  0.1526 -0.4348 -0.0435
 1248poe     o2 6326   4.169   2.076   1.691  0.1197  0.0648 -0.1521
 1248poe    c23 6327   4.298   2.107   1.738  0.0314 -0.3096  0.3523
 1248poe    c23 6328   4.404   2.124   1.627 -0.1827  0.1275  0.2132
 1248poe     o2 6329   4.350   2.217   1.535  0.2276 -0.0245 -0.1849
 1248poe    c23 6330   4.403   2.165   1.415 -0.2104 -0.1593 -0.3235
 1248poe    c23 6331   4.392   2.272   1.304 -0.0216  0.2855  0.0804
 1248poe     o2 6332   4.258   2.316   1.301 -0.1678 -0.1824 -0.3861
 1248poe    c23 6333   4.227   2.442   1.246  0.3434 -0.1050 -0.5041
 1248poe    c23 6334   4.077   2.462   1.273  0.3321 -0.0079 -0.6391
 1248poe     o2 6335   4.022   2.350   1.207 -0.1490 -0.1645  0.0197
 1248poe    c31 6336   3.901   2.375   1.138 -0.0195  0.1581 -0.0937
 1249poe    c31 6337   0.832   1.672   3.110 -0.2310 -0.1074 -0.1812
 1249poe     o2 6338   0.730   1.767   3.088  0.0614  0.0857 -0.7109
 1249poe    c23 6339   0.774   1.847   2.981  0.6217 -0.0257 -0.5675
 1249poe    c23 6340   0.695   1.972   2.939  0.7141  0.1799 -0.1272
 1249poe     o2 6341   0.678   2.060   3.049 -0.1077  0.0279 -0.1294
 1249poe    c23 6342   0.624   2.184   3.009  0.2365  0.1661 -0.1653
 1249poe    c23 6343   0.683   2.286   3.108  0.4070  0.1168 -0.2158
 1249poe     o2 6344   0.655   2.230   3.234 -0.3402 -0.0779 -0.4633
 1249poe    c23 6345   0.634   2.322   3.339  0.1505 -0.3735 -0.1016
 1249poe    c23 6346   0.540   2.250   3.438  0.4403  0.2622  0.6450
 1249poe     o2 6347   0.600   2.123   3.445 -0.7021 -0.3191  0.1556
 1249poe    c31 6348   0.589   2.048   3.565  0.3148 -0.1885  0.3460
 1250poe    c31 6349   2.659   1.237   2.131  0.1540  0.5498 -0.1250
 1250poe     o2 6350   2.538   1.307   2.150 -0.3763 -0.2327 -0.5594
 1250poe    c23 6351   2.486   1.257   2.271 -0.6214  0.0938 -0.5265
 1250poe    c23 6352   2.334   1.280   2.269 -0.6275  0.1831  0.3673
 1250poe     o2 6353   2.306   1.416   2.294  0.6696  0.5039  0.1788
 1250poe    c23 6354   2.169   1.441   2.317  0.5206 -0.1121 -0.0106
 1250poe    c23 6355   2.163   1.580   2.384  0.1282 -0.0452 -0.1794
 1250poe     o2 6356   2.221   1.667   2.290 -0.2203 -0.3291 -0.6612
 1250poe    c23 6357   2.210   1.801   2.333  0.4445 -0.3534 -0.3953
 1250poe    c23 6358   2.285   1.890   2.232  0.3860 -0.2784 -0.3723
 1250poe     o2 6359   2.399   1.825   2.182  0.5192 -0.0736 -0.3351
 1250poe    c31 6360   2.483   1.922   2.124  0.2053  0.4891  0.1408
 1251poe    c31 6361   1.392   1.206   3.720  0.0290 -0.0049  0.3157
 1251poe     o2 6362   1.427   1.196   3.584 -0.0720 -0.0420  0.2925
 1251poe    c23 6363   1.543   1.124   3.548 -0.6894 -0.8078 -0.1957
 1251poe    c23 6364   1.547   1.162   3.399  0.0619 -0.2792 -0.0440
 1251poe     o2 6365   1.425   1.126   3.339  0.2153 -0.4618 -0.2467
 1251poe    c23 6366   1.442   1.093   3.203  0.2214 -0.6971 -0.1889
 1251poe    c23 6367   1.316   1.035   3.135  0.0881 -0.5506 -0.0679
 1251poe     o2 6368   1.201   1.113   3.160 -0.0678 -0.7144 -0.2684
 1251poe    c23 6369   1.097   1.061   3.239 -0.4893  0.1047 -0.2749
 1251poe    c23 6370   1.116   1.047   3.391 -0.3329 -0.2301 -0.3245
 1251poe     o2 6371   1.151   1.172   3.445 -0.5403 -0.0673 -0.5631
 1251poe    c31 6372   1.037   1.239   3.493 -0.1524  0.3503 -0.2155
 1252poe    c31 6373   3.147   1.986   4.481  0.3590  0.0197  0.2411
 1252poe     o2 6374   3.012   1.969   4.444  0.4205  0.1525 -0.0559
 1252poe    c23 6375   2.997   1.944   4.306 -0.0681 -0.2975  0.0736
 1252poe    c23 6376   2.856   1.892   4.274 -0.1267 -0.0451 -0.0856
 1252poe     o2 6377   2.783   1.974   4.362 -0.4108 -0.2420 -0.1365
 1252poe    c23 6378   2.647   1.940   4.346 -0.4260  0.1339 -0.8404
 1252poe    c23 6379   2.544   2.020   4.429  0.1237  0.2622 -0.2734
 1252poe     o2 6380   2.557   1.970   4.560 -0.2215 -0.3418 -0.4631
 1252poe    c23 6381   2.462   2.023   4.650  0.1566 -0.3395 -0.0598
 1252poe    c23 6382   2.493   1.959   4.786 -0.4048 -0.1889  0.1410
 1252poe     o2 6383   2.596   2.028   4.853 -0.0651 -0.0074 -0.5660
 1252poe    c31 6384   2.660   1.958   4.957 -0.4454  0.7516  0.1885
 1253poe    c31 6385   4.520   3.166   0.304 -0.0171  0.1150  0.5469
 1253poe     o2 6386   4.425   3.065   0.332 -0.1470  0.1456  0.2201
 1253poe    c23 6387   4.360   3.002   0.224  0.4152 -0.5323  0.2717
 1253poe    c23 6388   4.266   2.899   0.289 -0.6943  0.0865 -0.3147
 1253poe     o2 6389   4.155   2.937   0.367 -0.4949  0.1649 -0.0669
 1253poe    c23 6390   4.076   2.829   0.412  0.0354 -0.3359 -0.3244
 1253poe    c23 6391   3.983   2.889   0.519  0.2977 -0.0938 -0.2280
 1253poe     o2 6392   4.070   2.953   0.609  0.5372  0.1501 -0.6272
 1253poe    c23 6393   4.022   2.994   0.735  0.6243 -0.6093 -0.3398
 1253poe    c23 6394   4.145   3.033   0.819  0.2748 -0.1938 -0.0173
 1253poe     o2 6395   4.208   3.136   0.748  0.0601 -0.0057  0.0610
 1253poe    c31 6396   4.309   3.193   0.829 -0.1012  0.5014 -0.0930
 1254poe    c31 6397   3.620   1.759   4.473 -0.1745  0.3343  0.4082
 1254poe     o2 6398   3.752   1.783   4.431  0.0047 -1.2385  0.0300
 1254poe    c23 6399   3.794   1.705   4.321  0.4669 -0.5650 -0.2743
 1254poe    c23 6400   3.859   1.795   4.214  0.8738 -0.7674 -0.2003
 1254poe     o2 6401   3.984   1.846   4.255  0.2553  0.4114  0.2649
 1254poe    c23 6402   4.030   1.906   4.136  0.0341 -0.1187 -0.0926
 1254poe    c23 6403   4.175   1.951   4.161 -0.0629  0.1442 -0.0090
 1254poe     o2 6404   4.161   2.021   4.283  0.2227  0.0520  0.0778
 1254poe    c23 6405   4.279   2.071   4.344 -0.1007  0.9799 -0.0384
 1254poe    c23 6406   4.253   2.141   4.479  0.0130  0.0579  0.4701
 1254poe     o2 6407   4.197   2.046   4.567  0.3854 -0.4893  0.1290
 1254poe    c31 6408   4.221   2.097   4.696 -0.3199  0.5845 -0.1468
 1255poe    c31 6409   3.732   6.551   3.485 -0.4209 -0.0914  0.0626
 1255poe     o2 6410   3.823   6.514   3.586 -0.5759  0.1978  0.3107
 1255poe    c23 6411   3.880   6.396   3.534 -0.1563  0.5622 -0.0729
 1255poe    c23 6412   3.980   6.337   3.636  0.1298  0.3976 -0.4452
 1255poe     o2 6413   4.038   6.443   3.710 -0.4642  0.1248  0.4265
 1255poe    c23 6414   4.145   6.420   3.798  0.6846 -0.1418 -0.9892
 1255poe    c23 6415   4.208   6.549   3.855  0.2957 -0.5988  0.5172
 1255poe     o2 6416   4.109   6.615   3.931  0.2235 -0.1193  0.0065
 1255poe    c23 6417   4.144   6.742   3.980 -0.4286 -0.1163  0.4759
 1255poe    c23 6418   4.050   6.823   4.073  0.0621  0.4353  0.5004
 1255poe     o2 6419   3.934   6.869   4.007  0.2691  0.1959 -0.0401
 1255poe    c31 6420   3.909   7.002   4.043  0.3784  0.1261  0.2990
 1256poe    c31 6421   1.228   4.139   4.042 -0.2752  0.0042 -0.2586
 1256poe     o2 6422   1.188   4.027   3.968  0.2412  0.0552 -0.6182
 1256poe    c23 6423   1.265   3.991   3.855 -0.1389  0.7631 -1.1063
 1256poe    c23 6424   1.221   3.861   3.785 -0.3370  0.1853  0.0780
 1256poe     o2 6425   1.197   3.754   3.874  0.1324 -0.0968 -0.1313
 1256poe    c23 6426   1.097   3.665   3.831 -0.1753 -0.0636  0.4975
 1256poe    c23 6427   1.097   3.545   3.927 -0.5135 -0.3819  0.1062
 1256poe     o2 6428   1.072   3.592   4.058 -0.8794  0.1041 -0.1378
 1256poe    c23 6429   1.038   3.502   4.162  0.3016 -0.0561  0.1197
 1256poe    c23 6430   0.982   3.583   4.280  0.0246  0.2557 -0.2231
 1256poe     o2 6431   1.068   3.695   4.282 -0.1861  0.4149 -0.1067
 1256poe    c31 6432   1.062   3.770   4.402 -1.2270  0.0072  0.1086
 1257poe    c31 6433   5.072   6.778   4.928 -0.4596 -0.2893 -0.0907
 1257poe     o2 6434   5.039   6.648   4.973  0.3189 -0.4524  0.0262
 1257poe    c23 6435   5.005   6.653   5.110  0.6359 -1.1093  0.1342
 1257poe    c23 6436   5.038   6.515   5.169 -0.1329 -1.0060  0.8185
 1257poe     o2 6437   4.952   6.412   5.123 -0.1480 -0.4634 -0.4155
 1257poe    c23 6438   4.966   6.292   5.197 -0.8191  0.1042  0.6649
 1257poe    c23 6439   4.911   6.168   5.124 -0.2936  0.4283 -0.3072
 1257poe     o2 6440   4.771   6.180   5.120 -0.3274  0.1264 -0.0316
 1257poe    c23 6441   4.724   6.108   5.008 -0.2486  0.6694 -0.4172
 1257poe    c23 6442   4.571   6.119   4.993 -0.3417 -0.1956 -0.1545
 1257poe     o2 6443   4.546   6.258   4.990  0.0402 -0.0996  0.8062
 1257poe    c31 6444   4.419   6.270   4.931  0.1875 -0.3988  0.4186
 1258poe    c31 6445   0.021   3.887   6.954 -0.7047 -0.2672  0.7270
 1258poe     o2 6446   0.048   3.749   6.943  0.2011 -0.0865  0.5680
 1258poe    c23 6447   0.182   3.724   6.980  0.3659  0.0327  0.0559
 1258poe    c23 6448   0.201   3.577   7.021  0.0170  0.0767  0.3842
 1258poe     o2 6449   0.143   3.492   6.924  0.1069  0.1356  0.2779
 1258poe    c23 6450   0.190   3.361   6.946  0.1537  0.0388 -0.4054
 1258poe    c23 6451   0.090   3.249   6.911  0.1022 -0.1933  0.4654
 1258poe     o2 6452  -0.020   3.232   6.998 -0.1763  0.2375  0.2021
 1258poe    c23 6453  -0.005   3.098   7.038 -0.3160  0.1285 -0.1105
 1258poe    c23 6454   0.025   3.076   7.187  0.5177 -0.1690 -0.3162
 1258poe     o2 6455  -0.070   3.144   7.266  0.0627 -1.2102  0.0480
 1258poe    c31 6456  -0.105   3.076   7.385 -0.0501 -0.4153  0.4757
 1259poe    c31 6457   0.199   2.924   1.972  0.5351  0.7313  0.5522
 1259poe     o2 6458   0.143   2.999   1.867 -0.1378  0.6035  0.8148
 1259poe    c23 6459   0.235   3.093   1.815 -0.1898  0.0647 -0.2860
 1259poe    c23 6460   0.207   3.098   1.664  0.0870  0.3559 -0.3292
 1259poe     o2 6461   0.075   3.142   1.638 -0.1579 -0.2758 -0.1731
 1259poe    c23 6462   0.035   3.111   1.506 -0.2898 -0.7388 -0.0280
 1259poe    c23 6463  -0.054   3.233   1.476 -0.3191 -0.8111 -0.2330
 1259poe     o2 6464  -0.154   3.271   1.569  0.1086 -0.0590 -0.0764
 1259poe    c23 6465  -0.220   3.393   1.543  0.9922  0.5088  0.2692
 1259poe    c23 6466  -0.358   3.415   1.608  0.7435  0.2593 -0.1680
 1259poe     o2 6467  -0.360   3.396   1.747 -0.1689 -0.1358 -0.2309
 1259poe    c31 6468  -0.472   3.447   1.817  0.0166  0.3189 -0.2674
 1260poe    c31 6469   3.343   6.762   1.678 -0.7985 -0.1031  0.3715
 1260poe     o2 6470   3.257   6.743   1.568 -0.3489 -0.2116  0.0362
 1260poe    c23 6471   3.284   6.831   1.461 -0.2719  0.0327  0.2550
 1260poe    c23 6472   3.210   6.785   1.335 -0.1011  0.1026  0.1295
 1260poe     o2 6473   3.071   6.802   1.354 -0.1176 -0.0285  0.1325
 1260poe    c23 6474   2.999   6.782   1.234  0.6523 -0.1788 -0.3106
 1260poe    c23 6475   2.849   6.771   1.264  0.7181 -0.2916 -0.0093
 1260poe     o2 6476   2.829   6.641   1.313  0.1739 -0.2210 -0.0346
 1260poe    c23 6477   2.699   6.594   1.285  0.0397  0.1717 -0.0745
 1260poe    c23 6478   2.680   6.466   1.369 -0.0189  0.2062 -0.0353
 1260poe     o2 6479   2.726   6.504   1.497 -0.3473 -0.4714  0.2848
 1260poe    c31 6480   2.726   6.384   1.572  0.2693 -0.2986  0.5700
 1261poe    c31 6481   0.321   6.006   6.451 -0.1772 -0.8103 -0.4725
 1261poe     o2 6482   0.399   5.994   6.568 -0.4199  0.0643 -0.2150
 1261poe    c23 6483   0.450   5.864   6.586 -0.0968  0.3024  0.6225
 1261poe    c23 6484   0.566   5.879   6.686  0.4608  0.1640  0.0019
 1261poe     o2 6485   0.501   5.939   6.796  0.0024  0.5442 -0.4768
 1261poe    c23 6486   0.538   5.867   6.911 -0.0025  0.6524 -0.4074
 1261poe    c23 6487   0.561   5.968   7.025 -0.4692  0.0465  0.2322
 1261poe     o2 6488   0.465   6.068   7.002 -0.0093  0.4587  0.0865
 1261poe    c23 6489   0.454   6.173   7.095 -0.0375  0.1165  0.4689
 1261poe    c23 6490   0.348   6.149   7.205  0.0363 -0.2709  0.4562
 1261poe     o2 6491   0.223   6.131   7.142 -0.0961  0.1629  0.5994
 1261poe    c31 6492   0.135   6.088   7.243 -0.4359  0.3526  0.3859
 1262poe    c31 6493   3.973   2.705   3.650  0.4450 -0.1960 -0.8432
 1262poe     o2 6494   3.858   2.636   3.693  0.4009  0.5554  0.2852
 1262poe    c23 6495   3.900   2.552   3.797  1.2109 -0.3096 -0.7219
 1262poe    c23 6496   3.879   2.403   3.763 -0.5409 -0.1058 -0.6006
 1262poe     o2 6497   3.756   2.343   3.798 -0.4237  0.0123  0.0275
 1262poe    c23 6498   3.767   2.204   3.774  0.4047 -0.0226  0.5618
 1262poe    c23 6499   3.644   2.112   3.780  0.1677  0.2170 -0.4324
 1262poe     o2 6500   3.554   2.134   3.673 -0.1506  0.1798 -0.1742
 1262poe    c23 6501   3.424   2.095   3.712 -0.1200 -0.3610 -0.6046
 1262poe    c23 6502   3.313   2.106   3.606 -0.7231 -0.8529 -0.0272
 1262poe     o2 6503   3.332   2.011   3.504 -0.6728 -0.6276 -0.2277
 1262poe    c31 6504   3.367   2.074   3.382  0.4940 -0.3637  0.2334
 1263poe    c31 6505   4.097   1.750   3.089  0.5209  0.0447  0.3695
 1263poe     o2 6506   3.973   1.717   3.148  0.2529  0.5241  0.0799
 1263poe    c23 6507   3.956   1.784   3.271 -0.1071  0.2594  0.1771
 1263poe    c23 6508   3.856   1.725   3.371  0.2746  0.4802  0.6963
 1263poe     o2 6509   3.725   1.732   3.318  0.5453 -0.2322 -0.0931
 1263poe    c23 6510   3.633   1.652   3.389 -0.0269  0.2786 -0.2507
 1263poe    c23 6511   3.498   1.616   3.325  0.1571 -0.8042 -0.0536
 1263poe     o2 6512   3.527   1.560   3.199 -0.1683 -0.3283 -0.3456
 1263poe    c23 6513   3.422   1.478   3.153 -0.1379 -0.5717  0.0126
 1263poe    c23 6514   3.452   1.439   3.007  0.3285 -0.1425 -0.0080
 1263poe     o2 6515   3.508   1.551   2.942  0.3741 -0.0514  0.1898
 1263poe    c31 6516   3.510   1.536   2.802 -0.3387 -0.2250  0.1968
 1264poe    c31 6517   3.337   0.865   3.917 -0.0165 -0.0474 -0.2727
 1264poe     o2 6518   3.296   0.963   4.010 -0.4496 -0.1110 -0.3926
 1264poe    c23 6519   3.295   1.085   3.938  0.4374 -0.2039 -0.5776
 1264poe    c23 6520   3.273   1.194   4.044  0.2742 -0.4273 -0.3786
 1264poe     o2 6521   3.375   1.166   4.138  0.4294  0.0102 -0.4136
 1264poe    c23 6522   3.437   1.282   4.189 -0.1723  0.0652  0.2061
 1264poe    c23 6523   3.530   1.239   4.303  0.0273 -0.4952 -0.1659
 1264poe     o2 6524   3.567   1.105   4.277 -0.1260 -0.5247 -0.2358
 1264poe    c23 6525   3.688   1.083   4.348 -0.0373 -0.1742 -0.2759
 1264poe    c23 6526   3.711   0.931   4.345  0.2838 -0.1366  0.2553
 1264poe     o2 6527   3.736   0.897   4.210  0.4797 -0.3727  0.3508
 1264poe    c31 6528   3.788   0.767   4.228  0.8320 -0.2462  0.2380
 1265poe    c31 6529   6.981   2.436   2.591 -0.5016  0.0557 -0.1201
 1265poe     o2 6530   7.041   2.486   2.709  0.0055 -0.5162 -0.1325
 1265poe    c23 6531   6.951   2.483   2.818  0.1210 -0.0278 -0.0231
 1265poe    c23 6532   7.029   2.533   2.941  0.0058 -0.2092  0.1237
 1265poe     o2 6533   7.100   2.649   2.903  0.0036 -0.2202  0.0850
 1265poe    c23 6534   7.191   2.685   3.005 -0.1374 -0.0160  0.1408
 1265poe    c23 6535   7.260   2.818   2.969  0.6485 -0.4734 -0.0768
 1265poe     o2 6536   7.308   2.811   2.837  0.2009  0.4442 -0.2985
 1265poe    c23 6537   7.390   2.912   2.782  0.5021  0.3575 -0.0124
 1265poe    c23 6538   7.424   2.887   2.634 -0.4866 -0.2721 -0.1370
 1265poe     o2 6539   7.299   2.900   2.569 -0.4479  0.1469 -0.1245
 1265poe    c31 6540   7.327   2.927   2.434  0.0647 -0.0463 -0.0571
 1266poe    c31 6541   6.227   2.230   4.967  0.2795  0.5111 -0.1352
 1266poe     o2 6542   6.125   2.305   4.905  0.2699  0.5468 -0.0762
 1266poe    c23 6543   6.181   2.434   4.896 -0.1022  0.7603  0.5987
 1266poe    c23 6544   6.118   2.516   4.782  0.0428 -0.0372 -0.0660
 1266poe     o2 6545   6.114   2.444   4.661 -0.0062  0.0869 -0.1394
 1266poe    c23 6546   6.049   2.519   4.560 -0.9512  0.0531  0.4261
 1266poe    c23 6547   6.024   2.440   4.430 -0.1748 -0.1034  0.3687
 1266poe     o2 6548   5.950   2.322   4.450  0.6161 -0.6463  0.1619
 1266poe    c23 6549   5.947   2.242   4.334  0.2340 -0.6388  0.1666
 1266poe    c23 6550   5.834   2.140   4.362  0.0968 -0.5477 -0.0526
 1266poe     o2 6551   5.829   2.131   4.502  0.4117 -0.0475 -0.0044
 1266poe    c31 6552   5.744   2.027   4.546 -0.0358  0.3124 -0.0075
 1267poe    c31 6553   6.974   6.510   0.112  0.3695 -0.4202 -0.8011
 1267poe     o2 6554   7.052   6.535  -0.002 -0.0155  0.1023 -0.9550
 1267poe    c23 6555   7.161   6.446   0.001 -0.2081 -0.1068  0.1289
 1267poe    c23 6556   7.278   6.516  -0.071 -0.3953  0.4046  0.3198
 1267poe     o2 6557   7.207   6.584  -0.172 -0.1224 -0.0417 -0.1751
 1267poe    c23 6558   7.300   6.630  -0.267 -0.1285 -0.3306 -0.3242
 1267poe    c23 6559   7.214   6.706  -0.371 -0.2658 -0.2396 -0.1453
 1267poe     o2 6560   7.097   6.742  -0.302  0.0985  0.6884  0.0012
 1267poe    c23 6561   6.979   6.760  -0.377  0.0662 -0.0719 -0.1391
 1267poe    c23 6562   6.865   6.792  -0.279  0.2410 -0.5421  0.2224
 1267poe     o2 6563   6.876   6.710  -0.165  0.0187 -0.0661  0.5915
 1267poe    c31 6564   6.780   6.744  -0.068  0.0738  0.1537  0.5690
 1268poe    c31 6565   1.133   0.946   5.807 -0.5689  0.4108  0.3365
 1268poe     o2 6566   1.262   0.933   5.753 -0.9748  0.0043 -0.5584
 1268poe    c23 6567   1.305   1.064   5.723 -0.5682  0.0091  0.0199
 1268poe    c23 6568   1.440   1.081   5.650 -0.4165  0.1085  0.3246
 1268poe     o2 6569   1.545   1.065   5.743  0.0204  0.7157 -0.0634
 1268poe    c23 6570   1.669   1.079   5.676  0.2501 -0.3625  0.1235
 1268poe    c23 6571   1.784   1.046   5.774  0.2274 -0.2031  0.2039
 1268poe     o2 6572   1.748   0.936   5.854 -0.0550  0.0427  0.4203
 1268poe    c23 6573   1.844   0.932   5.958  0.2718  0.5808  0.1438
 1268poe    c23 6574   1.796   0.819   6.050 -0.8073  0.3249 -0.7124
 1268poe     o2 6575   1.655   0.813   6.061 -0.7715  0.0461 -0.3851
 1268poe    c31 6576   1.583   0.704   6.113  0.5019 -0.6352  0.0072
 1269poe    c31 6577   4.445   5.684   3.796 -0.0161  1.0186 -0.2772
 1269poe     o2 6578   4.404   5.725   3.924  0.1236 -0.3464  0.2188
 1269poe    c23 6579   4.516   5.749   4.006  0.3716 -0.0703 -0.1970
 1269poe    c23 6580   4.490   5.754   4.158  0.2340 -0.3700 -0.2095
 1269poe     o2 6581   4.396   5.854   4.190 -0.1309 -0.6960 -0.2562
 1269poe    c23 6582   4.363   5.847   4.327 -0.0200 -0.2770 -0.2068
 1269poe    c23 6583   4.303   5.985   4.362  0.4947 -0.0990 -0.0286
 1269poe     o2 6584   4.188   6.018   4.288  0.1835 -0.4229  0.3075
 1269poe    c23 6585   4.133   6.146   4.313 -0.0274 -0.5124  0.3060
 1269poe    c23 6586   4.014   6.140   4.216  0.1137 -0.1512  0.1061
 1269poe     o2 6587   4.053   6.093   4.089  0.3619  0.0493  0.1077
 1269poe    c31 6588   3.966   6.110   3.980  0.5231 -0.4008 -0.0943
 1270poe    c31 6589   4.744   5.857   1.309  0.7217 -0.1707  0.4529
 1270poe     o2 6590   4.670   5.874   1.428  0.0175  0.4456 -0.0687
 1270poe    c23 6591   4.716   5.989   1.496 -0.0854  0.6511 -0.3423
 1270poe    c23 6592   4.828   5.949   1.594  0.0667  0.3479 -0.6354
 1270poe     o2 6593   4.775   5.883   1.707  0.0077  0.2185 -0.7392
 1270poe    c23 6594   4.886   5.871   1.792 -0.8277  0.5495  0.4161
 1270poe    c23 6595   4.837   5.837   1.934 -0.3157 -0.3209  0.3865
 1270poe     o2 6596   4.755   5.722   1.934  0.0182 -0.5630 -0.0260
 1270poe    c23 6597   4.661   5.724   2.039  0.2027 -0.4172  0.1368
 1270poe    c23 6598   4.588   5.593   2.071 -0.3987 -0.0737  0.1864
 1270poe     o2 6599   4.517   5.552   1.956 -0.3095  0.0597  0.0838
 1270poe    c31 6600   4.430   5.444   1.983 -0.2871 -0.2824 -1.1810
 1271poe    c31 6601   5.220   3.202   4.079 -0.0185  0.0225 -0.0447
 1271poe     o2 6602   5.286   3.289   3.989  0.0544 -0.0703 -0.0816
 1271poe    c23 6603   5.203   3.360   3.900  0.4337  0.0804 -0.3141
 1271poe    c23 6604   5.293   3.411   3.786  0.0259  0.8590 -0.2968
 1271poe     o2 6605   5.357   3.302   3.723  0.3375  0.7070  0.2763
 1271poe    c23 6606   5.421   3.333   3.602 -0.0280  0.0462 -0.0930
 1271poe    c23 6607   5.479   3.202   3.547 -0.3432 -0.2674  0.3225
 1271poe     o2 6608   5.577   3.152   3.636  0.2230  0.1972 -0.0344
 1271poe    c23 6609   5.639   3.033   3.592  0.4139  0.4408 -0.4337
 1271poe    c23 6610   5.764   3.011   3.679  0.0114 -0.1757  0.0006
 1271poe     o2 6611   5.755   3.081   3.801 -0.4483  0.0429 -0.1570
 1271poe    c31 6612   5.882   3.084   3.863 -0.4952  0.6219 -0.0859
 1272poe    c31 6613   3.540   2.545   4.187 -0.1730  0.0516  0.8161
 1272poe     o2 6614   3.482   2.581   4.063  0.3755 -0.4467  0.4053
 1272poe    c23 6615   3.525   2.489   3.965 -0.0742 -0.3157  0.0816
 1272poe    c23 6616   3.425   2.489   3.848 -0.2341 -0.4084  0.2173
 1272poe     o2 6617   3.417   2.616   3.786  0.0224 -0.6568 -0.3300
 1272poe    c23 6618   3.280   2.644   3.764  0.0162 -0.0529  0.4526
 1272poe    c23 6619   3.269   2.757   3.660  0.0559 -0.2896  0.1900
 1272poe     o2 6620   3.342   2.871   3.700 -0.3627  0.0113  0.1005
 1272poe    c23 6621   3.305   2.976   3.613 -0.7944  0.1008  0.3899
 1272poe    c23 6622   3.332   3.111   3.680  0.5437  0.1430 -0.2010
 1272poe     o2 6623   3.468   3.146   3.697  0.4716  0.3964 -0.1363
 1272poe    c31 6624   3.488   3.246   3.794  0.2950  0.7996 -0.5130
 1273poe    c31 6625   4.327   5.320   2.377  0.6652 -0.6665 -0.3666
 1273poe     o2 6626   4.292   5.188   2.413 -0.2279 -0.4805 -0.5493
 1273poe    c23 6627   4.187   5.183   2.507 -0.0510 -0.0238 -0.3195
 1273poe    c23 6628   4.167   5.032   2.535 -0.5158  0.1188  0.1246
 1273poe     o2 6629   4.290   4.967   2.516 -0.6848 -0.1812  0.0638
 1273poe    c23 6630   4.288   4.827   2.537 -0.4224 -0.0952  0.6849
 1273poe    c23 6631   4.423   4.762   2.498 -0.7904 -0.4944  0.0520
 1273poe     o2 6632   4.476   4.813   2.378 -0.1417 -0.8079  0.2001
 1273poe    c23 6633   4.533   4.706   2.305  0.2513 -0.6903  0.3378
 1273poe    c23 6634   4.581   4.733   2.161 -0.0462 -0.9409  0.1917
 1273poe     o2 6635   4.466   4.787   2.100  0.2081 -0.0099  0.5151
 1273poe    c31 6636   4.468   4.757   1.962  0.0867  0.6014  0.3776
 1274poe    c31 6637   2.698   0.894   6.820 -0.7248  0.6309 -0.0468
 1274poe     o2 6638   2.810   0.945   6.751 -0.1961 -0.2426  0.1411
 1274poe    c23 6639   2.845   0.867   6.640  0.0933 -0.0748  0.1136
 1274poe    c23 6640   2.996   0.860   6.609 -0.0652 -0.1646 -0.6728
 1274poe     o2 6641   3.041   0.967   6.528 -0.2759  0.1469 -0.3836
 1274poe    c23 6642   3.182   0.963   6.532 -0.2763 -0.3132 -0.7300
 1274poe    c23 6643   3.216   1.102   6.477  0.1606 -0.0495  0.1836
 1274poe     o2 6644   3.147   1.202   6.549  0.0006 -0.2227  0.2717
 1274poe    c23 6645   3.158   1.338   6.512  0.2328 -0.2093  0.3867
 1274poe    c23 6646   3.071   1.433   6.596  0.0853  0.2404 -0.2661
 1274poe     o2 6647   2.941   1.382   6.620  0.3539 -0.2268  0.2073
 1274poe    c31 6648   2.871   1.468   6.707 -0.0100 -0.2792 -0.0355
 1275poe    c31 6649   4.798   5.101   4.512 -0.5089 -0.4437  0.5888
 1275poe     o2 6650   4.935   5.134   4.503 -0.6173 -0.1859 -0.2036
 1275poe    c23 6651   4.990   5.058   4.398 -0.4780 -0.0711 -0.2134
 1275poe    c23 6652   5.112   5.124   4.332 -0.3858 -0.0763 -0.0494
 1275poe     o2 6653   5.184   5.171   4.444 -0.0951 -0.0498 -0.2433
 1275poe    c23 6654   5.295   5.256   4.427 -0.2632  0.1430 -0.3800
 1275poe    c23 6655   5.359   5.267   4.567 -0.0906 -0.8280 -0.3765
 1275poe     o2 6656   5.245   5.279   4.649  0.0773  0.2362 -0.2765
 1275poe    c23 6657   5.267   5.218   4.775 -0.6675 -0.0109 -0.2627
 1275poe    c23 6658   5.136   5.201   4.855 -0.3529 -0.4146  0.1723
 1275poe     o2 6659   5.041   5.161   4.759 -0.5590  0.3994  0.0296
 1275poe    c31 6660   4.915   5.141   4.820 -0.1090 -0.3308  0.7287
 1276poe    c31 6661   3.472   4.013   3.731  0.3457  0.2059 -0.5317
 1276poe     o2 6662   3.402   3.895   3.700 -0.0817  0.4114 -0.3647
 1276poe    c23 6663   3.497   3.816   3.633 -0.3026  0.2610 -0.5035
 1276poe    c23 6664   3.414   3.696   3.585  0.0008 -0.1008 -0.1386
 1276poe     o2 6665   3.338   3.648   3.694 -0.0698 -0.3235 -0.2859
 1276poe    c23 6666   3.256   3.538   3.660 -0.3817  0.1356 -1.0618
 1276poe    c23 6667   3.161   3.508   3.778  0.9486 -0.0643 -0.0203
 1276poe     o2 6668   3.108   3.638   3.798  0.1911 -0.3402 -0.2027
 1276poe    c23 6669   2.997   3.629   3.883  0.4222 -0.2062  0.1148
 1276poe    c23 6670   2.971   3.761   3.959 -0.2495 -0.2292 -0.0661
 1276poe     o2 6671   2.921   3.868   3.882 -0.3332 -0.0753  0.2023
 1276poe    c31 6672   2.860   3.958   3.972 -0.5370  0.2057 -0.2139
 1277poe    c31 6673   4.979   1.326   5.620  0.3394  0.3210 -0.3569
 1277poe     o2 6674   4.879   1.308   5.523 -0.5771  0.1664  0.5970
 1277poe    c23 6675   4.874   1.415   5.431 -0.4440  0.1059  0.5187
 1277poe    c23 6676   4.779   1.364   5.321  0.0362 -0.4199  0.3458
 1277poe     o2 6677   4.665   1.317   5.389 -0.1341 -0.0129  0.3388
 1277poe    c23 6678   4.569   1.273   5.295 -0.5854  0.9183  0.3509
 1277poe    c23 6679   4.434   1.228   5.355 -0.5370 -0.1254 -0.2967
 1277poe     o2 6680   4.459   1.119   5.441 -0.3425 -0.2086 -0.4569
 1277poe    c23 6681   4.336   1.090   5.503 -0.1569 -0.0702 -0.0144
 1277poe    c23 6682   4.373   0.998   5.620  0.1756 -0.0050 -0.0671
 1277poe     o2 6683   4.432   1.075   5.722  0.0956 -0.2382  0.1593
 1277poe    c31 6684   4.364   1.069   5.845  0.0384  0.0424  0.1430
 1278poe    c31 6685   6.156   4.864   1.215  0.4361  0.6104 -0.2451
 1278poe     o2 6686   6.044   4.780   1.198  1.0275 -0.1806 -0.2806
 1278poe    c23 6687   6.076   4.646   1.226 -0.1961 -0.3683  0.2708
 1278poe    c23 6688   5.968   4.537   1.239 -0.3557 -0.2550 -0.0809
 1278poe     o2 6689   5.903   4.494   1.122  0.3536 -1.2253 -0.1377
 1278poe    c23 6690   5.793   4.412   1.155 -0.3789 -0.1731  0.1140
 1278poe    c23 6691   5.743   4.379   1.013 -0.7116  0.7054  0.0225
 1278poe     o2 6692   5.722   4.495   0.936  0.0360  0.6993 -0.1934
 1278poe    c23 6693   5.637   4.479   0.824  0.1667 -0.0798 -0.1887
 1278poe    c23 6694   5.605   4.623   0.777 -0.4271 -0.1265  0.0673
 1278poe     o2 6695   5.729   4.691   0.776 -0.2000 -0.5348  0.0452
 1278poe    c31 6696   5.711   4.821   0.724 -0.1827 -0.4775  0.1816
 1279poe    c31 6697   0.294   1.401   2.423 -0.5016  0.2874 -0.2773
 1279poe     o2 6698   0.327   1.512   2.342  0.4006  0.2998  0.0935
 1279poe    c23 6699   0.432   1.499   2.249  0.4329 -0.0703  0.1788
 1279poe    c23 6700   0.560   1.548   2.320  0.5753 -0.2451  0.0445
 1279poe     o2 6701   0.560   1.689   2.327  0.3144 -0.2417 -0.0261
 1279poe    c23 6702   0.666   1.729   2.410  0.4558  0.8124 -0.6966
 1279poe    c23 6703   0.633   1.852   2.496  0.1229 -0.2520  0.7479
 1279poe     o2 6704   0.561   1.947   2.419 -0.4085 -0.3165  1.1652
 1279poe    c23 6705   0.533   2.058   2.501 -0.4471  0.5210  0.0236
 1279poe    c23 6706   0.451   2.152   2.410  0.0399 -0.0854 -1.0570
 1279poe     o2 6707   0.363   2.065   2.343 -0.4891  0.0068 -0.4866
 1279poe    c31 6708   0.248   2.136   2.302 -0.9161 -0.0227  0.6143
 1280poe    c31 6709   2.596   6.945   2.949  0.2749 -0.6362 -0.2017
 1280poe     o2 6710   2.712   7.024   2.964 -0.0908 -0.0505 -0.4363
 1280poe    c23 6711   2.798   6.954   3.051 -0.2243 -0.2354 -0.4537
 1280poe    c23 6712   2.933   7.019   3.086 -0.3408 -0.0185 -0.4026
 1280poe     o2 6713   2.998   7.042   2.963 -0.6371  0.3552 -0.4888
 1280poe    c23 6714   3.075   7.159   2.982  0.1840 -0.2739  0.1172
 1280poe    c23 6715   3.150   7.165   2.847 -0.0968 -0.1853 -0.0365
 1280poe     o2 6716   3.062   7.210   2.747  0.1754 -0.3749 -0.3655
 1280poe    c23 6717   3.138   7.268   2.644  0.3253 -0.0356 -0.0677
 1280poe    c23 6718   3.134   7.422   2.639  0.1692 -0.0268  0.3209
 1280poe     o2 6719   3.012   7.484   2.606  0.0254 -0.2144  0.5007
 1280poe    c31 6720   2.987   7.602   2.679 -0.0690  0.0110  0.1086
 1281poe    c31 6721   0.739   2.381   4.389  0.1896  0.0016  0.3593
 1281poe     o2 6722   0.741   2.305   4.507  0.3629  0.0770  0.4055
 1281poe    c23 6723   0.609   2.259   4.529  0.1219  0.5086 -0.1265
 1281poe    c23 6724   0.578   2.237   4.678 -0.5301 -0.4737 -0.4027
 1281poe     o2 6725   0.708   2.225   4.730 -0.6186  0.9095  0.1885
 1281poe    c23 6726   0.703   2.206   4.869 -0.4055 -0.6584  0.0004
 1281poe    c23 6727   0.840   2.166   4.927 -0.1496  0.1087 -0.0670
 1281poe     o2 6728   0.948   2.205   4.846  0.0638 -0.6639 -0.1588
 1281poe    c23 6729   1.067   2.204   4.921 -0.0881 -0.3637  0.0871
 1281poe    c23 6730   1.194   2.218   4.835 -0.5083  0.6944 -0.3742
 1281poe     o2 6731   1.188   2.154   4.709 -0.3831 -0.3225  0.1283
 1281poe    c31 6732   1.310   2.183   4.644 -0.8045  0.6962 -0.2326
 1282poe    c31 6733   1.820   2.713   6.264 -0.3046  0.0144 -0.3478
 1282poe     o2 6734   1.917   2.814   6.245 -0.1778 -0.0627 -0.1146
 1282poe    c23 6735   1.967   2.866   6.366 -0.8142  0.3158 -0.0090
 1282poe    c23 6736   2.036   3.001   6.340  0.0013 -0.0634  0.1637
 1282poe     o2 6737   2.106   2.994   6.217  0.2165  0.1913  0.2717
 1282poe    c23 6738   2.105   3.110   6.137  0.6162  0.1412  0.1926
 1282poe    c23 6739   2.193   3.090   6.012  0.1641  0.5711 -0.1952
 1282poe     o2 6740   2.155   2.977   5.937  0.1403  0.1999  0.3712
 1282poe    c23 6741   2.199   2.997   5.805  0.2837 -0.7361  0.2694
 1282poe    c23 6742   2.157   2.883   5.709  0.4756 -0.2822 -0.3593
 1282poe     o2 6743   2.020   2.851   5.697  0.2897  0.2675  0.2080
 1282poe    c31 6744   2.015   2.737   5.615  0.1829  0.1880  0.3260
 1283poe    c31 6745   6.198   6.185   5.661  0.4894  0.8683 -0.0878
 1283poe     o2 6746   6.234   6.140   5.789  0.3919 -0.5705 -0.5404
 1283poe    c23 6747   6.337   6.220   5.845 -0.2348 -0.3405  0.3137
 1283poe    c23 6748   6.482   6.171   5.824  0.0670  0.5284  0.3603
 1283poe     o2 6749   6.516   6.054   5.895  0.2128  0.1922 -0.2591
 1283poe    c23 6750   6.653   6.031   5.873  0.2419  0.0436  0.0812
 1283poe    c23 6751   6.683   5.892   5.934  0.1720  0.0049  0.0273
 1283poe     o2 6752   6.572   5.811   5.900  0.1029  0.2704 -0.3858
 1283poe    c23 6753   6.617   5.681   5.928 -0.5474  0.1402  0.0784
 1283poe    c23 6754   6.501   5.590   5.882 -0.3622 -0.1367  0.1569
 1283poe     o2 6755   6.381   5.649   5.925 -0.1799 -0.1505  0.6979
 1283poe    c31 6756   6.287   5.558   5.978 -0.7778 -0.1553 -0.3573
 1284poe    c31 6757   0.968   3.375   6.064 -0.2580 -0.5847  0.3500
 1284poe     o2 6758   0.837   3.421   6.034  0.1250  0.2516 -0.0823
 1284poe    c23 6759   0.748   3.397   6.140 -0.1249  0.2472 -0.2908
 1284poe    c23 6760   0.602   3.411   6.096 -0.3758  0.2737  0.5360
 1284poe     o2 6761   0.591   3.536   6.032  0.0340  0.0983  0.1181
 1284poe    c23 6762   0.455   3.573   6.035 -0.1160 -0.4191 -0.3761
 1284poe    c23 6763   0.442   3.719   5.988 -0.2176 -0.3508 -0.1341
 1284poe     o2 6764   0.537   3.802   6.051 -0.0468 -0.5689 -0.1018
 1284poe    c23 6765   0.521   3.939   6.020  0.5977 -0.5157 -0.2152
 1284poe    c23 6766   0.623   4.032   6.088  0.2138 -0.3517  0.1433
 1284poe     o2 6767   0.623   4.048   6.228  0.4505 -0.8887  0.2104
 1284poe    c31 6768   0.738   4.124   6.260 -0.1309  0.0002  0.2395
 1285poe    c31 6769   2.641   3.947   2.492 -0.0800 -0.3679  0.0481
 1285poe     o2 6770   2.779   3.922   2.476  0.0026  0.0585  0.0692
 1285poe    c23 6771   2.855   4.011   2.397  0.1873  0.0350  0.2214
 1285poe    c23 6772   2.984   3.946   2.343 -0.1859 -0.4868 -0.0500
 1285poe     o2 6773   3.091   3.942   2.434  0.2428 -0.7657 -0.5620
 1285poe    c23 6774   3.213   3.992   2.382  0.2174  0.3029  0.3696
 1285poe    c23 6775   3.322   3.995   2.491  1.0589  0.0116 -0.4485
 1285poe     o2 6776   3.295   4.097   2.584  0.1148 -0.3692 -0.2846
 1285poe    c23 6777   3.385   4.087   2.692  0.3252  0.2789 -0.3918
 1285poe    c23 6778   3.343   4.205   2.780 -0.0488 -0.7991  0.9104
 1285poe     o2 6779   3.202   4.209   2.786 -0.0899  0.4478 -0.2650
 1285poe    c31 6780   3.162   4.264   2.910 -0.0335  0.7434 -0.3787
 1286poe    c31 6781   1.164   4.668   5.448  0.7036 -0.0196 -0.1050
 1286poe     o2 6782   1.220   4.543   5.479  0.1080 -0.1968  0.2622
 1286poe    c23 6783   1.360   4.532   5.474  0.0535 -0.9145  0.1108
 1286poe    c23 6784   1.442   4.630   5.561 -0.7468 -0.0278 -0.1149
 1286poe     o2 6785   1.426   4.580   5.692 -0.0301  0.2547  0.0836
 1286poe    c23 6786   1.513   4.652   5.778  0.7913 -0.0114 -0.5177
 1286poe    c23 6787   1.502   4.558   5.899 -0.0060  0.1870 -0.4317
 1286poe     o2 6788   1.376   4.542   5.961  0.0797  0.4521 -0.1829
 1286poe    c23 6789   1.366   4.450   6.068 -0.2293  0.4899 -0.1785
 1286poe    c23 6790   1.226   4.463   6.131 -0.2472  0.8374 -0.2831
 1286poe     o2 6791   1.128   4.446   6.031  0.0604  0.0508 -0.4658
 1286poe    c31 6792   0.999   4.439   6.088  0.1584 -0.2986 -0.2888
 1287poe    c31 6793   2.714   2.192   6.832 -0.9500 -0.1308  0.4854
 1287poe     o2 6794   2.693   2.305   6.749 -0.2430  0.0699  0.5735
 1287poe    c23 6795   2.558   2.294   6.711 -0.3488  0.2854  0.8805
 1287poe    c23 6796   2.536   2.412   6.614 -0.1866 -0.3547  0.0532
 1287poe     o2 6797   2.591   2.522   6.683 -0.0611 -0.4952  0.1760
 1287poe    c23 6798   2.529   2.643   6.648  0.6667 -0.3810 -0.7502
 1287poe    c23 6799   2.630   2.731   6.572  0.2688  0.6040 -0.1567
 1287poe     o2 6800   2.751   2.718   6.644  0.1180  0.4073  0.0626
 1287poe    c23 6801   2.850   2.812   6.607  0.3644 -0.0333 -0.4258
 1287poe    c23 6802   2.989   2.749   6.624  0.1830 -0.3396 -0.0290
 1287poe     o2 6803   3.028   2.709   6.754  0.4820 -0.4962 -0.1649
 1287poe    c31 6804   3.088   2.813   6.828  0.0650 -0.5293  0.2232
 1288poe    c31 6805   0.339   4.992   3.266 -0.1669 -0.3908 -0.2343
 1288poe     o2 6806   0.367   4.982   3.129 -0.2251 -0.4339 -0.2431
 1288poe    c23 6807   0.353   4.847   3.089 -0.5267 -0.3873 -0.2965
 1288poe    c23 6808   0.383   4.842   2.938  0.4165 -0.7900 -0.1049
 1288poe     o2 6809   0.508   4.906   2.927 -0.1631  0.4435  0.2148
 1288poe    c23 6810   0.544   4.931   2.793 -0.0404 -0.3862  0.0866
 1288poe    c23 6811   0.665   5.025   2.786  0.0026 -0.4364  0.1605
 1288poe     o2 6812   0.620   5.150   2.834  0.2327 -0.2534 -0.0893
 1288poe    c23 6813   0.696   5.256   2.782  0.1413 -0.0606  0.1686
 1288poe    c23 6814   0.653   5.397   2.828 -0.1814  0.0459 -0.4513
 1288poe     o2 6815   0.662   5.412   2.968 -0.2044 -0.5121 -0.3880
 1288poe    c31 6816   0.680   5.547   3.003 -0.3663 -0.5958  0.0213
 1289poe    c31 6817   3.124   5.651   6.937  0.0504  0.6400  0.2285
 1289poe     o2 6818   3.051   5.548   7.001  0.4338  0.1845 -0.0693
 1289poe    c23 6819   2.952   5.593   7.089  0.5468  0.0117  0.1474
 1289poe    c23 6820   2.878   5.468   7.140  0.1422  0.0667 -0.2962
 1289poe     o2 6821   2.843   5.415   7.014  0.4228  0.1745 -0.4211
 1289poe    c23 6822   2.745   5.314   7.020  0.0932  0.4492 -1.0810
 1289poe    c23 6823   2.734   5.274   6.872 -0.1033 -0.0320 -0.9384
 1289poe     o2 6824   2.865   5.265   6.822  0.2218  0.0046 -0.1001
 1289poe    c23 6825   2.858   5.188   6.704  0.0604 -0.4255  0.1850
 1289poe    c23 6826   2.990   5.163   6.629  0.0891  0.2455  0.0002
 1289poe     o2 6827   3.020   5.273   6.546  0.0372 -0.1881 -0.6027
 1289poe    c31 6828   3.156   5.297   6.519  0.1752  0.2328  0.3960
 1290poe    c31 6829   0.709   0.944   6.306 -0.3518  0.4428  0.1194
 1290poe     o2 6830   0.734   1.052   6.393  0.9560 -0.0396  0.3619
 1290poe    c23 6831   0.724   1.001   6.524 -0.3576 -0.2827  0.1843
 1290poe    c23 6832   0.702   1.114   6.628 -0.2489 -0.0288 -0.0684
 1290poe     o2 6833   0.823   1.169   6.674 -0.1226 -0.5844  0.2771
 1290poe    c23 6834   0.777   1.275   6.755 -0.1974  0.0481 -0.5774
 1290poe    c23 6835   0.892   1.373   6.783 -0.3227 -0.1084  0.5507
 1290poe     o2 6836   0.953   1.406   6.660 -0.3774  0.0939  0.5768
 1290poe    c23 6837   1.030   1.520   6.689  0.0972  0.0122 -0.2975
 1290poe    c23 6838   1.104   1.535   6.555 -0.0436  0.4288 -0.3295
 1290poe     o2 6839   1.144   1.408   6.510  0.1981  0.1033  0.7766
 1290poe    c31 6840   1.198   1.412   6.380 -0.3035 -0.6657  0.5366
 1291poe    c31 6841   3.473   1.139   1.890 -0.3442 -0.2993  0.1818
 1291poe     o2 6842   3.474   1.275   1.930  0.3251 -0.1981 -0.1697
 1291poe    c23 6843   3.481   1.287   2.070 -0.3805 -0.2029 -0.1299
 1291poe    c23 6844   3.522   1.432   2.105 -0.5147 -0.2762  0.3345
 1291poe     o2 6845   3.454   1.500   2.002 -0.2910 -0.2489  0.2023
 1291poe    c23 6846   3.497   1.634   1.991  0.4521 -0.5113 -0.0923
 1291poe    c23 6847   3.432   1.702   1.870  0.1468  0.2459  0.4944
 1291poe     o2 6848   3.435   1.615   1.759  0.7068  0.3908  0.3954
 1291poe    c23 6849   3.444   1.701   1.648  0.7293  0.3838  0.3919
 1291poe    c23 6850   3.466   1.618   1.520 -0.4018  0.3876  0.1903
 1291poe     o2 6851   3.356   1.533   1.494 -0.2744  0.0305  0.8073
 1291poe    c31 6852   3.388   1.432   1.402 -0.7726  0.2967  0.3344
 1292poe    c31 6853   3.907   6.462   1.375 -0.0384 -0.1103  0.3507
 1292poe     o2 6854   4.040   6.440   1.414  0.3073  0.8974 -0.2501
 1292poe    c23 6855   4.123   6.440   1.300  0.1390 -0.1024 -0.3765
 1292poe    c23 6856   4.265   6.435   1.358  0.0274  0.3230 -0.0600
 1292poe     o2 6857   4.254   6.515   1.473 -0.4347 -0.3431  0.3665
 1292poe    c23 6858   4.381   6.575   1.483 -0.4298 -0.2074 -0.4001
 1292poe    c23 6859   4.408   6.622   1.627 -0.6426 -0.3891 -0.2992
 1292poe     o2 6860   4.319   6.724   1.666 -0.2607 -0.4324  0.7247
 1292poe    c23 6861   4.373   6.798   1.773 -0.3290  0.3579  0.2186
 1292poe    c23 6862   4.271   6.909   1.808 -0.7545 -0.0208  0.1869
 1292poe     o2 6863   4.255   7.011   1.712  0.3172 -0.3390 -0.3494
 1292poe    c31 6864   4.143   7.074   1.770  0.9346 -0.0156  0.5321
 1293poe    c31 6865   2.965   6.334   5.346  0.1215 -0.1088  0.4919
 1293poe     o2 6866   2.839   6.397   5.337 -0.2204 -0.8581 -0.1196
 1293poe    c23 6867   2.798   6.432   5.467  0.4086 -0.4727 -0.0224
 1293poe    c23 6868   2.673   6.522   5.466  0.4482 -0.4184 -0.1322
 1293poe     o2 6869   2.567   6.441   5.421  0.0957  0.4396 -0.8790
 1293poe    c23 6870   2.445   6.511   5.430 -0.5176 -0.6356 -0.6160
 1293poe    c23 6871   2.336   6.404   5.413 -0.3112 -0.8633 -0.5183
 1293poe     o2 6872   2.347   6.294   5.501  0.5970 -0.3873 -0.0213
 1293poe    c23 6873   2.230   6.217   5.518  0.3567 -0.1340 -0.4975
 1293poe    c23 6874   2.188   6.142   5.390 -0.6308 -0.3947 -0.0322
 1293poe     o2 6875   2.273   6.035   5.355 -0.4850 -0.3121  0.0646
 1293poe    c31 6876   2.292   6.013   5.217  0.1087 -1.0042  0.2530
 1294poe    c31 6877   2.106   4.068   1.716  0.0527  0.0748 -0.3777
 1294poe     o2 6878   2.114   3.946   1.645  0.1506  0.0088 -0.2544
 1294poe    c23 6879   2.007   3.858   1.671 -0.2649  0.5507 -0.1048
 1294poe    c23 6880   1.994   3.747   1.565  0.3208  0.6339 -0.2658
 1294poe     o2 6881   2.069   3.630   1.593 -0.0643  0.3896 -0.2459
 1294poe    c23 6882   2.063   3.548   1.478  0.6020 -0.4587  0.3091
 1294poe    c23 6883   2.078   3.395   1.487 -0.4781 -0.5900  0.0352
 1294poe     o2 6884   1.966   3.325   1.535  0.0642 -0.9587  0.7803
 1294poe    c23 6885   1.928   3.226   1.442 -0.5658 -0.1266  0.1333
 1294poe    c23 6886   1.979   3.083   1.471 -0.3687 -0.0916 -0.0424
 1294poe     o2 6887   1.914   3.016   1.577 -0.6153 -0.4831 -0.4360
 1294poe    c31 6888   1.999   2.917   1.629 -0.1422  0.2268  0.1557
 1295poe    c31 6889   4.181   1.531   5.563 -0.0158 -0.1242  0.0583
 1295poe     o2 6890   4.230   1.523   5.431 -0.1769  0.4681 -0.0422
 1295poe    c23 6891   4.152   1.435   5.353 -0.0357  0.2016  0.1159
 1295poe    c23 6892   4.189   1.446   5.204  0.3745 -0.5749  0.1556
 1295poe     o2 6893   4.148   1.565   5.139  0.4872 -0.5938  0.0515
 1295poe    c23 6894   4.218   1.587   5.018 -0.2900 -0.0283 -0.2971
 1295poe    c23 6895   4.157   1.702   4.936 -0.0312  0.4010  0.1109
 1295poe     o2 6896   4.018   1.694   4.916 -0.0708  0.2878  0.4224
 1295poe    c23 6897   3.978   1.794   4.825 -0.0063 -0.0227  0.0512
 1295poe    c23 6898   3.830   1.761   4.794 -0.2050  0.4997  0.4398
 1295poe     o2 6899   3.780   1.706   4.914  0.1498 -0.6215  0.0830
 1295poe    c31 6900   3.641   1.687   4.900  0.1261 -0.1899 -0.3157
 1296poe    c31 6901   5.949   1.636   1.420 -0.2377 -0.4263 -0.0338
 1296poe     o2 6902   5.903   1.681   1.295 -0.0579 -0.2688 -0.0440
 1296poe    c23 6903   5.780   1.742   1.328 -0.1511 -0.5115  0.0562
 1296poe    c23 6904   5.702   1.786   1.203  0.2234 -0.1545 -0.0507
 1296poe     o2 6905   5.709   1.681   1.109 -0.2426  0.2011 -0.4857
 1296poe    c23 6906   5.658   1.721   0.984 -0.5540  0.2511 -0.3454
 1296poe    c23 6907   5.697   1.603   0.892 -0.1982  0.2398 -0.1805
 1296poe     o2 6908   5.838   1.599   0.898 -0.2075 -0.6286 -0.5459
 1296poe    c23 6909   5.870   1.589   0.760  0.6389  0.1496 -0.4152
 1296poe    c23 6910   6.016   1.543   0.762  0.6398  0.1597  0.1591
 1296poe     o2 6911   6.103   1.647   0.802  0.5520  0.2297  0.1676
 1296poe    c31 6912   6.236   1.602   0.811  0.2383 -0.8377 -0.3284
 1297poe    c31 6913   1.658   3.784   3.127  0.0675 -0.7556 -0.0016
 1297poe     o2 6914   1.732   3.839   3.234  0.1579 -0.0178 -0.4368
 1297poe    c23 6915   1.699   3.976   3.242 -0.5007 -0.2028  0.0617
 1297poe    c23 6916   1.784   4.047   3.348 -0.4314 -0.4809  0.1953
 1297poe     o2 6917   1.919   4.082   3.330 -0.5356 -0.4850 -0.6474
 1297poe    c23 6918   1.941   4.216   3.292  0.3988 -0.4144  0.1065
 1297poe    c23 6919   2.037   4.222   3.172  0.4451  0.9527  0.1857
 1297poe     o2 6920   2.140   4.126   3.184 -0.6905 -0.3113  0.1232
 1297poe    c23 6921   2.198   4.089   3.060  0.3701  0.4844  0.3633
 1297poe    c23 6922   2.303   3.978   3.080 -0.1445 -0.0740  0.0172
 1297poe     o2 6923   2.251   3.885   3.172 -0.0908  0.2749  0.4024
 1297poe    c31 6924   2.335   3.773   3.191 -0.0749  0.1012 -0.6485
 1298poe    c31 6925   5.881   1.143   1.585  0.1464  0.0477 -0.0601
 1298poe     o2 6926   5.758   1.213   1.580  0.1211 -0.0166 -0.3507
 1298poe    c23 6927   5.773   1.341   1.521  0.7772 -0.2061 -0.6159
 1298poe    c23 6928   5.650   1.430   1.548  0.7593 -0.5962  0.7002
 1298poe     o2 6929   5.536   1.359   1.507  0.4714 -0.4560  1.2516
 1298poe    c23 6930   5.412   1.404   1.557 -0.1465 -0.2455 -0.4328
 1298poe    c23 6931   5.323   1.279   1.538 -0.0079 -0.4087 -0.0050
 1298poe     o2 6932   5.370   1.154   1.585 -0.2441 -0.2912  0.5501
 1298poe    c23 6933   5.259   1.068   1.579 -0.0996 -0.4135 -0.6578
 1298poe    c23 6934   5.310   0.923   1.579 -0.3236 -0.4993  0.1469
 1298poe     o2 6935   5.377   0.878   1.463 -0.5966  0.1598 -0.2746
 1298poe    c31 6936   5.288   0.857   1.356 -1.2779  0.2536  0.2644
 1299poe    c31 6937   1.218   5.202   3.692  0.2148  0.3686 -0.1026
 1299poe     o2 6938   1.258   5.334   3.662 -0.1560  0.4994 -0.0279
 1299poe    c23 6939   1.151   5.422   3.632 -0.1416  0.5219 -0.0143
 1299poe    c23 6940   1.194   5.537   3.539  0.3849 -0.2145 -0.6987
 1299poe     o2 6941   1.309   5.589   3.603  0.0216  0.3064 -0.4598
 1299poe    c23 6942   1.370   5.704   3.549  0.2430  0.4292  0.0482
 1299poe    c23 6943   1.499   5.732   3.628  0.2084 -0.0307  0.2731
 1299poe     o2 6944   1.582   5.620   3.651  0.0683 -0.2171 -0.1249
 1299poe    c23 6945   1.689   5.666   3.730  0.0748  0.2322 -0.3942
 1299poe    c23 6946   1.790   5.551   3.740 -0.0840  0.0825 -0.5090
 1299poe     o2 6947   1.751   5.430   3.801 -0.1294  0.5117  0.3155
 1299poe    c31 6948   1.872   5.358   3.806 -0.4065  0.0266  0.0632
 1300poe    c31 6949   2.056   2.263   5.066 -0.0648 -0.0103 -0.1908
 1300poe     o2 6950   1.922   2.304   5.082 -0.0591  0.0019 -0.1747
 1300poe    c23 6951   1.830   2.212   5.028  0.0858 -0.5081  0.4402
 1300poe    c23 6952   1.698   2.196   5.106 -0.5209 -0.5700 -0.5906
 1300poe     o2 6953   1.610   2.306   5.110  0.0807 -0.1034 -0.0237
 1300poe    c23 6954   1.485   2.266   5.163  0.2180  0.0525  0.4205
 1300poe    c23 6955   1.394   2.389   5.149  0.0809 -0.1533 -0.5215
 1300poe     o2 6956   1.470   2.496   5.201 -0.4502 -0.1718  0.3074
 1300poe    c23 6957   1.388   2.609   5.220  0.1706  0.4029 -0.3883
 1300poe    c23 6958   1.467   2.717   5.296 -0.1361  0.1881  0.2439
 1300poe     o2 6959   1.589   2.759   5.240 -0.0116  0.3345  0.6220
 1300poe    c31 6960   1.628   2.889   5.279 -0.1633  0.6245 -0.1727
 1301poe    c31 6961   6.630   2.499   1.019  0.1450  0.0145  0.3530
 1301poe     o2 6962   6.522   2.572   1.075  0.1964 -0.1042  0.6110
 1301poe    c23 6963   6.539   2.712   1.090  0.2141 -0.0688  0.2903
 1301poe    c23 6964   6.499   2.794   0.967  0.1295 -0.5373  0.0008
 1301poe     o2 6965   6.361   2.817   0.946  0.2314 -0.0630 -0.1793
 1301poe    c23 6966   6.336   2.955   0.933  0.1930  0.0481  1.0476
 1301poe    c23 6967   6.184   2.973   0.950  0.1189  0.4016  0.0493
 1301poe     o2 6968   6.121   2.867   0.880  0.2463  0.1481  0.3149
 1301poe    c23 6969   5.982   2.881   0.895  0.1368 -0.0797 -0.4778
 1301poe    c23 6970   5.911   2.766   0.821 -0.2185 -0.0710 -0.1504
 1301poe     o2 6971   5.993   2.706   0.723 -0.3788 -0.3011 -0.1454
 1301poe    c31 6972   5.937   2.601   0.648 -0.2951 -0.2911 -0.2208
 1302poe    c31 6973   5.737   0.281   0.707  0.1765 -0.1675  0.1287
 1302poe     o2 6974   5.855   0.305   0.781  0.1699  0.1660  0.0292
 1302poe    c23 6975   5.833   0.422   0.857 -0.8096  0.3731 -0.5497
 1302poe    c23 6976   5.968   0.496   0.853 -0.5152 -0.0421  1.0998
 1302poe     o2 6977   6.063   0.393   0.871 -0.2284  0.0298  0.0671
 1302poe    c23 6978   6.170   0.444   0.947 -0.2720  0.4327 -0.1406
 1302poe    c23 6979   6.261   0.323   0.973  0.0811  0.8506  0.5964
 1302poe     o2 6980   6.203   0.222   1.054 -0.0164  0.2882 -0.1661
 1302poe    c23 6981   6.291   0.113   1.070  0.1052  0.4741  0.4444
 1302poe    c23 6982   6.218   0.007   1.155 -0.0522 -0.1007 -0.3996
 1302poe     o2 6983   6.099  -0.047   1.102 -0.2293  0.0910 -0.1998
 1302poe    c31 6984   6.040  -0.140   1.190 -0.1958  0.3260  0.0723
 1303poe    c31 6985   3.196   4.370   2.095  0.1466 -0.3465  0.1496
 1303poe     o2 6986   3.157   4.320   1.969  0.1956 -0.6070  0.2384
 1303poe    c23 6987   3.021   4.283   1.958 -0.2239  0.8257  0.4396
 1303poe    c23 6988   2.983   4.244   1.814  0.0724 -0.3685  0.6808
 1303poe     o2 6989   3.087   4.170   1.753 -0.2260  0.0513 -0.3475
 1303poe    c23 6990   3.053   4.037   1.725  0.1707 -0.0863 -0.1842
 1303poe    c23 6991   3.160   3.974   1.634  0.1659  0.3347 -0.4837
 1303poe     o2 6992   3.280   4.027   1.686  0.1315 -0.1480  0.1026
 1303poe    c23 6993   3.391   4.000   1.604  0.1933  0.3947  0.0059
 1303poe    c23 6994   3.519   3.956   1.677 -0.2060 -0.2368  0.3282
 1303poe     o2 6995   3.585   4.062   1.742 -0.1694  0.2980 -0.5549
 1303poe    c31 6996   3.709   4.019   1.796 -0.6192 -0.1659  0.1272
 1304poe    c31 6997   1.807   4.648   3.186  0.3404 -0.1347 -0.0888
 1304poe     o2 6998   1.830   4.640   3.325  0.7148  0.2571 -0.1263
 1304poe    c23 6999   1.969   4.618   3.338  0.6721 -0.1973 -0.4246
 1304poe    c23 7000   2.020   4.598   3.481 -0.3523  0.5798  0.0653
 1304poe     o2 7001   1.990   4.702   3.571 -0.3205  0.0065  0.7502
 1304poe    c23 7002   2.063   4.692   3.691  0.5060 -0.1572  0.2382
 1304poe    c23 7003   2.052   4.830   3.758 -0.4930 -0.3185  0.4236
 1304poe     o2 7004   1.919   4.873   3.742 -0.3751 -0.1695 -0.1890
 1304poe    c23 7005   1.871   4.945   3.853  0.0542 -0.4243  0.1629
 1304poe    c23 7006   1.732   5.004   3.820  0.1045 -0.2765  0.2112
 1304poe     o2 7007   1.729   5.033   3.682 -0.4063 -0.1051  0.2580
 1304poe    c31 7008   1.614   5.104   3.642  0.0371  0.2002 -0.4897
 1305poe    c31 7009   4.611   5.054   0.322  0.2918  0.0771 -0.3163
 1305poe     o2 7010   4.660   5.001   0.444  0.1556  0.0857 -0.2575
 1305poe    c23 7011   4.672   5.093   0.550  1.0933 -0.1777 -0.1258
 1305poe    c23 7012   4.750   5.026   0.665  0.3155 -0.5066  0.2144
 1305poe     o2 7013   4.679   4.908   0.695 -0.1449 -0.2462  0.1676
 1305poe    c23 7014   4.760   4.812   0.760  0.1825  0.0333  0.1759
 1305poe    c23 7015   4.664   4.694   0.783 -0.3290  0.5866  0.9510
 1305poe     o2 7016   4.627   4.657   0.652  0.8994 -0.6410  0.9262
 1305poe    c23 7017   4.578   4.525   0.663 -0.3003 -0.2365  0.6598
 1305poe    c23 7018   4.508   4.463   0.541  0.8335  0.2683 -0.2720
 1305poe     o2 7019   4.395   4.538   0.500  0.4490 -0.1443  0.0210
 1305poe    c31 7020   4.356   4.479   0.379  0.3948  0.3275 -0.1922
 1306poe    c31 7021   4.636   1.884   1.260  0.1355  0.0667  0.2659
 1306poe     o2 7022   4.655   1.840   1.127 -0.6033  0.5354 -0.0046
 1306poe    c23 7023   4.776   1.896   1.081 -0.2839 -0.0366  0.1166
 1306poe    c23 7024   4.790   1.825   0.945  0.1418  0.3248 -0.0321
 1306poe     o2 7025   4.773   1.686   0.962  0.3092  0.3054 -0.0224
 1306poe    c23 7026   4.837   1.619   0.855  0.2353  0.0020  0.1227
 1306poe    c23 7027   4.768   1.485   0.822 -0.0878  0.2459 -0.2071
 1306poe     o2 7028   4.635   1.520   0.793 -0.0781 -0.1234 -0.7020
 1306poe    c23 7029   4.543   1.413   0.781  0.3714 -0.6229  0.2014
 1306poe    c23 7030   4.394   1.449   0.771  0.6144  0.1388 -0.8872
 1306poe     o2 7031   4.340   1.494   0.893  0.5007 -0.5488 -0.6788
 1306poe    c31 7032   4.224   1.566   0.859  0.8566  0.3793  0.0215
 1307poe    c31 7033   6.335   1.527   6.086 -0.2202 -0.0787 -0.3044
 1307poe     o2 7034   6.330   1.648   6.157  0.1779 -0.0567 -0.3108
 1307poe    c23 7035   6.442   1.717   6.107  0.4461 -0.2477  0.0189
 1307poe    c23 7036   6.406   1.866   6.104  0.2565 -0.2917  0.1734
 1307poe     o2 7037   6.344   1.884   6.230 -0.5993 -0.1649 -0.2579
 1307poe    c23 7038   6.294   2.014   6.257  0.0971  0.0128  0.1937
 1307poe    c23 7039   6.227   2.022   6.395  0.3774 -0.2049  0.3442
 1307poe     o2 7040   6.133   1.920   6.420  0.3156 -0.2345 -0.0114
 1307poe    c23 7041   6.021   1.958   6.497  0.4235  0.1544 -0.0449
 1307poe    c23 7042   5.983   1.820   6.553  0.5023 -0.1486 -0.7352
 1307poe     o2 7043   5.934   1.738   6.449 -0.7923 -0.3942  0.0501
 1307poe    c31 7044   5.921   1.609   6.506 -0.1607 -0.6392 -0.3444
 1308poe    c31 7045   1.194   3.198   0.951  0.7843 -0.5115 -0.3298
 1308poe     o2 7046   1.273   3.244   0.844  0.1396  0.6076 -0.3419
 1308poe    c23 7047   1.367   3.338   0.890 -0.2196  0.5653  0.4879
 1308poe    c23 7048   1.445   3.430   0.795 -0.6259 -0.0105 -0.4251
 1308poe     o2 7049   1.342   3.491   0.720 -0.7708 -0.0610 -0.2667
 1308poe    c23 7050   1.407   3.581   0.634  0.1171 -0.4261  0.0042
 1308poe    c23 7051   1.302   3.672   0.566 -0.0073  0.0236  0.7904
 1308poe     o2 7052   1.214   3.587   0.497  0.1876  0.1524  0.3816
 1308poe    c23 7053   1.195   3.633   0.365 -0.2395  0.0106  0.3910
 1308poe    c23 7054   1.128   3.514   0.294  0.3447 -0.0946  0.0076
 1308poe     o2 7055   1.063   3.429   0.386 -0.4018  0.3992 -0.0517
 1308poe    c31 7056   0.995   3.337   0.305  0.6911  0.2831 -0.8686
 1309poe    c31 7057   4.306   1.614   3.938 -0.7494  0.1670 -0.0832
 1309poe     o2 7058   4.372   1.659   3.822 -0.0350 -0.2608  0.1529
 1309poe    c23 7059   4.327   1.606   3.700 -0.0512 -0.0129  0.0515
 1309poe    c23 7060   4.434   1.626   3.592 -0.3290 -0.3620 -0.2923
 1309poe     o2 7061   4.484   1.757   3.605 -1.1263 -0.0638 -0.1854
 1309poe    c23 7062   4.536   1.811   3.485 -0.0732 -0.4221  0.1014
 1309poe    c23 7063   4.660   1.895   3.520 -0.5990  0.1402  0.6408
 1309poe     o2 7064   4.653   1.952   3.649 -0.0307  0.7813  0.3959
 1309poe    c23 7065   4.779   2.006   3.682  0.1124  0.5170  0.2826
 1309poe    c23 7066   4.765   2.083   3.814 -0.1241  0.3403  0.3612
 1309poe     o2 7067   4.702   2.001   3.910 -0.3582  0.1538  0.0504
 1309poe    c31 7068   4.727   2.050   4.040 -0.2825  0.3574 -0.0404
 1310poe    c31 7069   0.110   0.955   1.534 -0.0219  0.6391  0.5909
 1310poe     o2 7070   0.216   1.021   1.599  0.2162  0.3307  0.5195
 1310poe    c23 7071   0.289   1.076   1.492  0.4015  0.5486  0.7576
 1310poe    c23 7072   0.437   1.072   1.535  0.3657 -0.4959  0.8053
 1310poe     o2 7073   0.433   1.118   1.669 -0.7173  0.2404  0.5369
 1310poe    c23 7074   0.553   1.155   1.734 -0.5125  1.2369 -0.3711
 1310poe    c23 7075   0.535   1.220   1.873  0.3747  0.2131  0.2418
 1310poe     o2 7076   0.424   1.156   1.932  0.1320  0.5167  0.1206
 1310poe    c23 7077   0.331   1.236   2.002 -0.2998  0.3392 -0.2416
 1310poe    c23 7078   0.200   1.161   2.031  0.1088 -0.4098 -0.3108
 1310poe     o2 7079   0.161   1.123   1.901 -0.0530 -0.1502 -0.3366
 1310poe    c31 7080   0.020   1.112   1.893 -0.1939  0.9502  0.4436
 1311poe    c31 7081   5.107   2.929   3.664  0.1730  0.0162 -0.0882
 1311poe     o2 7082   5.175   2.838   3.748 -0.1313 -0.4760 -0.3686
 1311poe    c23 7083   5.307   2.818   3.703 -0.0620 -0.1223 -0.3202
 1311poe    c23 7084   5.376   2.705   3.782 -0.2143  0.2239  0.3183
 1311poe     o2 7085   5.435   2.749   3.902 -0.3746  0.1734  0.4154
 1311poe    c23 7086   5.465   2.635   3.981 -0.0048  0.1019  0.1753
 1311poe    c23 7087   5.476   2.686   4.126  0.0840 -0.1035  0.2404
 1311poe     o2 7088   5.365   2.743   4.191  0.0168  0.2526 -0.1820
 1311poe    c23 7089   5.366   2.753   4.332 -0.0816  1.0215 -0.2315
 1311poe    c23 7090   5.259   2.856   4.373 -0.1983  0.7975  0.0288
 1311poe     o2 7091   5.141   2.830   4.301  0.0661  0.3967 -0.2608
 1311poe    c31 7092   5.037   2.917   4.339 -0.5963 -0.0113 -1.0973
 1312poe    c31 7093   4.103   5.613   1.937  0.3216  0.2745 -0.0067
 1312poe     o2 7094   4.134   5.726   1.859  0.3986 -0.1594 -0.6156
 1312poe    c23 7095   4.233   5.813   1.908  0.0129  0.2657 -0.5751
 1312poe    c23 7096   4.257   5.941   1.827 -0.1610  0.3102 -0.5572
 1312poe     o2 7097   4.330   5.906   1.712 -0.0498 -0.5235 -0.2373
 1312poe    c23 7098   4.371   6.019   1.639  0.6961 -0.6530 -0.0285
 1312poe    c23 7099   4.271   6.071   1.535  0.8436 -0.0729  0.1181
 1312poe     o2 7100   4.286   6.023   1.403  0.4639  0.3320 -0.0762
 1312poe    c23 7101   4.402   6.072   1.341  0.8862  0.1422  0.5521
 1312poe    c23 7102   4.403   6.022   1.195 -0.0213 -0.2426  0.6754
 1312poe     o2 7103   4.416   5.882   1.185  0.0013 -0.1772 -0.2341
 1312poe    c31 7104   4.410   5.848   1.048 -0.3407  0.2845 -0.3354
 1313poe    c31 7105   2.604   2.887   1.272 -0.3179 -0.4280  0.2565
 1313poe     o2 7106   2.601   2.770   1.193 -0.3922 -0.3511  0.1440
 1313poe    c23 7107   2.694   2.675   1.239 -0.1753 -0.1809  0.0539
 1313poe    c23 7108   2.668   2.537   1.177  0.2193 -0.0421 -0.4264
 1313poe     o2 7109   2.689   2.537   1.037 -0.2288  0.2700 -0.4954
 1313poe    c23 7110   2.820   2.546   0.985 -0.0691 -0.4460 -0.2242
 1313poe    c23 7111   2.819   2.512   0.834 -0.8061 -0.4314 -0.2272
 1313poe     o2 7112   2.720   2.597   0.779  0.2017  0.9623  0.0564
 1313poe    c23 7113   2.729   2.600   0.639  0.5863  0.1931  0.0563
 1313poe    c23 7114   2.656   2.729   0.597 -0.4607 -0.3560  0.1661
 1313poe     o2 7115   2.536   2.737   0.671 -0.6752 -0.8034 -0.1299
 1313poe    c31 7116   2.454   2.811   0.583  0.5156  0.1774 -0.4397
 1314poe    c31 7117   5.246   2.647   6.759 -0.1209 -0.1408 -0.0795
 1314poe     o2 7118   5.126   2.580   6.791  0.1379 -0.3679  0.4399
 1314poe    c23 7119   5.037   2.676   6.844 -0.3249 -0.3222 -0.3900
 1314poe    c23 7120   4.916   2.611   6.913 -0.2363  0.3822  0.4518
 1314poe     o2 7121   4.861   2.511   6.830  0.2918  0.2981  0.1930
 1314poe    c23 7122   4.746   2.455   6.891  0.0502 -0.0146 -0.5435
 1314poe    c23 7123   4.670   2.352   6.805 -0.3009 -0.2258  0.0102
 1314poe     o2 7124   4.751   2.241   6.774  0.0656 -0.0096  0.1826
 1314poe    c23 7125   4.691   2.113   6.777 -0.4824  0.2531  0.5754
 1314poe    c23 7126   4.794   2.007   6.735  0.1205  0.7641  0.7355
 1314poe     o2 7127   4.843   2.043   6.608  0.3958  0.2510  0.6921
 1314poe    c31 7128   4.966   1.978   6.583  0.3024  0.2728  0.1707
 1315poe    c31 7129   2.823   0.569   4.088 -0.1217  0.1555  1.2245
 1315poe     o2 7130   2.844   0.701   4.132 -0.6453  0.8787 -0.6050
 1315poe    c23 7131   2.975   0.752   4.118 -0.2136  0.0186  0.2616
 1315poe    c23 7132   2.987   0.902   4.148  0.4051 -0.0523  0.3904
 1315poe     o2 7133   2.915   0.991   4.066 -0.1513 -0.5687  0.3109
 1315poe    c23 7134   2.952   1.004   3.930 -0.8242  0.1780  0.1884
 1315poe    c23 7135   2.870   1.113   3.860  0.5432  1.0507 -0.0885
 1315poe     o2 7136   2.736   1.078   3.882  0.7671  0.1526 -0.1187
 1315poe    c23 7137   2.647   1.177   3.834  0.2206  0.3554  1.2411
 1315poe    c23 7138   2.506   1.135   3.879 -0.3072  0.5394 -0.1678
 1315poe     o2 7139   2.523   1.101   4.015 -0.1897  0.3862 -0.2199
 1315poe    c31 7140   2.404   1.041   4.061  0.4137  0.1978  1.1463
 1316poe    c31 7141   5.357   4.016   3.443 -0.2301  0.7538  0.0874
 1316poe     o2 7142   5.451   3.946   3.520 -0.1737 -0.0475 -0.6909
 1316poe    c23 7143   5.433   3.807   3.505 -0.5584 -0.1433  0.5650
 1316poe    c23 7144   5.532   3.738   3.601 -0.0475 -0.5612 -0.2534
 1316poe     o2 7145   5.508   3.768   3.737  0.0964  0.1987 -0.3881
 1316poe    c23 7146   5.569   3.664   3.811 -0.0825  1.0213  0.9482
 1316poe    c23 7147   5.525   3.668   3.958  0.1150 -0.4562  1.0652
 1316poe     o2 7148   5.384   3.674   3.955  0.1456  0.1013 -0.6246
 1316poe    c23 7149   5.358   3.685   4.093  0.1884  0.2324 -0.6270
 1316poe    c23 7150   5.215   3.742   4.106  0.2805  0.3381 -0.0423
 1316poe     o2 7151   5.218   3.852   4.018  1.0608  0.6428  0.3463
 1316poe    c31 7152   5.111   3.935   4.055  0.4668  0.0091  0.0841
 1317poe    c31 7153   4.350   0.953   2.573  0.0733  0.2711  0.4258
 1317poe     o2 7154   4.478   0.917   2.619  0.3985  0.1179 -0.5674
 1317poe    c23 7155   4.544   1.031   2.670  0.1882  0.2777 -0.6500
 1317poe    c23 7156   4.668   1.008   2.758 -0.1913  0.1392 -0.1461
 1317poe     o2 7157   4.790   0.998   2.688 -0.0120  0.1682  0.1610
 1317poe    c23 7158   4.820   0.872   2.631  0.0415  0.3673 -0.2579
 1317poe    c23 7159   4.872   0.879   2.486  0.8082 -0.2126 -0.0177
 1317poe     o2 7160   4.982   0.967   2.494  0.6598 -0.0356  0.0992
 1317poe    c23 7161   5.077   0.958   2.391  0.4280  0.0355 -0.1215
 1317poe    c23 7162   5.174   1.074   2.420  0.3408  0.1033 -0.1012
 1317poe     o2 7163   5.097   1.187   2.454  0.1765  0.0627 -0.3381
 1317poe    c31 7164   5.174   1.305   2.464  0.0054  0.1769 -0.3670
 1318poe    c31 7165   2.006   6.800   6.550  0.2251 -0.2646 -0.2880
 1318poe     o2 7166   2.064   6.924   6.584 -0.2733 -0.1393  0.1164
 1318poe    c23 7167   2.133   6.928   6.706  0.3064 -0.3025 -0.2027
 1318poe    c23 7168   2.189   7.065   6.747 -0.3065 -0.1403  0.1029
 1318poe     o2 7169   2.307   7.095   6.676 -0.2607 -0.1850  0.1595
 1318poe    c23 7170   2.348   7.222   6.720 -0.2771 -0.1488  0.0706
 1318poe    c23 7171   2.306   7.343   6.634 -0.0523 -0.4037 -0.4063
 1318poe     o2 7172   2.356   7.322   6.504  0.8068 -0.0457 -0.1399
 1318poe    c23 7173   2.371   7.439   6.426 -0.0976  0.3867  0.3249
 1318poe    c23 7174   2.438   7.390   6.297 -0.0334 -0.0062  0.5032
 1318poe     o2 7175   2.376   7.265   6.275 -0.1138  0.1760 -0.3353
 1318poe    c31 7176   2.429   7.225   6.151 -0.0716 -0.3542 -0.1461
 1319poe    c31 7177   1.338   1.631   0.370  0.5636 -0.3955  0.3539
 1319poe     o2 7178   1.432   1.723   0.318  0.1181 -0.2426 -0.1841
 1319poe    c23 7179   1.413   1.751   0.182 -0.1914  0.4815  0.0044
 1319poe    c23 7180   1.544   1.772   0.104  0.0714  0.1108  0.3411
 1319poe     o2 7181   1.627   1.660   0.087 -0.9371 -0.5611 -0.2502
 1319poe    c23 7182   1.754   1.679   0.028 -0.6368 -0.5973  0.3838
 1319poe    c23 7183   1.851   1.559   0.026  0.1167  0.0154 -0.6860
 1319poe     o2 7184   1.881   1.498   0.150 -0.4938  0.1935 -0.4463
 1319poe    c23 7185   1.931   1.367   0.136 -0.2844  0.1293  0.8124
 1319poe    c23 7186   1.967   1.284   0.261  0.1432 -0.6188  0.1998
 1319poe     o2 7187   1.851   1.313   0.335 -0.0595  0.0617 -0.3749
 1319poe    c31 7188   1.841   1.224   0.444  0.2207  0.5355  0.0446
 1320poe    c31 7189   1.126   3.645   2.249  0.2643 -0.6193 -0.3213
 1320poe     o2 7190   1.236   3.704   2.184  0.0748 -0.2458 -0.3075
 1320poe    c23 7191   1.177   3.791   2.090 -0.3626 -0.2594 -0.0432
 1320poe    c23 7192   1.290   3.814   1.989 -0.2702 -0.3773  0.0335
 1320poe     o2 7193   1.411   3.836   2.058 -0.1929  0.0026 -0.2149
 1320poe    c23 7194   1.519   3.861   1.972  0.2865 -0.5398  0.2115
 1320poe    c23 7195   1.655   3.887   2.039  0.5893 -0.0333 -0.5697
 1320poe     o2 7196   1.700   3.777   2.115 -0.7084  0.2117  0.5983
 1320poe    c23 7197   1.822   3.809   2.179 -0.1389 -0.1424 -0.2828
 1320poe    c23 7198   1.933   3.706   2.152  0.0504  0.0317 -0.1732
 1320poe     o2 7199   1.923   3.579   2.212  0.1877  0.2360  0.2828
 1320poe    c31 7200   1.940   3.582   2.352 -0.8473 -0.8381  0.4461
 1321poe    c31 7201   1.732   3.153   2.762  0.6967  0.3096 -0.1799
 1321poe     o2 7202   1.838   3.157   2.855  0.2084 -0.3430  0.4139
 1321poe    c23 7203   1.953   3.129   2.779  0.1277  0.4917 -0.0245
 1321poe    c23 7204   2.076   3.121   2.871 -0.0148 -0.7732  0.0736
 1321poe     o2 7205   2.062   3.229   2.961 -0.1094 -1.0573  0.4004
 1321poe    c23 7206   2.168   3.231   3.054  0.0446  0.2899  0.2119
 1321poe    c23 7207   2.174   3.354   3.146 -0.5089  0.2986  0.2370
 1321poe     o2 7208   2.087   3.342   3.256  0.2030 -0.3022  0.7438
 1321poe    c23 7209   2.053   3.469   3.308  0.3748 -0.0613  0.2661
 1321poe    c23 7210   1.911   3.471   3.366 -0.0154 -0.8153 -0.6265
 1321poe     o2 7211   1.815   3.449   3.265 -0.5281  0.3676 -0.4253
 1321poe    c31 7212   1.683   3.456   3.312 -0.5506 -0.3200 -0.3703
 1322poe    c31 7213   0.557   6.566   1.937  0.5897  0.4062 -0.4034
 1322poe     o2 7214   0.629   6.590   2.056  0.2535  0.1959 -0.1556
 1322poe    c23 7215   0.711   6.705   2.056 -0.0762  0.4321 -0.3118
 1322poe    c23 7216   0.800   6.730   2.180  0.3690 -0.5941 -0.4128
 1322poe     o2 7217   0.908   6.640   2.176  0.0744 -0.9826  0.2108
 1322poe    c23 7218   1.006   6.671   2.273 -0.1037  0.4462 -0.0406
 1322poe    c23 7219   1.066   6.534   2.310 -0.5517  0.1977 -0.2286
 1322poe     o2 7220   1.086   6.470   2.185  0.1052 -0.1401  0.0483
 1322poe    c23 7221   1.167   6.356   2.206  0.2372  0.0693  0.7165
 1322poe    c23 7222   1.192   6.296   2.067  0.0637  0.9194  0.3090
 1322poe     o2 7223   1.076   6.299   1.986  0.2608  0.0570 -0.0207
 1322poe    c31 7224   1.084   6.237   1.860 -0.2444 -0.0798  0.0147
 1323poe    c31 7225   1.829   1.820   3.455  0.2234  0.1741  0.3217
 1323poe     o2 7226   1.865   1.956   3.457  0.0910  0.2170 -0.0813
 1323poe    c23 7227   1.832   2.023   3.576  0.0148 -0.2124  0.1397
 1323poe    c23 7228   1.947   2.048   3.674  0.3955 -0.1845 -0.3132
 1323poe     o2 7229   2.058   2.116   3.618 -0.0847  0.6964 -0.2134
 1323poe    c23 7230   2.107   2.214   3.706  0.2576  0.0939  0.2734
 1323poe    c23 7231   2.259   2.193   3.698  0.2208 -0.1955  0.3323
 1323poe     o2 7232   2.303   2.137   3.576 -0.4034 -0.3207  0.1625
 1323poe    c23 7233   2.431   2.080   3.593 -0.1536  0.1744 -0.0411
 1323poe    c23 7234   2.480   2.063   3.448  0.3693 -0.2164  0.1779
 1323poe     o2 7235   2.380   2.002   3.370  1.1152 -0.6827 -0.4321
 1323poe    c31 7236   2.427   1.934   3.256 -0.3292 -0.9620 -0.8803
 1324poe    c31 7237   6.204   1.198   6.848 -0.2945 -0.3339  0.1668
 1324poe     o2 7238   6.203   1.141   6.719 -0.2003  0.2804 -0.1060
 1324poe    c23 7239   6.229   1.234   6.616  0.6069  0.0540 -0.1120
 1324poe    c23 7240   6.190   1.160   6.487  0.3954 -0.3023  0.1539
 1324poe     o2 7241   6.059   1.122   6.522  0.1205 -0.1280 -0.6646
 1324poe    c23 7242   6.004   1.061   6.407 -0.2007 -0.0165 -0.5738
 1324poe    c23 7243   5.882   0.980   6.453 -0.0085  0.4226  0.7718
 1324poe     o2 7244   5.915   0.907   6.568  0.2223 -0.1059  0.3774
 1324poe    c23 7245   5.818   0.808   6.594  0.5601 -0.4715  0.2520
 1324poe    c23 7246   5.681   0.845   6.654  0.3809  0.1963 -0.5428
 1324poe     o2 7247   5.695   0.934   6.762  0.2802 -0.4516  0.0129
 1324poe    c31 7248   5.572   0.991   6.803  0.2832 -0.6079  0.2406
 1325poe    c31 7249   1.459   6.556   5.652  0.0008 -0.4075 -0.3509
 1325poe     o2 7250   1.575   6.495   5.702 -0.1845 -0.3673  0.1320
 1325poe    c23 7251   1.648   6.583   5.785 -0.3776  0.2888 -0.3878
 1325poe    c23 7252   1.766   6.508   5.849 -0.5494  0.3687  0.0319
 1325poe     o2 7253   1.707   6.403   5.923  0.0158  0.2573  0.3286
 1325poe    c23 7254   1.796   6.305   5.972 -0.3652 -0.5634 -0.6039
 1325poe    c23 7255   1.721   6.227   6.082 -0.0944 -0.0637 -0.0575
 1325poe     o2 7256   1.600   6.176   6.030  0.0779 -0.2697 -0.2587
 1325poe    c23 7257   1.543   6.084   6.121 -0.1251  0.1539  0.0454
 1325poe    c23 7258   1.400   6.054   6.072  0.0553 -0.0124 -0.3853
 1325poe     o2 7259   1.306   6.151   6.112  0.4286  0.0210  0.4334
 1325poe    c31 7260   1.192   6.097   6.174  0.8608 -0.6332  0.6641
 1326poe    c31 7261   2.626   0.523   1.723 -0.8249 -0.3500  0.3599
 1326poe     o2 7262   2.683   0.397   1.695 -0.2427  0.1126 -0.6088
 1326poe    c23 7263   2.593   0.289   1.703 -0.2955  0.1937 -0.0546
 1326poe    c23 7264   2.654   0.171   1.625  0.3181  0.2972  0.2632
 1326poe     o2 7265   2.793   0.179   1.647  0.2213  0.2318  0.9083
 1326poe    c23 7266   2.865   0.067   1.601 -0.6277 -0.0631  0.2747
 1326poe    c23 7267   3.015   0.098   1.617 -0.7280  0.4509  0.2225
 1326poe     o2 7268   3.026   0.159   1.744  0.0666  0.6853  0.0494
 1326poe    c23 7269   3.156   0.140   1.793  0.1194  0.3887 -0.2043
 1326poe    c23 7270   3.247   0.259   1.759  0.6886  0.0811  0.2077
 1326poe     o2 7271   3.192   0.366   1.832  0.2577 -0.0922  0.1372
 1326poe    c31 7272   3.282   0.474   1.825 -0.1999  0.2773 -0.1579
 1327poe    c31 7273   2.617   2.774   3.252  0.1990 -0.1468  0.1569
 1327poe     o2 7274   2.572   2.686   3.152 -0.1593  0.3387 -0.1164
 1327poe    c23 7275   2.458   2.746   3.093  0.1147  0.9095 -0.0662
 1327poe    c23 7276   2.325   2.711   3.163  0.1084  0.1196 -0.4648
 1327poe     o2 7277   2.353   2.580   3.207 -0.1956  0.2980  0.2655
 1327poe    c23 7278   2.252   2.525   3.288 -0.1010 -0.2195  0.0349
 1327poe    c23 7279   2.267   2.545   3.440  0.1474 -0.3541  0.0284
 1327poe     o2 7280   2.390   2.489   3.482  0.2273 -0.1574  0.0602
 1327poe    c23 7281   2.433   2.530   3.610  0.6437  0.8436 -0.3857
 1327poe    c23 7282   2.574   2.482   3.651 -0.0224 -0.2144  0.7648
 1327poe     o2 7283   2.669   2.519   3.554 -0.3164  0.1578  0.6120
 1327poe    c31 7284   2.799   2.477   3.591 -0.1623  0.1691  0.1014
 1328poe    c31 7285   0.839   0.321   4.265 -0.4463 -0.1022  0.1585
 1328poe     o2 7286   0.833   0.385   4.391 -0.4194  0.1249  0.0450
 1328poe    c23 7287   0.804   0.523   4.388 -0.0625  0.2022  0.1695
 1328poe    c23 7288   0.915   0.583   4.476  0.6957 -0.6005 -0.2109
 1328poe     o2 7289   0.913   0.504   4.593  0.4143  0.1918  0.3310
 1328poe    c23 7290   0.952   0.575   4.709  0.9390  0.7511 -0.1824
 1328poe    c23 7291   0.942   0.467   4.818 -0.1804  0.2178 -0.7943
 1328poe     o2 7292   1.011   0.352   4.776  0.3003  0.2236 -0.0405
 1328poe    c23 7293   1.050   0.286   4.895  0.0227 -0.0893 -0.1193
 1328poe    c23 7294   1.022   0.136   4.875 -0.7471  0.0636 -0.2256
 1328poe     o2 7295   0.886   0.108   4.900 -0.5222 -1.0388 -0.1708
 1328poe    c31 7296   0.873   0.000   4.989  0.4346 -0.8769  0.1826
 1329poe    c31 7297   4.446   1.719   6.233  0.6700  0.1942 -0.0810
 1329poe     o2 7298   4.459   1.588   6.284 -0.0054  0.1379 -0.0438
 1329poe    c23 7299   4.334   1.552   6.338 -0.0286  0.4118  0.0853
 1329poe    c23 7300   4.331   1.398   6.342  0.3922  0.3973 -0.0683
 1329poe     o2 7301   4.447   1.346   6.402 -0.0359  0.0606  0.4820
 1329poe    c23 7302   4.467   1.215   6.355 -0.1834  0.1161  0.2633
 1329poe    c23 7303   4.593   1.177   6.436 -0.3339  0.3257  0.5959
 1329poe     o2 7304   4.680   1.279   6.391  0.3220 -0.2715  0.4966
 1329poe    c23 7305   4.797   1.296   6.467  0.3326 -0.1088  0.4433
 1329poe    c23 7306   4.825   1.443   6.502  0.1862  0.0748 -0.1915
 1329poe     o2 7307   4.730   1.517   6.429  0.0150 -0.1910 -0.2391
 1329poe    c31 7308   4.745   1.657   6.442  0.3114 -0.1919 -0.5286
 1330poe    c31 7309   5.780   3.770   3.192  0.1097 -0.4259  0.7902
 1330poe     o2 7310   5.900   3.701   3.223  0.5182 -0.1498 -0.1502
 1330poe    c23 7311   5.911   3.603   3.121  1.1436 -0.2037 -0.0297
 1330poe    c23 7312   6.047   3.536   3.094  0.9188 -0.6389 -0.0835
 1330poe     o2 7313   6.133   3.634   3.041  0.3436 -0.0306  0.0863
 1330poe    c23 7314   6.233   3.590   2.951  0.1197 -0.0523 -0.1544
 1330poe    c23 7315   6.194   3.525   2.817 -0.2330 -0.8902  0.3499
 1330poe     o2 7316   6.140   3.622   2.730 -0.1551 -0.8414  0.3554
 1330poe    c23 7317   6.053   3.568   2.633  0.0524 -0.3876 -0.0865
 1330poe    c23 7318   5.988   3.670   2.538 -0.2908 -0.3325  0.2045
 1330poe     o2 7319   5.892   3.760   2.590  0.0326  0.2653 -0.2145
 1330poe    c31 7320   5.861   3.862   2.498 -0.2430  0.1480 -0.2520
 1331poe    c31 7321   4.798   4.302   6.255  0.2335 -0.2775  0.2038
 1331poe     o2 7322   4.926   4.242   6.258  0.2579 -0.2424 -0.1046
 1331poe    c23 7323   5.021   4.337   6.299 -0.3214  0.1203  0.4111
 1331poe    c23 7324   5.165   4.287   6.316 -0.2131  0.2635 -0.0756
 1331poe     o2 7325   5.187   4.208   6.430  0.1145  0.1742 -0.1970
 1331poe    c23 7326   5.320   4.161   6.428  0.0282 -0.1352  0.7142
 1331poe    c23 7327   5.379   4.105   6.559  0.0351 -0.3031  0.6390
 1331poe     o2 7328   5.330   3.973   6.573 -0.3879 -0.1912  0.2384
 1331poe    c23 7329   5.374   3.899   6.684  0.2900 -0.2245 -0.0462
 1331poe    c23 7330   5.260   3.855   6.778 -0.0379 -0.0136 -0.3416
 1331poe     o2 7331   5.182   3.968   6.812  0.0352  0.1176 -0.6061
 1331poe    c31 7332   5.139   3.940   6.943 -0.3611  0.3437 -0.6882
 1332poe    c31 7333   1.669   1.191   5.169  0.1185 -0.2448 -0.2646
 1332poe     o2 7334   1.773   1.263   5.232  0.1646  0.1418 -0.7766
 1332poe    c23 7335   1.863   1.170   5.288 -0.3752 -0.0331 -0.1799
 1332poe    c23 7336   1.928   1.259   5.396 -0.5040  0.0684 -0.1871
 1332poe     o2 7337   1.983   1.382   5.354 -0.5630  0.1300 -0.0860
 1332poe    c23 7338   2.018   1.473   5.455 -0.2240  0.3033 -0.3575
 1332poe    c23 7339   2.057   1.596   5.370 -0.0638  0.4487 -0.0774
 1332poe     o2 7340   1.974   1.611   5.257 -0.6118 -0.0819  0.2479
 1332poe    c23 7341   1.982   1.745   5.214  0.2634 -0.3295 -0.4012
 1332poe    c23 7342   1.964   1.782   5.065  0.4237  0.3334 -0.2600
 1332poe     o2 7343   1.834   1.769   5.014  0.2399 -0.0575  0.2879
 1332poe    c31 7344   1.831   1.779   4.873  0.0967  0.6741  0.3417
 1333poe    c31 7345   5.468   1.364   5.806  0.0055  0.1969 -0.6143
 1333poe     o2 7346   5.400   1.460   5.883 -0.4961 -0.1632 -0.6001
 1333poe    c23 7347   5.304   1.403   5.969 -0.1764  0.0560 -0.0913
 1333poe    c23 7348   5.234   1.522   6.038  0.5472  0.6043 -0.2859
 1333poe     o2 7349   5.315   1.590   6.132  0.1163 -0.3278  0.7898
 1333poe    c23 7350   5.248   1.683   6.214 -0.9121 -0.4569  0.1136
 1333poe    c23 7351   5.355   1.720   6.317 -0.1497 -0.0104 -0.8178
 1333poe     o2 7352   5.466   1.756   6.238 -0.1754  0.4005 -0.6725
 1333poe    c23 7353   5.569   1.811   6.317 -0.1198 -0.3440 -0.2106
 1333poe    c23 7354   5.678   1.873   6.227 -0.2173  0.4881  0.2317
 1333poe     o2 7355   5.724   1.782   6.130  0.3949  0.3302  0.6662
 1333poe    c31 7356   5.810   1.840   6.036 -0.1060 -0.1010 -0.0704
 1334poe    c31 7357   0.451   2.466   6.267 -0.0434  0.0355  0.3100
 1334poe     o2 7358   0.461   2.589   6.335 -0.7192  0.5204 -0.4525
 1334poe    c23 7359   0.546   2.682   6.272 -0.0766 -0.0017 -0.3693
 1334poe    c23 7360   0.532   2.826   6.327 -0.0457 -0.1532  0.0391
 1334poe     o2 7361   0.406   2.887   6.318  0.0331 -0.0246 -0.2353
 1334poe    c23 7362   0.386   2.979   6.214  0.4105 -0.0290 -0.3127
 1334poe    c23 7363   0.246   2.943   6.159  0.2880  0.5987 -0.4210
 1334poe     o2 7364   0.165   2.947   6.275  0.6006 -0.2584 -0.1641
 1334poe    c23 7365   0.027   2.926   6.254  0.3911  0.4144  0.5128
 1334poe    c23 7366  -0.045   2.992   6.373 -0.9433 -0.3616  0.1472
 1334poe     o2 7367   0.023   2.945   6.486 -0.1979 -0.1074 -0.1923
 1334poe    c31 7368  -0.060   2.908   6.594  0.2212 -0.6331 -0.0430
 1335poe    c31 7369   6.297   3.667   4.078 -0.5695 -0.5142 -0.0088
 1335poe     o2 7370   6.190   3.653   4.168 -0.4091 -0.1669  0.2358
 1335poe    c23 7371   6.083   3.729   4.115 -0.0793  0.2975  0.2241
 1335poe    c23 7372   5.968   3.711   4.216 -0.3951  0.4333 -0.1104
 1335poe     o2 7373   5.998   3.770   4.340 -0.1728  0.4875 -0.1905
 1335poe    c23 7374   5.906   3.725   4.437  0.3488 -0.6288 -0.1906
 1335poe    c23 7375   5.968   3.767   4.571 -0.6426  0.1498  0.0379
 1335poe     o2 7376   6.089   3.698   4.596 -0.3903  0.4066 -0.4526
 1335poe    c23 7377   6.161   3.765   4.697 -0.3438 -0.8466  0.3645
 1335poe    c23 7378   6.295   3.695   4.727  0.2944  0.3536  0.3595
 1335poe     o2 7379   6.268   3.559   4.702 -0.2085  0.5035  0.0673
 1335poe    c31 7380   6.376   3.482   4.750 -0.2068  0.3863 -0.1221
 1336poe    c31 7381   5.258   6.377   2.009 -0.1308  0.8445  0.6265
 1336poe     o2 7382   5.192   6.338   2.128 -0.5741 -0.4177 -0.0115
 1336poe    c23 7383   5.088   6.429   2.156  0.1052  0.3280  0.1301
 1336poe    c23 7384   5.081   6.447   2.309 -0.9070  0.0981  0.1182
 1336poe     o2 7385   5.050   6.321   2.365 -0.4782 -0.1119 -0.1066
 1336poe    c23 7386   5.044   6.329   2.505  0.2576 -0.0177 -0.0727
 1336poe    c23 7387   4.962   6.218   2.574  0.2063  0.2443  0.2972
 1336poe     o2 7388   5.009   6.101   2.509  0.0299  0.2122  0.2256
 1336poe    c23 7389   4.954   5.982   2.561  0.1309 -0.0673 -0.2991
 1336poe    c23 7390   5.009   5.865   2.478  0.1871 -0.2038 -0.0690
 1336poe     o2 7391   4.975   5.889   2.344 -0.7853 -1.3786 -0.0589
 1336poe    c31 7392   5.028   5.791   2.258  0.7268  0.0263 -0.7807
 1337poe    c31 7393   3.407   6.192   6.030  0.2081 -0.4873 -0.1443
 1337poe     o2 7394   3.301   6.280   5.999  0.2459 -0.5649 -0.5035
 1337poe    c23 7395   3.223   6.242   5.888 -0.3585 -0.5025 -0.1042
 1337poe    c23 7396   3.139   6.363   5.844  0.2590  0.1326  0.4412
 1337poe     o2 7397   3.067   6.436   5.941  0.2331  0.1999  0.3712
 1337poe    c23 7398   2.991   6.534   5.875  0.0954  0.0235  0.2669
 1337poe    c23 7399   2.910   6.614   5.978  0.3463  0.4480  0.1396
 1337poe     o2 7400   2.988   6.666   6.084  0.6264 -0.1245  0.2152
 1337poe    c23 7401   2.912   6.745   6.172  0.8211  0.1977  0.0923
 1337poe    c23 7402   2.969   6.723   6.314  0.1231 -0.1524  0.3219
 1337poe     o2 7403   3.109   6.711   6.298  0.0169 -0.6170 -0.2839
 1337poe    c31 7404   3.173   6.740   6.420 -0.1411 -0.3463 -0.2646
 1338poe    c31 7405   3.445   2.903   6.288  0.1019  0.2967  0.2799
 1338poe     o2 7406   3.576   2.948   6.263  0.0699  0.0851 -0.3012
 1338poe    c23 7407   3.615   3.002   6.139 -0.7034 -0.0624 -0.6076
 1338poe    c23 7408   3.750   3.074   6.154 -0.7828 -0.2024  0.9207
 1338poe     o2 7409   3.845   2.975   6.185 -0.3895  0.0615  0.5716
 1338poe    c23 7410   3.975   3.030   6.176 -0.4604  0.1807  0.2761
 1338poe    c23 7411   4.078   2.921   6.211 -0.5105  0.0297 -0.0435
 1338poe     o2 7412   4.055   2.880   6.344 -0.1441 -0.6930 -0.1965
 1338poe    c23 7413   4.151   2.788   6.390  0.0642 -0.3933 -0.0245
 1338poe    c23 7414   4.102   2.754   6.532 -0.3993  0.6452  0.0692
 1338poe     o2 7415   3.980   2.690   6.502  0.1681 -0.1912 -0.5132
 1338poe    c31 7416   3.914   2.647   6.619  0.4679  0.9747  0.1023
 1339poe    c31 7417   5.386   5.155   2.552 -0.3323 -0.1386  0.6028
 1339poe     o2 7418   5.360   5.280   2.492 -0.0502 -0.3199  0.0946
 1339poe    c23 7419   5.225   5.282   2.452 -0.0146  0.2505  0.0008
 1339poe    c23 7420   5.191   5.384   2.341 -0.5581  0.1902  0.1087
 1339poe     o2 7421   5.272   5.349   2.231 -1.3234 -0.5044 -0.2418
 1339poe    c23 7422   5.245   5.443   2.129 -0.1951  0.5206  0.3846
 1339poe    c23 7423   5.340   5.426   2.009 -0.0717  0.3702  0.5027
 1339poe     o2 7424   5.469   5.405   2.060 -0.0372 -0.3378  0.1246
 1339poe    c23 7425   5.568   5.418   1.960 -0.9068 -1.8566 -0.9811
 1339poe    c23 7426   5.696   5.392   2.041 -1.1056  0.4611  0.1435
 1339poe     o2 7427   5.681   5.264   2.099  0.0898  0.0323 -0.4566
 1339poe    c31 7428   5.803   5.211   2.146  0.1941  0.5823 -0.0937
 1340poe    c31 7429   3.174   4.799   3.761  0.4897 -0.0439  0.5360
 1340poe     o2 7430   3.181   4.664   3.722  0.4003 -0.0261  0.4548
 1340poe    c23 7431   3.262   4.579   3.800  0.0666 -0.6020  0.1751
 1340poe    c23 7432   3.294   4.448   3.725 -0.1508 -0.5266 -0.0520
 1340poe     o2 7433   3.174   4.388   3.683 -0.7868  0.2165  0.6839
 1340poe    c23 7434   3.139   4.275   3.759  0.1398 -0.7413 -0.2882
 1340poe    c23 7435   2.987   4.251   3.766 -0.0080  0.2112 -0.1156
 1340poe     o2 7436   2.944   4.243   3.632 -0.2267  0.1179 -0.0398
 1340poe    c23 7437   2.809   4.201   3.630 -0.0804 -0.3478 -0.2598
 1340poe    c23 7438   2.730   4.196   3.497 -0.1378 -0.4657 -0.2222
 1340poe     o2 7439   2.735   4.330   3.453 -0.4059 -0.2745  0.3160
 1340poe    c31 7440   2.679   4.328   3.324  0.6099  0.8513 -0.1625
 1341poe    c31 7441   0.728   4.896   2.260 -0.3980 -0.2260 -0.0004
 1341poe     o2 7442   0.696   4.927   2.127  0.4721  0.2025 -0.1141
 1341poe    c23 7443   0.754   4.835   2.037  0.4400  0.1950 -0.1271
 1341poe    c23 7444   0.753   4.890   1.893 -0.3118  0.5087 -0.0104
 1341poe     o2 7445   0.620   4.924   1.861 -0.3451  0.0890 -0.3435
 1341poe    c23 7446   0.611   4.978   1.731 -0.0456  0.7856 -0.0836
 1341poe    c23 7447   0.460   5.000   1.712 -0.1569  0.1013 -0.0195
 1341poe     o2 7448   0.404   5.052   1.831  0.2852 -0.0493  0.2557
 1341poe    c23 7449   0.274   5.100   1.807  0.3367  0.1641  0.3967
 1341poe    c23 7450   0.218   5.214   1.893 -0.0265  0.3587 -0.0965
 1341poe     o2 7451   0.297   5.331   1.892  0.0713  0.2928 -0.3319
 1341poe    c31 7452   0.238   5.430   1.811  0.5104  0.3787 -0.5449
 1342poe    c31 7453   6.496   4.964   3.241 -0.5410 -0.4782  0.3201
 1342poe     o2 7454   6.430   5.082   3.282 -0.3355 -0.2904  0.1173
 1342poe    c23 7455   6.449   5.188   3.191  0.7311 -0.0545  0.6057
 1342poe    c23 7456   6.566   5.282   3.226  0.9080  0.0263 -0.1839
 1342poe     o2 7457   6.541   5.362   3.340  0.0411 -0.5204  0.0136
 1342poe    c23 7458   6.623   5.475   3.328 -0.6816 -0.0952 -1.1385
 1342poe    c23 7459   6.551   5.590   3.400  0.2997 -0.2471  0.1405
 1342poe     o2 7460   6.521   5.567   3.536 -0.6462  0.1744  0.0167
 1342poe    c23 7461   6.430   5.652   3.601 -0.8227  0.1755 -0.2335
 1342poe    c23 7462   6.423   5.630   3.753 -0.0349 -0.0042 -0.2212
 1342poe     o2 7463   6.418   5.491   3.778  0.9198 -0.0123 -0.0341
 1342poe    c31 7464   6.352   5.451   3.896  0.5102  0.1560 -0.2049
 1343poe    c31 7465   3.064   2.716   4.125  0.7361  0.0104  0.6520
 1343poe     o2 7466   2.989   2.762   4.235  0.3325  0.6502  0.1186
 1343poe    c23 7467   2.976   2.675   4.345  0.0286  0.0325 -0.4009
 1343poe    c23 7468   2.867   2.719   4.444 -0.0474 -0.0678 -0.4407
 1343poe     o2 7469   2.864   2.860   4.443 -0.6382 -0.0818 -0.8868
 1343poe    c23 7470   2.757   2.902   4.525  0.0198  0.3178 -0.2207
 1343poe    c23 7471   2.750   3.055   4.535 -0.7761  0.2783 -0.1036
 1343poe     o2 7472   2.748   3.080   4.396 -0.5447 -0.1752 -0.1909
 1343poe    c23 7473   2.752   3.221   4.404  0.3015 -0.1830 -0.3459
 1343poe    c23 7474   2.793   3.286   4.271  0.1195  0.2032 -0.2140
 1343poe     o2 7475   2.715   3.237   4.164  0.0198  0.1600 -0.1209
 1343poe    c31 7476   2.717   3.314   4.046 -0.2392  0.4911  0.0878
 1344poe    c31 7477   6.660   6.294   6.449  0.0069  0.4483  0.4009
 1344poe     o2 7478   6.739   6.178   6.461 -0.8414 -0.1919 -0.1319
 1344poe    c23 7479   6.668   6.075   6.526  0.0917 -0.5583  0.3274
 1344poe    c23 7480   6.785   5.976   6.538  0.4765 -0.0848  0.5044
 1344poe     o2 7481   6.852   5.962   6.414  0.5605  0.3158  0.5053
 1344poe    c23 7482   6.959   5.870   6.411 -0.0718 -0.4209  0.4853
 1344poe    c23 7483   6.996   5.871   6.262 -0.4395  0.2788  0.3922
 1344poe     o2 7484   6.988   6.000   6.207  1.0906  0.4901  0.6176
 1344poe    c23 7485   7.016   5.994   6.069  1.0960  0.0901  0.6365
 1344poe    c23 7486   7.028   6.132   6.002  0.0791  0.1294  0.5244
 1344poe     o2 7487   6.897   6.171   5.969 -0.1819 -0.5423  0.7409
 1344poe    c31 7488   6.888   6.312   5.967  0.0483 -0.5342  0.2347
 1345poe    c31 7489   1.545   4.301   2.445 -0.1698  0.3682 -0.2413
 1345poe     o2 7490   1.484   4.423   2.481 -0.8924 -0.0873  0.1057
 1345poe    c23 7491   1.527   4.466   2.608  0.1060  0.4131 -0.3875
 1345poe    c23 7492   1.423   4.554   2.680 -0.2010 -0.3456  0.1101
 1345poe     o2 7493   1.412   4.668   2.598 -0.1105 -0.2319  0.2550
 1345poe    c23 7494   1.342   4.768   2.667 -0.4030 -0.0939 -0.2324
 1345poe    c23 7495   1.310   4.898   2.592  0.2531  0.0117 -0.3328
 1345poe     o2 7496   1.204   4.871   2.504 -0.7081  1.1449  0.4489
 1345poe    c23 7497   1.221   4.932   2.378  0.1654  0.1082  0.0506
 1345poe    c23 7498   1.110   4.887   2.281 -0.1885  0.4209  0.3081
 1345poe     o2 7499   1.111   4.747   2.262 -0.0100  0.4235  0.3026
 1345poe    c31 7500   1.081   4.710   2.130  0.3118  1.0829  0.0389
 1346poe    c31 7501   2.051   0.804   2.098  0.3114  0.2566 -0.2737
 1346poe     o2 7502   1.995   0.883   2.200 -0.2589  0.0787 -0.4443
 1346poe    c23 7503   1.994   1.023   2.182  0.2813  0.1328 -0.0879
 1346poe    c23 7504   1.957   1.093   2.314 -0.2617 -0.0042 -0.1635
 1346poe     o2 7505   1.840   1.027   2.358 -0.3296  0.0774 -0.2208
 1346poe    c23 7506   1.780   1.047   2.483 -0.2979 -0.2119 -0.1586
 1346poe    c23 7507   1.863   0.968   2.586  0.1670  0.0851 -0.3048
 1346poe     o2 7508   1.896   0.844   2.527  0.0360 -0.1334  0.0801
 1346poe    c23 7509   1.989   0.776   2.607 -0.0522 -0.4893 -0.1173
 1346poe    c23 7510   2.004   0.636   2.544  0.3159 -0.5506  0.0983
 1346poe     o2 7511   1.987   0.637   2.404 -0.1225 -0.0386  0.1540
 1346poe    c31 7512   2.010   0.507   2.355  0.9231  0.1295  0.1810
 1347poe    c31 7513   0.144   1.174   3.812  0.3109 -0.1750  0.6218
 1347poe     o2 7514   0.164   1.311   3.782 -0.0954 -0.2627 -0.0758
 1347poe    c23 7515   0.286   1.327   3.714 -0.1521 -0.0157 -0.1221
 1347poe    c23 7516   0.339   1.469   3.739  0.2019 -0.2666  0.5865
 1347poe     o2 7517   0.224   1.551   3.729  0.3065 -0.2530 -0.6427
 1347poe    c23 7518   0.240   1.688   3.761 -0.6127 -0.3514  0.2806
 1347poe    c23 7519   0.105   1.762   3.757 -0.3257  0.1882  0.4956
 1347poe     o2 7520   0.026   1.694   3.851  0.5045 -0.0912  0.9971
 1347poe    c23 7521  -0.065   1.790   3.898 -0.0209  0.2012 -0.5649
 1347poe    c23 7522  -0.173   1.718   3.981  0.5398 -0.1157 -0.1036
 1347poe     o2 7523  -0.249   1.637   3.895 -0.3285  0.4198  0.1508
 1347poe    c31 7524  -0.288   1.530   3.979  0.6320  0.0471  0.1325
 1348poe    c31 7525   0.725   2.614   3.624  0.4789 -0.4802 -1.4977
 1348poe     o2 7526   0.856   2.657   3.649  0.2623 -0.4241 -0.4095
 1348poe    c23 7527   0.887   2.648   3.786  0.3361  0.5691 -0.3525
 1348poe    c23 7528   1.039   2.628   3.805  0.2930  0.5373 -0.0263
 1348poe     o2 7529   1.093   2.734   3.729  0.2127  0.8233  0.3155
 1348poe    c23 7530   1.230   2.717   3.699  0.1420 -0.2704  0.5513
 1348poe    c23 7531   1.259   2.820   3.588 -0.2914 -0.0359  0.6542
 1348poe     o2 7532   1.136   2.828   3.519  0.0282 -0.0811  0.0799
 1348poe    c23 7533   1.142   2.895   3.395 -0.4932  1.0601  0.6646
 1348poe    c23 7534   1.029   2.835   3.309  0.0505  0.9711  0.0099
 1348poe     o2 7535   0.904   2.832   3.373  0.0289  0.3783 -0.0499
 1348poe    c31 7536   0.803   2.856   3.277 -0.2882 -0.1438  0.1497
 1349poe    c31 7537   0.473   6.252   2.170 -1.1638 -0.1295  0.4286
 1349poe     o2 7538   0.589   6.196   2.226 -0.6668  0.4306 -0.0246
 1349poe    c23 7539   0.625   6.261   2.346 -0.0060  0.3705 -0.1844
 1349poe    c23 7540   0.777   6.269   2.373 -0.0586  0.1975  0.1789
 1349poe     o2 7541   0.825   6.144   2.415 -0.0628  0.3737  0.7129
 1349poe    c23 7542   0.956   6.149   2.469  0.2236  0.1113  0.0566
 1349poe    c23 7543   1.006   6.005   2.488  0.2347  0.0630 -0.3233
 1349poe     o2 7544   0.978   5.920   2.380 -0.1885  0.4484 -0.5203
 1349poe    c23 7545   1.032   5.790   2.387 -0.0911  0.4831 -0.6314
 1349poe    c23 7546   1.019   5.721   2.250  0.0072  0.1866 -0.4926
 1349poe     o2 7547   0.894   5.758   2.195 -0.7641 -0.6190  0.6752
 1349poe    c31 7548   0.858   5.685   2.080 -0.4283  0.2398  0.0140
 1350poe    c31 7549   3.222   6.270   1.769 -0.7200 -0.7237 -0.4160
 1350poe     o2 7550   3.189   6.367   1.865  0.2131 -0.7927 -0.0126
 1350poe    c23 7551   3.050   6.368   1.889  0.3294 -0.5259  0.6929
 1350poe    c23 7552   2.998   6.480   1.981 -0.2547  0.0898 -0.3743
 1350poe     o2 7553   3.101   6.472   2.076 -0.5800  0.0674 -0.0205
 1350poe    c23 7554   3.077   6.564   2.180  0.3851 -0.0623  0.3318
 1350poe    c23 7555   3.156   6.492   2.291  0.1427 -0.4069  0.2818
 1350poe     o2 7556   3.285   6.467   2.239 -0.0537  0.3190 -0.5876
 1350poe    c23 7557   3.372   6.463   2.350 -0.4473 -0.0273 -0.2848
 1350poe    c23 7558   3.508   6.397   2.319 -0.1031  0.7243 -0.4041
 1350poe     o2 7559   3.497   6.262   2.280  0.9241  0.4115  0.3574
 1350poe    c31 7560   3.613   6.196   2.234  0.2871 -0.5967  0.1635
 1351poe    c31 7561   5.273   6.716   4.671 -0.2988 -0.3230 -0.0476
 1351poe     o2 7562   5.276   6.821   4.577  0.1717  0.1102  0.4492
 1351poe    c23 7563   5.159   6.859   4.509  0.6851  0.0753 -0.4742
 1351poe    c23 7564   5.196   6.875   4.361  0.6697  0.2113 -0.4635
 1351poe     o2 7565   5.323   6.935   4.350  0.6159  0.6204  0.9384
 1351poe    c23 7566   5.328   7.019   4.237  0.3437 -0.0918  0.3866
 1351poe    c23 7567   5.472   7.070   4.214  0.3554 -0.1472  0.3367
 1351poe     o2 7568   5.508   7.128   4.338  0.0325  0.4056  0.1771
 1351poe    c23 7569   5.629   7.200   4.332  0.0134  0.4006 -0.3868
 1351poe    c23 7570   5.638   7.301   4.448  0.5375 -0.3382  0.2250
 1351poe     o2 7571   5.628   7.241   4.575 -0.5064  0.1379  0.3730
 1351poe    c31 7572   5.585   7.335   4.671  0.1871  0.3117  0.5139
 1352poe    c31 7573   2.492   1.964   6.141 -0.7151  0.0949  0.5689
 1352poe     o2 7574   2.386   1.933   6.053 -0.0413  0.2609 -0.3142
 1352poe    c23 7575   2.366   2.041   5.964  0.0147  0.1988 -0.4016
 1352poe    c23 7576   2.241   2.012   5.878 -0.1924  0.2032 -0.1023
 1352poe     o2 7577   2.129   1.987   5.960 -0.2960 -0.0377 -0.3177
 1352poe    c23 7578   2.013   1.992   5.879 -0.5550  0.3014  0.0679
 1352poe    c23 7579   1.889   1.982   5.970 -0.4853 -0.3102  0.1040
 1352poe     o2 7580   1.889   1.858   6.038 -0.1527 -0.1776  0.3519
 1352poe    c23 7581   1.786   1.864   6.134 -0.1429  0.2752  0.3390
 1352poe    c23 7582   1.818   1.742   6.223  0.3987  0.4865  0.4412
 1352poe     o2 7583   1.950   1.754   6.271  0.3652  0.7713  0.4632
 1352poe    c31 7584   1.950   1.690   6.397  0.4767  0.1742  0.1623
 1353poe    c31 7585   6.241   0.758   2.158 -0.0273 -0.3679 -0.1783
 1353poe     o2 7586   6.332   0.821   2.071 -0.0930 -0.3327 -0.2216
 1353poe    c23 7587   6.456   0.852   2.130  0.0073 -0.1964 -0.4995
 1353poe    c23 7588   6.538   0.947   2.041  0.0589  0.2827  0.0528
 1353poe     o2 7589   6.569   0.879   1.922 -0.0245 -0.0816  0.2379
 1353poe    c23 7590   6.669   0.944   1.847 -0.2956 -0.0497 -0.0978
 1353poe    c23 7591   6.715   0.844   1.739 -0.2518 -0.5738  0.3981
 1353poe     o2 7592   6.601   0.811   1.663 -0.2549 -0.2836  0.2757
 1353poe    c23 7593   6.644   0.718   1.566  0.0226  0.2675 -0.1409
 1353poe    c23 7594   6.533   0.673   1.469  0.0036 -0.2957  0.1350
 1353poe     o2 7595   6.422   0.625   1.541  0.0363 -0.5274  0.0302
 1353poe    c31 7596   6.353   0.540   1.452 -0.0895 -0.2369 -0.1523
 1354poe    c31 7597   6.759   5.297   2.606  0.6915  0.6682 -0.3005
 1354poe     o2 7598   6.738   5.226   2.485 -0.1402  0.1167  0.1556
 1354poe    c23 7599   6.768   5.317   2.381 -0.0350 -0.0074  0.0784
 1354poe    c23 7600   6.749   5.243   2.248 -0.0868 -0.0787  0.1250
 1354poe     o2 7601   6.785   5.109   2.273 -0.0634  0.0109  0.5646
 1354poe    c23 7602   6.739   5.014   2.180  0.3767  0.3096  0.0355
 1354poe    c23 7603   6.792   4.873   2.213  0.1865  0.3201  0.3867
 1354poe     o2 7604   6.723   4.821   2.325  0.1315 -0.6146 -0.0730
 1354poe    c23 7605   6.784   4.712   2.390 -0.2465 -0.5310  0.4260
 1354poe    c23 7606   6.673   4.627   2.455 -0.2893 -0.2245  0.7562
 1354poe     o2 7607   6.601   4.709   2.545 -0.3556  0.2697  0.2594
 1354poe    c31 7608   6.529   4.629   2.635  0.0651 -0.9366 -0.4484
 1355poe    c31 7609   5.658   0.904   5.635  0.0420  0.7796 -0.5863
 1355poe     o2 7610   5.713   0.881   5.508 -0.1071 -0.1975 -0.4855
 1355poe    c23 7611   5.846   0.923   5.484 -0.1111  0.0003 -0.1660
 1355poe    c23 7612   5.921   0.834   5.384  0.2341 -0.2183  0.2840
 1355poe     o2 7613   5.830   0.816   5.277  0.8021  0.2321 -0.2876
 1355poe    c23 7614   5.859   0.722   5.176  0.1190 -0.5316  0.2205
 1355poe    c23 7615   5.744   0.698   5.077  0.2615 -0.8562  0.1328
 1355poe     o2 7616   5.618   0.706   5.140  0.2137 -0.3711 -0.0191
 1355poe    c23 7617   5.518   0.677   5.045  0.2432 -0.0653 -0.1421
 1355poe    c23 7618   5.384   0.698   5.118  0.2402  0.1405 -0.2042
 1355poe     o2 7619   5.343   0.833   5.125  0.3622  0.1447  0.4924
 1355poe    c31 7620   5.218   0.838   5.190 -0.0430  0.0705 -0.2610
 1356poe    c31 7621   5.294   6.119   2.971 -0.1162 -0.2410  0.2457
 1356poe     o2 7622   5.155   6.112   2.988 -0.0649 -0.4534  0.6026
 1356poe    c23 7623   5.109   5.983   2.955 -0.1590 -0.3461  0.3048
 1356poe    c23 7624   4.955   5.977   2.953 -0.1755  0.1726 -0.0873
 1356poe     o2 7625   4.912   6.111   2.946  0.1878  0.2857 -0.1901
 1356poe    c23 7626   4.772   6.112   2.930  0.1312 -0.1290  0.2469
 1356poe    c23 7627   4.720   6.256   2.949 -0.0807 -0.1145 -0.4202
 1356poe     o2 7628   4.768   6.302   3.073 -0.1536  0.0008 -0.4343
 1356poe    c23 7629   4.705   6.420   3.117 -0.0497  0.1659 -0.7292
 1356poe    c23 7630   4.762   6.490   3.242  0.2015 -0.3067 -0.5754
 1356poe     o2 7631   4.892   6.545   3.237 -0.1876  0.6984  0.0513
 1356poe    c31 7632   4.932   6.602   3.359  0.7501 -0.1925  0.1745
 1357poe    c31 7633   6.565   3.976   0.748 -0.2606 -0.1998  0.1510
 1357poe     o2 7634   6.592   3.897   0.862 -0.0859 -0.6361 -0.1904
 1357poe    c23 7635   6.731   3.917   0.880 -0.0937 -0.3255 -0.4568
 1357poe    c23 7636   6.761   3.862   1.021 -0.4160 -0.1318 -0.3111
 1357poe     o2 7637   6.697   3.737   1.030 -0.2933 -0.1989 -0.3686
 1357poe    c23 7638   6.674   3.706   1.165 -0.1354  0.2574 -0.2374
 1357poe    c23 7639   6.603   3.569   1.162  0.2069  0.0622  0.2802
 1357poe     o2 7640   6.490   3.595   1.081  0.2403  0.4162  0.3446
 1357poe    c23 7641   6.400   3.487   1.092  0.5408  0.1660  0.3391
 1357poe    c23 7642   6.257   3.536   1.118  0.7072  0.6490  0.3444
 1357poe     o2 7643   6.210   3.635   1.029  0.6408  0.9323  0.6904
 1357poe    c31 7644   6.070   3.652   1.025  0.5512  0.1268 -0.1347
 1358poe    c31 7645   1.786   1.571   4.487  0.2096  0.3317 -0.1251
 1358poe     o2 7646   1.772   1.450   4.415  0.3668  0.0786  0.2684
 1358poe    c23 7647   1.779   1.481   4.278  0.4695 -0.3753  0.1684
 1358poe    c23 7648   1.731   1.363   4.191 -0.0722  0.1028 -0.1874
 1358poe     o2 7649   1.590   1.352   4.193 -0.0682  0.0736 -0.0629
 1358poe    c23 7650   1.548   1.246   4.110  0.0520  0.1909 -0.2759
 1358poe    c23 7651   1.417   1.190   4.169  0.0418  0.1046 -0.3804
 1358poe     o2 7652   1.344   1.301   4.216 -0.1467  0.0282 -0.4905
 1358poe    c23 7653   1.206   1.275   4.230 -0.0518 -0.2626 -0.0613
 1358poe    c23 7654   1.118   1.389   4.283  0.2683  0.1747 -0.4621
 1358poe     o2 7655   1.174   1.428   4.407 -0.4247 -0.1722 -0.0353
 1358poe    c31 7656   1.070   1.483   4.485 -0.2480 -0.4503  0.3982
 1359poe    c31 7657   2.462   0.731   3.383  0.5700  0.5625  0.2580
 1359poe     o2 7658   2.392   0.795   3.279  0.0337 -0.1643  0.1602
 1359poe    c23 7659   2.392   0.934   3.303 -1.0493 -0.2380  0.6099
 1359poe    c23 7660   2.310   1.009   3.196 -0.1461  0.7531  0.6006
 1359poe     o2 7661   2.187   0.940   3.192  0.5214 -0.4252 -0.4649
 1359poe    c23 7662   2.096   1.020   3.121  0.4340 -0.6007 -0.5495
 1359poe    c23 7663   1.970   0.933   3.103 -0.0180 -0.1608  0.4536
 1359poe     o2 7664   1.990   0.814   3.032  0.4549 -0.1165  0.5100
 1359poe    c23 7665   1.873   0.736   3.038  0.1800  0.3117  0.7485
 1359poe    c23 7666   1.887   0.585   3.006 -0.1033  0.4053  0.1668
 1359poe     o2 7667   1.946   0.515   3.113 -0.4508  0.2711  0.2739
 1359poe    c31 7668   1.896   0.385   3.096  0.0878  0.1340 -0.2781
 1360poe    c31 7669   6.632   4.367   6.349  0.3832  0.1416 -0.4716
 1360poe     o2 7670   6.548   4.473   6.307 -0.4313 -0.2271  0.1993
 1360poe    c23 7671   6.428   4.424   6.253 -0.3683  0.1216 -0.2652
 1360poe    c23 7672   6.314   4.521   6.291 -0.4688 -0.0076 -0.2323
 1360poe     o2 7673   6.232   4.480   6.398 -0.1426 -0.0461  0.0060
 1360poe    c23 7674   6.128   4.388   6.375 -0.0871 -0.1886  0.3283
 1360poe    c23 7675   6.039   4.386   6.501 -0.2491 -0.2099  0.2142
 1360poe     o2 7676   6.106   4.435   6.615 -0.1523 -0.4490  0.2616
 1360poe    c23 7677   6.027   4.436   6.732 -0.2675 -0.2440  0.1844
 1360poe    c23 7678   6.095   4.512   6.847 -0.0979  0.0674 -0.1189
 1360poe     o2 7679   6.122   4.643   6.803  0.3115  0.0629  0.1126
 1360poe    c31 7680   6.188   4.710   6.907 -0.0133  0.4042  0.0985
 1361poe    c31 7681   3.330   3.248   2.340  0.3581  0.5185 -0.3676
 1361poe     o2 7682   3.448   3.231   2.266 -0.3605  0.0361 -1.4333
 1361poe    c23 7683   3.440   3.117   2.183 -0.7076 -0.5929 -0.5518
 1361poe    c23 7684   3.558   3.102   2.085 -0.3404 -0.3871 -0.1462
 1361poe     o2 7685   3.667   3.157   2.154 -0.5127  0.0038 -0.1783
 1361poe    c23 7686   3.774   3.163   2.062 -0.3031 -0.0142  0.0623
 1361poe    c23 7687   3.889   3.243   2.126 -0.4209  0.4321 -0.2864
 1361poe     o2 7688   3.854   3.373   2.169  0.1552  0.2590  0.7332
 1361poe    c23 7689   3.966   3.438   2.223  0.4821  0.3028  0.0163
 1361poe    c23 7690   3.916   3.569   2.287 -0.3899 -0.1327  0.2345
 1361poe     o2 7691   3.845   3.552   2.408  0.2318 -0.4523  0.5572
 1361poe    c31 7692   3.836   3.666   2.490  0.3106  0.3188 -0.4762
 1362poe    c31 7693   3.200   5.849   1.096 -0.0132 -0.1031 -0.6064
 1362poe     o2 7694   3.297   5.859   1.198  0.0879 -0.3697 -0.6756
 1362poe    c23 7695   3.246   5.892   1.325 -0.1669 -0.2619 -0.8064
 1362poe    c23 7696   3.365   5.886   1.423 -0.6598  1.5336 -0.0548
 1362poe     o2 7697   3.486   5.920   1.359 -0.0069 -0.3225  0.1323
 1362poe    c23 7698   3.581   5.941   1.461  0.1162 -0.0772 -0.0303
 1362poe    c23 7699   3.682   6.049   1.419  0.3871 -0.0195  0.7587
 1362poe     o2 7700   3.734   6.018   1.292 -0.6694  0.7653  0.1105
 1362poe    c23 7701   3.821   6.116   1.241  0.0492  0.2259  0.2697
 1362poe    c23 7702   3.857   6.120   1.091 -0.3938  0.0634  0.1576
 1362poe     o2 7703   3.741   6.132   1.012 -0.5140  0.1110  0.3399
 1362poe    c31 7704   3.778   6.134   0.876 -0.6236  0.6482  0.3191
 1363poe    c31 7705   2.618   2.717   4.052  0.1448 -0.4951  0.0325
 1363poe     o2 7706   2.486   2.667   4.063 -0.0836  0.0852 -0.0280
 1363poe    c23 7707   2.402   2.716   3.962 -0.4754  0.4719  0.4775
 1363poe    c23 7708   2.281   2.623   3.942  0.6292 -0.7705 -0.6205
 1363poe     o2 7709   2.227   2.562   4.056  0.6886 -0.6260 -0.5145
 1363poe    c23 7710   2.110   2.489   4.022  0.2739 -0.0737 -0.2880
 1363poe    c23 7711   2.029   2.464   4.150  0.4280 -0.0815 -0.1913
 1363poe     o2 7712   1.982   2.585   4.205  0.1478 -0.1605 -0.2547
 1363poe    c23 7713   2.002   2.594   4.344 -1.0805  0.2050 -0.0888
 1363poe    c23 7714   1.985   2.730   4.416 -0.2050  0.2828 -0.0138
 1363poe     o2 7715   2.092   2.816   4.383  0.2968 -0.1693  0.4237
 1363poe    c31 7716   2.069   2.946   4.432  0.0938  0.1910 -0.6093
 1364poe    c31 7717   0.562   4.425   0.640 -0.1035  0.4878  0.1112
 1364poe     o2 7718   0.456   4.391   0.727  0.1215 -0.4062  0.0491
 1364poe    c23 7719   0.493   4.393   0.863 -0.0334 -0.1791  0.0881
 1364poe    c23 7720   0.380   4.480   0.921  0.2088  0.4833 -0.4209
 1364poe     o2 7721   0.256   4.433   0.874  0.1259 -0.0069  0.2667
 1364poe    c23 7722   0.159   4.486   0.961  0.3639  0.3278  0.3287
 1364poe    c23 7723   0.023   4.436   0.910  0.7126 -0.1981 -0.0987
 1364poe     o2 7724  -0.009   4.496   0.786  0.2866  0.2066  0.2004
 1364poe    c23 7725  -0.118   4.440   0.716  0.9105 -0.3419 -0.3508
 1364poe    c23 7726  -0.153   4.518   0.588  0.2955 -0.3252 -0.1744
 1364poe     o2 7727  -0.285   4.569   0.593  0.5006  0.1952 -0.0781
 1364poe    c31 7728  -0.346   4.603   0.471  0.2927 -0.1301 -0.0652
 1365poe    c31 7729   3.249   5.196   2.392 -0.0899  0.0981  0.7085
 1365poe     o2 7730   3.127   5.263   2.417 -0.2001  0.0032  0.4285
 1365poe    c23 7731   3.066   5.263   2.290  0.0618 -0.5695  0.3012
 1365poe    c23 7732   2.927   5.317   2.331  0.2411  0.2480 -0.1535
 1365poe     o2 7733   2.874   5.258   2.447 -0.0248 -0.2946 -0.5472
 1365poe    c23 7734   2.749   5.316   2.476  0.3056  0.0159  0.2665
 1365poe    c23 7735   2.687   5.230   2.588 -0.4171  0.1875  0.0008
 1365poe     o2 7736   2.782   5.208   2.689 -0.0760 -0.1563 -0.3933
 1365poe    c23 7737   2.742   5.107   2.779  0.1081  0.1793  0.0677
 1365poe    c23 7738   2.850   5.095   2.887  0.1452 -0.1567 -0.0051
 1365poe     o2 7739   2.857   5.212   2.967  0.4531 -0.2123  0.0498
 1365poe    c31 7740   2.918   5.207   3.094  0.6514  0.3467 -0.0228
 1366poe    c31 7741   1.225   0.304   3.132 -0.0911  0.0419  0.6374
 1366poe     o2 7742   1.107   0.286   3.057  0.1998 -0.2790  0.2534
 1366poe    c23 7743   1.135   0.213   2.939  0.0174 -0.3760  0.2699
 1366poe    c23 7744   1.000   0.164   2.882  0.1769  0.3010 -0.7147
 1366poe     o2 7745   0.931   0.069   2.960  0.5051  0.1780 -0.5691
 1366poe    c23 7746   0.814   0.030   2.892  0.0185 -0.2845  0.5065
 1366poe    c23 7747   0.713  -0.037   2.987 -0.4106  0.5806  0.6756
 1366poe     o2 7748   0.801  -0.119   3.061 -0.0571  0.3255 -0.0197
 1366poe    c23 7749   0.724  -0.169   3.168  0.4326 -0.2970  0.0481
 1366poe    c23 7750   0.819  -0.258   3.251  0.2594 -0.5136  0.0151
 1366poe     o2 7751   0.942  -0.190   3.255  0.0669 -0.1391 -0.3702
 1366poe    c31 7752   1.034  -0.263   3.333  0.3937  0.2201 -0.4163
 1367poe    c31 7753   5.907   4.462   2.289  0.3964 -0.0766 -0.6693
 1367poe     o2 7754   5.944   4.341   2.227 -0.1094 -0.6282  0.0875
 1367poe    c23 7755   6.013   4.254   2.315  0.1339  0.1202  0.6466
 1367poe    c23 7756   6.090   4.150   2.231 -0.1695  0.0767  0.4214
 1367poe     o2 7757   6.012   4.060   2.155  0.1979  0.0727  0.0459
 1367poe    c23 7758   6.078   3.955   2.089 -0.2352 -0.2540  0.1345
 1367poe    c23 7759   5.980   3.864   2.012 -0.3827  0.1656 -0.1762
 1367poe     o2 7760   5.902   3.949   1.930 -0.0262  0.1204 -0.5685
 1367poe    c23 7761   5.824   3.878   1.836 -0.3597 -0.4837  0.1498
 1367poe    c23 7762   5.756   3.978   1.741  0.3318  0.0028  0.1596
 1367poe     o2 7763   5.717   4.093   1.812  0.2988 -0.1348  0.3644
 1367poe    c31 7764   5.590   4.135   1.766  0.3403  0.2118  0.5589
 1368poe    c31 7765   3.470   2.498   0.388 -0.5452  0.4527 -0.4988
 1368poe     o2 7766   3.488   2.506   0.527 -0.1542 -0.0884 -0.5117
 1368poe    c23 7767   3.378   2.564   0.594  0.2252  0.2199 -0.1506
 1368poe    c23 7768   3.399   2.570   0.746  0.2375 -0.8974 -0.1015
 1368poe     o2 7769   3.534   2.602   0.772  0.0061 -0.0478  0.0936
 1368poe    c23 7770   3.551   2.622   0.911  0.2089 -0.5234  0.1396
 1368poe    c23 7771   3.697   2.659   0.942  0.0731  0.5738 -0.4688
 1368poe     o2 7772   3.781   2.559   0.889 -0.0083  0.4199 -0.3118
 1368poe    c23 7773   3.913   2.608   0.872  0.2077 -0.0828 -0.1075
 1368poe    c23 7774   3.995   2.521   0.776 -0.3672 -0.4013 -0.3135
 1368poe     o2 7775   3.957   2.537   0.641  0.0892  0.7778 -0.3064
 1368poe    c31 7776   4.027   2.439   0.566  0.1072  0.7954 -0.3130
 1369poe    c31 7777   2.909   3.732   6.990 -0.3184  0.7497 -0.2795
 1369poe     o2 7778   3.045   3.768   6.996 -0.1411  0.0499 -0.0194
 1369poe    c23 7779   3.064   3.878   7.082  0.3228 -0.0904  0.0627
 1369poe    c23 7780   3.189   3.960   7.047 -0.0030  0.0807 -0.7255
 1369poe     o2 7781   3.306   3.880   7.049 -0.1015 -0.0655  0.7076
 1369poe    c23 7782   3.356   3.830   7.171 -0.0635 -0.5912  0.4769
 1369poe    c23 7783   3.503   3.799   7.140  0.0899  0.2108  0.3826
 1369poe     o2 7784   3.517   3.736   7.014 -0.0003  0.6904  0.1281
 1369poe    c23 7785   3.652   3.718   6.977 -0.1645 -0.2678 -0.0377
 1369poe    c23 7786   3.650   3.628   6.852 -0.3175 -0.3359  0.0131
 1369poe     o2 7787   3.536   3.675   6.784  0.1898  0.5210 -0.2574
 1369poe    c31 7788   3.530   3.603   6.663 -0.8047 -0.1912  0.2078
 1370poe    c31 7789   6.825   5.904   3.268  0.4198  0.4359 -0.8945
 1370poe     o2 7790   6.715   5.984   3.232 -0.0128  0.1075 -0.3148
 1370poe    c23 7791   6.645   6.031   3.346 -0.0509 -0.3398 -0.1538
 1370poe    c23 7792   6.516   6.108   3.314  0.1256  0.0175 -0.0035
 1370poe     o2 7793   6.539   6.224   3.237  0.2628  0.6835  1.0227
 1370poe    c23 7794   6.417   6.288   3.205  0.2986  0.1517 -0.2364
 1370poe    c23 7795   6.416   6.391   3.090 -0.3034  0.0871 -0.2921
 1370poe     o2 7796   6.448   6.335   2.964  0.5360 -0.2201  0.0520
 1370poe    c23 7797   6.507   6.423   2.871 -0.4449  0.3534 -0.0382
 1370poe    c23 7798   6.527   6.359   2.732  0.0767 -0.2190  0.2969
 1370poe     o2 7799   6.563   6.225   2.758  0.4771 -0.1644  0.0427
 1370poe    c31 7800   6.637   6.180   2.647 -0.1482 -0.2033 -0.3610
 1371poe    c31 7801   4.700   2.875   5.661  0.1057 -0.3052  0.5884
 1371poe     o2 7802   4.816   2.822   5.600  0.0194  0.0837  0.0761
 1371poe    c23 7803   4.825   2.863   5.465  0.1647  0.0389  0.0726
 1371poe    c23 7804   4.962   2.804   5.425  0.0968 -0.1726  0.1498
 1371poe     o2 7805   4.954   2.672   5.475 -0.2797 -0.3830 -0.4558
 1371poe    c23 7806   5.062   2.617   5.403 -0.2175 -0.2708 -0.4487
 1371poe    c23 7807   5.088   2.472   5.450 -0.2215 -0.0209  0.3450
 1371poe     o2 7808   5.081   2.477   5.591  0.0708  0.2001  0.3524
 1371poe    c23 7809   5.091   2.345   5.640 -0.4676 -0.1492 -0.4506
 1371poe    c23 7810   5.099   2.359   5.793  0.2654  0.2610 -0.5205
 1371poe     o2 7811   4.976   2.402   5.849 -0.0734 -0.7951 -0.4376
 1371poe    c31 7812   4.989   2.402   5.990 -0.3675 -0.0687 -0.4057
 1372poe    c31 7813   3.198   5.193   0.795 -0.2760 -0.4815 -0.6604
 1372poe     o2 7814   3.210   5.257   0.670 -0.3132  0.2890 -0.2774
 1372poe    c23 7815   3.112   5.358   0.665 -0.1474  0.4925  0.4658
 1372poe    c23 7816   3.096   5.412   0.522 -0.5877  0.2817  0.4326
 1372poe     o2 7817   3.221   5.404   0.457 -0.5636  0.2367  0.4836
 1372poe    c23 7818   3.211   5.420   0.317  1.0148  0.9051  0.4335
 1372poe    c23 7819   3.352   5.412   0.255  0.6372  0.3178 -0.3625
 1372poe     o2 7820   3.411   5.305   0.323 -0.3724 -0.0263 -0.0107
 1372poe    c23 7821   3.544   5.278   0.283 -0.4985  0.2747 -0.6425
 1372poe    c23 7822   3.540   5.163   0.181  0.5282 -0.4205  0.0794
 1372poe     o2 7823   3.505   5.036   0.233  0.2518 -0.4250 -0.1168
 1372poe    c31 7824   3.482   4.944   0.129 -0.5064 -0.1789 -0.1762
 1373poe    c31 7825   4.072   5.166   0.500 -0.1896  0.4057 -0.3862
 1373poe     o2 7826   4.089   5.166   0.640  0.0505  0.3946 -0.4156
 1373poe    c23 7827   4.221   5.190   0.683  0.0587  0.7253 -0.6296
 1373poe    c23 7828   4.215   5.245   0.826 -0.1881  0.1520 -0.4172
 1373poe     o2 7829   4.137   5.166   0.913  0.3191 -0.2085 -0.2843
 1373poe    c23 7830   4.202   5.066   0.989  0.1028  0.0514  0.2453
 1373poe    c23 7831   4.081   4.977   1.025 -0.1209  0.1960 -0.1351
 1373poe     o2 7832   4.008   4.965   0.905  0.0984  0.2607 -0.2771
 1373poe    c23 7833   3.886   4.901   0.938  0.2666  0.2453  0.3367
 1373poe    c23 7834   3.827   4.899   0.796  0.4885 -0.1323  0.2502
 1373poe     o2 7835   3.853   5.013   0.717 -0.3095  0.0589  0.2493
 1373poe    c31 7836   3.797   5.001   0.589 -0.1918 -0.4627  0.2417
 1374poe    c31 7837   0.105   6.460   0.444 -0.6796  0.5380 -0.1523
 1374poe     o2 7838  -0.000   6.419   0.529 -0.4667  0.0913 -0.0987
 1374poe    c23 7839  -0.022   6.516   0.629  0.1669  0.1851 -0.0469
 1374poe    c23 7840  -0.119   6.629   0.591  0.0553  0.0833 -0.0656
 1374poe     o2 7841  -0.240   6.589   0.531 -0.0372  0.1582  0.0682
 1374poe    c23 7842  -0.322   6.699   0.498 -0.5023 -0.2378 -0.1154
 1374poe    c23 7843  -0.448   6.650   0.425 -0.9169  0.0789  0.3820
 1374poe     o2 7844  -0.539   6.580   0.509 -0.3833 -0.5749  0.4267
 1374poe    c23 7845  -0.661   6.549   0.446 -0.3992  0.1289  0.0941
 1374poe    c23 7846  -0.681   6.399   0.472  0.4643 -0.0144 -0.0471
 1374poe     o2 7847  -0.715   6.375   0.607  0.0659 -0.5741 -0.2407
 1374poe    c31 7848  -0.819   6.279   0.604 -0.5638  0.0986 -0.3015
 1375poe    c31 7849   0.077   0.760   2.469  0.2206  0.5169 -0.3469
 1375poe     o2 7850   0.151   0.642   2.448 -0.0880  0.2200  0.1968
 1375poe    c23 7851   0.267   0.665   2.371 -0.3443 -0.8258 -0.5185
 1375poe    c23 7852   0.337   0.530   2.345  0.2250 -0.5332 -0.5358
 1375poe     o2 7853   0.298   0.445   2.451 -0.4435  0.1129 -0.2527
 1375poe    c23 7854   0.358   0.319   2.430  0.0018  0.4125 -0.8008
 1375poe    c23 7855   0.336   0.235   2.557 -0.0673  0.4435 -0.7922
 1375poe     o2 7856   0.204   0.266   2.597  0.0168 -0.7424  0.4692
 1375poe    c23 7857   0.140   0.151   2.647 -0.2854 -0.7954 -0.0332
 1375poe    c23 7858   0.031   0.200   2.744 -0.1076 -0.3037 -0.0781
 1375poe     o2 7859  -0.076   0.274   2.690 -0.2798 -0.1615  0.4532
 1375poe    c31 7860  -0.199   0.268   2.759 -0.8321  0.3636 -0.4675
 1376poe    c31 7861   6.622   2.376   3.976 -0.2123 -0.5144  0.5245
 1376poe     o2 7862   6.655   2.345   3.842 -0.0421 -0.3261  0.5222
 1376poe    c23 7863   6.664   2.464   3.767  0.2791 -0.4096  0.4299
 1376poe    c23 7864   6.636   2.441   3.617 -0.3587  0.0980  0.4727
 1376poe     o2 7865   6.500   2.412   3.589 -0.0107 -1.1493  0.0130
 1376poe    c23 7866   6.504   2.398   3.449 -0.1727  0.0265 -0.1240
 1376poe    c23 7867   6.382   2.322   3.396 -0.4333 -0.0886  0.6369
 1376poe     o2 7868   6.365   2.205   3.474 -0.2686 -0.2876  0.3752
 1376poe    c23 7869   6.275   2.117   3.410  0.0762 -0.2074 -0.2258
 1376poe    c23 7870   6.253   1.999   3.505 -0.2231  0.0271 -0.0025
 1376poe     o2 7871   6.250   2.056   3.634 -0.2532 -0.4067  0.1925
 1376poe    c31 7872   6.209   1.968   3.736 -0.2481 -0.2206  0.3554
 1377poe    c31 7873   0.582   1.186   5.698 -0.3693 -0.2672  0.1748
 1377poe     o2 7874   0.546   1.074   5.775  0.7964 -0.5415  0.3344
 1377poe    c23 7875   0.583   1.104   5.908  0.6460 -0.2597  0.3128
 1377poe    c23 7876   0.502   1.010   5.999  0.0259  0.0883  0.1286
 1377poe     o2 7877   0.374   0.994   5.943 -0.0885  0.6648  0.2224
 1377poe    c23 7878   0.326   0.868   5.985  0.7059  0.3710  0.2566
 1377poe    c23 7879   0.217   0.819   5.888  0.6023  0.7936  0.1575
 1377poe     o2 7880   0.292   0.834   5.770 -0.2064  0.1117 -0.4542
 1377poe    c23 7881   0.229   0.811   5.645 -0.6616 -0.6071 -0.0971
 1377poe    c23 7882   0.347   0.815   5.547 -0.1731  0.0610  0.5031
 1377poe     o2 7883   0.406   0.943   5.551 -0.1754  0.0727  0.1854
 1377poe    c31 7884   0.483   0.970   5.435 -0.0482 -0.3026  0.1796
 1378poe    c31 7885   6.001   5.441   6.192 -0.7551  0.2951  0.0212
 1378poe     o2 7886   5.915   5.390   6.292 -0.0586 -0.8852  0.0403
 1378poe    c23 7887   5.813   5.330   6.214 -0.0598 -0.0837 -0.5899
 1378poe    c23 7888   5.702   5.268   6.301  0.0469  0.0924 -0.3269
 1378poe     o2 7889   5.762   5.189   6.401 -0.2181 -0.0931 -0.3172
 1378poe    c23 7890   5.677   5.136   6.501  0.5645  0.0375  0.4236
 1378poe    c23 7891   5.758   5.052   6.602  0.4926 -0.6484 -0.0859
 1378poe     o2 7892   5.845   5.134   6.677  0.2217 -0.7663  0.3595
 1378poe    c23 7893   5.945   5.052   6.733  0.3544 -0.8330  0.0314
 1378poe    c23 7894   6.006   5.128   6.852  0.3549 -0.0820 -0.4424
 1378poe     o2 7895   5.991   5.266   6.827  0.0884 -0.0706 -0.2339
 1378poe    c31 7896   6.003   5.349   6.941 -0.6017 -0.0710 -0.1597
 1379poe    c31 7897   5.860   6.297   1.538 -0.2115 -0.0032  0.4442
 1379poe     o2 7898   5.953   6.319   1.641  0.0666  0.9877 -0.0020
 1379poe    c23 7899   5.927   6.242   1.756  0.0266  0.3793 -0.4119
 1379poe    c23 7900   6.067   6.225   1.819  0.2406 -0.0001 -0.9829
 1379poe     o2 7901   6.148   6.338   1.797 -0.3204  0.6131  0.0507
 1379poe    c23 7902   6.205   6.399   1.910 -0.5149  0.2591  0.3423
 1379poe    c23 7903   6.313   6.485   1.841 -0.2371 -0.7440 -0.4976
 1379poe     o2 7904   6.255   6.549   1.730 -0.1602  0.1870 -0.0155
 1379poe    c23 7905   6.344   6.651   1.690  0.1936 -0.1669 -0.1474
 1379poe    c23 7906   6.292   6.731   1.569 -0.3736 -0.1834  0.0797
 1379poe     o2 7907   6.165   6.785   1.598 -0.4624 -0.2565 -0.1709
 1379poe    c31 7908   6.141   6.908   1.533 -0.3489  0.1968  0.6343
 1380poe    c31 7909   5.728   0.892   0.272  0.3363  0.5976 -0.7497
 1380poe     o2 7910   5.840   0.972   0.303  0.5255 -0.1402  0.5954
 1380poe    c23 7911   5.903   1.016   0.184 -0.2438  0.2704  0.3318
 1380poe    c23 7912   6.050   1.020   0.228 -0.0121  0.3445 -0.4432
 1380poe     o2 7913   6.053   1.050   0.366 -0.5411 -0.5862 -0.2208
 1380poe    c23 7914   6.190   1.051   0.402 -0.4865 -0.8343 -0.4199
 1380poe    c23 7915   6.177   1.126   0.535  0.4891 -1.0473 -0.1971
 1380poe     o2 7916   6.064   1.061   0.590 -0.5112  0.8815  0.1220
 1380poe    c23 7917   6.018   1.111   0.713  0.4556  0.6090  0.6026
 1380poe    c23 7918   5.868   1.076   0.716  0.6065 -0.1076 -0.0043
 1380poe     o2 7919   5.822   1.077   0.582 -0.0642 -0.4816  0.2184
 1380poe    c31 7920   5.692   1.129   0.571  0.3563  0.3463 -0.9364
 1381poe    c31 7921   4.448   2.507   0.934 -0.1989  0.3512 -0.4425
 1381poe     o2 7922   4.587   2.511   0.957 -0.1935 -0.3791 -0.3182
 1381poe    c23 7923   4.606   2.605   1.061  0.0698 -0.4932 -0.2651
 1381poe    c23 7924   4.752   2.615   1.109 -0.1204 -0.4477  0.3095
 1381poe     o2 7925   4.852   2.625   1.011 -0.0809  0.0074  0.3910
 1381poe    c23 7926   4.967   2.667   1.082  0.1591 -0.2264  0.1444
 1381poe    c23 7927   5.084   2.673   0.982  0.3845 -0.1967  0.4082
 1381poe     o2 7928   5.069   2.561   0.897  0.2125  0.2648 -0.1851
 1381poe    c23 7929   5.153   2.588   0.787 -0.0832  0.4167 -0.3733
 1381poe    c23 7930   5.157   2.465   0.693 -0.5702  0.3275 -0.2846
 1381poe     o2 7931   5.028   2.425   0.655 -0.4701 -0.6197  0.3323
 1381poe    c31 7932   5.030   2.312   0.570 -0.1241 -0.3183 -0.0648
 1382poe    c31 7933   6.407   3.389   5.800  0.5395 -0.5115 -0.0705
 1382poe     o2 7934   6.469   3.473   5.895 -0.1834 -0.3913  0.2990
 1382poe    c23 7935   6.385   3.574   5.948  0.3257  0.2237 -0.0491
 1382poe    c23 7936   6.459   3.661   6.051 -0.2865  0.3204  0.3141
 1382poe     o2 7937   6.476   3.613   6.183 -0.0613 -0.1141  0.1310
 1382poe    c23 7938   6.569   3.704   6.236  0.3677 -0.3814 -0.1614
 1382poe    c23 7939   6.622   3.648   6.369 -0.0694 -0.2254  0.0791
 1382poe     o2 7940   6.665   3.514   6.357 -0.5350 -0.3718  0.0344
 1382poe    c23 7941   6.691   3.464   6.486  0.2344 -0.7577 -0.2675
 1382poe    c23 7942   6.690   3.311   6.502 -0.3661 -0.7075  0.2000
 1382poe     o2 7943   6.614   3.264   6.392 -0.2845  0.2061 -0.2566
 1382poe    c31 7944   6.590   3.131   6.432  0.3670  0.3673  0.7199
 1383poe    c31 7945   1.807   0.063   1.404 -0.4073 -0.3485 -0.2389
 1383poe     o2 7946   1.821   0.021   1.270  0.0068 -0.5213 -0.1421
 1383poe    c23 7947   1.919   0.087   1.193  0.2232  0.0604  0.6191
 1383poe    c23 7948   1.911   0.032   1.049  0.4842  0.0124  0.6228
 1383poe     o2 7949   1.833  -0.086   1.044  0.5069  0.0264 -0.1385
 1383poe    c23 7950   1.797  -0.131   0.915  0.3972 -0.2431 -0.0149
 1383poe    c23 7951   1.754  -0.279   0.918 -0.2258 -0.0592  0.3140
 1383poe     o2 7952   1.677  -0.295   1.035 -0.8772  0.3730 -0.0486
 1383poe    c23 7953   1.627  -0.426   1.047  0.0569  0.0152  0.0213
 1383poe    c23 7954   1.520  -0.448   1.156 -0.0722  0.6860  0.0347
 1383poe     o2 7955   1.545  -0.390   1.282 -0.2906  0.2679  0.2724
 1383poe    c31 7956   1.454  -0.439   1.378 -0.0862 -0.3588  0.1549
 1384poe    c31 7957   0.564   2.884   1.777 -0.3186  0.7314 -0.7703
 1384poe     o2 7958   0.535   2.774   1.693  0.1265 -0.0232  0.0390
 1384poe    c23 7959   0.540   2.809   1.556 -0.1557 -0.2220 -0.0239
 1384poe    c23 7960   0.678   2.807   1.487  0.1352 -0.0620  0.5397
 1384poe     o2 7961   0.746   2.685   1.503  0.6618  0.1474 -0.0561
 1384poe    c23 7962   0.878   2.692   1.454  0.4321  0.3875 -0.6425
 1384poe    c23 7963   0.962   2.571   1.498 -0.3981  0.2558  0.6379
 1384poe     o2 7964   0.873   2.466   1.464 -0.2019  0.1950  0.3053
 1384poe    c23 7965   0.937   2.346   1.500  0.5264  0.6851  0.6701
 1384poe    c23 7966   0.821   2.247   1.480  0.4628  0.7756  0.5954
 1384poe     o2 7967   0.696   2.290   1.531 -0.0807  0.2557 -0.2647
 1384poe    c31 7968   0.610   2.187   1.573  0.6311 -0.0303  0.5145
 1385poe    c31 7969   2.395   1.857   0.116 -0.0304  0.3322 -0.0115
 1385poe     o2 7970   2.421   1.960   0.209  0.3730  0.1285  0.1028
 1385poe    c23 7971   2.422   2.082   0.138  0.3376 -0.0745 -0.2462
 1385poe    c23 7972   2.443   2.204   0.229  0.2268 -0.5787  0.4673
 1385poe     o2 7973   2.331   2.205   0.314 -0.2021  0.1628 -0.0850
 1385poe    c23 7974   2.300   2.333   0.365 -0.3995  0.2270 -0.3656
 1385poe    c23 7975   2.157   2.328   0.422 -0.4110 -0.0516 -0.4190
 1385poe     o2 7976   2.154   2.236   0.529  0.5063  0.3106 -0.0741
 1385poe    c23 7977   2.049   2.262   0.620  0.1725 -0.0970 -0.3397
 1385poe    c23 7978   2.054   2.152   0.728  1.0347  0.2342 -0.0273
 1385poe     o2 7979   2.071   2.040   0.645  0.5819  0.1146  0.0381
 1385poe    c31 7980   2.082   1.921   0.721  0.4756  0.3504  0.4237
 1386poe    c31 7981   1.347   1.681   4.535  0.0362 -0.1227  0.0551
 1386poe     o2 7982   1.431   1.767   4.461 -0.1084 -0.0427 -0.0165
 1386poe    c23 7983   1.507   1.832   4.559 -0.1862 -0.3248  0.2335
 1386poe    c23 7984   1.636   1.897   4.505 -0.5192  0.2895  0.1674
 1386poe     o2 7985   1.620   2.015   4.430  0.5671  0.0631 -0.4403
 1386poe    c23 7986   1.737   2.094   4.428  0.4550  0.2503  0.2506
 1386poe    c23 7987   1.703   2.244   4.435 -0.2126  0.0980  0.3339
 1386poe     o2 7988   1.625   2.279   4.322  1.1784  0.3097 -0.5891
 1386poe    c23 7989   1.540   2.391   4.331 -0.4245 -0.9267  0.1541
 1386poe    c23 7990   1.549   2.452   4.190  0.1313 -0.1917  0.5018
 1386poe     o2 7991   1.576   2.361   4.086 -0.5141 -0.0041  0.1611
 1386poe    c31 7992   1.615   2.433   3.971 -0.7621  0.0796  0.1291
 1387poe    c31 7993   0.821   4.899   6.744  0.1260 -0.0747  0.2623
 1387poe     o2 7994   0.874   4.769   6.735  0.0651 -0.0817  0.0113
 1387poe    c23 7995   0.882   4.728   6.870  0.7389  0.5094  0.1555
 1387poe    c23 7996   0.971   4.603   6.870 -0.3118 -0.2461 -0.3571
 1387poe     o2 7997   1.081   4.628   6.785 -0.7562 -0.1076 -0.8973
 1387poe    c23 7998   1.191   4.544   6.808 -0.6860 -0.0491 -1.0227
 1387poe    c23 7999   1.291   4.544   6.691  0.1784 -0.0016 -0.2944
 1387poe     o2 8000   1.382   4.652   6.700 -0.0073  0.1326 -0.0142
 1387poe    c23 8001   1.456   4.669   6.581 -0.3170  0.2097 -0.1971
 1387poe    c23 8002   1.494   4.815   6.550 -0.1751  0.3539  0.6339
 1387poe     o2 8003   1.373   4.882   6.521 -0.5024 -0.4620  0.0589
 1387poe    c31 8004   1.391   5.020   6.497 -0.7890 -0.3965  0.2122
 1388poe    c31 8005   0.444   0.317   1.995 -0.1185 -0.2874 -0.5043
 1388poe     o2 8006   0.515   0.282   1.878  0.2357 -0.4776 -0.2340
 1388poe    c23 8007   0.418   0.220   1.797 -0.4154  0.3746 -0.1266
 1388poe    c23 8008   0.479   0.145   1.677  0.4150  0.1583  0.4255
 1388poe     o2 8009   0.532   0.233   1.581  0.1946 -0.2015 -0.0253
 1388poe    c23 8010   0.615   0.169   1.486  1.0631  0.8575 -0.0038
 1388poe    c23 8011   0.692   0.268   1.398  0.7582  0.5203 -0.6574
 1388poe     o2 8012   0.785   0.343   1.473  0.3040  0.0687  0.3700
 1388poe    c23 8013   0.723   0.467   1.497  0.0710  0.0221  0.0217
 1388poe    c23 8014   0.813   0.568   1.573 -0.3060  0.3800 -0.0031
 1388poe     o2 8015   0.825   0.571   1.713 -0.3737 -0.0863  0.0163
 1388poe    c31 8016   0.895   0.688   1.751 -0.5017 -0.0637  0.1818
 1389poe    c31 8017   3.498   5.959   4.989 -0.4803  0.1130  0.4607
 1389poe     o2 8018   3.522   6.022   5.113 -0.1306  0.3514  0.2723
 1389poe    c23 8019   3.656   6.039   5.154  0.1789 -0.5129 -0.3447
 1389poe    c23 8020   3.652   6.139   5.270 -0.3447 -0.4997 -0.3695
 1389poe     o2 8021   3.561   6.240   5.232  0.0600 -0.1227 -0.3576
 1389poe    c23 8022   3.528   6.309   5.350  1.0120 -0.0481 -0.1249
 1389poe    c23 8023   3.434   6.412   5.284  0.7590 -0.2661 -0.1082
 1389poe     o2 8024   3.343   6.337   5.207 -0.4101  0.5381  0.4644
 1389poe    c23 8025   3.286   6.412   5.102  1.0289  0.2801 -0.5219
 1389poe    c23 8026   3.230   6.319   4.992  0.6460  0.7637 -0.7395
 1389poe     o2 8027   3.335   6.227   4.973  0.0084 -0.1676  0.1916
 1389poe    c31 8028   3.342   6.201   4.835  0.3515 -0.2217  0.2185
 1390poe    c31 8029   6.403   1.655   4.586  0.1446 -0.8041 -0.2567
 1390poe     o2 8030   6.302   1.582   4.654  0.0189 -0.5213 -0.1341
 1390poe    c23 8031   6.362   1.543   4.775  0.4328 -0.1759 -0.2226
 1390poe    c23 8032   6.270   1.434   4.834  0.1306  0.3805  0.3423
 1390poe     o2 8033   6.204   1.371   4.727  0.0314  0.4638  0.3535
 1390poe    c23 8034   6.171   1.237   4.758 -0.1766  0.4582  0.1132
 1390poe    c23 8035   6.232   1.136   4.659  0.1540  0.6698  0.0975
 1390poe     o2 8036   6.213   1.183   4.527 -0.0184  0.1161 -0.0756
 1390poe    c23 8037   6.286   1.106   4.433  0.3746  0.7912 -0.3310
 1390poe    c23 8038   6.372   1.181   4.330  0.9540  0.8504  0.1909
 1390poe     o2 8039   6.298   1.266   4.245 -0.2048  0.2998  0.6335
 1390poe    c31 8040   6.364   1.298   4.125  0.3022  0.1388  0.8662
 1391poe    c31 8041   6.287   2.553   6.038 -0.3299 -0.2409 -0.1149
 1391poe     o2 8042   6.267   2.495   6.164 -0.4133  0.0995  0.0285
 1391poe    c23 8043   6.284   2.585   6.272  0.4161 -0.0862  0.0608
 1391poe    c23 8044   6.227   2.525   6.402  0.0872  0.0496 -0.0182
 1391poe     o2 8045   6.095   2.478   6.387 -0.0570  0.4780 -0.0970
 1391poe    c23 8046   6.027   2.495   6.510  0.1354 -0.2530  0.1165
 1391poe    c23 8047   5.917   2.387   6.507  0.0863 -0.1964 -0.2246
 1391poe     o2 8048   5.849   2.390   6.384  0.0773  0.6076 -0.2070
 1391poe    c23 8049   5.759   2.282   6.378  0.3578  0.3364  0.3765
 1391poe    c23 8050   5.690   2.307   6.242  0.0169  0.3381  0.5512
 1391poe     o2 8051   5.794   2.321   6.148 -0.3635  0.2006  0.1064
 1391poe    c31 8052   5.745   2.290   6.020  0.1023 -0.3463  0.0598
 1392poe    c31 8053   5.115   0.314   4.511  0.1316 -0.1149 -0.2125
 1392poe     o2 8054   4.976   0.338   4.503  0.1401  0.1262  0.3557
 1392poe    c23 8055   4.935   0.473   4.496 -0.1352  0.0318  0.1624
 1392poe    c23 8056   4.785   0.476   4.460 -0.0740 -0.3887 -0.1353
 1392poe     o2 8057   4.694   0.438   4.561  0.5612 -0.2194  0.5113
 1392poe    c23 8058   4.563   0.487   4.539  0.8097  0.2411  0.0450
 1392poe    c23 8059   4.464   0.492   4.656  0.4872 -0.8396 -0.1636
 1392poe     o2 8060   4.499   0.592   4.749 -0.7797 -0.1032 -0.4585
 1392poe    c23 8061   4.530   0.535   4.874  0.2290  0.5122 -0.4130
 1392poe    c23 8062   4.673   0.568   4.918  0.0737  0.3414  0.2247
 1392poe     o2 8063   4.694   0.695   4.976  0.2971  0.2651  0.3153
 1392poe    c31 8064   4.830   0.700   5.013  0.4534  0.4778 -0.2794
 1393poe    c31 8065   5.346   6.476   5.826  0.7996  0.1383 -0.3429
 1393poe     o2 8066   5.344   6.591   5.744 -0.3372  0.0870 -0.4082
 1393poe    c23 8067   5.425   6.561   5.632  0.3863  0.3320  0.0433
 1393poe    c23 8068   5.430   6.667   5.521  0.2062 -0.4052 -0.6744
 1393poe     o2 8069   5.473   6.791   5.571 -0.2657 -0.1255 -0.9475
 1393poe    c23 8070   5.454   6.898   5.482 -0.0914  0.1997 -0.5978
 1393poe    c23 8071   5.385   7.025   5.535 -0.4238 -0.3765  0.3772
 1393poe     o2 8072   5.459   7.053   5.652  0.2354  0.4502 -0.2212
 1393poe    c23 8073   5.414   7.169   5.718 -0.1275  0.2472 -0.1106
 1393poe    c23 8074   5.493   7.206   5.845 -0.6195 -0.3124  0.3670
 1393poe     o2 8075   5.520   7.080   5.902 -0.3539 -0.4929 -0.1424
 1393poe    c31 8076   5.577   7.096   6.030  0.1573  0.7765 -0.5133
 1394poe    c31 8077   4.685   0.909   4.636  0.4666  0.1170  0.2889
 1394poe     o2 8078   4.584   0.991   4.689  0.2440 -0.5199  0.8565
 1394poe    c23 8079   4.641   1.078   4.784  0.1997 -0.0143  0.4217
 1394poe    c23 8080   4.543   1.192   4.819  0.0790  0.1077 -0.2991
 1394poe     o2 8081   4.426   1.121   4.852  0.3069  0.0877  0.4916
 1394poe    c23 8082   4.315   1.207   4.841 -0.0566 -0.4210  0.0655
 1394poe    c23 8083   4.183   1.130   4.856 -0.3665  0.0959  0.0204
 1394poe     o2 8084   4.207   1.000   4.807 -0.2168  0.3059 -0.4750
 1394poe    c23 8085   4.080   0.940   4.812  0.1679 -0.4890 -0.0151
 1394poe    c23 8086   4.072   0.792   4.771  0.1158 -0.4683 -0.0805
 1394poe     o2 8087   4.141   0.710   4.863 -0.1509  0.1580  0.6850
 1394poe    c31 8088   4.104   0.575   4.847 -0.8169  0.4206 -0.0410
 1395poe    c31 8089   3.486   4.072   4.874  0.2080  0.0265 -0.6341
 1395poe     o2 8090   3.345   4.068   4.878  0.2313 -0.3672 -0.1040
 1395poe    c23 8091   3.287   4.153   4.782  0.3711  0.3761  0.4595
 1395poe    c23 8092   3.139   4.125   4.749  0.3679  0.6175  0.2662
 1395poe     o2 8093   3.057   4.088   4.857 -0.6606  0.6011 -0.5066
 1395poe    c23 8094   2.960   3.996   4.813  0.0097 -0.0379 -0.6522
 1395poe    c23 8095   2.872   3.930   4.920  0.4260  0.5127  0.0324
 1395poe     o2 8096   2.942   3.882   5.033 -0.4049 -0.2303  0.2394
 1395poe    c23 8097   2.869   3.889   5.154 -0.8135 -0.5502  0.0154
 1395poe    c23 8098   2.953   3.812   5.258 -0.4114  0.4343  0.4260
 1395poe     o2 8099   3.090   3.846   5.252 -0.0798 -0.9487 -0.2156
 1395poe    c31 8100   3.173   3.773   5.340  0.3057 -0.0789  0.1545
 1396poe    c31 8101   3.628   0.287   2.495 -0.0006 -0.4540  0.5533
 1396poe     o2 8102   3.767   0.302   2.480 -0.1882  0.6325 -0.3032
 1396poe    c23 8103   3.804   0.252   2.354  0.5151 -0.0292  0.1491
 1396poe    c23 8104   3.949   0.303   2.345  0.3320  0.3994 -0.4602
 1396poe     o2 8105   3.988   0.400   2.439 -0.0066  0.4435 -0.3643
 1396poe    c23 8106   4.121   0.446   2.425  0.1063  0.1182 -0.3743
 1396poe    c23 8107   4.126   0.546   2.542  0.3950 -0.2593 -0.0607
 1396poe     o2 8108   4.082   0.487   2.663  0.4855  0.0992  0.1496
 1396poe    c23 8109   4.084   0.575   2.772  0.6159 -0.0238  0.2469
 1396poe    c23 8110   4.096   0.492   2.902  0.2754 -0.6450 -0.1157
 1396poe     o2 8111   3.980   0.421   2.939 -0.3132  0.2604 -0.1793
 1396poe    c31 8112   3.982   0.348   3.060  0.2849 -0.2365 -0.4863
 1397poe    c31 8113   0.895   1.491   0.175  0.4944 -0.0402  0.1022
 1397poe     o2 8114   0.785   1.530   0.097  0.1940  0.8627  0.9656
 1397poe    c23 8115   0.653   1.500   0.139  0.1184 -0.0236  0.1295
 1397poe    c23 8116   0.600   1.596   0.247 -0.1278  0.1019 -0.1015
 1397poe     o2 8117   0.564   1.721   0.192 -0.1719  0.1481  0.0321
 1397poe    c23 8118   0.506   1.809   0.286 -0.1149 -0.0337  0.2385
 1397poe    c23 8119   0.420   1.924   0.232  0.3798  0.2423  0.0386
 1397poe     o2 8120   0.516   1.997   0.158 -0.0661  0.1471 -0.6458
 1397poe    c23 8121   0.458   2.103   0.086 -0.2693  0.3595 -0.1768
 1397poe    c23 8122   0.563   2.150  -0.017  0.3816 -0.6738  0.0011
 1397poe     o2 8123   0.691   2.147   0.042  0.2096 -0.3868  0.3907
 1397poe    c31 8124   0.768   2.232  -0.040 -0.5177 -0.5858 -0.5198
 1398poe    c31 8125   0.976   6.294   5.923  0.1374 -0.0473 -0.4098
 1398poe     o2 8126   1.019   6.323   5.792  0.1597 -0.1741 -0.4304
 1398poe    c23 8127   1.144   6.272   5.749  0.3496 -0.2821  0.2286
 1398poe    c23 8128   1.160   6.315   5.602 -0.4026 -0.1664  0.1763
 1398poe     o2 8129   1.035   6.286   5.543 -0.2967 -0.3492  0.0419
 1398poe    c23 8130   1.035   6.307   5.403  0.0989 -0.5673  0.0086
 1398poe    c23 8131   0.893   6.281   5.352  0.0090 -0.2315  0.0825
 1398poe     o2 8132   0.809   6.350   5.442  0.2043  0.5662 -0.3370
 1398poe    c23 8133   0.678   6.325   5.397  0.1098 -0.2937  0.3709
 1398poe    c23 8134   0.583   6.442   5.429 -0.0116 -0.2105 -0.2769
 1398poe     o2 8135   0.557   6.436   5.567  0.1229 -0.2786 -0.2545
 1398poe    c31 8136   0.448   6.520   5.600  0.4217 -0.1123  0.3227
 1399poe    c31 8137   5.290   5.699   3.067  0.5689 -0.2563  0.2445
 1399poe     o2 8138   5.397   5.661   3.150  0.0960 -0.9020  0.5783
 1399poe    c23 8139   5.492   5.595   3.069  0.7168  0.2296  0.3543
 1399poe    c23 8140   5.581   5.502   3.154  0.7000 -0.1230 -0.0118
 1399poe     o2 8141   5.517   5.399   3.226  0.4714  0.2462  0.3162
 1399poe    c23 8142   5.582   5.281   3.186  0.4387  0.2770  0.1697
 1399poe    c23 8143   5.494   5.166   3.238 -0.9846  0.8256 -0.9509
 1399poe     o2 8144   5.445   5.192   3.367 -0.2147  0.3044 -0.5369
 1399poe    c23 8145   5.338   5.112   3.412 -0.3338  0.6215 -0.2504
 1399poe    c23 8146   5.312   5.139   3.561  0.4339 -0.1358  0.0278
 1399poe     o2 8147   5.343   5.272   3.596 -0.5348  0.0106  0.3820
 1399poe    c31 8148   5.333   5.289   3.736  0.0205 -0.5586  0.4936
 1400poe    c31 8149   4.368   3.473   5.463  0.0487 -0.2667 -0.4152
 1400poe     o2 8150   4.280   3.430   5.362 -0.1074 -1.1141  0.0754
 1400poe    c23 8151   4.140   3.426   5.375 -0.1045 -0.4824  0.3190
 1400poe    c23 8152   4.069   3.332   5.276  0.4778 -0.3512 -0.2277
 1400poe     o2 8153   4.095   3.390   5.150  0.1424  0.5725  0.1188
 1400poe    c23 8154   4.056   3.308   5.041  0.2385  0.1438  0.4020
 1400poe    c23 8155   4.096   3.391   4.917 -0.0562  0.0934  0.2739
 1400poe     o2 8156   4.235   3.407   4.911  0.0099 -0.4268  0.3523
 1400poe    c23 8157   4.270   3.475   4.792 -0.2627  0.1775  0.6161
 1400poe    c23 8158   4.424   3.481   4.783 -0.2609 -0.4103  0.2435
 1400poe     o2 8159   4.471   3.360   4.838 -0.0080 -0.1036  0.7077
 1400poe    c31 8160   4.582   3.305   4.769 -0.1473  0.1895  0.2441
 1401poe    c31 8161   4.150   3.978   0.343  0.3837 -0.2927  0.2792
 1401poe     o2 8162   4.211   3.909   0.236 -0.2295  0.0507 -0.2947
 1401poe    c23 8163   4.144   3.949   0.118 -0.3226  0.1938 -0.1921
 1401poe    c23 8164   4.247   4.000   0.016 -0.0874  0.0709 -0.0180
 1401poe     o2 8165   4.341   3.896   0.012 -0.0036  0.1525 -0.1903
 1401poe    c23 8166   4.447   3.929  -0.076 -0.2229  0.6586 -0.2680
 1401poe    c23 8167   4.513   3.790  -0.070 -0.6503  0.4665  0.0397
 1401poe     o2 8168   4.528   3.754   0.065  0.4840  0.9676  0.0516
 1401poe    c23 8169   4.614   3.642   0.065 -0.4929  0.1966 -0.7962
 1401poe    c23 8170   4.597   3.561   0.195  0.0297  0.1903 -0.7285
 1401poe     o2 8171   4.620   3.643   0.307  0.4377  0.1060 -0.7495
 1401poe    c31 8172   4.621   3.556   0.418 -0.2628  0.3427 -0.5526
 1402poe    c31 8173   2.159   1.387   4.184  0.2624  0.0425 -0.4555
 1402poe     o2 8174   2.276   1.455   4.224  0.5493 -0.5962 -0.1763
 1402poe    c23 8175   2.330   1.522   4.112  0.2930  0.5809  0.3808
 1402poe    c23 8176   2.483   1.510   4.126  0.2447  0.0787  0.5188
 1402poe     o2 8177   2.510   1.545   4.259  0.0323  0.2922  0.5066
 1402poe    c23 8178   2.648   1.566   4.277 -0.0366  0.5184  0.7865
 1402poe    c23 8179   2.696   1.527   4.418  0.3696  0.2459  0.5776
 1402poe     o2 8180   2.691   1.390   4.450  0.1196  0.1256  0.0319
 1402poe    c23 8181   2.778   1.348   4.553  0.2506 -0.0681 -0.1568
 1402poe    c23 8182   2.767   1.198   4.584  0.1378  0.0703  0.4948
 1402poe     o2 8183   2.831   1.120   4.485 -0.0436  0.4804  0.0486
 1402poe    c31 8184   2.850   0.986   4.524  0.1089  0.3773 -0.3743
 1403poe    c31 8185   5.532   2.999   1.951  0.6531 -0.1160 -0.2494
 1403poe     o2 8186   5.461   2.969   1.833  0.6239 -0.0410 -0.2512
 1403poe    c23 8187   5.506   2.855   1.763  0.1440 -0.0344 -0.5740
 1403poe    c23 8188   5.385   2.760   1.758  0.0420  0.0501  0.1362
 1403poe     o2 8189   5.283   2.848   1.718  0.1939 -0.1222 -0.6639
 1403poe    c23 8190   5.165   2.773   1.701 -0.0950  0.1710 -0.0150
 1403poe    c23 8191   5.061   2.870   1.641 -0.2542  0.2825  0.4419
 1403poe     o2 8192   5.037   2.983   1.723 -0.2620  0.1955  0.5594
 1403poe    c23 8193   4.942   3.072   1.670 -0.2421  0.1874  0.5096
 1403poe    c23 8194   4.931   3.172   1.787  0.4519  0.6743  0.1661
 1403poe     o2 8195   4.894   3.099   1.902  0.0131  0.4585 -0.1112
 1403poe    c31 8196   4.891   3.203   1.998  0.1881  0.4685 -0.1172
 1404poe    c31 8197   6.847   2.982   4.438 -0.5295 -0.1626  0.3236
 1404poe     o2 8198   6.888   3.011   4.570  0.5552  0.2202 -0.0890
 1404poe    c23 8199   6.999   2.930   4.601  0.1414 -0.2788  0.0998
 1404poe    c23 8200   6.995   2.885   4.748 -0.5125 -0.2339  0.0976
 1404poe     o2 8201   6.981   2.997   4.833 -0.4969 -0.3583  0.2661
 1404poe    c23 8202   7.068   2.989   4.943 -0.4015  0.2095  0.2353
 1404poe    c23 8203   7.057   3.097   5.053 -1.0361  0.0170  0.3664
 1404poe     o2 8204   7.124   3.217   5.019 -0.9299  0.0011  0.5199
 1404poe    c23 8205   7.050   3.317   4.953 -0.1323  0.1166 -0.2114
 1404poe    c23 8206   7.134   3.429   4.887  0.4673 -0.3217 -0.1974
 1404poe     o2 8207   7.200   3.387   4.770  0.5560 -0.0855 -0.2314
 1404poe    c31 8208   7.286   3.481   4.709  0.6934 -0.4030 -0.5301
 1405poe    c31 8209   2.224   5.160   3.467 -0.1162 -0.4839  0.1819
 1405poe     o2 8210   2.180   5.028   3.440 -0.3571 -0.5179  0.7233
 1405poe    c23 8211   2.294   4.945   3.433 -0.0242  0.0026 -0.4206
 1405poe    c23 8212   2.302   4.843   3.318  0.4868 -0.1600 -0.2449
 1405poe     o2 8213   2.414   4.760   3.333 -0.0508 -0.7494  0.5792
 1405poe    c23 8214   2.418   4.650   3.244 -0.4128 -0.2088 -0.1097
 1405poe    c23 8215   2.514   4.653   3.123  0.1191 -0.3630  0.3035
 1405poe     o2 8216   2.459   4.746   3.032 -0.1779 -0.3171  0.5258
 1405poe    c23 8217   2.491   4.710   2.899  0.2653  0.6400  0.3669
 1405poe    c23 8218   2.415   4.796   2.797  0.3497  0.1564 -0.1074
 1405poe     o2 8219   2.275   4.795   2.816  0.3748 -0.0984  0.0625
 1405poe    c31 8220   2.221   4.901   2.892  0.1785 -0.0943 -0.0841
 1406poe    c31 8221   0.530   5.184   0.915 -0.1292  0.5352 -0.5879
 1406poe     o2 8222   0.582   5.081   0.996 -0.2206  0.2878 -0.8460
 1406poe    c23 8223   0.704   5.038   0.940 -0.2535 -0.6510 -0.2223
 1406poe    c23 8224   0.722   4.896   0.995 -0.0954 -0.5318  0.0356
 1406poe     o2 8225   0.666   4.894   1.124 -0.4872  0.4303 -0.1123
 1406poe    c23 8226   0.729   4.794   1.201 -0.2550  0.7557  0.1230
 1406poe    c23 8227   0.674   4.778   1.344 -0.2585  0.3517  0.0780
 1406poe     o2 8228   0.551   4.715   1.318 -0.0342 -0.0524 -0.0243
 1406poe    c23 8229   0.488   4.722   1.444  0.3144 -0.2854  0.1620
 1406poe    c23 8230   0.346   4.665   1.424  0.2828 -0.0924 -0.1626
 1406poe     o2 8231   0.270   4.747   1.339  0.0116  0.0772  0.2406
 1406poe    c31 8232   0.143   4.688   1.323  0.3031 -0.3737 -0.4578
 1407poe    c31 8233   0.557   6.593   3.889 -0.1207 -0.5331  0.0821
 1407poe     o2 8234   0.670   6.634   3.963 -0.0998 -0.1978 -0.1328
 1407poe    c23 8235   0.758   6.704   3.878 -0.1089  0.1171  0.1159
 1407poe    c23 8236   0.878   6.761   3.957 -0.1467 -0.0434  0.2908
 1407poe     o2 8237   0.940   6.651   4.019 -0.2395 -0.5443 -0.4894
 1407poe    c23 8238   1.081   6.658   4.007 -0.2043 -0.3791  0.0077
 1407poe    c23 8239   1.148   6.533   4.068 -0.0892 -0.6044 -0.5779
 1407poe     o2 8240   1.074   6.521   4.188  0.3471  0.4908 -0.1841
 1407poe    c23 8241   1.128   6.430   4.281 -0.1272  0.3835 -0.0154
 1407poe    c23 8242   1.061   6.458   4.417  0.3449 -0.3385  0.3735
 1407poe     o2 8243   0.921   6.471   4.420  0.3356 -0.2358 -0.3599
 1407poe    c31 8244   0.875   6.434   4.547  0.3164  0.0979 -0.2667
 1408poe    c31 8245   0.449   0.411   0.480  0.2882 -0.3623 -0.3553
 1408poe     o2 8246   0.361   0.406   0.370  0.1199  0.6977 -0.2733
 1408poe    c23 8247   0.268   0.512   0.379 -0.5257  0.1355 -0.1777
 1408poe    c23 8248   0.143   0.441   0.325 -0.3285 -0.3552  0.0140
 1408poe     o2 8249   0.181   0.371   0.208 -0.0356 -0.4903  0.1861
 1408poe    c23 8250   0.081   0.298   0.140 -0.2263  0.0070 -0.0726
 1408poe    c23 8251   0.160   0.211   0.040  0.1067  0.2667 -0.0390
 1408poe     o2 8252   0.283   0.182   0.102  0.0652 -0.4245 -0.2680
 1408poe    c23 8253   0.366   0.099   0.024  0.2235 -0.7854  0.2798
 1408poe    c23 8254   0.498   0.076   0.100  0.3098 -0.0272  0.3695
 1408poe     o2 8255   0.536   0.205   0.142 -0.6963  0.2886  0.3577
 1408poe    c31 8256   0.650   0.210   0.226 -0.0252 -1.1036 -0.4326
 1409poe    c31 8257   4.768   4.407   1.967  0.2088 -0.3920 -0.0229
 1409poe     o2 8258   4.865   4.396   2.068  0.0541 -0.2193  0.1461
 1409poe    c23 8259   4.832   4.452   2.193  0.3314  0.3959 -0.0522
 1409poe    c23 8260   4.906   4.374   2.303 -0.0322  0.1956  0.0548
 1409poe     o2 8261   5.012   4.306   2.239  0.0786  0.1877  0.2467
 1409poe    c23 8262   5.078   4.229   2.337  0.5004  0.4046  0.1373
 1409poe    c23 8263   5.219   4.181   2.299  0.2106 -0.2785 -0.0895
 1409poe     o2 8264   5.213   4.096   2.186  0.1210  0.2912 -0.5161
 1409poe    c23 8265   5.323   4.102   2.098 -0.0303  0.1088 -0.7174
 1409poe    c23 8266   5.346   3.977   2.011  0.3889 -0.0184 -0.4261
 1409poe     o2 8267   5.244   3.943   1.919 -0.0294 -0.1337  0.0711
 1409poe    c31 8268   5.299   3.853   1.825 -0.3724 -0.1256 -0.1364
 1410poe    c31 8269   4.586   2.340   5.697  0.1867 -0.5640 -0.6002
 1410poe     o2 8270   4.590   2.339   5.556 -0.0932  0.4674 -0.6219
 1410poe    c23 8271   4.647   2.449   5.489  0.4512  0.4263 -0.2244
 1410poe    c23 8272   4.578   2.586   5.494  0.1014  0.2487 -0.2226
 1410poe     o2 8273   4.447   2.602   5.444  0.1192  0.0644 -0.3247
 1410poe    c23 8274   4.432   2.664   5.318 -0.7726 -0.1731 -0.3438
 1410poe    c23 8275   4.296   2.735   5.324 -0.7330 -0.1562  0.4831
 1410poe     o2 8276   4.209   2.626   5.346 -0.3839 -0.5202  0.0923
 1410poe    c23 8277   4.076   2.674   5.356 -0.1968  0.0477 -0.0924
 1410poe    c23 8278   4.009   2.540   5.392 -0.4370  0.1401 -0.1994
 1410poe     o2 8279   4.087   2.485   5.496 -0.4853  1.0282  0.3246
 1410poe    c31 8280   4.013   2.384   5.560 -0.0488  0.2459 -0.3750
 1411poe    c31 8281   5.443   6.364   0.840  0.1632 -0.8734 -0.7184
 1411poe     o2 8282   5.455   6.492   0.783  0.0426 -0.6099 -0.1570
 1411poe    c23 8283   5.564   6.506   0.695 -0.1696  0.1912 -0.3025
 1411poe    c23 8284   5.538   6.603   0.578  0.1422 -0.3154 -0.7965
 1411poe     o2 8285   5.419   6.575   0.507 -0.1979 -0.3589 -0.2179
 1411poe    c23 8286   5.407   6.658   0.394  0.1188  0.0874  0.0722
 1411poe    c23 8287   5.275   6.614   0.328  0.0312 -0.0009  0.3051
 1411poe     o2 8288   5.180   6.665   0.419  0.0102 -0.0531  0.3120
 1411poe    c23 8289   5.049   6.628   0.382  0.1672 -0.5375  0.2416
 1411poe    c23 8290   4.947   6.671   0.488 -0.0338  0.4969 -0.3589
 1411poe     o2 8291   4.999   6.655   0.618 -0.3094 -0.1660 -0.3257
 1411poe    c31 8292   4.929   6.725   0.719  0.1508 -0.7611  0.4189
 1412poe    c31 8293   6.832   3.529   5.207 -0.2978  0.0226 -0.8093
 1412poe     o2 8294   6.776   3.639   5.275 -0.9149 -0.7663 -0.0168
 1412poe    c23 8295   6.816   3.648   5.410 -0.3727  0.1499 -0.2291
 1412poe    c23 8296   6.749   3.771   5.472  1.5034  1.0362  0.1208
 1412poe     o2 8297   6.779   3.889   5.401  0.2672  0.9501 -0.5744
 1412poe    c23 8298   6.822   4.000   5.476 -0.1704  0.3068  0.6570
 1412poe    c23 8299   6.834   4.128   5.390 -0.1111 -0.3755 -0.3648
 1412poe     o2 8300   6.722   4.147   5.306  0.1363 -0.0749 -0.6287
 1412poe    c23 8301   6.762   4.223   5.194  0.6166 -0.1321 -0.4990
 1412poe    c23 8302   6.644   4.214   5.096  0.0218  0.0527  0.1960
 1412poe     o2 8303   6.592   4.083   5.093  0.0489  0.0394  0.3005
 1412poe    c31 8304   6.497   4.051   4.995 -0.0998  0.1427  0.4119
 1413poe    c31 8305   1.918   5.248   0.838  0.1604 -0.2480 -0.3953
 1413poe     o2 8306   1.789   5.197   0.860  0.2425 -0.3602 -0.1809
 1413poe    c23 8307   1.769   5.205   1.000  0.3656  0.7573 -0.2236
 1413poe    c23 8308   1.617   5.194   1.020  0.3823 -0.0508 -0.5432
 1413poe     o2 8309   1.546   5.082   0.970 -0.2538  0.1298 -0.0636
 1413poe    c23 8310   1.405   5.078   0.971 -0.2641  0.4863  0.1915
 1413poe    c23 8311   1.340   4.941   0.943  0.2468  0.2451  0.1713
 1413poe     o2 8312   1.385   4.893   0.818  0.0171 -0.3792  0.3264
 1413poe    c23 8313   1.296   4.797   0.765  0.1866 -0.4038  0.0910
 1413poe    c23 8314   1.344   4.760   0.623  0.5923  0.0945  0.0946
 1413poe     o2 8315   1.483   4.740   0.633  0.5753 -0.0609  0.0211
 1413poe    c31 8316   1.529   4.753   0.501  0.3024 -0.1114 -0.0793
 1414poe    c31 8317   3.593   4.666   5.951  0.0660 -0.3051 -0.0523
 1414poe     o2 8318   3.679   4.609   5.855  0.5849  0.0127  0.2191
 1414poe    c23 8319   3.642   4.475   5.829  0.1705  0.2215 -0.2589
 1414poe    c23 8320   3.742   4.394   5.744  0.4975  0.5761 -0.2147
 1414poe     o2 8321   3.873   4.383   5.793  0.2309 -0.1168  0.3640
 1414poe    c23 8322   3.907   4.248   5.816  0.5378 -0.2726 -0.8995
 1414poe    c23 8323   4.051   4.247   5.868  0.2109 -0.0915  0.0332
 1414poe     o2 8324   4.122   4.359   5.821  0.1671  0.2526  0.7750
 1414poe    c23 8325   4.249   4.386   5.876  0.4304  0.3844  0.1191
 1414poe    c23 8326   4.296   4.532   5.860 -0.0256  0.5924  0.6214
 1414poe     o2 8327   4.186   4.620   5.861 -0.2371  0.3501 -0.1397
 1414poe    c31 8328   4.231   4.752   5.839  0.0600  0.2520 -0.1259
 1415poe    c31 8329   5.290   6.498   3.740  0.1965 -0.1382  0.7696
 1415poe     o2 8330   5.149   6.494   3.751  0.1474  0.0573  0.2516
 1415poe    c23 8331   5.116   6.591   3.849  0.0609  0.3086 -0.0253
 1415poe    c23 8332   4.965   6.588   3.877  0.0034 -0.6494 -0.4053
 1415poe     o2 8333   4.928   6.510   3.988  0.1674 -0.5058 -0.2505
 1415poe    c23 8334   4.795   6.473   3.959 -0.3040  0.7957  0.1577
 1415poe    c23 8335   4.747   6.388   4.079  0.8906  0.3498  0.3352
 1415poe     o2 8336   4.843   6.286   4.099  0.1314 -0.4129  0.1764
 1415poe    c23 8337   4.786   6.173   4.162  0.1934  0.1416  1.2601
 1415poe    c23 8338   4.875   6.055   4.121 -0.0297  0.3427  0.1634
 1415poe     o2 8339   5.006   6.106   4.134  0.3490 -0.5981  0.1880
 1415poe    c31 8340   5.105   6.010   4.106  0.6818 -0.0056 -0.7142
 1416poe    c31 8341   2.001   5.757   5.289  0.9663  0.2702 -0.0948
 1416poe     o2 8342   2.075   5.652   5.347  0.9387  0.3338  0.0570
 1416poe    c23 8343   2.208   5.678   5.307  0.8437  0.2643 -0.3143
 1416poe    c23 8344   2.302   5.563   5.348  0.9110  0.4252 -0.0158
 1416poe     o2 8345   2.331   5.565   5.486 -0.1394  0.1122  0.2163
 1416poe    c23 8346   2.460   5.508   5.499 -0.0892  0.2999  0.5527
 1416poe    c23 8347   2.513   5.510   5.643  0.6982 -0.2433  0.2723
 1416poe     o2 8348   2.458   5.630   5.691  0.8659 -0.1322  0.1885
 1416poe    c23 8349   2.491   5.647   5.827  0.7934  0.3068  0.1541
 1416poe    c23 8350   2.420   5.781   5.853  0.0378 -0.0985  0.2101
 1416poe     o2 8351   2.294   5.781   5.788  0.1033  0.0821  0.0836
 1416poe    c31 8352   2.243   5.910   5.816 -0.1642  0.0595 -0.2895
 1417poe    c31 8353   1.657   6.252   0.826 -0.1639  0.0114 -0.0317
 1417poe     o2 8354   1.770   6.265   0.743 -0.1108 -0.1344  0.0172
 1417poe    c23 8355   1.734   6.229   0.611  0.1583 -0.2820 -0.0164
 1417poe    c23 8356   1.870   6.186   0.554  0.3229  0.1112  0.0859
 1417poe     o2 8357   1.970   6.255   0.628  0.3400 -0.0659  0.2283
 1417poe    c23 8358   2.094   6.278   0.565  0.3671  0.1712  0.3700
 1417poe    c23 8359   2.207   6.293   0.668 -0.0895  0.7284  0.7982
 1417poe     o2 8360   2.250   6.165   0.706 -0.2518  0.3728 -0.1960
 1417poe    c23 8361   2.320   6.164   0.829  0.8399 -0.4063 -0.8014
 1417poe    c23 8362   2.323   6.014   0.865  0.3959 -0.1642  0.2815
 1417poe     o2 8363   2.198   5.962   0.905  0.0110  0.0229 -0.6397
 1417poe    c31 8364   2.203   5.833   0.961 -0.0104  0.5656  0.6573
 1418poe    c31 8365   6.909   5.823   5.104 -0.2542  0.2054  0.0468
 1418poe     o2 8366   6.920   5.691   5.153  0.6556  0.2624  0.0286
 1418poe    c23 8367   6.787   5.643   5.149  0.4904  0.7216 -0.1564
 1418poe    c23 8368   6.774   5.495   5.192  0.1497  0.5807 -0.7272
 1418poe     o2 8369   6.821   5.394   5.106  0.0837  0.0029 -0.0947
 1418poe    c23 8370   6.816   5.263   5.157  0.3880  0.0134 -0.0358
 1418poe    c23 8371   6.884   5.161   5.064 -0.0988  0.0471 -0.4282
 1418poe     o2 8372   7.024   5.169   5.066 -0.0957  0.0241 -0.5326
 1418poe    c23 8373   7.084   5.074   4.980 -0.2107 -0.3901 -0.1603
 1418poe    c23 8374   7.227   5.125   4.958 -0.4082  0.4354  0.3920
 1418poe     o2 8375   7.282   5.178   5.076  0.1637 -0.1188  0.3833
 1418poe    c31 8376   7.409   5.235   5.052  0.2519 -0.2514  0.5271
 1419poe    c31 8377   6.677   6.976   2.555  0.3389  0.1265  0.3567
 1419poe     o2 8378   6.717   6.863   2.630 -0.0641 -0.2736 -0.0314
 1419poe    c23 8379   6.821   6.911   2.711  0.0372 -0.2264 -0.1898
 1419poe    c23 8380   6.890   6.798   2.788 -0.0213  0.1233  0.3827
 1419poe     o2 8381   6.971   6.727   2.697 -0.8997  0.3051 -0.5503
 1419poe    c23 8382   7.104   6.773   2.700 -0.6631 -0.3900  0.4136
 1419poe    c23 8383   7.219   6.724   2.610 -0.3991  0.2239  0.4085
 1419poe     o2 8384   7.199   6.768   2.477  0.9620  0.0860  0.1514
 1419poe    c23 8385   7.287   6.695   2.395  0.3703 -0.2166 -0.2191
 1419poe    c23 8386   7.268   6.710   2.243 -0.3173  0.6542 -0.0488
 1419poe     o2 8387   7.146   6.658   2.194 -0.0785  0.0266  0.0160
 1419poe    c31 8388   7.138   6.670   2.054  0.3624 -0.0526 -0.0194
 1420poe    c31 8389   5.216   1.106   6.793  0.3830  0.5057  0.2460
 1420poe     o2 8390   5.154   1.026   6.892 -0.3431  0.0956 -0.5200
 1420poe    c23 8391   5.029   1.079   6.931 -0.2692  0.0725 -0.2490
 1420poe    c23 8392   4.932   0.978   6.994 -0.1661  0.3464  0.3608
 1420poe     o2 8393   4.956   0.936   7.126 -0.1025 -0.2380  0.1686
 1420poe    c23 8394   5.052   0.833   7.119 -0.0279 -0.1546 -0.0363
 1420poe    c23 8395   5.013   0.743   7.238 -0.1703 -0.2385 -0.1457
 1420poe     o2 8396   5.002   0.826   7.352  0.1790 -0.1710 -0.1608
 1420poe    c23 8397   5.013   0.769   7.480 -0.1424  0.0957 -0.0135
 1420poe    c23 8398   5.150   0.792   7.547 -0.1382 -0.2954  0.1131
 1420poe     o2 8399   5.189   0.928   7.545 -0.1585 -0.2913  0.0045
 1420poe    c31 8400   5.328   0.920   7.562 -0.1944 -0.6626  0.1426
 1421poe    c31 8401   0.488   6.709   4.336  0.3791 -0.8820 -0.4686
 1421poe     o2 8402   0.511   6.685   4.473 -0.5798  0.7780  0.0098
 1421poe    c23 8403   0.615   6.772   4.509  0.5273 -0.5402  0.0823
 1421poe    c23 8404   0.595   6.794   4.660  0.1303 -0.7365  0.0591
 1421poe     o2 8405   0.590   6.664   4.715  0.0899 -0.8705 -0.2584
 1421poe    c23 8406   0.598   6.671   4.855  0.0724 -0.4563 -0.2748
 1421poe    c23 8407   0.622   6.525   4.900  0.0193 -0.3952 -0.0474
 1421poe     o2 8408   0.538   6.440   4.826 -0.0958 -0.5130  0.2170
 1421poe    c23 8409   0.548   6.306   4.871  0.0719 -0.3151  0.7741
 1421poe    c23 8410   0.441   6.223   4.798  0.1534  0.0448  0.2425
 1421poe     o2 8411   0.450   6.225   4.657  0.0230 -0.1527  0.2315
 1421poe    c31 8412   0.341   6.147   4.610  0.2212  0.0738 -0.6232
 1422poe    c31 8413   3.879   4.057   3.024  0.0268 -0.1473 -0.1973
 1422poe     o2 8414   4.006   4.002   3.051 -0.0222 -0.1372  0.0511
 1422poe    c23 8415   4.103   4.067   2.972  0.1048  0.1110  0.4102
 1422poe    c23 8416   4.242   4.085   3.038  0.2817 -0.9046  0.3344
 1422poe     o2 8417   4.308   3.970   3.085  0.3220 -0.8876  0.3197
 1422poe    c23 8418   4.407   3.995   3.182  0.0583  0.1872  0.3149
 1422poe    c23 8419   4.447   3.855   3.233 -0.4558 -0.3241 -0.6721
 1422poe     o2 8420   4.340   3.811   3.313 -0.1028  0.4209  0.2184
 1422poe    c23 8421   4.385   3.708   3.398 -0.2693 -0.3657 -0.6399
 1422poe    c23 8422   4.271   3.661   3.491  0.0535 -0.0712 -0.0916
 1422poe     o2 8423   4.159   3.646   3.406  0.0464  0.4080 -0.1732
 1422poe    c31 8424   4.061   3.572   3.475 -0.2174  0.2344 -0.7359
 1423poe    c31 8425   1.654   6.657   2.307 -0.3163 -0.1387 -0.4741
 1423poe     o2 8426   1.587   6.646   2.430  0.8851 -0.0162  0.2025
 1423poe    c23 8427   1.484   6.549   2.428  0.7836  0.0978 -0.1438
 1423poe    c23 8428   1.380   6.574   2.539 -0.2606  0.0500 -1.0923
 1423poe     o2 8429   1.336   6.707   2.533 -0.2391  0.1266  0.1231
 1423poe    c23 8430   1.249   6.752   2.635  0.0747  0.1815  0.3690
 1423poe    c23 8431   1.242   6.906   2.637 -0.1994  0.1659  0.5408
 1423poe     o2 8432   1.370   6.964   2.647 -0.0984 -0.0678  0.6057
 1423poe    c23 8433   1.373   7.090   2.585 -0.0985 -0.1844  0.3679
 1423poe    c23 8434   1.513   7.130   2.535 -0.0721  0.1076  0.6697
 1423poe     o2 8435   1.604   7.085   2.633  0.0274 -0.4945  0.3127
 1423poe    c31 8436   1.738   7.115   2.602 -0.3474  0.4239 -0.4923
 1424poe    c31 8437   3.498   5.026   4.860 -0.5139  0.8078 -0.0397
 1424poe     o2 8438   3.561   4.983   4.741 -0.1347  0.4375  0.2862
 1424poe    c23 8439   3.696   5.021   4.741 -0.0587  0.1753 -0.2871
 1424poe    c23 8440   3.783   4.924   4.659 -0.1543 -0.2615  0.1258
 1424poe     o2 8441   3.706   4.883   4.549  0.5217  0.1764 -0.5228
 1424poe    c23 8442   3.742   4.752   4.510  0.1421  0.1678 -0.8537
 1424poe    c23 8443   3.628   4.699   4.421 -0.1054 -0.1474 -0.3561
 1424poe     o2 8444   3.509   4.746   4.478  0.2167  0.2139  0.0248
 1424poe    c23 8445   3.393   4.744   4.398  0.3581 -0.3462 -0.1729
 1424poe    c23 8446   3.289   4.838   4.462  0.0492 -0.6110 -0.2812
 1424poe     o2 8447   3.357   4.960   4.482  0.0076 -0.6636  0.2011
 1424poe    c31 8448   3.278   5.052   4.554  1.1184  0.1931  0.3643
 1425poe    c31 8449   6.539   3.369   2.617  0.5395 -0.0038  0.1605
 1425poe     o2 8450   6.581   3.496   2.571  0.0273  0.0965 -0.0365
 1425poe    c23 8451   6.497   3.539   2.466 -0.2980  0.0063  0.1814
 1425poe    c23 8452   6.571   3.632   2.368 -0.4835 -0.2111 -0.1642
 1425poe     o2 8453   6.672   3.578   2.285 -0.1735 -0.0823  0.1267
 1425poe    c23 8454   6.729   3.672   2.196 -0.0641 -0.3680 -0.1035
 1425poe    c23 8455   6.882   3.662   2.181 -0.0233 -0.1807  0.1871
 1425poe     o2 8456   6.927   3.698   2.310  0.1729 -0.3633  0.1705
 1425poe    c23 8457   7.048   3.769   2.304 -0.1713  0.2663  0.4909
 1425poe    c23 8458   7.109   3.808   2.440 -0.1616  0.4558  0.4331
 1425poe     o2 8459   7.119   3.689   2.515  0.6978  0.3283  0.1258
 1425poe    c31 8460   7.188   3.705   2.637 -0.0175 -0.2865  0.6211
 1426poe    c31 8461   2.713   0.229   2.540 -0.2110 -0.0030  0.3473
 1426poe     o2 8462   2.692   0.304   2.422 -0.4326 -0.4387  0.1086
 1426poe    c23 8463   2.702   0.437   2.466 -0.6213 -0.3082 -0.2436
 1426poe    c23 8464   2.728   0.532   2.347  0.1695 -0.1084  0.0825
 1426poe     o2 8465   2.620   0.502   2.261 -0.0323 -0.0950  0.3309
 1426poe    c23 8466   2.632   0.550   2.129  0.2071  0.2634  0.4809
 1426poe    c23 8467   2.495   0.562   2.059  0.3653 -0.0412  0.1146
 1426poe     o2 8468   2.426   0.440   2.073  0.0969  0.1826  0.8111
 1426poe    c23 8469   2.296   0.434   2.017  0.6877 -0.0056 -0.5967
 1426poe    c23 8470   2.232   0.295   2.021  0.1408  0.2559 -0.0854
 1426poe     o2 8471   2.286   0.238   2.139  0.1044  0.1345 -0.1269
 1426poe    c31 8472   2.251   0.102   2.151 -0.5578  0.3506  0.4463
 1427poe    c31 8473   4.041   1.326   1.173  0.6841  0.0899 -0.2060
 1427poe     o2 8474   4.092   1.399   1.282 -0.4211  0.3017  0.1863
 1427poe    c23 8475   4.026   1.521   1.306 -0.1023  0.4534  0.3081
 1427poe    c23 8476   4.067   1.578   1.443  0.0714  0.6119  0.1898
 1427poe     o2 8477   4.205   1.548   1.452 -0.2924 -1.1116  0.4157
 1427poe    c23 8478   4.255   1.592   1.576 -0.2436  0.3069 -0.0763
 1427poe    c23 8479   4.408   1.590   1.562 -0.2521 -0.3704 -0.1046
 1427poe     o2 8480   4.441   1.471   1.492 -0.2564 -0.6161  0.3049
 1427poe    c23 8481   4.572   1.422   1.511 -0.0458 -0.2845 -0.2633
 1427poe    c23 8482   4.594   1.269   1.512 -0.4366 -0.3468 -0.7622
 1427poe     o2 8483   4.550   1.221   1.387 -0.4152  0.0851 -0.9407
 1427poe    c31 8484   4.586   1.086   1.369  0.1073  0.1676 -0.5354
 1428poe    c31 8485   3.286   6.040   6.451 -0.0475 -0.2646  0.6600
 1428poe     o2 8486   3.239   5.972   6.336 -0.2638  0.2777  0.4265
 1428poe    c23 8487   3.159   6.055   6.255  0.0553 -0.0398 -0.2222
 1428poe    c23 8488   3.087   5.979   6.142  0.5163 -0.2257 -0.3914
 1428poe     o2 8489   2.981   5.893   6.175  0.3846  0.1316  0.1331
 1428poe    c23 8490   2.874   5.888   6.084  0.1067  0.0781  0.4599
 1428poe    c23 8491   2.748   5.850   6.165 -0.2443 -0.1429 -0.1830
 1428poe     o2 8492   2.763   5.717   6.207  0.2708 -0.1518 -0.3804
 1428poe    c23 8493   2.638   5.675   6.258  0.2995 -0.0633 -0.2356
 1428poe    c23 8494   2.632   5.524   6.230 -0.3288 -0.0803 -0.0237
 1428poe     o2 8495   2.760   5.471   6.254 -0.2880 -0.1890 -0.4641
 1428poe    c31 8496   2.767   5.392   6.370  0.2839  1.3360  0.5804
 1429poe    c31 8497   6.047   0.120   4.155 -1.1828  0.2591  0.3122
 1429poe     o2 8498   6.063  -0.017   4.124 -0.4457  0.4086  0.0079
 1429poe    c23 8499   5.965  -0.101   4.181  0.4089 -0.3093  0.4437
 1429poe    c23 8500   5.950  -0.231   4.100  0.0759  0.1843 -0.2992
 1429poe     o2 8501   6.041  -0.325   4.155  0.2859  0.5161 -0.0780
 1429poe    c23 8502   6.008  -0.460   4.132  0.3896  0.4776 -0.0014
 1429poe    c23 8503   6.135  -0.543   4.154 -0.0847 -0.2716 -0.0614
 1429poe     o2 8504   6.238  -0.488   4.075 -0.2133  0.3388  0.1950
 1429poe    c23 8505   6.345  -0.579   4.058  0.1056  0.7720 -0.1461
 1429poe    c23 8506   6.462  -0.502   3.995  0.6727  0.0096 -0.0304
 1429poe     o2 8507   6.401  -0.411   3.905  0.6634 -0.0040 -0.0388
 1429poe    c31 8508   6.499  -0.329   3.846  0.5558  0.2842  0.1838
 1430poe    c31 8509   0.672   1.322   1.311 -0.1221  0.1416 -0.1858
 1430poe     o2 8510   0.596   1.421   1.243 -0.1110 -0.0911 -0.5405
 1430poe    c23 8511   0.648   1.545   1.284 -0.3517 -0.2382  0.2298
 1430poe    c23 8512   0.561   1.672   1.285  0.3331  0.2364  0.0808
 1430poe     o2 8513   0.507   1.718   1.163 -0.2712  0.0175  0.2663
 1430poe    c23 8514   0.500   1.858   1.182  1.0643  0.1769 -0.3620
 1430poe    c23 8515   0.467   1.937   1.054  0.3063  0.3552 -0.0570
 1430poe     o2 8516   0.558   1.937   0.946  0.5685 -0.2943  0.1592
 1430poe    c23 8517   0.630   2.058   0.939 -0.2342  0.1693 -0.2672
 1430poe    c23 8518   0.712   2.055   0.808  0.2106 -0.0136  0.0136
 1430poe     o2 8519   0.766   1.925   0.795 -0.0637 -0.0995 -0.2668
 1430poe    c31 8520   0.848   1.907   0.682 -0.4120 -0.0815 -0.5251
 1431poe    c31 8521   2.747   5.321   0.480  0.1208 -0.7707 -0.0149
 1431poe     o2 8522   2.630   5.376   0.424 -0.0125 -0.4712  0.5416
 1431poe    c23 8523   2.561   5.262   0.377 -0.1661 -0.1890  0.0747
 1431poe    c23 8524   2.448   5.307   0.282 -0.1800  0.1257  0.2369
 1431poe     o2 8525   2.342   5.354   0.362 -0.1184 -0.0703  0.4362
 1431poe    c23 8526   2.218   5.349   0.295  0.1098  0.2804 -0.0234
 1431poe    c23 8527   2.110   5.396   0.393  0.1590 -0.1118  0.2216
 1431poe     o2 8528   2.152   5.520   0.447  0.4992  0.0597 -0.4295
 1431poe    c23 8529   2.069   5.563   0.553  0.3393 -0.2087 -0.4432
 1431poe    c23 8530   2.101   5.713   0.563 -0.0754 -0.1544  0.0698
 1431poe     o2 8531   2.241   5.725   0.557 -0.1312  0.3413 -0.3448
 1431poe    c31 8532   2.282   5.859   0.543  0.4897  0.2575  0.6006
 1432poe    c31 8533   4.157   4.529   1.982 -0.1879  0.2859 -0.7709
 1432poe     o2 8534   4.250   4.432   1.938  0.2321  0.2877  0.0970
 1432poe    c23 8535   4.272   4.443   1.799 -0.8444  0.0607 -0.1012
 1432poe    c23 8536   4.374   4.338   1.752 -0.3771  0.2232  0.5371
 1432poe     o2 8537   4.322   4.210   1.779 -0.1633  0.0951  0.3365
 1432poe    c23 8538   4.429   4.125   1.744 -0.3304 -0.0973  0.2918
 1432poe    c23 8539   4.386   3.981   1.773 -0.5151 -0.0985  0.0185
 1432poe     o2 8540   4.326   3.983   1.901  0.2424 -0.0878  0.3795
 1432poe    c23 8541   4.260   3.863   1.937  0.2209 -0.3251 -0.4417
 1432poe    c23 8542   4.188   3.866   2.072 -0.0046 -0.3419 -0.5621
 1432poe     o2 8543   4.066   3.936   2.078  0.4827  0.4685  0.0093
 1432poe    c31 8544   4.014   3.924   2.208  0.5179 -0.2107 -0.0357
 1433poe    c31 8545   5.911   5.154   0.204  0.0564 -0.6458 -0.1302
 1433poe     o2 8546   5.785   5.131   0.145 -0.0832 -0.1576 -0.0218
 1433poe    c23 8547   5.709   5.248   0.123  0.0108 -0.0926 -0.0038
 1433poe    c23 8548   5.615   5.214   0.006 -0.1100 -0.0805  0.0898
 1433poe     o2 8549   5.558   5.087   0.031 -0.1718  0.0057  0.3883
 1433poe    c23 8550   5.507   5.034  -0.089  0.5058 -0.5239  0.3316
 1433poe    c23 8551   5.419   4.907  -0.087 -0.0231 -0.1685 -0.3161
 1433poe     o2 8552   5.505   4.812  -0.029  0.4830  0.6294  0.2620
 1433poe    c23 8553   5.445   4.708   0.044  0.4531  0.3219 -0.1970
 1433poe    c23 8554   5.547   4.598   0.078  0.0750  0.1236  0.3163
 1433poe     o2 8555   5.657   4.641   0.156 -0.0629  0.4671  0.3234
 1433poe    c31 8556   5.693   4.515   0.209  0.1104  0.3569 -0.0559
 1434poe    c31 8557   6.071   4.267   3.105  0.1955  0.3551 -0.1917
 1434poe     o2 8558   6.052   4.302   3.240 -0.3922 -0.4967 -0.0440
 1434poe    c23 8559   5.999   4.429   3.271 -0.0693 -0.3879  0.0652
 1434poe    c23 8560   5.850   4.428   3.309 -0.1317 -0.3448 -0.1765
 1434poe     o2 8561   5.807   4.348   3.417 -0.1812 -0.0938 -0.0109
 1434poe    c23 8562   5.671   4.344   3.452 -0.0537  0.7538  0.6181
 1434poe    c23 8563   5.661   4.300   3.599 -0.2416 -0.0985  0.3556
 1434poe     o2 8564   5.716   4.171   3.612  0.0309  0.0205  0.4031
 1434poe    c23 8565   5.742   4.132   3.745 -0.1749  0.1276  0.4758
 1434poe    c23 8566   5.772   3.982   3.757 -0.1273  0.0836 -0.1419
 1434poe     o2 8567   5.905   3.949   3.722  0.1530  0.7893  0.2450
 1434poe    c31 8568   5.966   3.863   3.816 -0.0416 -0.1492 -0.4788
 1435poe    c31 8569   5.658   6.117   4.818 -0.0450 -0.1073  0.5834
 1435poe     o2 8570   5.787   6.089   4.868  0.1991 -0.1097 -0.0484
 1435poe    c23 8571   5.835   5.958   4.850 -0.2139 -0.2158 -0.3960
 1435poe    c23 8572   5.959   5.928   4.937 -0.1936  0.8968 -0.0304
 1435poe     o2 8573   5.946   5.966   5.072 -0.4526  0.0120  0.1966
 1435poe    c23 8574   6.060   5.938   5.151 -0.4878 -0.0849  0.2142
 1435poe    c23 8575   6.018   5.883   5.288  0.6541 -0.6179  0.3569
 1435poe     o2 8576   5.953   5.983   5.362  0.7696 -0.3309  0.0715
 1435poe    c23 8577   5.901   5.907   5.469 -0.8445 -0.2350 -0.6167
 1435poe    c23 8578   5.838   5.998   5.576  0.1794  0.2322 -0.3968
 1435poe     o2 8579   5.778   6.105   5.507  0.2322  0.5390  0.0283
 1435poe    c31 8580   5.707   6.188   5.597 -0.2859 -0.0181  0.1407
 1436poe    c31 8581   6.313   3.127   3.120  0.2780  0.3884  0.0681
 1436poe     o2 8582   6.383   3.044   3.211 -0.0677 -0.2022 -0.1997
 1436poe    c23 8583   6.475   2.973   3.133 -0.4451 -0.0890 -0.7510
 1436poe    c23 8584   6.595   2.949   3.226 -0.4124  0.1147 -0.7428
 1436poe     o2 8585   6.531   2.901   3.341  0.4571 -0.3807 -0.4525
 1436poe    c23 8586   6.619   2.853   3.440 -0.1366 -0.4185  0.0660
 1436poe    c23 8587   6.524   2.822   3.557 -0.1363 -0.0230  0.1708
 1436poe     o2 8588   6.427   2.925   3.551  0.1925  0.2377 -0.9036
 1436poe    c23 8589   6.321   2.893   3.638  0.5836  0.4726 -0.3326
 1436poe    c23 8590   6.214   3.001   3.613 -0.0399 -0.0474  0.0560
 1436poe     o2 8591   6.216   3.016   3.473  0.1844 -0.0259  0.0614
 1436poe    c31 8592   6.084   3.001   3.426  0.1003 -0.1336  0.3278
 1437poe    c31 8593   4.157   6.071   0.794 -0.0992 -0.0271 -0.2802
 1437poe     o2 8594   4.224   6.050   0.671  0.1862 -0.5771 -0.0336
 1437poe    c23 8595   4.150   5.993   0.565 -0.6148  0.0673  0.1671
 1437poe    c23 8596   4.216   6.028   0.430 -0.5949  0.1456  0.1967
 1437poe     o2 8597   4.346   5.978   0.410 -0.4417  0.3712  0.6122
 1437poe    c23 8598   4.410   6.027   0.294  0.3538  0.0174  0.8897
 1437poe    c23 8599   4.528   5.931   0.270  0.0385 -0.1510 -0.0447
 1437poe     o2 8600   4.585   5.902   0.395  0.0717  0.2393  0.0323
 1437poe    c23 8601   4.705   5.836   0.361 -0.0594 -0.0507  0.1290
 1437poe    c23 8602   4.795   5.859   0.484  0.2462  0.0252 -0.1069
 1437poe     o2 8603   4.698   5.845   0.586  0.1144 -0.7219 -0.3329
 1437poe    c31 8604   4.737   5.840   0.722 -0.1272  0.0150 -0.2375
 1438poe    c31 8605   4.724   4.840   4.118 -0.5746 -0.2004  0.0107
 1438poe     o2 8606   4.803   4.833   4.002  0.5436 -0.1906  0.7638
 1438poe    c23 8607   4.854   4.962   3.980 -0.4752  0.1913  0.6069
 1438poe    c23 8608   4.905   4.963   3.834  0.5799 -0.1096  0.9609
 1438poe     o2 8609   4.960   4.836   3.808  0.3135 -0.1120  0.3934
 1438poe    c23 8610   5.019   4.820   3.681 -0.8546 -0.6354 -0.1050
 1438poe    c23 8611   5.098   4.689   3.701  0.2524  0.0058 -0.1741
 1438poe     o2 8612   5.015   4.607   3.781  0.5992  0.1803  0.3740
 1438poe    c23 8613   5.059   4.473   3.771  0.0265  0.0429 -0.3947
 1438poe    c23 8614   4.965   4.394   3.679 -0.2410  0.0458 -0.1261
 1438poe     o2 8615   4.845   4.355   3.743 -0.0890 -0.2260 -0.0046
 1438poe    c31 8616   4.806   4.225   3.707  0.2400 -0.3537  0.0955
 1439poe    c31 8617   0.490   4.186   2.384  0.3109  0.4130 -0.1773
 1439poe     o2 8618   0.414   4.295   2.431  0.0698 -0.0134  0.4375
 1439poe    c23 8619   0.495   4.397   2.484 -0.5178  0.4649  0.4246
 1439poe    c23 8620   0.405   4.514   2.527  0.4339  1.4332 -0.1744
 1439poe     o2 8621   0.327   4.483   2.640  0.2672 -0.3019 -0.7435
 1439poe    c23 8622   0.228   4.582   2.655  0.6709 -0.0257  0.1529
 1439poe    c23 8623   0.115   4.532   2.748  0.2384  0.2404 -0.2271
 1439poe     o2 8624   0.055   4.411   2.710 -0.0521  0.3198 -0.0287
 1439poe    c23 8625  -0.070   4.415   2.774 -0.1987  0.0571 -0.2954
 1439poe    c23 8626  -0.160   4.300   2.725  0.1052 -0.3424  0.0735
 1439poe     o2 8627  -0.075   4.190   2.703 -0.1797 -0.5209 -0.1534
 1439poe    c31 8628  -0.134   4.069   2.663  0.0121 -0.5288 -0.4119
 1440poe    c31 8629   5.494   0.367   0.962  0.5280 -0.5639 -0.3635
 1440poe     o2 8630   5.399   0.367   1.067  0.3926 -0.2749 -0.4838
 1440poe    c23 8631   5.395   0.498   1.120  0.0695 -0.4908  0.0394
 1440poe    c23 8632   5.249   0.527   1.157  0.1990 -0.0805  0.2377
 1440poe     o2 8633   5.220   0.403   1.217 -0.0193 -0.0637  0.1667
 1440poe    c23 8634   5.085   0.399   1.260  0.1194  1.0467  0.7353
 1440poe    c23 8635   5.057   0.291   1.366  0.1745  0.3111  0.0175
 1440poe     o2 8636   5.075   0.160   1.317 -0.3798  0.4064 -0.4520
 1440poe    c23 8637   4.995   0.052   1.359  0.5581 -0.1831 -0.1731
 1440poe    c23 8638   4.989  -0.045   1.240 -0.3360  0.4380 -0.6415
 1440poe     o2 8639   5.112  -0.105   1.205 -0.1794  0.4455 -0.1021
 1440poe    c31 8640   5.103  -0.162   1.077  0.0328  0.3771 -0.0863
 1441poe    c31 8641   4.990   4.290   5.002  0.5169 -0.7002  0.0149
 1441poe     o2 8642   4.999   4.212   4.885  0.6210 -0.0525 -0.4136
 1441poe    c23 8643   5.000   4.286   4.764  0.1515  0.1892 -0.2677
 1441poe    c23 8644   5.009   4.204   4.634 -0.0681  0.0136 -0.1749
 1441poe     o2 8645   5.129   4.129   4.627 -0.2682 -0.3513  0.2766
 1441poe    c23 8646   5.156   4.117   4.490 -0.0893 -0.5588  0.3299
 1441poe    c23 8647   5.291   4.044   4.479  0.0449 -0.2578 -0.0561
 1441poe     o2 8648   5.275   3.922   4.549  0.0461 -0.5365 -0.5339
 1441poe    c23 8649   5.392   3.844   4.556  0.2461 -0.2217 -0.3409
 1441poe    c23 8650   5.356   3.720   4.640 -0.0528 -0.0495 -0.2108
 1441poe     o2 8651   5.289   3.778   4.749  0.5996 -0.0529  0.2012
 1441poe    c31 8652   5.272   3.692   4.859  0.0339  0.1840  0.3034
 1442poe    c31 8653   3.233   3.819   6.305 -0.1349  0.5184  0.6274
 1442poe     o2 8654   3.116   3.875   6.361 -0.4157  0.3979  0.1651
 1442poe    c23 8655   3.107   4.009   6.317  0.4777  0.3655 -0.1521
 1442poe    c23 8656   2.988   4.084   6.380  0.1047 -0.2846 -0.0694
 1442poe     o2 8657   2.879   3.995   6.379 -0.3239  0.2333 -0.1020
 1442poe    c23 8658   2.810   4.010   6.501  0.5672  0.1858  0.4163
 1442poe    c23 8659   2.728   3.880   6.512  0.2390  0.3359 -0.2087
 1442poe     o2 8660   2.824   3.777   6.512  0.1298  0.2311  0.1067
 1442poe    c23 8661   2.785   3.645   6.482  0.0241  0.2725  0.0628
 1442poe    c23 8662   2.902   3.549   6.509 -0.0823  0.1567  0.1103
 1442poe     o2 8663   3.020   3.617   6.474 -0.2183  0.1645 -0.3440
 1442poe    c31 8664   3.122   3.520   6.479 -0.1691  0.2581  1.1042
 1443poe    c31 8665   3.254   2.942   2.717  0.4143  0.0888  0.1015
 1443poe     o2 8666   3.147   2.853   2.699  0.2587  0.2981 -0.0092
 1443poe    c23 8667   3.024   2.922   2.707  0.1769  0.1929 -0.3521
 1443poe    c23 8668   2.907   2.826   2.677  0.2225 -0.1844  0.6590
 1443poe     o2 8669   2.945   2.731   2.580 -0.2776 -0.1531  0.4282
 1443poe    c23 8670   2.848   2.628   2.581 -0.0263 -0.4007 -0.4635
 1443poe    c23 8671   2.895   2.514   2.489  0.1102 -0.2318 -0.6059
 1443poe     o2 8672   3.032   2.489   2.511  0.0662  0.3366  0.3883
 1443poe    c23 8673   3.080   2.357   2.512  0.1958  0.3757 -0.2380
 1443poe    c23 8674   3.090   2.299   2.654 -0.5005  0.1124 -0.2940
 1443poe     o2 8675   3.201   2.327   2.736 -0.2538 -0.0616 -0.5660
 1443poe    c31 8676   3.247   2.218   2.812  0.4538  0.4316 -0.2763
 1444poe    c31 8677   3.340   3.326   5.498 -0.8319  0.6792 -0.3614
 1444poe     o2 8678   3.317   3.191   5.464  0.5356  0.4543 -0.4185
 1444poe    c23 8679   3.429   3.131   5.402  0.6218  0.0240  0.1381
 1444poe    c23 8680   3.409   2.979   5.412 -0.2391  0.0943 -0.3951
 1444poe     o2 8681   3.272   2.951   5.419 -0.2531  0.1655 -0.3811
 1444poe    c23 8682   3.242   2.813   5.418  0.1701  0.0724 -0.3844
 1444poe    c23 8683   3.093   2.800   5.455  0.3174  1.0218  0.6089
 1444poe     o2 8684   3.028   2.917   5.411  0.0564  0.7974  0.3948
 1444poe    c23 8685   2.891   2.883   5.409  0.3830 -0.5874  0.0527
 1444poe    c23 8686   2.813   2.986   5.326  0.4337 -0.1057  0.5935
 1444poe     o2 8687   2.810   3.113   5.388  0.2572  0.1986 -0.0311
 1444poe    c31 8688   2.720   3.192   5.313 -0.2842 -0.2231  0.1690
 1445poe    c31 8689   3.607   1.039   3.638  0.6592  0.0756  0.0996
 1445poe     o2 8690   3.594   0.988   3.507 -0.0313 -0.1302  0.2433
 1445poe    c23 8691   3.558   0.852   3.506 -0.5544  0.0061 -0.2196
 1445poe    c23 8692   3.596   0.786   3.372  0.4903  0.3356 -0.0988
 1445poe     o2 8693   3.734   0.795   3.343  0.4439  0.1813 -0.3707
 1445poe    c23 8694   3.764   0.701   3.243 -0.1848 -0.1772 -0.2296
 1445poe    c23 8695   3.910   0.730   3.202  0.0397  0.1481  0.7749
 1445poe     o2 8696   3.920   0.860   3.150 -0.6213 -0.3241 -0.6046
 1445poe    c23 8697   4.043   0.892   3.090 -0.4962 -0.1034 -0.2352
 1445poe    c23 8698   4.040   1.044   3.068  0.2526 -0.0043  0.2732
 1445poe     o2 8699   3.995   1.107   3.186 -0.3523  0.2360 -0.0771
 1445poe    c31 8700   3.963   1.242   3.162 -0.0025  0.4273  0.5142
 1446poe    c31 8701   6.919   2.256   4.583  0.3654  0.5019  0.0492
 1446poe     o2 8702   6.879   2.161   4.487  0.3215  0.2902  0.2736
 1446poe    c23 8703   6.936   2.187   4.360 -0.0976 -0.6097 -0.1074
 1446poe    c23 8704   6.860   2.100   4.259 -0.3507 -0.3313 -0.1593
 1446poe     o2 8705   6.731   2.088   4.315 -0.2154  1.0080  0.4735
 1446poe    c23 8706   6.640   2.021   4.230  0.1880 -0.1217  0.9066
 1446poe    c23 8707   6.497   2.057   4.275  0.0616  0.3252  0.1732
 1446poe     o2 8708   6.483   2.005   4.406 -0.2024 -0.4898 -0.1720
 1446poe    c23 8709   6.402   2.079   4.495  0.9817  0.7863 -0.1282
 1446poe    c23 8710   6.464   2.104   4.634 -0.0170 -0.0552  0.4783
 1446poe     o2 8711   6.602   2.132   4.640 -0.1401  0.6999 -0.1242
 1446poe    c31 8712   6.626   2.159   4.776 -0.2935 -0.5846  0.1644
 1447poe    c31 8713   0.741   1.642   3.524  0.0749 -0.5715 -0.1778
 1447poe     o2 8714   0.731   1.603   3.660  0.0229  0.0286 -0.0066
 1447poe    c23 8715   0.845   1.645   3.732  0.1539 -0.1654 -0.0994
 1447poe    c23 8716   0.954   1.539   3.757 -0.0876 -0.4109 -0.0828
 1447poe     o2 8717   0.908   1.448   3.855 -0.4681 -0.2513 -0.1111
 1447poe    c23 8718   0.997   1.339   3.868 -0.4584 -0.2334 -0.0218
 1447poe    c23 8719   0.948   1.233   3.967 -0.6421 -0.0896  0.0419
 1447poe     o2 8720   0.813   1.201   3.941 -0.6432 -0.3063  0.2970
 1447poe    c23 8721   0.751   1.114   4.032 -0.0057  0.0666  1.0984
 1447poe    c23 8722   0.600   1.121   4.004  0.1283  0.0835  0.3569
 1447poe     o2 8723   0.553   1.252   3.987  0.4488  0.1914  0.3071
 1447poe    c31 8724   0.423   1.267   4.040  0.4290  0.3527  0.2165
 1448poe    c31 8725   0.714   4.522   4.976 -0.3527  0.0331 -0.5321
 1448poe     o2 8726   0.704   4.574   5.107 -0.4869  0.3789 -0.6789
 1448poe    c23 8727   0.768   4.699   5.114  0.4767 -0.1269 -0.2051
 1448poe    c23 8728   0.713   4.801   5.215 -0.0427 -0.2160 -0.3976
 1448poe     o2 8729   0.581   4.851   5.206 -0.3967 -0.9092  0.8174
 1448poe    c23 8730   0.549   4.950   5.301 -0.4128 -0.4088  0.2931
 1448poe    c23 8731   0.396   4.958   5.281 -0.3695  0.6396  0.2997
 1448poe     o2 8732   0.332   4.835   5.254 -0.0749  0.6601 -0.5380
 1448poe    c23 8733   0.193   4.850   5.235 -0.1925 -0.0618 -0.2594
 1448poe    c23 8734   0.125   4.712   5.240 -0.6909  0.1665 -0.7075
 1448poe     o2 8735   0.187   4.636   5.138  0.0956 -0.0048 -0.1093
 1448poe    c31 8736   0.131   4.507   5.138  0.1519 -0.0314  0.2433
 1449poe    c31 8737   1.533   2.823   6.929 -0.0104 -0.6752 -0.4894
 1449poe     o2 8738   1.603   2.771   7.040 -0.9654 -0.0195  0.4355
 1449poe    c23 8739   1.566   2.636   7.057  0.5851 -0.6284 -0.7972
 1449poe    c23 8740   1.669   2.545   7.127  0.2742 -0.2172  0.2075
 1449poe     o2 8741   1.715   2.629   7.231  0.1405 -0.0884  0.1626
 1449poe    c23 8742   1.835   2.572   7.277  0.1085 -0.4328 -0.1745
 1449poe    c23 8743   1.883   2.671   7.385  0.2891 -0.0137 -0.6383
 1449poe     o2 8744   1.859   2.795   7.322 -0.2894  0.0276 -0.3418
 1449poe    c23 8745   1.866   2.914   7.398  0.7110 -0.0361 -0.3211
 1449poe    c23 8746   1.854   3.025   7.292  0.1120 -0.3820 -0.6232
 1449poe     o2 8747   1.726   3.003   7.237 -0.0207 -0.4654 -0.2864
 1449poe    c31 8748   1.680   3.120   7.172  0.2713  0.4642  1.1381
 1450poe    c31 8749   4.762   4.643   2.703  0.8299  0.6054  0.1291
 1450poe     o2 8750   4.708   4.719   2.808 -0.1131  0.0465  0.0554
 1450poe    c23 8751   4.747   4.854   2.806  0.6406 -0.1578  0.6887
 1450poe    c23 8752   4.654   4.933   2.899  0.1577 -0.1478  0.1987
 1450poe     o2 8753   4.637   4.863   3.020 -0.1008  0.0778  0.2957
 1450poe    c23 8754   4.520   4.889   3.093 -0.4966  0.0058 -0.3087
 1450poe    c23 8755   4.538   4.838   3.237 -0.4075 -0.3783 -0.4568
 1450poe     o2 8756   4.594   4.709   3.222 -0.2569 -0.2829 -0.7083
 1450poe    c23 8757   4.662   4.660   3.336 -0.1399  0.4930 -0.4319
 1450poe    c23 8758   4.616   4.523   3.391  0.2125  0.6253  0.2025
 1450poe     o2 8759   4.476   4.516   3.409  0.2148  0.0218  0.0141
 1450poe    c31 8760   4.429   4.384   3.422 -0.5440  0.2211 -0.6529
 1451poe    c31 8761   3.455   5.498   1.658 -0.3591 -0.0544  0.2964
 1451poe     o2 8762   3.591   5.487   1.620 -0.5806 -0.0809 -0.5030
 1451poe    c23 8763   3.667   5.497   1.738 -0.4938  0.3896 -0.5953
 1451poe    c23 8764   3.744   5.630   1.743  0.1358  0.0192 -0.2164
 1451poe     o2 8765   3.822   5.645   1.626 -0.3419  0.3403 -0.4960
 1451poe    c23 8766   3.880   5.773   1.612  0.2132  0.1628  0.1452
 1451poe    c23 8767   3.931   5.806   1.471  0.1928  0.1724  0.1401
 1451poe     o2 8768   3.984   5.695   1.402 -0.1231  0.1662 -0.0921
 1451poe    c23 8769   4.016   5.741   1.273  0.1672 -0.1413 -0.1284
 1451poe    c23 8770   4.054   5.613   1.196 -0.5808 -0.3144 -0.2147
 1451poe     o2 8771   3.969   5.511   1.244 -0.1431 -0.4367  0.3058
 1451poe    c31 8772   3.973   5.388   1.175  0.1936 -0.5329  0.4936
 1452poe    c31 8773   5.634   3.624   6.753 -0.0633  0.1469 -0.4241
 1452poe     o2 8774   5.775   3.619   6.757 -0.0824  0.1534  0.4347
 1452poe    c23 8775   5.824   3.715   6.849  0.3583  0.3466  0.0028
 1452poe    c23 8776   5.951   3.654   6.911  0.1104  0.3078  0.4707
 1452poe     o2 8777   6.033   3.629   6.799 -0.0668  0.2700  0.3504
 1452poe    c23 8778   6.157   3.580   6.843  0.2839  0.3050 -0.5853
 1452poe    c23 8779   6.271   3.597   6.740  0.4455  0.0895 -0.4434
 1452poe     o2 8780   6.221   3.558   6.614 -0.1177  0.3699 -0.3123
 1452poe    c23 8781   6.329   3.534   6.526  0.1623  0.7117 -0.0660
 1452poe    c23 8782   6.282   3.445   6.410  0.1881  0.1628  0.3390
 1452poe     o2 8783   6.378   3.387   6.324 -0.2676  0.0506 -0.1015
 1452poe    c31 8784   6.319   3.317   6.217 -0.5714 -0.5469  0.4457
 1453poe    c31 8785   5.372   1.039   0.174  0.0953 -0.6436 -0.0520
 1453poe     o2 8786   5.353   1.144   0.267  0.0558 -0.4730 -0.2508
 1453poe    c23 8787   5.457   1.238   0.261 -0.0618 -0.3215  0.0715
 1453poe    c23 8788   5.434   1.353   0.361  0.4324  0.3189 -0.5440
 1453poe     o2 8789   5.366   1.450   0.285  0.1789  0.1307 -0.5574
 1453poe    c23 8790   5.396   1.570   0.353  0.5378 -0.0909 -0.3258
 1453poe    c23 8791   5.308   1.678   0.288 -0.0581 -0.3930 -0.0384
 1453poe     o2 8792   5.330   1.654   0.151 -0.3013 -0.2796 -0.0984
 1453poe    c23 8793   5.272   1.764   0.085  0.0134 -0.2128 -0.2654
 1453poe    c23 8794   5.306   1.761  -0.065 -0.0631  0.2772 -0.2932
 1453poe     o2 8795   5.257   1.639  -0.116 -0.3895  0.2373  0.1156
 1453poe    c31 8796   5.308   1.619  -0.245  0.1478  0.7092  0.2501
 1454poe    c31 8797   6.575   5.088   2.843 -0.1919  0.6327 -0.2113
 1454poe     o2 8798   6.438   5.063   2.820 -0.1548  0.2379 -0.0143
 1454poe    c23 8799   6.393   4.934   2.853  0.1430  0.0644 -0.2905
 1454poe    c23 8800   6.279   4.883   2.763  0.1904  0.4491 -0.5676
 1454poe     o2 8801   6.166   4.967   2.778 -0.1160 -0.0632  0.0158
 1454poe    c23 8802   6.071   4.927   2.682  0.0128 -0.1740 -0.0658
 1454poe    c23 8803   5.958   5.030   2.669  0.4015  0.2804  0.1070
 1454poe     o2 8804   6.009   5.149   2.613  0.2683  0.3552  0.1451
 1454poe    c23 8805   5.901   5.232   2.575  0.1177  0.2359  0.3126
 1454poe    c23 8806   5.939   5.378   2.543  0.1521  0.0409 -0.5626
 1454poe     o2 8807   6.025   5.398   2.653 -0.7081  0.2785  0.0811
 1454poe    c31 8808   6.060   5.531   2.685  0.4143  0.1592 -0.6037
 1455poe    c31 8809   6.613   4.851   1.384  0.4392  0.4480  0.2442
 1455poe     o2 8810   6.614   4.776   1.265  0.1324 -0.4543  0.7970
 1455poe    c23 8811   6.741   4.771   1.205 -0.3408 -0.1669 -0.2590
 1455poe    c23 8812   6.740   4.709   1.063  0.5007 -0.1185 -0.2908
 1455poe     o2 8813   6.663   4.782   0.971  0.5195  0.0033 -0.2114
 1455poe    c23 8814   6.703   4.762   0.837  0.7773 -0.1641 -0.1105
 1455poe    c23 8815   6.646   4.857   0.730 -0.3312 -0.6975 -0.0141
 1455poe     o2 8816   6.505   4.853   0.732 -0.3598  0.1539 -0.0160
 1455poe    c23 8817   6.444   4.970   0.683 -0.2493  0.2202  0.0028
 1455poe    c23 8818   6.292   4.945   0.678 -0.1926 -0.1212 -0.0021
 1455poe     o2 8819   6.261   4.872   0.795  0.3463  0.4161  0.4786
 1455poe    c31 8820   6.125   4.886   0.830  0.1456 -0.1593 -0.0536
 1456poe    c31 8821   5.476   1.461   4.602 -0.2236  0.0549 -0.1816
 1456poe     o2 8822   5.399   1.509   4.494  0.3525  0.1532 -0.5555
 1456poe    c23 8823   5.332   1.628   4.528  0.0150 -0.2647  0.2807
 1456poe    c23 8824   5.262   1.714   4.420 -0.2096 -0.2192  0.4623
 1456poe     o2 8825   5.155   1.653   4.352 -0.2218 -0.4565  0.6919
 1456poe    c23 8826   5.137   1.735   4.239  0.6676 -0.5980  0.4484
 1456poe    c23 8827   5.017   1.687   4.156  0.6209 -0.0154  0.1694
 1456poe     o2 8828   4.912   1.660   4.247  0.2358  0.3870 -0.1523
 1456poe    c23 8829   4.785   1.676   4.188  0.0077 -0.1003  0.2071
 1456poe    c23 8830   4.676   1.649   4.294 -0.4281 -0.1684 -0.2584
 1456poe     o2 8831   4.681   1.517   4.344  0.0010  0.2649  0.8723
 1456poe    c31 8832   4.558   1.483   4.403 -0.5286  0.5886 -0.0175
 1457poe    c31 8833   1.843   4.692   5.519  0.7502 -0.5185 -0.4647
 1457poe     o2 8834   1.963   4.727   5.584  0.2196  0.3030  0.0925
 1457poe    c23 8835   2.059   4.625   5.570  0.3706  0.4777 -0.1663
 1457poe    c23 8836   2.192   4.684   5.622  0.3018  0.0957  0.4634
 1457poe     o2 8837   2.200   4.816   5.573  0.5605 -0.2198 -0.3705
 1457poe    c23 8838   2.328   4.874   5.584  0.4908 -0.0928 -0.2329
 1457poe    c23 8839   2.327   4.997   5.492 -0.4847  0.4337  0.4551
 1457poe     o2 8840   2.244   5.092   5.555 -0.1519  0.5256  0.7556
 1457poe    c23 8841   2.231   5.222   5.501  0.2380  0.2645  0.0142
 1457poe    c23 8842   2.116   5.305   5.561  0.0912 -0.2016  0.3788
 1457poe     o2 8843   1.991   5.243   5.541  0.2266 -0.2426 -0.3593
 1457poe    c31 8844   1.875   5.318   5.569  0.1641 -0.4715 -0.0038
 1458poe    c31 8845   0.374   2.523   1.837  0.6540 -0.3919  0.0175
 1458poe     o2 8846   0.253   2.475   1.892  0.1657  0.3003 -0.4480
 1458poe    c23 8847   0.155   2.577   1.899 -0.2226 -0.1085  0.1014
 1458poe    c23 8848   0.039   2.493   1.956 -0.2125 -0.1015  0.1326
 1458poe     o2 8849  -0.027   2.412   1.861  0.0358  0.1712 -0.2751
 1458poe    c23 8850  -0.120   2.340   1.939  0.1362  0.3350 -0.0034
 1458poe    c23 8851  -0.190   2.237   1.848  0.5979  0.4600 -0.5065
 1458poe     o2 8852  -0.085   2.150   1.813  0.3333  0.0190 -0.2060
 1458poe    c23 8853  -0.130   2.019   1.788  0.3239 -0.0438  0.1261
 1458poe    c23 8854  -0.001   1.937   1.797  0.4684  0.1589 -0.0994
 1458poe     o2 8855   0.097   1.993   1.712 -0.0972  0.2311 -0.7072
 1458poe    c31 8856   0.223   1.931   1.704  0.0586  0.4260  0.1292
 1459poe    c31 8857   2.574   6.257   3.396  0.2732 -0.5219 -0.4175
 1459poe     o2 8858   2.445   6.244   3.453  0.4818  0.2137  0.2465
 1459poe    c23 8859   2.409   6.111   3.421  0.1558  0.2444  0.4864
 1459poe    c23 8860   2.279   6.098   3.502  0.0564 -0.8327  0.1605
 1459poe     o2 8861   2.300   6.127   3.638  0.1245 -0.5052  0.0787
 1459poe    c23 8862   2.186   6.107   3.719 -0.2006 -0.0500 -0.2607
 1459poe    c23 8863   2.118   6.245   3.721 -0.2153 -0.0659  0.3868
 1459poe     o2 8864   2.224   6.337   3.724  0.0537 -0.3424 -0.4058
 1459poe    c23 8865   2.190   6.440   3.633 -0.2649 -0.4006 -0.3524
 1459poe    c23 8866   2.297   6.550   3.621 -0.0748 -0.5470 -0.0116
 1459poe     o2 8867   2.418   6.479   3.606  0.0612 -0.2202 -0.4934
 1459poe    c31 8868   2.515   6.580   3.592  0.2377 -0.3649 -0.3248
 1460poe    c31 8869   6.365   3.033   0.368 -0.5919  0.5477 -0.7864
 1460poe     o2 8870   6.273   2.937   0.321 -0.4890  0.1392 -0.1687
 1460poe    c23 8871   6.268   2.827   0.409 -0.1501 -0.0313 -0.3595
 1460poe    c23 8872   6.143   2.740   0.385 -0.3460  0.1503 -0.0036
 1460poe     o2 8873   6.014   2.793   0.363 -0.5076 -0.2706 -0.0678
 1460poe    c23 8874   5.978   2.901   0.445 -0.5362 -0.2100 -0.1595
 1460poe    c23 8875   5.829   2.942   0.440 -0.3163  0.6691  0.2543
 1460poe     o2 8876   5.777   2.954   0.310  0.0180  0.4691  0.0982
 1460poe    c23 8877   5.660   3.034   0.313 -0.3839 -0.0996 -0.1052
 1460poe    c23 8878   5.619   3.064   0.168 -0.6389 -0.0696 -0.0267
 1460poe     o2 8879   5.730   3.051   0.082 -0.6589 -0.1052 -0.0477
 1460poe    c31 8880   5.691   3.065  -0.053  1.0682 -0.0125 -0.5512
 1461poe    c31 8881   0.647   2.349   5.445 -0.6130 -0.2006  0.2827
 1461poe     o2 8882   0.630   2.469   5.516  0.5149  0.3677 -0.3642
 1461poe    c23 8883   0.673   2.459   5.650  0.0924  0.1884 -0.2397
 1461poe    c23 8884   0.604   2.574   5.726  0.0564  0.0336 -0.0383
 1461poe     o2 8885   0.631   2.686   5.645  0.4271  0.1490  0.2368
 1461poe    c23 8886   0.539   2.792   5.663  0.6971  0.3938  0.1879
 1461poe    c23 8887   0.562   2.905   5.561 -0.1243  0.0529 -0.3884
 1461poe     o2 8888   0.574   2.856   5.429  0.2218 -0.1992 -0.2659
 1461poe    c23 8889   0.578   2.953   5.327 -0.4260 -0.2754 -0.3734
 1461poe    c23 8890   0.439   2.972   5.264 -0.5139  0.0694 -0.0833
 1461poe     o2 8891   0.376   2.861   5.204 -0.3132  0.2077 -0.5559
 1461poe    c31 8892   0.425   2.827   5.076  0.0271 -0.4738 -0.2510
 1462poe    c31 8893   5.241   5.263   5.232 -0.1894  0.1904  0.0101
 1462poe     o2 8894   5.210   5.126   5.215 -0.4302  0.2003  0.3655
 1462poe    c23 8895   5.172   5.079   5.343 -0.4830  0.3417  0.4021
 1462poe    c23 8896   5.123   4.935   5.324 -0.0481  0.2241  0.1402
 1462poe     o2 8897   5.218   4.843   5.276 -0.4944 -0.3485  0.3396
 1462poe    c23 8898   5.170   4.710   5.287 -0.5293 -0.3387  0.3029
 1462poe    c23 8899   5.259   4.612   5.208 -0.5051  0.0740 -0.1879
 1462poe     o2 8900   5.288   4.652   5.076 -0.2763  0.1166 -0.1246
 1462poe    c23 8901   5.386   4.561   5.031 -0.0209  0.2492  0.1599
 1462poe    c23 8902   5.411   4.582   4.881  0.7995  0.2072  0.2895
 1462poe     o2 8903   5.401   4.722   4.869 -0.1638  0.0975 -0.2683
 1462poe    c31 8904   5.484   4.770   4.765  0.2792  0.2742  0.1592
 1463poe    c31 8905   1.145   0.957   6.315 -0.0739  0.0305  0.1800
 1463poe     o2 8906   1.253   0.979   6.402  0.3010 -0.6672 -0.1036
 1463poe    c23 8907   1.383   0.954   6.353  0.3594 -0.2322 -0.1760
 1463poe    c23 8908   1.491   0.954   6.464  0.3476 -0.3576 -0.1649
 1463poe     o2 8909   1.605   0.878   6.429  0.1449 -0.4503 -0.6413
 1463poe    c23 8910   1.708   0.901   6.523 -0.5502  0.9102 -0.1784
 1463poe    c23 8911   1.764   1.043   6.534  0.3661  0.5707 -0.3794
 1463poe     o2 8912   1.830   1.065   6.411  0.6250  0.4114 -0.2686
 1463poe    c23 8913   1.940   1.145   6.448  0.6787  0.0583  0.3588
 1463poe    c23 8914   2.024   1.182   6.324  0.0576 -0.3741 -0.2000
 1463poe     o2 8915   1.958   1.260   6.227 -0.0171 -0.4108 -0.1787
 1463poe    c31 8916   2.041   1.337   6.143 -0.3455  0.2206  0.0658
 1464poe    c31 8917   5.814   5.709   0.833  0.2733 -0.0755  0.1325
 1464poe     o2 8918   5.773   5.837   0.792 -0.1649 -0.1732  0.2639
 1464poe    c23 8919   5.634   5.838   0.766 -0.1136  0.1012 -0.0077
 1464poe    c23 8920   5.605   5.988   0.749  0.1112  0.0902 -0.5033
 1464poe     o2 8921   5.710   6.017   0.659  0.2494 -0.2208 -0.4442
 1464poe    c23 8922   5.689   6.145   0.605 -0.4602 -0.0413  0.2337
 1464poe    c23 8923   5.752   6.150   0.464 -0.4045 -0.1933  0.2531
 1464poe     o2 8924   5.885   6.103   0.461 -0.4186 -0.2253  0.1173
 1464poe    c23 8925   5.934   6.115   0.330  0.0261  0.3275  0.3301
 1464poe    c23 8926   6.076   6.060   0.310 -0.1637 -0.1602  0.3125
 1464poe     o2 8927   6.083   5.929   0.363 -0.4089 -0.3036 -0.0014
 1464poe    c31 8928   6.211   5.878   0.332  0.0543  0.9509 -0.2298
 1465poe    c31 8929   6.835   1.886   6.120 -0.2258  0.3489  0.1828
 1465poe     o2 8930   6.974   1.889   6.092 -0.2452 -0.1687  0.0182
 1465poe    c23 8931   7.041   1.909   6.214  0.3899  0.8252 -0.4764
 1465poe    c23 8932   7.175   1.984   6.208  0.9968 -0.1402  0.5788
 1465poe     o2 8933   7.283   1.928   6.137  0.5572  0.1593 -0.3361
 1465poe    c23 8934   7.365   2.036   6.099  0.4332  0.4417  0.1889
 1465poe    c23 8935   7.486   1.960   6.041  0.0078  0.1196 -0.2864
 1465poe     o2 8936   7.445   1.855   5.955 -0.4336  0.2499 -0.2390
 1465poe    c23 8937   7.556   1.784   5.905 -0.3040 -0.5083  1.0853
 1465poe    c23 8938   7.496   1.673   5.817  0.4774  0.0598 -0.1844
 1465poe     o2 8939   7.406   1.600   5.897  0.4390  0.0049 -0.2768
 1465poe    c31 8940   7.362   1.482   5.833 -0.1250  0.0477  0.0254
 1466poe    c31 8941   6.725   5.428   4.672  0.8646  0.1534  0.0085
 1466poe     o2 8942   6.596   5.452   4.618  0.5805  0.0316  0.6230
 1466poe    c23 8943   6.570   5.579   4.564  0.1445  0.0251  0.8104
 1466poe    c23 8944   6.420   5.603   4.583  0.0716  0.2250  0.0392
 1466poe     o2 8945   6.342   5.546   4.480 -0.1358 -0.3975  0.5342
 1466poe    c23 8946   6.205   5.558   4.510 -0.1745  0.4206  0.0655
 1466poe    c23 8947   6.121   5.496   4.397 -0.5344  0.3484  0.3715
 1466poe     o2 8948   6.176   5.371   4.365  0.0790  0.7473 -0.1619
 1466poe    c23 8949   6.075   5.289   4.309  0.1401  0.3436  0.3060
 1466poe    c23 8950   6.142   5.156   4.273 -0.2836  0.0938  0.4391
 1466poe     o2 8951   6.227   5.114   4.377 -0.0205 -0.2986  0.0727
 1466poe    c31 8952   6.269   4.986   4.335 -0.4494 -0.3391 -0.2352
 1467poe    c31 8953   1.120   3.682   5.444 -0.0027 -0.3103  0.7833
 1467poe     o2 8954   1.004   3.714   5.370 -0.0864 -0.5017  0.8291
 1467poe    c23 8955   0.925   3.598   5.368 -0.2871 -0.3587  0.2377
 1467poe    c23 8956   0.777   3.635   5.393 -0.1174  0.5663 -0.0815
 1467poe     o2 8957   0.758   3.672   5.527 -0.3944  0.0971  0.0128
 1467poe    c23 8958   0.670   3.783   5.531 -0.0031  0.4348 -0.6022
 1467poe    c23 8959   0.667   3.870   5.659  0.2371 -0.2435 -0.1274
 1467poe     o2 8960   0.777   3.956   5.680  0.2038 -0.3186  0.3533
 1467poe    c23 8961   0.742   4.088   5.716  0.0988 -0.3972  0.5398
 1467poe    c23 8962   0.864   4.175   5.681 -0.5624  0.4753  0.3765
 1467poe     o2 8963   0.892   4.179   5.543  0.1426  0.0959  0.5004
 1467poe    c31 8964   0.992   4.277   5.522  0.0947  0.0308 -0.0594
 1468poe    c31 8965   2.352   6.708   5.028  0.1175  0.1843  0.3656
 1468poe     o2 8966   2.427   6.589   5.033 -0.5021 -0.2147  0.3339
 1468poe    c23 8967   2.540   6.589   4.948 -0.2486  0.0601  0.6677
 1468poe    c23 8968   2.659   6.515   5.013  0.0803  0.2449  0.2822
 1468poe     o2 8969   2.641   6.380   5.046  0.0440  0.3493  0.6935
 1468poe    c23 8970   2.637   6.281   4.946  0.0720  0.9505  0.0964
 1468poe    c23 8971   2.780   6.225   4.929 -0.3500 -0.0807 -0.1007
 1468poe     o2 8972   2.806   6.120   5.019 -0.0931 -0.4087 -0.5546
 1468poe    c23 8973   2.939   6.093   5.059 -0.2393 -0.3663 -0.0364
 1468poe    c23 8974   2.976   5.944   5.055  0.2959 -0.2401  0.1211
 1468poe     o2 8975   3.113   5.910   5.050  0.3274 -0.0388 -0.4303
 1468poe    c31 8976   3.141   5.788   4.987 -0.4744 -0.5650  0.2148
 1469poe    c31 8977   6.592   1.858   0.659 -0.0161  0.0904  0.3342
 1469poe     o2 8978   6.677   1.847   0.771  0.4647 -0.2344 -0.0558
 1469poe    c23 8979   6.624   1.749   0.856  0.1691 -0.3983 -0.4255
 1469poe    c23 8980   6.748   1.711   0.940 -0.0123 -0.1482 -0.0403
 1469poe     o2 8981   6.828   1.824   0.967 -0.1276 -0.0258 -0.2091
 1469poe    c23 8982   6.902   1.815   1.086 -0.3266 -0.0184 -0.0837
 1469poe    c23 8983   6.930   1.942   1.168  0.3314  0.1154 -0.5097
 1469poe     o2 8984   6.994   2.038   1.087  0.3678 -0.0031 -0.6212
 1469poe    c23 8985   6.989   2.163   1.153  0.3258  0.0039 -0.6373
 1469poe    c23 8986   7.023   2.286   1.066  0.1330  0.1395 -0.5187
 1469poe     o2 8987   6.925   2.314   0.969 -0.1785  0.4851 -0.1077
 1469poe    c31 8988   6.972   2.391   0.860  0.3283  0.1965 -0.0942
 1470poe    c31 8989   3.476   4.857   5.196 -0.4834 -0.4023 -0.6848
 1470poe     o2 8990   3.378   4.931   5.265  0.2591  0.3471 -0.4192
 1470poe    c23 8991   3.256   4.914   5.197 -0.2601 -0.5248  0.7093
 1470poe    c23 8992   3.141   4.980   5.276 -0.8009 -0.2146 -0.3148
 1470poe     o2 8993   3.138   4.940   5.411 -0.0371  0.1701 -0.1771
 1470poe    c23 8994   3.018   4.969   5.479  0.1895  0.1363  0.2434
 1470poe    c23 8995   3.035   4.897   5.614 -0.3362 -0.1270  0.1693
 1470poe     o2 8996   3.164   4.925   5.664 -0.3880  0.1891  0.1282
 1470poe    c23 8997   3.220   4.801   5.702 -0.6442 -0.0317 -0.2005
 1470poe    c23 8998   3.373   4.817   5.700 -0.6681  0.2104 -0.1088
 1470poe     o2 8999   3.417   4.849   5.570  0.3103 -0.2215  0.1100
 1470poe    c31 9000   3.558   4.837   5.572  0.2706 -0.6426  0.4465
 1471poe    c31 9001   6.486   2.766   1.446  0.6498 -0.1683  0.2596
 1471poe     o2 9002   6.414   2.645   1.458  0.1370  0.1071  0.0291
 1471poe    c23 9003   6.448   2.608   1.590 -0.0014  0.3228  0.1254
 1471poe    c23 9004   6.384   2.468   1.600  0.1484  0.2660  0.3048
 1471poe     o2 9005   6.252   2.472   1.551  0.0290  0.0323  0.6100
 1471poe    c23 9006   6.185   2.348   1.560  0.0319 -0.0059  0.1136
 1471poe    c23 9007   6.058   2.362   1.473  0.1930  0.1598 -0.0941
 1471poe     o2 9008   6.095   2.435   1.358  0.0667 -0.0973 -0.2966
 1471poe    c23 9009   5.993   2.440   1.261 -0.3400  0.1534  0.1437
 1471poe    c23 9010   5.990   2.322   1.162  0.4443 -0.0864  0.4012
 1471poe     o2 9011   6.097   2.334   1.070  0.3718 -0.3436  0.2835
 1471poe    c31 9012   6.130   2.214   1.004  0.0772 -0.5687  0.5411
 1472poe    c31 9013   5.243   3.661   3.181 -0.3019  0.1278  1.1420
 1472poe     o2 9014   5.175   3.553   3.120  0.6124 -0.1469  0.5848
 1472poe    c23 9015   5.138   3.447   3.205  0.5355 -0.4629  0.1579
 1472poe    c23 9016   5.077   3.331   3.124 -0.4161  0.1417 -0.0075
 1472poe     o2 9017   4.947   3.334   3.069 -0.5147  0.2449  0.2301
 1472poe    c23 9018   4.924   3.242   2.965  0.3516  0.6140 -0.3020
 1472poe    c23 9019   4.780   3.258   2.912  0.3300 -0.2840 -0.5427
 1472poe     o2 9020   4.745   3.394   2.899 -0.0734 -0.3937 -0.5978
 1472poe    c23 9021   4.615   3.416   2.848 -0.2217 -0.3189 -0.1945
 1472poe    c23 9022   4.626   3.548   2.769 -0.4352 -0.0729  0.1843
 1472poe     o2 9023   4.708   3.640   2.838 -0.0996  0.0626 -0.3848
 1472poe    c31 9024   4.685   3.767   2.781 -0.4610  0.1299 -0.0959
 1473poe    c31 9025   2.805   5.665   4.758  0.2026  0.4317 -0.1173
 1473poe     o2 9026   2.693   5.750   4.767 -0.1382 -0.0247 -0.0285
 1473poe    c23 9027   2.662   5.743   4.905  0.1060 -0.4656  0.0071
 1473poe    c23 9028   2.517   5.790   4.928  0.3850  0.4443 -0.0323
 1473poe     o2 9029   2.498   5.896   4.837 -0.2794  0.0292 -0.3887
 1473poe    c23 9030   2.366   5.942   4.819 -0.1827  0.5519  0.1953
 1473poe    c23 9031   2.291   5.864   4.710  0.3120  0.2840  0.0491
 1473poe     o2 9032   2.364   5.875   4.590  0.2319  0.1798 -0.0099
 1473poe    c23 9033   2.275   5.877   4.480  0.0659 -0.1302  0.1200
 1473poe    c23 9034   2.334   5.872   4.338  0.4694 -0.0408  0.2816
 1473poe     o2 9035   2.405   5.752   4.321 -0.0978 -0.3166 -0.1645
 1473poe    c31 9036   2.414   5.727   4.182 -0.2739  0.2379 -0.2788
 1474poe    c31 9037   4.285   4.669   0.826  0.3222 -0.1750  0.2181
 1474poe     o2 9038   4.212   4.549   0.842  0.2737 -0.1936 -0.1249
 1474poe    c23 9039   4.124   4.532   0.733 -0.0732  0.0876  0.1082
 1474poe    c23 9040   4.095   4.381   0.724 -0.6276  0.2018 -0.0132
 1474poe     o2 9041   4.047   4.347   0.852 -0.7296  0.5700  0.0490
 1474poe    c23 9042   3.990   4.218   0.863 -0.2184  0.3803  0.5386
 1474poe    c23 9043   3.932   4.202   1.004 -0.5215 -0.2927  0.3432
 1474poe     o2 9044   4.025   4.254   1.097  0.1370  0.2127 -0.5829
 1474poe    c23 9045   4.004   4.215   1.231 -0.5541  0.1862 -0.6973
 1474poe    c23 9046   4.078   4.293   1.341 -0.2339 -0.5962 -0.3537
 1474poe     o2 9047   4.216   4.292   1.308 -0.1180  0.3112  0.0715
 1474poe    c31 9048   4.286   4.342   1.419  0.3764 -0.2479  0.0166
 1475poe    c31 9049   2.094   3.077   3.752 -0.1799  0.1822  0.5631
 1475poe     o2 9050   2.125   3.214   3.766 -0.2230  0.2126  0.3627
 1475poe    c23 9051   2.152   3.262   3.636 -0.3438 -0.3501  0.1229
 1475poe    c23 9052   2.221   3.397   3.663 -0.1176 -0.3191 -0.5858
 1475poe     o2 9053   2.192   3.449   3.791 -0.2979  0.3273 -0.8862
 1475poe    c23 9054   2.278   3.560   3.808 -0.0954  0.0839 -0.2900
 1475poe    c23 9055   2.253   3.623   3.947 -0.6889 -0.4345 -0.1574
 1475poe     o2 9056   2.250   3.513   4.036  0.0279 -0.3958 -0.0753
 1475poe    c23 9057   2.295   3.563   4.159 -0.1874 -0.4280  0.0175
 1475poe    c23 9058   2.362   3.465   4.258 -0.3295 -1.0187 -0.4682
 1475poe     o2 9059   2.270   3.362   4.286 -0.9881 -0.2654  0.1777
 1475poe    c31 9060   2.328   3.270   4.376 -0.5023 -0.3035 -0.1707
 1476poe    c31 9061   3.199   4.080   5.553 -0.3555  0.0559  0.1077
 1476poe     o2 9062   3.225   3.963   5.627 -0.2925 -0.0052 -0.0118
 1476poe    c23 9063   3.358   3.957   5.674 -0.5068  0.1447  0.6187
 1476poe    c23 9064   3.378   3.817   5.735 -0.2628  0.2484  0.7763
 1476poe     o2 9065   3.293   3.774   5.839 -0.5611  0.3285  0.5679
 1476poe    c23 9066   3.324   3.645   5.887 -0.6199  0.1537  0.1386
 1476poe    c23 9067   3.203   3.554   5.860 -0.3922 -0.1529  0.1471
 1476poe     o2 9068   3.096   3.616   5.927  0.2041  0.7911  0.2489
 1476poe    c23 9069   2.999   3.521   5.966  0.0078  0.7324 -0.3766
 1476poe    c23 9070   2.903   3.579   6.071  0.1993  0.1632  0.1181
 1476poe     o2 9071   2.887   3.711   6.024  0.0217  0.0696 -0.0884
 1476poe    c31 9072   2.833   3.801   6.117  0.3349  0.3990 -0.2218
 1477poe    c31 9073   4.825   5.504   0.693 -0.9597  0.3168  0.4072
 1477poe     o2 9074   4.962   5.476   0.707 -0.8039  0.8842  0.0495
 1477poe    c23 9075   5.046   5.572   0.647 -0.2804  0.4986  0.1507
 1477poe    c23 9076   5.189   5.544   0.697 -0.3008  1.0875  0.5558
 1477poe     o2 9077   5.174   5.523   0.835  0.5437  0.2188  0.5259
 1477poe    c23 9078   5.291   5.491   0.906  0.5330  0.0598  0.4736
 1477poe    c23 9079   5.256   5.475   1.055 -0.3864  0.2192  0.2787
 1477poe     o2 9080   5.142   5.392   1.053 -0.2473  0.0344 -0.0387
 1477poe    c23 9081   5.117   5.314   1.168  0.4500  0.5229  0.4567
 1477poe    c23 9082   5.066   5.389   1.293 -0.5631  0.0914  0.3179
 1477poe     o2 9083   4.948   5.452   1.250 -0.4234  0.1697  0.0426
 1477poe    c31 9084   4.863   5.503   1.351 -0.3619  0.8487 -0.2411
 1478poe    c31 9085   4.668   3.749   3.983  0.6308 -0.2009 -0.1621
 1478poe     o2 9086   4.557   3.665   4.003  0.5876 -0.0988  0.0351
 1478poe    c23 9087   4.453   3.734   4.068  0.1673 -0.1107 -0.6185
 1478poe    c23 9088   4.321   3.683   4.008 -0.0878 -0.0930 -0.0827
 1478poe     o2 9089   4.327   3.542   4.014  0.0533 -0.0990 -0.3672
 1478poe    c23 9090   4.215   3.480   3.956 -0.1131 -0.3247  0.1904
 1478poe    c23 9091   4.240   3.328   3.961 -0.3165 -0.3794 -0.3201
 1478poe     o2 9092   4.334   3.295   3.861  0.4357  0.1859  0.1852
 1478poe    c23 9093   4.338   3.154   3.862  0.1303  0.1781  0.7430
 1478poe    c23 9094   4.468   3.106   3.796  0.0060  0.7754  0.0428
 1478poe     o2 9095   4.571   3.172   3.867 -0.0169  0.7432  0.1066
 1478poe    c31 9096   4.696   3.128   3.818 -0.2125  0.2197  0.0728
 1479poe    c31 9097   1.067   5.786   6.121 -0.0657  0.1446 -0.2832
 1479poe     o2 9098   1.031   5.650   6.123  0.1943  0.0787  0.3841
 1479poe    c23 9099   0.984   5.583   6.008  0.8931 -0.2703  0.2983
 1479poe    c23 9100   0.960   5.432   6.025  0.0922 -0.1716  0.0668
 1479poe     o2 9101   0.935   5.348   5.914 -0.1973 -0.1535  0.1187
 1479poe    c23 9102   0.885   5.221   5.951 -0.0025 -0.3663 -0.3367
 1479poe    c23 9103   0.743   5.186   5.905 -0.1525 -0.4306  0.1655
 1479poe     o2 9104   0.641   5.247   5.981  0.1205 -0.4200  0.5246
 1479poe    c23 9105   0.526   5.277   5.905  0.4664 -0.2703  0.0595
 1479poe    c23 9106   0.541   5.405   5.820  0.1584 -0.3370 -0.0946
 1479poe     o2 9107   0.615   5.389   5.701  0.0645 -0.3238 -0.1550
 1479poe    c31 9108   0.602   5.494   5.607 -0.0365  0.3522  0.6038
 1480poe    c31 9109   2.663   0.527   5.788 -0.0271  0.2143  0.1243
 1480poe     o2 9110   2.550   0.543   5.705  0.0989  0.1315 -0.0660
 1480poe    c23 9111   2.426   0.570   5.766  0.0332 -0.8269  0.2438
 1480poe    c23 9112   2.313   0.531   5.669 -0.4262 -0.0977  0.4760
 1480poe     o2 9113   2.311   0.402   5.612  0.4356  0.0097  0.2002
 1480poe    c23 9114   2.207   0.391   5.517  0.2485 -0.1684  0.4268
 1480poe    c23 9115   2.234   0.261   5.439 -0.3866  0.2052 -0.4236
 1480poe     o2 9116   2.276   0.159   5.527 -0.3440  0.3461 -0.2808
 1480poe    c23 9117   2.244   0.027   5.490  0.0107  0.0170  0.5629
 1480poe    c23 9118   2.356  -0.022   5.396 -0.3722 -0.2041  0.2199
 1480poe     o2 9119   2.486  -0.023   5.451 -0.3774  0.2720  0.2473
 1480poe    c31 9120   2.592  -0.068   5.369 -0.6944  0.3054 -0.1886
 1481poe    c31 9121   2.253   2.759   1.786  0.4493  0.0442 -0.0977
 1481poe     o2 9122   2.327   2.694   1.887  0.6592 -0.6434 -0.6836
 1481poe    c23 9123   2.254   2.645   1.998 -0.1707  0.0945 -0.8929
 1481poe    c23 9124   2.345   2.555   2.083 -0.8917  0.3638  0.1894
 1481poe     o2 9125   2.480   2.573   2.044 -0.7339 -0.5423  0.2908
 1481poe    c23 9126   2.562   2.472   2.098 -0.1959 -0.2570  0.0163
 1481poe    c23 9127   2.705   2.511   2.057 -0.2779  0.2528  0.2066
 1481poe     o2 9128   2.706   2.582   1.935 -0.2293 -0.5809 -0.2855
 1481poe    c23 9129   2.839   2.605   1.894 -0.1407 -0.4074  0.1002
 1481poe    c23 9130   2.858   2.671   1.756 -0.6696  0.0430  0.2398
 1481poe     o2 9131   2.800   2.800   1.748  0.3072  0.4629 -0.1785
 1481poe    c31 9132   2.810   2.850   1.617  0.2721  0.2403 -0.2667
 1482poe    c31 9133   0.082   5.410   0.287  0.2092 -0.1416 -0.0602
 1482poe     o2 9134   0.038   5.359   0.163 -0.0364 -0.5923  0.2142
 1482poe    c23 9135  -0.096   5.317   0.155 -0.3326  0.4420 -0.3858
 1482poe    c23 9136  -0.119   5.271   0.010 -0.2531 -0.0060 -0.2559
 1482poe     o2 9137  -0.004   5.194  -0.019 -0.2717 -0.3483  0.5372
 1482poe    c23 9138  -0.013   5.126  -0.142 -0.1378 -0.1101  0.3936
 1482poe    c23 9139   0.126   5.071  -0.178 -0.5020 -0.5076 -0.4295
 1482poe     o2 9140   0.208   5.035  -0.069 -0.1049  0.1709 -0.5012
 1482poe    c23 9141   0.338   5.004  -0.115 -0.1997 -0.8180 -0.1179
 1482poe    c23 9142   0.411   4.904  -0.024  0.1281 -0.1484  0.3636
 1482poe     o2 9143   0.425   4.968   0.101 -0.0449  0.0124  0.3005
 1482poe    c31 9144   0.499   4.887   0.188 -0.5037  0.0467  0.7271
 1483poe    c31 9145   3.810   4.341   3.897 -0.1942 -0.4277  0.0486
 1483poe     o2 9146   3.798   4.481   3.888 -0.2322 -0.4804 -0.7532
 1483poe    c23 9147   3.678   4.536   3.838 -0.0285  0.4094 -0.2751
 1483poe    c23 9148   3.678   4.689   3.821 -0.5135  0.3403 -0.9173
 1483poe     o2 9149   3.769   4.741   3.727  0.5447  0.1803 -0.0013
 1483poe    c23 9150   3.729   4.874   3.703  0.2388 -0.0163 -0.5929
 1483poe    c23 9151   3.817   4.945   3.598  0.0608 -0.4497 -1.0431
 1483poe     o2 9152   3.950   4.941   3.644 -0.1401  0.2688 -0.3607
 1483poe    c23 9153   4.058   4.993   3.570  0.4464  0.2298  0.4616
 1483poe    c23 9154   4.198   4.939   3.605  0.7979  0.3555 -0.7093
 1483poe     o2 9155   4.206   4.800   3.585 -0.4777  0.0880  0.4746
 1483poe    c31 9156   4.338   4.753   3.572 -0.2339  0.6993  0.7028
 1484poe    c31 9157   5.844   6.943   4.725  0.0695 -0.2473 -0.2720
 1484poe     o2 9158   5.916   7.061   4.751 -0.2748 -0.0117 -0.3663
 1484poe    c23 9159   5.891   7.111   4.881 -1.0097  0.4751 -0.6955
 1484poe    c23 9160   5.991   7.226   4.902 -0.8946  0.2138  0.2023
 1484poe     o2 9161   6.008   7.290   5.026 -0.5099  0.2598  0.1292
 1484poe    c23 9162   6.102   7.388   4.990  0.2486 -0.6260 -0.3482
 1484poe    c23 9163   6.170   7.475   5.097 -0.1445 -0.2882 -0.3690
 1484poe     o2 9164   6.241   7.407   5.199 -0.5909  0.3881  0.4083
 1484poe    c23 9165   6.264   7.494   5.307 -0.0412  0.3750  0.3008
 1484poe    c23 9166   6.307   7.422   5.436  0.1866  0.0315  0.0366
 1484poe     o2 9167   6.446   7.408   5.448  0.1252 -0.2231  0.5105
 1484poe    c31 9168   6.478   7.304   5.537 -0.2314 -0.4350  0.3887
 1485poe    c31 9169   3.557   3.571   0.743  0.3929  0.0868  1.2276
 1485poe     o2 9170   3.433   3.632   0.769  0.0536  0.1388 -0.3820
 1485poe    c23 9171   3.383   3.702   0.657  0.4623  0.3020 -0.4654
 1485poe    c23 9172   3.272   3.787   0.722  0.5683  0.0390  0.0684
 1485poe     o2 9173   3.188   3.698   0.791  0.2334 -0.2481 -0.6964
 1485poe    c23 9174   3.077   3.773   0.835  0.1450 -0.1003 -1.1639
 1485poe    c23 9175   2.979   3.710   0.936  0.2660 -0.1579 -1.0825
 1485poe     o2 9176   3.018   3.732   1.070 -0.5994  0.1738 -0.8828
 1485poe    c23 9177   2.928   3.829   1.120 -0.1733  0.0342  0.1842
 1485poe    c23 9178   2.955   3.881   1.262  0.9359  0.4065 -0.1538
 1485poe     o2 9179   3.039   3.994   1.278  0.6401  0.5764  0.2175
 1485poe    c31 9180   3.176   3.983   1.247  0.5382 -1.0759  0.2493
 1486poe    c31 9181   0.847   1.493   1.893  0.1839 -0.0848 -0.0918
 1486poe     o2 9182   0.912   1.578   1.802  0.0339  0.0669 -0.0584
 1486poe    c23 9183   0.969   1.508   1.693 -0.4826  0.0757 -0.3377
 1486poe    c23 9184   1.044   1.624   1.625  0.2325  0.0055  0.3077
 1486poe     o2 9185   1.135   1.681   1.715  0.4636 -0.0213  0.0926
 1486poe    c23 9186   1.214   1.781   1.653  0.3723 -0.2800 -0.4448
 1486poe    c23 9187   1.341   1.799   1.739  0.0508 -1.1369  0.2342
 1486poe     o2 9188   1.292   1.850   1.861 -0.0602 -0.2429 -0.1752
 1486poe    c23 9189   1.396   1.853   1.957  0.0360 -0.1715 -0.2810
 1486poe    c23 9190   1.335   1.862   2.098  0.4296 -0.9437 -0.0589
 1486poe     o2 9191   1.297   1.731   2.133 -0.2714 -0.6645  0.2353
 1486poe    c31 9192   1.242   1.733   2.263 -0.2806  0.4694  0.2269
 1487poe    c31 9193   6.967   6.836   3.762 -1.2053  0.1771 -0.1575
 1487poe     o2 9194   6.985   6.955   3.689 -0.0264  0.3315  0.3661
 1487poe    c23 9195   7.105   6.954   3.615  0.1565  0.6586  0.6517
 1487poe    c23 9196   7.101   7.068   3.512  0.2404 -0.0676 -0.1717
 1487poe     o2 9197   7.111   7.190   3.583  0.6854 -0.0972 -0.1828
 1487poe    c23 9198   7.165   7.288   3.497  0.6538  0.0188 -0.0714
 1487poe    c23 9199   7.122   7.425   3.551  0.1792 -0.0613 -0.2367
 1487poe     o2 9200   6.983   7.438   3.574  0.1347 -0.0125 -0.5355
 1487poe    c23 9201   6.956   7.569   3.618  0.2019 -0.2977  0.3794
 1487poe    c23 9202   6.804   7.588   3.630  0.1868 -0.1675 -0.0174
 1487poe     o2 9203   6.745   7.467   3.671 -0.1923 -0.1295 -0.4357
 1487poe    c31 9204   6.610   7.504   3.695 -0.1066  0.1847 -0.4356
 1488poe    c31 9205   5.175   0.658   6.261 -0.4911 -0.6638  0.0730
 1488poe     o2 9206   5.089   0.769   6.268 -0.1967 -0.4088 -0.2640
 1488poe    c23 9207   5.083   0.850   6.154 -0.1701 -0.5734 -0.3827
 1488poe    c23 9208   4.951   0.929   6.166  0.0182 -0.3399  0.1970
 1488poe     o2 9209   4.848   0.834   6.145 -0.3436  0.0188  0.3267
 1488poe    c23 9210   4.720   0.890   6.163 -0.3297  0.1025  0.1682
 1488poe    c23 9211   4.604   0.815   6.094  0.0212 -0.4940  0.2191
 1488poe     o2 9212   4.609   0.679   6.129  0.6043 -0.5153  0.0627
 1488poe    c23 9213   4.506   0.609   6.064 -0.2291 -0.0138  0.8230
 1488poe    c23 9214   4.542   0.460   6.075 -0.0096 -0.0071  0.2619
 1488poe     o2 9215   4.575   0.426   6.209  0.1793 -0.3482  0.1319
 1488poe    c31 9216   4.638   0.302   6.231 -1.1384 -0.9969  0.3659
 1489poe    c31 9217   0.074   4.160   4.081  0.2090 -0.2480 -0.2054
 1489poe     o2 9218  -0.039   4.205   4.009  0.0411  0.2752  0.3764
 1489poe    c23 9219  -0.126   4.284   4.087 -0.7085 -0.2129  0.0463
 1489poe    c23 9220  -0.209   4.378   3.997 -0.0102 -0.0565 -0.4412
 1489poe     o2 9221  -0.140   4.467   3.912  0.3826 -0.2789 -0.3569
 1489poe    c23 9222  -0.234   4.559   3.863 -0.1554 -0.5628  0.1289
 1489poe    c23 9223  -0.145   4.668   3.800 -0.6869 -0.1811  0.0270
 1489poe     o2 9224  -0.068   4.605   3.700 -0.1644  0.3209  0.1112
 1489poe    c23 9225   0.014   4.683   3.616  0.2598 -0.3828 -0.1398
 1489poe    c23 9226   0.116   4.591   3.546  0.0915 -0.4685 -0.2734
 1489poe     o2 9227   0.197   4.525   3.641 -0.2057  0.1505  0.4194
 1489poe    c31 9228   0.325   4.477   3.605  0.0784  0.9968  0.2770
 1490poe    c31 9229   1.311   6.875   0.893 -0.3214  0.9085  0.3044
 1490poe     o2 9230   1.274   6.911   0.761 -0.1686  0.4566  0.1370
 1490poe    c23 9231   1.320   7.037   0.719  0.4714  0.3526  0.5142
 1490poe    c23 9232   1.299   7.045   0.567  0.4524 -0.2832  0.4819
 1490poe     o2 9233   1.170   6.993   0.546  0.5263 -0.3209  0.1088
 1490poe    c23 9234   1.119   7.035   0.422  0.0259  0.7794  0.6803
 1490poe    c23 9235   0.985   6.964   0.394  0.4456  0.4655 -0.5916
 1490poe     o2 9236   0.890   7.039   0.467  0.2203 -0.5234  0.1495
 1490poe    c23 9237   0.787   6.959   0.521  0.0704 -0.4222  0.0139
 1490poe    c23 9238   0.691   7.041   0.608  0.0046 -0.1359 -0.3262
 1490poe     o2 9239   0.745   7.067   0.736 -0.0448  0.2018 -0.3708
 1490poe    c31 9240   0.764   7.206   0.747  0.6302  0.0839  0.0210
 1491poe    c31 9241   5.844   2.069   3.883  0.5657  0.2751 -0.2712
 1491poe     o2 9242   5.756   1.975   3.825  0.5935 -0.0802  0.2494
 1491poe    c23 9243   5.757   1.844   3.877  0.0972  0.2069  0.9978
 1491poe    c23 9244   5.642   1.772   3.806  0.1970  0.6872  0.3382
 1491poe     o2 9245   5.540   1.868   3.787  0.1084  0.4292 -0.5900
 1491poe    c23 9246   5.432   1.803   3.724 -0.6963  0.2410  0.9279
 1491poe    c23 9247   5.320   1.899   3.680 -0.0819  0.4210 -0.2902
 1491poe     o2 9248   5.383   2.016   3.634  0.3507  0.5965  0.7257
 1491poe    c23 9249   5.288   2.115   3.601 -0.1814 -0.1632 -0.0616
 1491poe    c23 9250   5.345   2.240   3.530  0.0587  0.0339  0.4725
 1491poe     o2 9251   5.445   2.300   3.609  0.6122 -0.6783  0.3286
 1491poe    c31 9252   5.501   2.406   3.536  0.3561 -0.5140  0.3696
 1492poe    c31 9253   4.216   6.554   3.354  0.6025  0.3471  0.1299
 1492poe     o2 9254   4.212   6.449   3.260  0.6924  0.2329  0.2539
 1492poe    c23 9255   4.289   6.488   3.148  0.1620  0.4071 -0.0578
 1492poe    c23 9256   4.225   6.436   3.018 -0.0235  0.1092  0.1512
 1492poe     o2 9257   4.210   6.296   3.017 -0.7752  0.1834  0.3764
 1492poe    c23 9258   4.224   6.264   2.880  0.5381  0.1689  0.5016
 1492poe    c23 9259   4.246   6.112   2.880 -0.3454  0.0303 -0.6548
 1492poe     o2 9260   4.160   6.067   2.982 -0.0711 -0.0792 -0.4699
 1492poe    c23 9261   4.159   5.926   2.995 -0.2538 -0.0504 -0.1779
 1492poe    c23 9262   4.026   5.896   3.068 -0.1465 -0.1199 -0.0113
 1492poe     o2 9263   3.994   5.999   3.159  0.6336  0.3747 -0.2880
 1492poe    c31 9264   3.863   5.992   3.211  0.7219 -0.1135 -0.1270
 1493poe    c31 9265   0.230   1.981   4.519  0.3273 -0.0389 -0.0251
 1493poe     o2 9266   0.276   1.899   4.625 -0.1641 -0.2890 -0.0049
 1493poe    c23 9267   0.324   1.778   4.571 -0.1051 -0.2583 -0.0218
 1493poe    c23 9268   0.343   1.680   4.688 -0.9163 -0.1489  0.2054
 1493poe     o2 9269   0.392   1.771   4.784  0.6063  0.1206 -0.8026
 1493poe    c23 9270   0.435   1.706   4.902 -0.1279  1.0106 -0.0310
 1493poe    c23 9271   0.471   1.806   5.014 -0.1507  0.1893  0.7170
 1493poe     o2 9272   0.377   1.908   5.040 -0.5386 -0.0282  0.1938
 1493poe    c23 9273   0.385   1.958   5.172  0.2234 -0.0859  0.1711
 1493poe    c23 9274   0.346   2.107   5.185  0.2932 -0.0287 -0.2671
 1493poe     o2 9275   0.421   2.194   5.102  0.2976  0.0309 -0.2005
 1493poe    c31 9276   0.411   2.328   5.144  0.1018 -0.0553  0.0325
 1494poe    c31 9277   1.530   1.745   5.350 -0.0495 -0.1038 -0.1179
 1494poe     o2 9278   1.473   1.730   5.478 -0.1508 -0.6531 -0.2284
 1494poe    c23 9279   1.390   1.838   5.511  0.3051 -0.2907 -0.2603
 1494poe    c23 9280   1.308   1.816   5.639  0.2961 -0.5405 -0.3098
 1494poe     o2 9281   1.198   1.728   5.626  0.3805 -0.6471 -0.2983
 1494poe    c23 9282   1.142   1.713   5.754  0.4976 -0.4548 -0.2253
 1494poe    c23 9283   1.026   1.613   5.746  0.0719  0.0613 -0.5661
 1494poe     o2 9284   1.087   1.512   5.669  0.8299  0.1043 -0.0367
 1494poe    c23 9285   1.005   1.398   5.666  0.7827  0.1377 -0.0287
 1494poe    c23 9286   1.052   1.299   5.558  0.5643  0.2329 -0.2113
 1494poe     o2 9287   1.098   1.377   5.450  0.7501  0.4311  0.0120
 1494poe    c31 9288   1.167   1.293   5.360 -0.5087  0.2799 -0.8332
 1495poe    c31 9289   4.799   1.984   2.449 -0.0344  0.1667 -0.5934
 1495poe     o2 9290   4.870   2.027   2.562  0.4301 -0.2094 -0.7404
 1495poe    c23 9291   5.008   2.000   2.548  0.5149 -0.3152  0.2266
 1495poe    c23 9292   5.071   1.998   2.688  0.0954 -0.2842  0.4181
 1495poe     o2 9293   4.989   1.925   2.776  0.0572 -0.2370  0.4213
 1495poe    c23 9294   5.063   1.891   2.892  0.1658 -0.2109  0.3593
 1495poe    c23 9295   4.990   1.801   2.993 -0.3321 -0.6423 -0.3712
 1495poe     o2 9296   4.858   1.850   2.995 -0.0540  0.1130  0.5961
 1495poe    c23 9297   4.790   1.792   3.104  0.0052 -0.4129  0.3587
 1495poe    c23 9298   4.643   1.833   3.082  0.0203 -0.0221  0.9766
 1495poe     o2 9299   4.644   1.972   3.059 -0.1932 -0.1969 -0.1231
 1495poe    c31 9300   4.516   2.010   3.105 -0.3485  0.1163 -0.7961
 1496poe    c31 9301   2.376   4.096   6.272 -0.2700 -0.4973  0.0397
 1496poe     o2 9302   2.381   4.027   6.149  0.2915 -0.0184 -0.2146
 1496poe    c23 9303   2.467   3.915   6.153  0.5529  0.2074  0.6419
 1496poe    c23 9304   2.460   3.852   6.013  0.0173 -0.5629  1.0132
 1496poe     o2 9305   2.353   3.765   5.983  0.3047 -0.6997  0.3760
 1496poe    c23 9306   2.377   3.689   5.867 -0.3839 -0.0081 -0.2278
 1496poe    c23 9307   2.262   3.588   5.845 -0.5114 -0.1812  1.1503
 1496poe     o2 9308   2.150   3.651   5.786  0.3053  0.1888 -0.0383
 1496poe    c23 9309   2.122   3.584   5.666  0.5675 -0.0592  0.0384
 1496poe    c23 9310   2.023   3.650   5.568 -0.0903 -0.6641  0.2776
 1496poe     o2 9311   2.076   3.772   5.518 -0.3111 -0.4377  0.5950
 1496poe    c31 9312   1.980   3.847   5.448  0.2186 -0.1552  0.1691
 1497poe    c31 9313   1.037   3.178   5.107 -0.0566 -0.2340  0.0772
 1497poe     o2 9314   1.140   3.216   5.018 -0.1267 -0.7606 -0.2361
 1497poe    c23 9315   1.238   3.285   5.092 -0.0966 -0.3100 -0.6919
 1497poe    c23 9316   1.366   3.310   5.011  0.4441 -0.1719  0.1968
 1497poe     o2 9317   1.409   3.199   4.935 -0.3518  0.0103 -0.5313
 1497poe    c23 9318   1.502   3.228   4.833  0.4301 -0.1861  0.1120
 1497poe    c23 9319   1.528   3.111   4.737  0.1842 -0.7327  0.7062
 1497poe     o2 9320   1.408   3.081   4.668  0.0859 -0.0977  0.5931
 1497poe    c23 9321   1.438   2.973   4.582  0.4748  0.4415  0.0421
 1497poe    c23 9322   1.317   2.940   4.493  0.2612 -0.5022  0.6642
 1497poe     o2 9323   1.209   2.982   4.573 -0.1754 -0.1780 -0.0892
 1497poe    c31 9324   1.087   2.969   4.503 -0.2828 -0.1500  0.0905
 1498poe    c31 9325   4.138   2.553   4.980  0.4187  0.3502  0.1207
 1498poe     o2 9326   4.049   2.557   4.871  0.4032  0.3024  0.1320
 1498poe    c23 9327   4.019   2.431   4.815 -0.2698  0.3300  0.4231
 1498poe    c23 9328   3.869   2.420   4.782 -0.0230 -0.3692 -0.5053
 1498poe     o2 9329   3.826   2.527   4.700  0.3006 -0.2513 -0.5201
 1498poe    c23 9330   3.688   2.554   4.707  0.2792 -0.4933  0.0484
 1498poe    c23 9331   3.636   2.627   4.582 -0.0715 -0.5301  0.1708
 1498poe     o2 9332   3.696   2.755   4.593  0.3847 -0.6446 -0.8962
 1498poe    c23 9333   3.656   2.838   4.486  0.2790 -0.2203 -0.5306
 1498poe    c23 9334   3.701   2.981   4.520 -0.1690 -0.0222 -0.7706
 1498poe     o2 9335   3.823   2.963   4.587 -0.5035 -0.0037 -0.1484
 1498poe    c31 9336   3.866   3.095   4.610 -0.5875 -0.0769  0.4344
 1499poe    c31 9337   4.002   6.991   4.657  0.5441 -0.1871 -0.1929
 1499poe     o2 9338   3.960   6.870   4.597  0.2218 -0.4738  0.6040
 1499poe    c23 9339   4.065   6.779   4.575  0.0162 -0.4973 -0.3131
 1499poe    c23 9340   4.007   6.637   4.561  0.0536 -0.5559  0.1120
 1499poe     o2 9341   3.922   6.652   4.450  0.0377  0.2600  0.2253
 1499poe    c23 9342   3.846   6.537   4.422  1.0187 -0.2365 -0.4424
 1499poe    c23 9343   3.739   6.586   4.322  0.2695  0.2224  0.5685
 1499poe     o2 9344   3.677   6.708   4.354  0.6018  0.6443 -0.3741
 1499poe    c23 9345   3.575   6.746   4.264  0.1164  0.1737 -0.0249
 1499poe    c23 9346   3.478   6.855   4.313 -0.1666  0.0012 -0.2007
 1499poe     o2 9347   3.555   6.968   4.346  0.1323 -0.1686 -0.3152
 1499poe    c31 9348   3.464   7.074   4.357  0.0193 -0.2948  0.0040
 1500poe    c31 9349   3.569   1.067   2.373 -0.1787 -0.1363  0.9292
 1500poe     o2 9350   3.454   0.994   2.412 -0.2671 -0.3943  0.2198
 1500poe    c23 9351   3.495   0.884   2.491  0.2770 -0.2298  0.1758
 1500poe    c23 9352   3.370   0.796   2.515  0.3118 -0.4254 -0.3584
 1500poe     o2 9353   3.315   0.764   2.389  0.2841 -0.5855 -0.3049
 1500poe    c23 9354   3.211   0.668   2.394  0.1069 -0.3732  0.1687
 1500poe    c23 9355   3.166   0.626   2.253 -0.1441  0.1790  0.0810
 1500poe     o2 9356   3.099   0.741   2.206  0.4590  0.2777 -0.5464
 1500poe    c23 9357   3.076   0.734   2.068 -0.1273  0.2720 -0.4494
 1500poe    c23 9358   3.026   0.859   1.992 -0.1358  0.8190  0.4495
 1500poe     o2 9359   3.120   0.964   1.987 -0.2137  0.8717  0.0297
 1500poe    c31 9360   3.065   1.060   1.900 -0.2763 -0.3065 -1.2565
 1501poe    c31 9361   3.668   2.122   0.949 -0.0328 -0.1336 -0.0266
 1501poe     o2 9362   3.549   2.182   0.903  0.1102  0.0331 -0.1799
 1501poe    c23 9363   3.444   2.167   0.996 -0.0154 -0.3477 -0.3838
 1501poe    c23 9364   3.313   2.125   0.928 -0.2284 -0.2465 -0.0363
 1501poe     o2 9365   3.315   2.001   0.860 -0.4270 -0.5045  0.4229
 1501poe    c23 9366   3.204   1.988   0.774  0.0964  0.1599 -0.3718
 1501poe    c23 9367   3.204   1.850   0.704 -0.1207  0.1303 -0.3154
 1501poe     o2 9368   3.249   1.761   0.804 -0.0134  0.0549 -0.4307
 1501poe    c23 9369   3.277   1.637   0.743 -0.0428  0.1611 -0.6631
 1501poe    c23 9370   3.312   1.552   0.867 -0.7404  0.5379 -0.2009
 1501poe     o2 9371   3.374   1.630   0.967 -0.3097 -0.4863  0.3434
 1501poe    c31 9372   3.406   1.552   1.080 -0.4582 -0.7218  0.2239
 1502poe    c31 9373   6.875   6.440   3.546 -0.2255 -0.1829 -0.4170
 1502poe     o2 9374   6.965   6.527   3.480  0.0191 -0.3568 -0.3123
 1502poe    c23 9375   6.890   6.628   3.418  0.1599 -0.3015 -0.3916
 1502poe    c23 9376   6.983   6.707   3.324 -0.0828  0.6588  0.1607
 1502poe     o2 9377   7.119   6.674   3.343  0.0112  0.9333 -0.0322
 1502poe    c23 9378   7.197   6.686   3.227  0.2384 -0.9553 -0.1023
 1502poe    c23 9379   7.348   6.679   3.257  0.3288 -0.0312 -0.3147
 1502poe     o2 9380   7.377   6.559   3.324 -0.3048 -0.1708 -0.2873
 1502poe    c23 9381   7.507   6.562   3.378 -0.2976  0.0068 -0.3145
 1502poe    c23 9382   7.543   6.428   3.445 -0.3468  0.0151 -0.2710
 1502poe     o2 9383   7.485   6.416   3.573 -0.3213 -0.0705 -0.2668
 1502poe    c31 9384   7.540   6.306   3.641 -0.2123 -0.3763 -0.8429
 1503poe    c31 9385   3.414   1.402   6.823  0.0282 -0.1744 -0.1644
 1503poe     o2 9386   3.388   1.531   6.872 -0.7476 -0.2657 -0.3125
 1503poe    c23 9387   3.321   1.505   6.993 -0.0051  0.0268  0.1721
 1503poe    c23 9388   3.265   1.631   7.062  0.6095  0.3809  0.0269
 1503poe     o2 9389   3.173   1.689   6.972  0.9852  0.2227 -0.4618
 1503poe    c23 9390   3.075   1.773   7.027  0.1400 -0.9305 -0.1855
 1503poe    c23 9391   3.006   1.841   6.907  0.1760  0.3451  0.4936
 1503poe     o2 9392   3.084   1.924   6.823 -0.1836  0.1529 -0.0374
 1503poe    c23 9393   3.108   2.052   6.876  0.0056  0.0422  0.1458
 1503poe    c23 9394   3.164   2.152   6.773  0.4815 -1.0923 -0.7143
 1503poe     o2 9395   3.066   2.199   6.683 -0.0381 -0.3842  0.2094
 1503poe    c31 9396   3.055   2.117   6.569 -0.2543  0.3919 -0.3320
 1504poe    c31 9397   0.579   1.289   0.485  0.5078 -0.0856 -0.0089
 1504poe     o2 9398   0.490   1.196   0.543  0.2333  0.0838 -0.1588
 1504poe    c23 9399   0.555   1.071   0.540  0.0804 -0.0011  0.0240
 1504poe    c23 9400   0.486   0.946   0.482  0.3120 -0.3809  0.5600
 1504poe     o2 9401   0.389   0.883   0.563 -0.0142 -0.5877  0.0088
 1504poe    c23 9402   0.459   0.804   0.656  0.7741  0.0213 -0.0535
 1504poe    c23 9403   0.380   0.734   0.768  0.5269 -0.5016 -0.5478
 1504poe     o2 9404   0.299   0.627   0.723 -0.4519 -0.0081  0.0181
 1504poe    c23 9405   0.219   0.576   0.828  0.1589 -0.2107  0.3902
 1504poe    c23 9406   0.174   0.431   0.802 -0.6115  0.0963 -0.0307
 1504poe     o2 9407   0.087   0.426   0.691 -0.0005  0.3331 -0.5264
 1504poe    c31 9408   0.041   0.294   0.676 -0.3156  0.3406  0.3372
 1505poe    c31 9409   1.665   5.475   5.191 -0.2480 -0.1806  0.3082
 1505poe     o2 9410   1.547   5.532   5.137  0.2320  0.7916  0.2588
 1505poe    c23 9411   1.466   5.573   5.244 -0.3507  0.4779 -0.0552
 1505poe    c23 9412   1.321   5.597   5.199 -0.4669  0.1513  0.1483
 1505poe     o2 9413   1.298   5.483   5.120  0.1506  0.0156  0.1637
 1505poe    c23 9414   1.166   5.476   5.072 -0.1136 -0.3103  0.9272
 1505poe    c23 9415   1.157   5.374   4.957 -0.3207  0.8844 -0.1392
 1505poe     o2 9416   1.261   5.388   4.863  0.2941 -0.2684  0.3514
 1505poe    c23 9417   1.267   5.287   4.766  0.2146 -0.2779  0.3562
 1505poe    c23 9418   1.346   5.325   4.640  0.3612 -0.0681  0.5118
 1505poe     o2 9419   1.459   5.401   4.678  0.5067 -0.2987  0.5381
 1505poe    c31 9420   1.564   5.395   4.583  0.5983  0.2201  0.6059
 1506poe    c31 9421   0.128   2.241   3.681 -0.2609 -0.1059  0.1097
 1506poe     o2 9422   0.123   2.323   3.795 -0.4927 -0.1558  0.1362
 1506poe    c23 9423   0.003   2.297   3.863 -0.3469  0.3541  0.6000
 1506poe    c23 9424  -0.038   2.385   3.983 -0.2398  0.7923  0.3168
 1506poe     o2 9425   0.063   2.395   4.081  0.1995  0.1454 -0.0588
 1506poe    c23 9426   0.047   2.502   4.172 -0.0088 -0.2251  0.3399
 1506poe    c23 9427   0.117   2.632   4.129 -0.3767 -0.1725 -0.1046
 1506poe     o2 9428   0.257   2.633   4.138 -0.4058  0.8534  0.3864
 1506poe    c23 9429   0.317   2.760   4.135  0.7236  0.3424  0.4964
 1506poe    c23 9430   0.468   2.735   4.154  0.6318 -0.1445  0.5782
 1506poe     o2 9431   0.507   2.624   4.076  0.1461  0.1348 -0.0752
 1506poe    c31 9432   0.644   2.603   4.102 -0.0044 -0.4656  0.2801
 1507poe    c31 9433   4.818   3.937   6.794 -0.1159  0.0801 -0.1331
 1507poe     o2 9434   4.809   4.069   6.744  0.4030 -0.0541 -0.6014
 1507poe    c23 9435   4.692   4.084   6.667 -0.1047  0.3250  0.2231
 1507poe    c23 9436   4.670   4.230   6.622 -0.1684  0.2204 -0.0895
 1507poe     o2 9437   4.793   4.296   6.645 -0.0427 -0.0646  0.0770
 1507poe    c23 9438   4.776   4.436   6.633  0.2467  0.0566  1.0001
 1507poe    c23 9439   4.922   4.481   6.614  0.2358 -0.3462 -0.1680
 1507poe     o2 9440   4.997   4.437   6.726 -0.1087 -0.2633  0.0959
 1507poe    c23 9441   5.104   4.528   6.722 -0.4833  0.1806 -0.0418
 1507poe    c23 9442   5.240   4.468   6.764 -0.2584  0.3806 -0.4763
 1507poe     o2 9443   5.233   4.409   6.891  0.3177  0.6126 -0.3325
 1507poe    c31 9444   5.329   4.306   6.904 -0.0917  0.1836 -0.6464
 1508poe    c31 9445   5.583   2.070   2.958  0.0701  0.1249  0.3671
 1508poe     o2 9446   5.622   2.186   2.889 -0.6681  0.2576  0.1625
 1508poe    c23 9447   5.516   2.249   2.821 -0.3199  0.1335 -0.4953
 1508poe    c23 9448   5.553   2.385   2.757 -0.1015  0.0971 -0.4484
 1508poe     o2 9449   5.581   2.471   2.864  0.2874 -0.3812 -0.1596
 1508poe    c23 9450   5.629   2.593   2.812 -0.7897  0.1918  0.1564
 1508poe    c23 9451   5.707   2.672   2.919 -0.1786 -0.2042  0.0093
 1508poe     o2 9452   5.651   2.645   3.046 -0.0056 -0.3974  0.0451
 1508poe    c23 9453   5.714   2.724   3.144 -0.3517 -0.3674  0.2467
 1508poe    c23 9454   5.849   2.672   3.198 -0.3125 -0.2759  0.2369
 1508poe     o2 9455   5.824   2.545   3.254  0.1989 -0.3106  0.3945
 1508poe    c31 9456   5.945   2.525   3.323  0.4014  0.3134  0.2229
 1509poe    c31 9457   4.141   5.945   4.710  0.2655  0.0209  0.1935
 1509poe     o2 9458   4.076   5.833   4.654  0.3949  0.4390 -0.8191
 1509poe    c23 9459   3.978   5.872   4.561 -0.2355  0.4458 -0.1662
 1509poe    c23 9460   3.928   5.759   4.469 -0.2440  0.5584 -0.3016
 1509poe     o2 9461   4.028   5.728   4.374 -0.0202  0.4518 -0.0342
 1509poe    c23 9462   3.982   5.626   4.288  0.2717  0.1209  0.2024
 1509poe    c23 9463   4.109   5.547   4.249  0.0969  0.1106 -0.3467
 1509poe     o2 9464   4.181   5.489   4.355  0.5079  0.3745 -0.4778
 1509poe    c23 9465   4.300   5.425   4.313  0.2675  0.0183 -0.6286
 1509poe    c23 9466   4.398   5.425   4.432 -0.2393 -0.1246 -0.2069
 1509poe     o2 9467   4.320   5.364   4.533 -0.1225  0.5206  0.2805
 1509poe    c31 9468   4.402   5.299   4.627 -0.3108 -0.4037 -0.1815
 1510poe    c31 9469   3.448   6.208   3.153  0.2794 -0.4765  0.0436
 1510poe     o2 9470   3.419   6.201   3.291  0.6195  0.3081  0.1604
 1510poe    c23 9471   3.438   6.325   3.356  0.2664  0.5336 -0.1626
 1510poe    c23 9472   3.437   6.312   3.509  0.3686 -0.3192 -0.2253
 1510poe     o2 9473   3.323   6.254   3.568 -0.1563  0.2435 -0.6648
 1510poe    c23 9474   3.201   6.318   3.538  0.1633  0.9957 -0.3837
 1510poe    c23 9475   3.092   6.232   3.604  0.6725  0.4637 -0.2324
 1510poe     o2 9476   3.108   6.097   3.565 -0.3671  0.4153 -0.5236
 1510poe    c23 9477   2.993   6.023   3.601  0.1573  0.0085  0.3682
 1510poe    c23 9478   3.031   5.879   3.561  0.6009  0.3132 -0.3329
 1510poe     o2 9479   3.153   5.855   3.626 -0.2026 -0.0374  1.0903
 1510poe    c31 9480   3.199   5.722   3.630 -0.2368 -0.0750  0.3725
 1511poe    c31 9481   0.677   3.688   6.879 -1.1839 -0.1503  0.5256
 1511poe     o2 9482   0.639   3.806   6.811 -0.6626  0.1272  0.7125
 1511poe    c23 9483   0.738   3.890   6.758 -0.6448  0.0502  0.6251
 1511poe    c23 9484   0.700   4.033   6.714 -0.2419  0.0923  0.4033
 1511poe     o2 9485   0.583   4.033   6.636  0.3020 -0.5562 -0.4144
 1511poe    c23 9486   0.573   4.165   6.589 -0.2735 -0.5268 -0.2135
 1511poe    c23 9487   0.423   4.198   6.577 -0.2501 -0.2001  0.3418
 1511poe     o2 9488   0.354   4.101   6.502 -0.3985  0.1817 -0.0198
 1511poe    c23 9489   0.218   4.133   6.485 -0.4206 -0.0779 -0.3430
 1511poe    c23 9490   0.146   4.017   6.413 -0.2350 -0.0243 -0.6191
 1511poe     o2 9491   0.189   3.898   6.477 -0.0795  0.2335 -0.2392
 1511poe    c31 9492   0.129   3.782   6.423 -0.1406  0.1458  0.0154
 1512poe    c31 9493   5.140   0.394   2.243 -0.4556  0.7629 -0.5940
 1512poe     o2 9494   5.277   0.417   2.221 -0.2380 -0.5178 -0.5939
 1512poe    c23 9495   5.345   0.477   2.329 -0.6160 -0.3709 -0.4371
 1512poe    c23 9496   5.496   0.445   2.328 -0.4751  0.2885 -0.6875
 1512poe     o2 9497   5.520   0.311   2.294 -0.7853  0.0726 -0.0649
 1512poe    c23 9498   5.609   0.256   2.389 -0.3411  0.6633 -0.1288
 1512poe    c23 9499   5.537   0.177   2.501  0.3410 -0.1803 -0.2749
 1512poe     o2 9500   5.468   0.063   2.456  0.1878 -0.2144  0.0424
 1512poe    c23 9501   5.388   0.014   2.561  0.0515 -0.2995 -0.1002
 1512poe    c23 9502   5.325  -0.120   2.517  0.0510 -0.3814  0.1495
 1512poe     o2 9503   5.422  -0.176   2.431  0.4804  0.0278  0.3574
 1512poe    c31 9504   5.380  -0.304   2.390 -0.1542  0.5551 -0.6763
 1513poe    c31 9505   3.881   2.285   3.376 -0.3771 -0.4015 -0.3772
 1513poe     o2 9506   3.810   2.396   3.425 -0.3189 -0.3796 -0.3432
 1513poe    c23 9507   3.671   2.373   3.417 -0.3346 -0.1570 -0.7468
 1513poe    c23 9508   3.586   2.490   3.469  0.5523 -0.0718  0.5642
 1513poe     o2 9509   3.629   2.601   3.392 -0.2657 -0.1575 -0.0313
 1513poe    c23 9510   3.596   2.725   3.449  0.3287 -0.1191  0.2413
 1513poe    c23 9511   3.682   2.809   3.352  0.0412  0.6046  0.6078
 1513poe     o2 9512   3.807   2.744   3.361  0.0238  0.5322  0.3378
 1513poe    c23 9513   3.902   2.804   3.276  0.0962 -0.1164 -0.0396
 1513poe    c23 9514   4.030   2.727   3.313  0.3673  0.4051  0.1124
 1513poe     o2 9515   4.008   2.589   3.334  0.3658  0.4161  0.1821
 1513poe    c31 9516   4.118   2.502   3.322  0.2877  0.2963  0.3310
 1514poe    c31 9517   5.424   4.422   0.473 -0.1766  0.1523 -0.1599
 1514poe     o2 9518   5.289   4.387   0.496 -0.1217  0.2339  0.2943
 1514poe    c23 9519   5.206   4.430   0.390  0.0681 -0.1187 -0.0026
 1514poe    c23 9520   5.070   4.453   0.458 -0.2883 -0.3849 -0.6166
 1514poe     o2 9521   5.044   4.349   0.549 -0.1269 -0.0745 -0.2124
 1514poe    c23 9522   4.915   4.355   0.607  0.0035 -0.6290  0.1506
 1514poe    c23 9523   4.907   4.296   0.749 -0.0135 -0.5661  0.1762
 1514poe     o2 9524   4.986   4.371   0.837 -0.4264 -0.4503  0.4494
 1514poe    c23 9525   4.973   4.320   0.968 -0.6300  0.1179  0.6566
 1514poe    c23 9526   5.071   4.391   1.063 -0.3618 -0.1041  0.5511
 1514poe     o2 9527   5.208   4.387   1.030 -0.3145 -0.8694  0.8346
 1514poe    c31 9528   5.274   4.467   1.125 -0.3555  0.1006  0.0629
 1515poe    c31 9529   0.613   0.630   4.019  0.4376 -0.1238  0.2448
 1515poe     o2 9530   0.491   0.576   4.064  0.0915  0.5558  0.1359
 1515poe    c23 9531   0.387   0.628   3.985 -0.1048  0.0231  0.0436
 1515poe    c23 9532   0.252   0.552   3.988 -0.2015  0.2138  0.6850
 1515poe     o2 9533   0.265   0.416   3.953  0.1052  0.3595  0.2073
 1515poe    c23 9534   0.138   0.355   3.961  0.2496  0.0203 -0.0492
 1515poe    c23 9535   0.147   0.216   3.896 -0.0494  0.0501 -0.1587
 1515poe     o2 9536   0.255   0.142   3.950  0.2411 -0.0867 -0.9152
 1515poe    c23 9537   0.212   0.065   4.060 -0.1268  0.8652 -0.3775
 1515poe    c23 9538   0.327  -0.031   4.097 -0.6443  0.2426 -0.3685
 1515poe     o2 9539   0.447   0.041   4.112 -0.1394 -0.5246 -0.6706
 1515poe    c31 9540   0.566  -0.034   4.123  0.2643  0.2091  0.0332
 1516poe    c31 9541   1.249   4.218   2.048  0.0702  0.2353 -0.1251
 1516poe     o2 9542   1.166   4.320   2.098 -0.1586  0.2013 -0.4349
 1516poe    c23 9543   1.089   4.271   2.206  0.1035  0.0857 -0.3005
 1516poe    c23 9544   0.958   4.351   2.212  0.2222  0.2934 -0.4482
 1516poe     o2 9545   0.868   4.349   2.103 -0.1824  0.4504 -0.1200
 1516poe    c23 9546   0.755   4.429   2.129 -0.6182 -0.0625 -0.4384
 1516poe    c23 9547   0.662   4.436   2.006 -0.2891  0.5374 -0.6554
 1516poe     o2 9548   0.636   4.312   1.943 -0.3951  0.1391  0.1566
 1516poe    c23 9549   0.609   4.334   1.806  0.3116 -0.3495 -0.0677
 1516poe    c23 9550   0.567   4.196   1.752  0.3718 -0.4233  0.0732
 1516poe     o2 9551   0.661   4.091   1.757  1.1025  0.2125 -0.2120
 1516poe    c31 9552   0.611   3.989   1.674  0.2863 -0.0848  0.6296
 1517poe    c31 9553   4.881   0.636   5.882 -0.9438  0.7797  0.3285
 1517poe     o2 9554   4.785   0.598   5.785 -0.1791  0.2750 -0.2489
 1517poe    c23 9555   4.764   0.694   5.684 -0.2135  0.2766 -0.2400
 1517poe    c23 9556   4.670   0.629   5.581 -0.2209 -0.0435 -0.0309
 1517poe     o2 9557   4.727   0.509   5.534  0.3406  0.1050  0.2629
 1517poe    c23 9558   4.656   0.469   5.419  0.4542  0.2280  0.1482
 1517poe    c23 9559   4.748   0.395   5.320  0.4712 -0.0928  0.4026
 1517poe     o2 9560   4.794   0.280   5.387 -0.5370 -0.5008  0.4270
 1517poe    c23 9561   4.789   0.164   5.307  0.4539 -0.2156 -0.0619
 1517poe    c23 9562   4.828   0.031   5.374 -0.0751 -0.4200 -0.1547
 1517poe     o2 9563   4.968   0.044   5.388 -0.1261  0.5699 -0.4779
 1517poe    c31 9564   5.030  -0.083   5.393  0.4233  0.8554  0.1895
 1518poe    c31 9565   5.715   5.988   6.438 -0.2190  0.3361  0.5462
 1518poe     o2 9566   5.802   5.989   6.549  0.2400 -0.1839  0.2001
 1518poe    c23 9567   5.909   5.908   6.506  0.4709  0.1217  0.1882
 1518poe    c23 9568   5.994   5.876   6.631  0.1744  0.0242  0.3660
 1518poe     o2 9569   6.003   5.993   6.710 -0.2606 -0.1685  0.7019
 1518poe    c23 9570   6.107   5.981   6.804 -0.2368 -0.1935  0.6723
 1518poe    c23 9571   6.115   6.104   6.896  0.2901 -0.1060  0.5173
 1518poe     o2 9572   5.985   6.141   6.938  0.2990  0.1372  0.3340
 1518poe    c23 9573   5.969   6.279   6.964 -0.4016  0.0968  0.1353
 1518poe    c23 9574   5.824   6.330   6.960 -0.2316  0.5862  0.1371
 1518poe     o2 9575   5.781   6.367   6.831 -0.0118  0.2961 -0.0198
 1518poe    c31 9576   5.684   6.468   6.828  0.0797  0.3992  0.4952
 1519poe    c31 9577   1.837   2.354   3.256  0.7402  0.4917 -0.1987
 1519poe     o2 9578   1.863   2.222   3.215  0.3715  0.4036 -0.1545
 1519poe    c23 9579   1.872   2.207   3.075 -0.0339  0.3254 -0.1727
 1519poe    c23 9580   1.994   2.282   3.017  0.0892 -0.2545 -0.6676
 1519poe     o2 9581   2.115   2.232   3.068 -0.1594 -0.0290  0.1590
 1519poe    c23 9582   2.221   2.304   3.010 -0.1078  0.1702  0.4980
 1519poe    c23 9583   2.350   2.260   3.081 -0.2042 -0.3406  0.3612
 1519poe     o2 9584   2.467   2.340   3.083 -0.2908 -0.2071  0.1956
 1519poe    c23 9585   2.542   2.308   2.968  0.1832 -0.0899  0.4674
 1519poe    c23 9586   2.686   2.362   2.969  0.1674 -0.0211 -0.2152
 1519poe     o2 9587   2.684   2.499   3.003  0.1942 -0.2507  0.7477
 1519poe    c31 9588   2.807   2.553   2.962 -0.0667  0.3507  0.7388
 1520poe    c31 9589   6.504   6.306   1.546 -0.1828  0.2856 -0.6789
 1520poe     o2 9590   6.638   6.278   1.578 -0.5128 -0.6619 -0.0815
 1520poe    c23 9591   6.667   6.261   1.715 -0.5167 -0.0653 -0.0039
 1520poe    c23 9592   6.819   6.259   1.738 -0.5517 -0.0300  0.2293
 1520poe     o2 9593   6.877   6.156   1.662  0.3256  0.2442  0.5026
 1520poe    c23 9594   7.016   6.150   1.686  0.3473  0.0433  0.3365
 1520poe    c23 9595   7.087   6.021   1.641  0.6406  0.2652  0.1629
 1520poe     o2 9596   7.035   6.000   1.512  0.5460  0.1050  0.2271
 1520poe    c23 9597   7.096   5.898   1.436  0.9165  0.3993  0.1263
 1520poe    c23 9598   7.018   5.863   1.308  0.1769  0.2346  0.6161
 1520poe     o2 9599   6.883   5.838   1.341  0.0653  0.3410  0.2394
 1520poe    c31 9600   6.825   5.797   1.219  0.4534  0.3246  0.0577
 1521poe    c31 9601   4.810   0.220   4.763  0.5669 -0.0568 -0.8278
 1521poe     o2 9602   4.776   0.088   4.728 -0.6660  0.1060 -0.2850
 1521poe    c23 9603   4.810   0.004   4.836 -0.7442  0.2896 -0.1180
 1521poe    c23 9604   4.759  -0.132   4.786  0.0735  0.2111 -0.7560
 1521poe     o2 9605   4.803  -0.145   4.652  0.2763 -0.0934 -0.6610
 1521poe    c23 9606   4.785  -0.278   4.608  0.1499 -0.1444 -0.4574
 1521poe    c23 9607   4.792  -0.275   4.454 -0.4565  0.2001 -0.4838
 1521poe     o2 9608   4.705  -0.183   4.394 -0.4931 -0.2322 -1.1017
 1521poe    c23 9609   4.715  -0.207   4.255 -0.8193 -0.7887 -1.0314
 1521poe    c23 9610   4.671  -0.087   4.170  0.3081  0.4564  0.0963
 1521poe     o2 9611   4.745   0.030   4.195  0.2006  0.5335  0.0556
 1521poe    c31 9612   4.714   0.122   4.093 -0.5878  0.3047  0.0828
 1522poe    c31 9613   1.697   5.804   3.309  0.1556  0.2719  0.4524
 1522poe     o2 9614   1.732   5.940   3.323 -0.7574  0.6132 -0.4346
 1522poe    c23 9615   1.804   5.965   3.441 -0.7679  0.0805 -0.3090
 1522poe    c23 9616   1.859   6.107   3.414 -0.4650 -0.0438 -0.3491
 1522poe     o2 9617   1.920   6.108   3.286  0.2088  0.2157 -0.0308
 1522poe    c23 9618   1.917   6.237   3.229 -0.3405  0.1209 -0.2297
 1522poe    c23 9619   2.022   6.252   3.117  0.2724 -0.3345  0.2741
 1522poe     o2 9620   2.155   6.263   3.161  0.3346 -1.0762  0.2895
 1522poe    c23 9621   2.229   6.300   3.046  0.4796 -0.2021  0.6584
 1522poe    c23 9622   2.348   6.371   3.114  0.2540  0.2130  0.6201
 1522poe     o2 9623   2.308   6.490   3.179 -0.1302  0.2623  0.2948
 1522poe    c31 9624   2.415   6.579   3.202  0.4436 -0.3113 -0.1144
 1523poe    c31 9625   0.234   3.415   5.294 -0.0836 -0.6240 -0.2624
 1523poe     o2 9626   0.188   3.466   5.417  0.0628 -0.1408 -0.4047
 1523poe    c23 9627   0.284   3.545   5.483 -0.3937  0.6352 -0.6463
 1523poe    c23 9628   0.200   3.629   5.581  0.2316  0.0354  0.4226
 1523poe     o2 9629   0.118   3.546   5.660  0.3222 -0.5770 -0.1162
 1523poe    c23 9630   0.027   3.622   5.737  0.2631 -0.0321 -0.7220
 1523poe    c23 9631   0.028   3.545   5.870 -0.4026  0.6123 -0.3417
 1523poe     o2 9632  -0.008   3.409   5.860  0.3660  0.3323  0.5254
 1523poe    c23 9633  -0.018   3.339   5.981 -0.9020  0.1191  0.3018
 1523poe    c23 9634  -0.072   3.199   5.944 -0.1164 -0.1164  0.0319
 1523poe     o2 9635   0.011   3.154   5.839  0.2788 -0.2735  0.4126
 1523poe    c31 9636  -0.007   3.016   5.816 -0.3550 -0.2167  0.5432
 1524poe    c31 9637   1.907   4.196   4.542 -0.3575 -0.1097 -0.2301
 1524poe     o2 9638   1.860   4.242   4.667  0.2372  0.1789 -0.1094
 1524poe    c23 9639   1.854   4.383   4.670  0.0464  0.1629  0.2977
 1524poe    c23 9640   1.735   4.427   4.758  0.1363 -0.4133  0.7167
 1524poe     o2 9641   1.615   4.364   4.722 -0.0560  0.2666  0.1320
 1524poe    c23 9642   1.511   4.420   4.800  0.1292  0.0510  0.5374
 1524poe    c23 9643   1.419   4.301   4.831  0.2152 -0.4488 -1.0328
 1524poe     o2 9644   1.487   4.189   4.883  0.0227 -0.2321 -0.3018
 1524poe    c23 9645   1.453   4.171   5.019  0.2666  0.5083 -0.1353
 1524poe    c23 9646   1.472   4.028   5.073  0.6301  0.4855 -0.3228
 1524poe     o2 9647   1.561   3.961   4.987  0.3054 -0.2992 -0.0532
 1524poe    c31 9648   1.613   3.839   5.035 -0.1861 -0.4720  0.0370
 1525poe    c31 9649   1.322   2.365   2.731 -0.1997  0.4328  0.2026
 1525poe     o2 9650   1.375   2.359   2.862 -0.7501  0.4790  0.4295
 1525poe    c23 9651   1.458   2.471   2.877 -0.1081  0.0552  0.0865
 1525poe    c23 9652   1.464   2.547   3.011  0.2477  0.7501 -0.3164
 1525poe     o2 9653   1.481   2.483   3.135  0.2439  0.3454 -0.5222
 1525poe    c23 9654   1.469   2.575   3.241 -0.4583 -0.6651  0.2920
 1525poe    c23 9655   1.535   2.519   3.369 -0.0367 -0.3176  0.2290
 1525poe     o2 9656   1.443   2.418   3.403 -0.9199  0.2907 -0.2845
 1525poe    c23 9657   1.503   2.352   3.513 -0.2792  0.3166 -0.6134
 1525poe    c23 9658   1.471   2.202   3.517  0.1300  0.2344 -0.4401
 1525poe     o2 9659   1.456   2.149   3.387  0.6466 -0.1632 -0.3441
 1525poe    c31 9660   1.456   2.008   3.393 -0.7196 -0.1641  0.0031
 1526poe    c31 9661   0.316   0.843   2.771 -0.1537  0.8655 -0.7357
 1526poe     o2 9662   0.226   0.770   2.852  0.1031  1.0069 -0.3234
 1526poe    c23 9663   0.168   0.835   2.962  0.0180 -0.0085  0.2469
 1526poe    c23 9664   0.052   0.924   2.912 -0.0026  0.0616  0.4159
 1526poe     o2 9665   0.098   1.045   2.857 -0.3107 -0.0218 -0.0310
 1526poe    c23 9666  -0.003   1.130   2.807 -0.2168  0.1502  0.0729
 1526poe    c23 9667   0.043   1.277   2.800  0.1615  0.0049 -0.6120
 1526poe     o2 9668   0.091   1.325   2.924  0.0534 -0.2198 -0.4811
 1526poe    c23 9669   0.149   1.453   2.913  0.0650 -0.2040 -0.2403
 1526poe    c23 9670   0.188   1.499   3.055 -0.0186  0.4712 -0.4284
 1526poe     o2 9671   0.253   1.401   3.133 -0.0929  0.7237 -0.0490
 1526poe    c31 9672   0.309   1.452   3.252 -0.3985  0.4085  0.2311
 1527poe    c31 9673   4.299   2.829   2.696 -0.5256 -0.1077 -0.3131
 1527poe     o2 9674   4.181   2.752   2.689 -0.4823 -0.1789 -0.2597
 1527poe    c23 9675   4.116   2.766   2.814  0.1488 -0.2171  0.0789
 1527poe    c23 9676   4.035   2.639   2.843 -0.6207  0.3755  0.5635
 1527poe     o2 9677   3.926   2.625   2.754  0.3131 -0.7200 -0.4538
 1527poe    c23 9678   3.852   2.510   2.788 -0.4568 -0.0614  0.1454
 1527poe    c23 9679   3.717   2.528   2.717 -0.0500 -0.3247 -0.6958
 1527poe     o2 9680   3.735   2.601   2.597  0.2879  0.0178 -0.4372
 1527poe    c23 9681   3.610   2.609   2.531 -0.0211  1.7261  0.2949
 1527poe    c23 9682   3.631   2.644   2.383  0.3447  0.3504  0.0027
 1527poe     o2 9683   3.724   2.749   2.365  0.4587  0.3617  0.6604
 1527poe    c31 9684   3.720   2.809   2.238 -0.4321  0.4440  0.7241
 1528poe    c31 9685   1.034   2.935   0.025  0.2390 -0.2059 -0.1721
 1528poe     o2 9686   1.041   2.814  -0.046 -0.3198 -0.3682  0.0381
 1528poe    c23 9687   1.166   2.757  -0.014 -0.2430 -0.1999  0.0405
 1528poe    c23 9688   1.181   2.634  -0.106  0.0795  0.2926 -0.5690
 1528poe     o2 9689   1.064   2.557  -0.090  0.3447  0.0788  0.4425
 1528poe    c23 9690   1.069   2.453  -0.186 -0.2529  0.2214  0.2547
 1528poe    c23 9691   1.003   2.503  -0.316 -0.0042 -0.0444  0.0265
 1528poe     o2 9692   0.903   2.591  -0.271  0.2047  0.1395  0.1292
 1528poe    c23 9693   0.836   2.649  -0.381 -0.0806  0.0553  0.2582
 1528poe    c23 9694   0.740   2.765  -0.349  0.1125  0.3358 -0.1665
 1528poe     o2 9695   0.826   2.854  -0.282  0.0701  0.5334 -0.3739
 1528poe    c31 9696   0.768   2.983  -0.285 -0.2218  0.3986 -0.5998
 1529poe    c31 9697   0.452   5.175   3.644  0.3348 -0.8275  0.3591
 1529poe     o2 9698   0.469   5.283   3.733  0.4169 -0.4575 -0.0988
 1529poe    c23 9699   0.601   5.329   3.717  0.3148 -0.1478 -0.0525
 1529poe    c23 9700   0.641   5.425   3.831  0.1646  0.2080 -0.2978
 1529poe     o2 9701   0.521   5.494   3.860  0.2912  0.1193  0.4508
 1529poe    c23 9702   0.539   5.578   3.972  0.4626 -0.1470  0.6258
 1529poe    c23 9703   0.430   5.687   3.963  0.4962 -0.1460  0.2273
 1529poe     o2 9704   0.317   5.626   3.904  0.0935  0.6124  0.2062
 1529poe    c23 9705   0.210   5.718   3.908 -0.3406  0.1083  0.2085
 1529poe    c23 9706   0.097   5.665   3.817 -0.0083 -0.5796  0.1912
 1529poe     o2 9707   0.143   5.662   3.684 -0.8314  0.4766 -0.1220
 1529poe    c31 9708   0.040   5.668   3.587 -0.5356 -0.2684 -0.4932
 1530poe    c31 9709   1.469   5.220   1.851 -0.1230 -0.1323  0.0188
 1530poe     o2 9710   1.499   5.086   1.818  0.7019 -0.0817  0.5403
 1530poe    c23 9711   1.399   5.004   1.873 -0.2412  0.4084 -0.3889
 1530poe    c23 9712   1.464   4.865   1.881 -0.1897  0.4341 -0.3615
 1530poe     o2 9713   1.545   4.852   1.766  0.3112  0.3268 -0.0020
 1530poe    c23 9714   1.575   4.716   1.743 -0.7763  0.0996 -0.1654
 1530poe    c23 9715   1.666   4.710   1.618 -0.1508  0.0524  0.2869
 1530poe     o2 9716   1.761   4.814   1.629 -0.1457  0.0853 -0.0685
 1530poe    c23 9717   1.784   4.887   1.511  0.0861  0.8051  0.4184
 1530poe    c23 9718   1.670   4.957   1.435  0.2242  0.0394 -0.5206
 1530poe     o2 9719   1.590   5.015   1.536  0.1729  0.5330 -0.8403
 1530poe    c31 9720   1.474   5.060   1.468 -0.2165  0.4261 -0.2535
 1531poe    c31 9721   1.868   3.923   0.025 -0.6985 -0.6373  0.3555
 1531poe     o2 9722   1.886   3.931   0.164 -0.5349  0.1460  0.2960
 1531poe    c23 9723   1.946   4.051   0.208  0.5517  0.1028 -1.0397
 1531poe    c23 9724   2.001   4.038   0.351 -0.3302  0.0589 -0.7029
 1531poe     o2 9725   1.943   3.919   0.400  0.3140  0.0249 -0.0181
 1531poe    c23 9726   1.990   3.875   0.526 -0.4042  0.1442  0.2922
 1531poe    c23 9727   1.884   3.780   0.586 -0.0052 -0.4808  0.0070
 1531poe     o2 9728   1.849   3.716   0.465 -0.2232 -0.0933 -0.1395
 1531poe    c23 9729   1.750   3.616   0.472 -0.3741  0.0592 -0.0929
 1531poe    c23 9730   1.763   3.543   0.337  0.2942 -0.3412  0.1828
 1531poe     o2 9731   1.756   3.643   0.238  0.0962 -0.1442  0.3945
 1531poe    c31 9732   1.719   3.588   0.113  0.0792  0.0778  0.3013
 1532poe    c31 9733   3.835   3.649   3.171 -0.3982  0.2884 -0.5606
 1532poe     o2 9734   3.920   3.622   3.062  0.1358  0.2178 -0.1298
 1532poe    c23 9735   3.874   3.513   2.985  0.2614  0.1564 -0.1191
 1532poe    c23 9736   3.953   3.473   2.860  0.4579 -0.4020  0.1823
 1532poe     o2 9737   4.086   3.432   2.884  0.5335  0.0712  0.5804
 1532poe    c23 9738   4.176   3.419   2.776  0.2712  0.8768  0.2580
 1532poe    c23 9739   4.176   3.519   2.658 -0.2532  0.2089 -0.3179
 1532poe     o2 9740   4.195   3.645   2.718  0.1586 -0.3142  0.6904
 1532poe    c23 9741   4.275   3.734   2.643 -0.5101 -0.2986 -0.0189
 1532poe    c23 9742   4.233   3.783   2.503  0.7608  0.5693 -0.1168
 1532poe     o2 9743   4.123   3.871   2.501 -0.1432 -0.5156  0.3221
 1532poe    c31 9744   4.160   4.000   2.543 -0.1629 -0.3250 -0.2301
 1533poe    c31 9745   6.516   0.784   1.044 -0.4565  0.3631  0.1701
 1533poe     o2 9746   6.439   0.871   1.122 -0.4527 -0.0530  0.6409
 1533poe    c23 9747   6.307   0.819   1.116 -0.4430  0.0465 -0.4997
 1533poe    c23 9748   6.220   0.923   1.189 -0.2784 -0.0519 -0.1647
 1533poe     o2 9749   6.290   0.993   1.290 -0.9488  0.4953 -0.0758
 1533poe    c23 9750   6.215   1.072   1.380 -0.8394  0.3274  0.1623
 1533poe    c23 9751   6.305   1.102   1.502 -0.3104 -0.2078 -0.0869
 1533poe     o2 9752   6.432   1.154   1.469 -0.1263 -0.5886  0.0185
 1533poe    c23 9753   6.510   1.188   1.581  0.2895 -0.8671 -0.1836
 1533poe    c23 9754   6.646   1.251   1.548 -0.0013 -0.0227  0.1993
 1533poe     o2 9755   6.726   1.150   1.491 -0.5735 -0.6766  0.5373
 1533poe    c31 9756   6.855   1.202   1.468 -0.9301  0.2571  0.6168
 1534poe    c31 9757   0.986   5.704   0.718 -0.2402  0.1605 -0.4543
 1534poe     o2 9758   0.867   5.700   0.793  0.2814  0.3473  0.3960
 1534poe    c23 9759   0.799   5.820   0.822 -0.6346  0.0176 -0.3416
 1534poe    c23 9760   0.673   5.778   0.899 -0.3187  0.0261  0.1871
 1534poe     o2 9761   0.614   5.681   0.815 -0.1569 -0.2679  0.4092
 1534poe    c23 9762   0.483   5.638   0.846 -0.1801 -0.1087  0.5332
 1534poe    c23 9763   0.428   5.526   0.756 -0.1248  0.0789  0.2644
 1534poe     o2 9764   0.422   5.556   0.618  0.0017 -0.7139  0.0783
 1534poe    c23 9765   0.381   5.443   0.546 -0.9548  0.2302 -0.8976
 1534poe    c23 9766   0.491   5.370   0.467 -0.4551 -0.3006  0.2623
 1534poe     o2 9767   0.616   5.346   0.528 -0.0115  0.0533 -0.4887
 1534poe    c31 9768   0.692   5.258   0.449  0.3847 -0.0237 -0.0274
 1535poe    c31 9769   6.403   5.281   4.834  0.4806  0.6509  0.1073
 1535poe     o2 9770   6.368   5.301   4.969  0.8331  1.2647  0.1130
 1535poe    c23 9771   6.484   5.319   5.048  1.1887 -0.1463 -0.0580
 1535poe    c23 9772   6.456   5.256   5.186 -0.2495  0.6417  0.0316
 1535poe     o2 9773   6.361   5.323   5.266 -0.0742  0.2570  0.5598
 1535poe    c23 9774   6.345   5.255   5.389 -0.9233 -0.5311  0.0260
 1535poe    c23 9775   6.254   5.354   5.464 -0.0461 -0.1751  0.6406
 1535poe     o2 9776   6.137   5.387   5.392  0.5550  0.1946 -0.1890
 1535poe    c23 9777   6.051   5.463   5.474  0.3213  0.2696 -0.5023
 1535poe    c23 9778   5.916   5.484   5.402  0.1097  0.3551 -0.0791
 1535poe     o2 9779   5.942   5.480   5.264 -0.3827  0.6445 -0.1835
 1535poe    c31 9780   5.843   5.537   5.181 -0.4347  0.3789 -0.3063
 1536poe    c31 9781   3.407   1.038   5.284  0.0925  0.7752  0.1070
 1536poe     o2 9782   3.304   1.122   5.238 -0.4323 -0.4252 -0.9480
 1536poe    c23 9783   3.341   1.257   5.219  0.8259 -0.5942  0.1514
 1536poe    c23 9784   3.243   1.319   5.117  0.6131 -0.3228  0.5151
 1536poe     o2 9785   3.109   1.299   5.155  0.3736  0.1724 -0.0596
 1536poe    c23 9786   3.055   1.421   5.200  0.0879  0.0225  0.0041
 1536poe    c23 9787   2.903   1.401   5.219  0.1419 -0.1274  0.2752
 1536poe     o2 9788   2.862   1.301   5.129 -0.3061  0.2956  0.0069
 1536poe    c23 9789   2.727   1.273   5.162 -0.4091  0.2503 -0.4518
 1536poe    c23 9790   2.656   1.175   5.066 -0.3132 -1.0513  0.7624
 1536poe     o2 9791   2.739   1.066   5.036  0.1819 -0.5091  0.1201
 1536poe    c31 9792   2.672   0.982   4.945 -0.3524 -0.2115  0.2351
 1537poe    c31 9793   2.832   5.411   3.689 -0.0125 -0.7586  0.6711
 1537poe     o2 9794   2.758   5.439   3.573  0.4594 -0.6433  0.3925
 1537poe    c23 9795   2.765   5.315   3.507  0.1812 -0.3951 -0.1092
 1537poe    c23 9796   2.647   5.289   3.411  0.0400  0.1427 -0.0872
 1537poe     o2 9797   2.637   5.390   3.313  0.4667 -0.0452 -0.3259
 1537poe    c23 9798   2.536   5.366   3.218 -0.2798  0.6588  0.2739
 1537poe    c23 9799   2.552   5.455   3.094  0.0279 -0.0783 -0.2239
 1537poe     o2 9800   2.568   5.588   3.138  0.6254 -0.0226 -0.6073
 1537poe    c23 9801   2.571   5.680   3.031  0.6748  0.4756 -0.1823
 1537poe    c23 9802   2.582   5.821   3.091 -0.3119  0.4112  0.1663
 1537poe     o2 9803   2.683   5.826   3.189 -0.2987  1.1500  0.1190
 1537poe    c31 9804   2.797   5.897   3.145 -0.3268  1.1594  0.0610
 1538poe    c31 9805   6.743   3.822   3.800 -0.0356 -0.7188  0.0537
 1538poe     o2 9806   6.772   3.901   3.687 -1.0551 -0.4218 -0.0116
 1538poe    c23 9807   6.796   4.034   3.724  0.3981 -0.5989 -0.2476
 1538poe    c23 9808   6.815   4.118   3.596 -0.3785  0.2082  0.1570
 1538poe     o2 9809   6.704   4.132   3.510 -0.3097 -0.0877  0.0202
 1538poe    c23 9810   6.755   4.211   3.405 -0.4733  0.1670  0.1313
 1538poe    c23 9811   6.622   4.247   3.336 -0.7133 -0.3880  0.2945
 1538poe     o2 9812   6.561   4.122   3.311  0.0501 -0.6405 -0.3520
 1538poe    c23 9813   6.430   4.143   3.263  0.2769  0.2369 -0.6132
 1538poe    c23 9814   6.354   4.012   3.234  0.2842 -0.0835  0.7150
 1538poe     o2 9815   6.357   3.918   3.339  0.7958 -0.6092  0.2359
 1538poe    c31 9816   6.249   3.828   3.327  0.2974 -0.0356  0.3434
 1539poe    c31 9817   6.494   2.620   2.606  0.7809  0.1678 -0.2401
 1539poe     o2 9818   6.473   2.758   2.629 -0.1220 -0.0650  0.4114
 1539poe    c23 9819   6.367   2.770   2.721  0.1965 -0.5541  0.8478
 1539poe    c23 9820   6.365   2.917   2.766  0.5033 -0.1686 -0.3647
 1539poe     o2 9821   6.356   2.996   2.649 -0.7493 -0.3792 -0.4307
 1539poe    c23 9822   6.242   3.078   2.639 -0.5843 -0.1223 -0.2540
 1539poe    c23 9823   6.253   3.168   2.515 -0.0026  0.2065  0.0380
 1539poe     o2 9824   6.300   3.099   2.401  0.0800  1.1737 -0.5312
 1539poe    c23 9825   6.269   3.166   2.281  0.4115  0.6657 -0.9050
 1539poe    c23 9826   6.238   3.068   2.166 -0.7907  0.0375 -0.0729
 1539poe     o2 9827   6.281   3.106   2.037 -0.5450 -0.2840 -0.0840
 1539poe    c31 9828   6.265   2.995   1.952  0.5713 -1.1274  0.7680
 1540poe    c31 9829   0.740   1.830   4.548 -0.4408  0.1778  0.3924
 1540poe     o2 9830   0.754   1.807   4.686  0.0861  0.4010  0.3787
 1540poe    c23 9831   0.884   1.798   4.739  0.2098 -0.3844 -0.0467
 1540poe    c23 9832   0.884   1.763   4.889  0.0033 -0.4231 -0.0545
 1540poe     o2 9833   0.832   1.634   4.910 -0.2384 -0.2909  0.1545
 1540poe    c23 9834   0.852   1.610   5.047  0.6157 -0.4747 -0.0024
 1540poe    c23 9835   0.786   1.478   5.090 -0.8056  0.1530 -0.2180
 1540poe     o2 9836   0.823   1.360   5.022  0.0760  0.1026  0.3382
 1540poe    c23 9837   0.938   1.296   5.073  0.0513 -0.3212 -0.1395
 1540poe    c23 9838   0.959   1.174   4.981  0.2303 -0.5248  0.1689
 1540poe     o2 9839   0.929   1.198   4.845 -0.3356 -0.5458  0.2841
 1540poe    c31 9840   0.976   1.093   4.764 -0.0952  0.2609 -0.6532
 1541poe    c31 9841   6.704   6.553   5.201 -0.1830 -0.8604  0.3047
 1541poe     o2 9842   6.730   6.564   5.339 -0.5001  0.3527  0.2738
 1541poe    c23 9843   6.724   6.433   5.391  0.6158  0.2623  0.1944
 1541poe    c23 9844   6.771   6.459   5.535  0.4061  0.6418  0.1973
 1541poe     o2 9845   6.699   6.570   5.583  0.1365  0.3138  0.5556
 1541poe    c23 9846   6.667   6.569   5.721 -0.7869  0.3940  0.3466
 1541poe    c23 9847   6.638   6.702   5.792 -0.4417  0.3404  0.5919
 1541poe     o2 9848   6.762   6.769   5.788 -0.2137 -0.0912  0.3246
 1541poe    c23 9849   6.746   6.903   5.829 -0.7495 -0.1082  0.1827
 1541poe    c23 9850   6.880   6.969   5.870 -0.7578  0.3214 -0.4670
 1541poe     o2 9851   6.862   7.067   5.969  0.3924 -0.2362  0.3204
 1541poe    c31 9852   6.970   7.065   6.060 -0.0699 -0.0659  0.8762
 1542poe    c31 9853   2.091   3.465   1.132 -0.2334  0.0693 -0.4079
 1542poe     o2 9854   2.153   3.339   1.115 -0.6116 -0.1276 -0.3362
 1542poe    c23 9855   2.226   3.338   0.994 -0.0487  0.2907 -0.0063
 1542poe    c23 9856   2.290   3.199   0.979 -0.1745  0.1901  0.3698
 1542poe     o2 9857   2.186   3.105   0.959 -0.4313  0.6082 -0.3011
 1542poe    c23 9858   2.169   3.058   0.827 -0.0041 -0.6281  0.0704
 1542poe    c23 9859   2.037   2.982   0.802 -0.2666 -0.2721  0.3514
 1542poe     o2 9860   1.928   3.068   0.825 -0.2451 -0.0658 -0.3035
 1542poe    c23 9861   1.815   3.026   0.751 -0.0405 -0.4369 -0.4083
 1542poe    c23 9862   1.719   2.977   0.862  0.2125  0.2146  0.1042
 1542poe     o2 9863   1.723   3.084   0.953  0.3796 -0.1072  0.4765
 1542poe    c31 9864   1.621   3.060   1.048 -0.2793 -0.0582 -0.2111
 1543poe    c31 9865   3.243   1.108   2.964 -0.4278  0.5966 -0.0955
 1543poe     o2 9866   3.104   1.082   2.970 -0.3838  0.4040  0.1389
 1543poe    c23 9867   3.077   0.965   2.896 -0.0996  0.1141  0.4917
 1543poe    c23 9868   2.925   0.949   2.881 -0.0554 -0.1723  0.3536
 1543poe     o2 9869   2.857   0.963   3.004 -0.2810 -0.1794  0.2304
 1543poe    c23 9870   2.726   1.014   2.987 -0.2763 -0.3414 -0.3097
 1543poe    c23 9871   2.690   1.083   3.119  0.1702  0.1119 -0.4239
 1543poe     o2 9872   2.792   1.181   3.130 -0.3017  0.5651 -0.0392
 1543poe    c23 9873   2.775   1.264   3.243  0.0127  0.2343  0.2507
 1543poe    c23 9874   2.913   1.269   3.311 -0.1655 -0.4185  0.6786
 1543poe     o2 9875   3.017   1.259   3.215 -0.4576 -0.2931  0.3469
 1543poe    c31 9876   3.143   1.237   3.274 -0.4077  0.7318  0.6495
 1544poe    c31 9877   3.303   3.433   3.119  0.2075 -0.2708  0.6628
 1544poe     o2 9878   3.219   3.376   3.217 -0.0813  0.3879  0.8060
 1544poe    c23 9879   3.259   3.241   3.223 -0.1822  0.3176  0.0753
 1544poe    c23 9880   3.178   3.175   3.337  0.2281 -0.1326  0.1113
 1544poe     o2 9881   3.046   3.213   3.305  0.3119 -0.5525 -0.7585
 1544poe    c23 9882   2.950   3.156   3.391  0.0838  0.8060 -0.0880
 1544poe    c23 9883   2.811   3.198   3.342  0.0473  0.1179 -0.5979
 1544poe     o2 9884   2.812   3.339   3.338 -0.0700  0.1505  0.2094
 1544poe    c23 9885   2.713   3.384   3.427  0.0258 -0.4237  0.6090
 1544poe    c23 9886   2.710   3.538   3.435  0.2712 -0.3510 -0.5948
 1544poe     o2 9887   2.805   3.610   3.510 -0.2533  0.0675 -0.3230
 1544poe    c31 9888   2.792   3.749   3.498 -1.0348  0.0119 -0.2074
 1545poe    c31 9889   1.231   3.694   4.914 -0.2384  0.0219 -0.3167
 1545poe     o2 9890   1.137   3.793   4.949 -0.0303  0.1241 -0.0443
 1545poe    c23 9891   1.150   3.890   4.847  0.0314 -0.1414 -0.2903
 1545poe    c23 9892   1.061   4.013   4.871 -0.2942 -0.4284 -0.0198
 1545poe     o2 9893   1.107   4.082   4.985 -0.0428 -0.1276 -0.3001
 1545poe    c23 9894   1.019   4.190   5.008 -0.0586 -0.2403  0.1801
 1545poe    c23 9895   1.044   4.284   5.127  0.0536  0.9199 -0.7447
 1545poe     o2 9896   1.164   4.356   5.109  0.6445  0.1741  0.1446
 1545poe    c23 9897   1.145   4.491   5.143 -0.5851  0.0069  0.1698
 1545poe    c23 9898   1.268   4.568   5.091 -0.0472 -1.1297 -0.2733
 1545poe     o2 9899   1.396   4.526   5.134  0.3396 -0.1211 -0.4207
 1545poe    c31 9900   1.485   4.629   5.095  0.3737  0.2156  0.5064
 1546poe    c31 9901   2.452   5.653   1.822  0.2212  0.7021 -0.0899
 1546poe     o2 9902   2.351   5.633   1.726  0.5387  0.2250 -0.3252
 1546poe    c23 9903   2.248   5.550   1.775  0.2323  0.7698 -0.0342
 1546poe    c23 9904   2.163   5.532   1.648 -0.0674  0.0479  0.2636
 1546poe     o2 9905   2.246   5.520   1.534 -0.2491 -0.0734  0.1434
 1546poe    c23 9906   2.188   5.478   1.413 -0.0597 -0.0233  0.0349
 1546poe    c23 9907   2.298   5.445   1.311 -0.5161 -0.0357 -0.4565
 1546poe     o2 9908   2.405   5.535   1.324  0.0530 -0.8086  0.3108
 1546poe    c23 9909   2.491   5.535   1.212  0.2249 -0.2741  0.4368
 1546poe    c23 9910   2.624   5.612   1.220  0.1506 -0.1458  0.4478
 1546poe     o2 9911   2.705   5.576   1.330  0.2267  0.2200  0.5104
 1546poe    c31 9912   2.841   5.608   1.306  0.4595 -1.1451 -0.1049
 1547poe    c31 9913   0.399   3.974   2.104 -0.1160 -0.6518 -0.1522
 1547poe     o2 9914   0.368   3.892   1.994 -0.1660 -0.5096 -0.2441
 1547poe    c23 9915   0.406   3.758   2.018  0.7824 -0.1939  0.0383
 1547poe    c23 9916   0.334   3.668   1.917  0.1090  0.6570 -0.2535
 1547poe     o2 9917   0.193   3.680   1.913  0.1049  0.5876 -0.3187
 1547poe    c23 9918   0.119   3.581   1.844 -0.0913  0.2083  0.4268
 1547poe    c23 9919  -0.033   3.603   1.833  0.0092  0.9161  0.4066
 1547poe     o2 9920  -0.043   3.727   1.766  0.3480  0.6735 -0.0924
 1547poe    c23 9921  -0.178   3.759   1.739  0.0800 -0.1375  0.2630
 1547poe    c23 9922  -0.190   3.912   1.744 -0.3170 -0.1654  0.1704
 1547poe     o2 9923  -0.070   3.976   1.705 -0.4703  0.2975  0.4585
 1547poe    c31 9924  -0.094   4.115   1.716  0.5375  0.5380 -0.2894
 1548poe    c31 9925   3.533   3.854   1.285 -0.1496 -0.5238 -0.4541
 1548poe     o2 9926   3.529   3.878   1.146 -0.1399 -0.3443 -0.4234
 1548poe    c23 9927   3.639   3.965   1.131 -0.6186  0.2759 -0.3736
 1548poe    c23 9928   3.639   4.005   0.982  0.1626 -0.0968 -0.4802
 1548poe     o2 9929   3.761   3.968   0.921  0.3283 -0.5076  0.0834
 1548poe    c23 9930   3.739   3.906   0.796 -0.4932 -0.2415  0.0848
 1548poe    c23 9931   3.872   3.855   0.738 -0.4748 -0.1591  0.0545
 1548poe     o2 9932   3.926   3.756   0.823  0.4265  0.1380 -0.1500
 1548poe    c23 9933   4.024   3.680   0.757  0.5216  0.0188  0.1261
 1548poe    c23 9934   4.079   3.574   0.854  0.2429 -0.1316  0.1217
 1548poe     o2 9935   4.101   3.638   0.978 -0.6452  0.1188  0.1539
 1548poe    c31 9936   4.213   3.586   1.044 -0.3254  0.5814 -0.0149
 1549poe    c31 9937   4.350   0.004   0.127  0.0176 -0.1521 -0.0611
 1549poe     o2 9938   4.379  -0.111   0.204 -0.2705 -0.3691 -0.2793
 1549poe    c23 9939   4.511  -0.150   0.175 -0.1117  0.1346 -0.2429
 1549poe    c23 9940   4.549  -0.265   0.271  0.1522  0.8260  0.4912
 1549poe     o2 9941   4.458  -0.251   0.378  0.0219  0.3004  0.4504
 1549poe    c23 9942   4.478  -0.353   0.473 -0.8770 -0.2306  0.0836
 1549poe    c23 9943   4.389  -0.313   0.592 -0.5697 -0.3426  0.3563
 1549poe     o2 9944   4.270  -0.259   0.536 -0.0591  0.3061 -0.1290
 1549poe    c23 9945   4.233  -0.145   0.610 -0.4158  0.1401 -0.0483
 1549poe    c23 9946   4.122  -0.084   0.522 -0.5669  0.7582  0.5581
 1549poe     o2 9947   4.166  -0.063   0.390 -0.0172  0.0561  0.6191
 1549poe    c31 9948   4.064  -0.007   0.310  0.7580 -0.0020 -0.4311
 1550poe    c31 9949   4.730   3.532   6.609  0.0394  0.5545  0.4378
 1550poe     o2 9950   4.820   3.565   6.505 -0.2070 -0.0439  0.0313
 1550poe    c23 9951   4.765   3.618   6.387  0.0064  0.0489 -0.0256
 1550poe    c23 9952   4.828   3.752   6.344 -0.3626  0.2803  0.1563
 1550poe     o2 9953   4.967   3.736   6.332 -0.4210  0.0917 -0.2955
 1550poe    c23 9954   5.034   3.859   6.348 -0.1370 -0.0275 -0.5518
 1550poe    c23 9955   5.186   3.838   6.349 -0.1417 -0.0465 -0.1241
 1550poe     o2 9956   5.228   3.827   6.215  0.0181 -0.5210 -0.0345
 1550poe    c23 9957   5.354   3.762   6.209  0.0553 -0.4453 -0.0818
 1550poe    c23 9958   5.355   3.667   6.088  0.7811 -0.4156 -0.1002
 1550poe     o2 9959   5.274   3.551   6.086 -0.6065  0.5499 -0.5910
 1550poe    c31 9960   5.287   3.494   5.958 -0.0238  0.3871 -0.4595
 1551poe    c31 9961   1.009   2.729   1.879 -0.0758  0.2706  0.7040
 1551poe     o2 9962   1.136   2.744   1.821 -0.2545 -0.3009  0.1591
 1551poe    c23 9963   1.235   2.715   1.917  0.1102  1.4933  0.3691
 1551poe    c23 9964   1.341   2.826   1.921  0.6762  0.9663  0.2722
 1551poe     o2 9965   1.406   2.822   1.795 -0.0851  0.3205 -0.1093
 1551poe    c23 9966   1.492   2.934   1.793  0.3552 -0.0145 -0.0843
 1551poe    c23 9967   1.574   2.913   1.664  0.3577 -0.4145 -0.0200
 1551poe     o2 9968   1.493   2.898   1.550  0.1027 -0.1856  0.1270
 1551poe    c23 9969   1.574   2.870   1.438  0.0766 -0.0763  0.0808
 1551poe    c23 9970   1.471   2.847   1.325 -0.4759 -0.1944  0.6028
 1551poe     o2 9971   1.371   2.756   1.363 -0.2102 -0.5832  0.3739
 1551poe    c31 9972   1.370   2.647   1.274  0.1108  0.3831 -0.8343
 1552poe    c31 9973   5.068   5.072   6.147  0.1483 -0.2135  0.6046
 1552poe     o2 9974   5.134   5.026   6.031  0.7571  0.1739  0.7996
 1552poe    c23 9975   5.100   5.117   5.929 -0.0921 -0.3176  0.6428
 1552poe    c23 9976   5.199   5.093   5.814  0.3067  0.1994  0.8772
 1552poe     o2 9977   5.188   4.960   5.770  0.6256  0.3367  0.3732
 1552poe    c23 9978   5.305   4.925   5.700  0.5963  0.6455  0.1700
 1552poe    c23 9979   5.295   4.787   5.633  1.1587  0.3335  0.7139
 1552poe     o2 9980   5.279   4.677   5.720 -0.6772 -0.0790 -0.1147
 1552poe    c23 9981   5.309   4.545   5.680  0.0919  0.0057  0.1875
 1552poe    c23 9982   5.316   4.444   5.796  0.3216  0.0537  0.2174
 1552poe     o2 9983   5.421   4.472   5.886  0.1152  0.0774  0.4518
 1552poe    c31 9984   5.441   4.371   5.982 -0.2962 -0.0456  0.4091
 1553poe    c31 9985   1.851   4.498   2.812  0.2135  0.1041  0.3978
 1553poe     o2 9986   1.956   4.497   2.719 -0.0495 -0.6533  0.1007
 1553poe    c23 9987   2.078   4.529   2.783 -0.1928  0.4117 -0.1501
 1553poe    c23 9988   2.184   4.551   2.673 -0.5023  0.1283 -0.5065
 1553poe     o2 9989   2.208   4.434   2.598 -0.0449  0.0042 -0.1690
 1553poe    c23 9990   2.287   4.462   2.484  0.1066 -0.1827 -0.1086
 1553poe    c23 9991   2.320   4.329   2.414 -0.1030  0.0694 -0.6855
 1553poe     o2 9992   2.197   4.278   2.368 -0.1228 -0.3186 -0.2142
 1553poe    c23 9993   2.225   4.181   2.269 -0.3138 -0.7559  0.1558
 1553poe    c23 9994   2.090   4.116   2.236 -0.2695 -0.6911 -0.1605
 1553poe     o2 9995   2.031   4.103   2.364 -0.0346  0.4599  0.0743
 1553poe    c31 9996   1.892   4.077   2.366  0.0387  0.0554 -0.0561
 1554poe    c31 9997   6.394   2.048   0.439 -0.2104  0.5116  0.2108
 1554poe     o2 9998   6.278   1.992   0.496 -0.0979 -0.0526 -0.1013
 1554poe    c23 9999   6.254   1.870   0.430 -0.8731  0.1387 -0.1817
 1554poe    c2310000   6.103   1.848   0.456 -0.7516  0.0607  0.4674
 1554poe     o210001   6.029   1.921   0.361 -0.1902 -0.0578 -0.0721
 1554poe    c2310002   5.912   1.850   0.324 -0.2947  0.3980 -0.6214
 1554poe    c2310003   5.857   1.920   0.199  0.2371  0.1927 -0.9711
 1554poe     o210004   5.830   2.053   0.234  0.5216 -0.0933  0.3622
 1554poe    c2310005   5.786   2.128   0.124  1.0630 -0.0667  0.1621
 1554poe    c2310006   5.717   2.257   0.174 -0.1537 -0.2374 -1.0087
 1554poe     o210007   5.794   2.313   0.277 -0.1919  0.3173 -1.2774
 1554poe    c3110008   5.732   2.428   0.330 -0.4913 -0.0843 -0.7440
 1555poe    c3110009   6.944   6.422   1.453 -0.3954  0.2618  0.3566
 1555poe     o210010   6.885   6.297   1.427 -0.8264  0.5280  0.0477
 1555poe    c2310011   6.928   6.250   1.301 -0.5575 -0.3979  0.4773
 1555poe    c2310012   6.820   6.275   1.194  0.3020  0.4952 -0.1963
 1555poe     o210013   6.703   6.203   1.226  0.3194  0.5327 -0.0490
 1555poe    c2310014   6.611   6.187   1.120  0.0817 -0.4350  0.2996
 1555poe    c2310015   6.538   6.053   1.097 -0.3222 -0.2232  0.3440
 1555poe     o210016   6.422   6.064   1.016 -0.2451 -0.0941  0.2501
 1555poe    c2310017   6.367   5.936   0.994  0.2327 -0.2007 -0.3450
 1555poe    c2310018   6.227   5.940   0.929 -0.0740 -0.2129  0.3027
 1555poe     o210019   6.217   5.974   0.792  0.6703 -0.1410  0.2584
 1555poe    c3110020   6.252   5.869   0.705  1.2742 -0.0377  0.3765
 1556poe    c3110021   0.737   0.126   5.585  0.2386 -0.0187  0.0432
 1556poe     o210022   0.717   0.057   5.707 -0.5486  0.0258 -0.0572
 1556poe    c2310023   0.740  -0.080   5.680  0.2742  0.0519  0.4899
 1556poe    c2310024   0.768  -0.154   5.812 -0.2539 -0.0634  0.5362
 1556poe     o210025   0.681  -0.100   5.909 -0.4243  0.1168  0.2858
 1556poe    c2310026   0.676  -0.172   6.031 -0.5353  0.1591  0.3071
 1556poe    c2310027   0.545  -0.115   6.087 -0.6222  0.2972 -0.0354
 1556poe     o210028   0.554   0.019   6.129  0.1211  0.2776 -0.1291
 1556poe    c2310029   0.437   0.077   6.180  0.0438 -0.0488  0.0628
 1556poe    c2310030   0.439   0.225   6.223  0.0233 -0.1094  0.2767
 1556poe     o210031   0.470   0.302   6.109 -0.3636 -0.3389  0.0145
 1556poe    c3110032   0.497   0.436   6.143  0.0042 -0.1957 -0.8170
 1557poe    c3110033   4.484   0.313   1.955  0.0577 -0.3138 -0.8047
 1557poe     o210034   4.487   0.373   1.828 -0.5950 -0.0693 -0.7084
 1557poe    c2310035   4.430   0.501   1.810  0.1428  0.4009  0.2292
 1557poe    c2310036   4.489   0.566   1.684 -0.4959  0.6871  0.0730
 1557poe     o210037   4.505   0.470   1.583  0.2824  0.4245  0.4381
 1557poe    c2310038   4.501   0.536   1.458 -0.9019 -1.1502 -0.3963
 1557poe    c2310039   4.560   0.453   1.343  0.6441  0.1691 -0.5952
 1557poe     o210040   4.498   0.327   1.352  0.4550  0.3166  0.2235
 1557poe    c2310041   4.556   0.225   1.274 -0.3592  0.3925 -0.4912
 1557poe    c2310042   4.501   0.087   1.314 -0.3010  0.6058  0.3439
 1557poe     o210043   4.551   0.033   1.434 -0.5834 -0.2681  0.0782
 1557poe    c3110044   4.565  -0.107   1.433  0.1185 -0.2035 -0.0038
 1558poe    c3110045   4.645   4.143   4.856  0.1668  0.5254 -0.3737
 1558poe     o210046   4.601   4.255   4.929 -0.5087 -0.2133  0.3727
 1558poe    c2310047   4.595   4.225   5.067 -0.8968 -0.0109  0.4032
 1558poe    c2310048   4.534   4.354   5.124  0.3562  0.6855  0.2040
 1558poe     o210049   4.431   4.385   5.033 -0.1377 -0.5099  0.3404
 1558poe    c2310050   4.342   4.480   5.086 -0.2084 -0.0148 -0.6463
 1558poe    c2310051   4.210   4.502   5.009 -0.4198  0.1155 -0.2531
 1558poe     o210052   4.243   4.572   4.891 -0.6663  0.0861 -0.3405
 1558poe    c2310053   4.250   4.711   4.916  0.2063 -0.0846  0.4449
 1558poe    c2310054   4.312   4.779   4.793 -0.5003 -0.3055 -0.0404
 1558poe     o210055   4.453   4.774   4.783 -0.4977  0.3885 -0.3951
 1558poe    c3110056   4.517   4.877   4.710  0.8076  0.0558  0.2500
 1559poe    c3110057   6.604   3.367   3.139  0.2809  0.0103 -0.1523
 1559poe     o210058   6.632   3.338   3.274  0.0239  0.3327 -0.0285
 1559poe    c2310059   6.638   3.456   3.351  0.1093  0.1106  0.3065
 1559poe    c2310060   6.717   3.433   3.481  0.4281 -0.2297  0.0568
 1559poe     o210061   6.856   3.425   3.465  0.4253 -0.1273 -0.0203
 1559poe    c2310062   6.927   3.473   3.577  0.1192 -0.4403  0.3089
 1559poe    c2310063   7.075   3.493   3.541 -0.0584  0.2448 -0.0577
 1559poe     o210064   7.102   3.375   3.469 -0.8338 -0.1443  0.2834
 1559poe    c2310065   7.237   3.359   3.432 -0.8479  0.5321 -0.0728
 1559poe    c2310066   7.245   3.255   3.318 -0.1116  0.3203  0.1691
 1559poe     o210067   7.149   3.158   3.356  0.1861 -0.0220  0.0505
 1559poe    c3110068   7.131   3.059   3.257  0.8337 -0.4388  0.3402
 1560poe    c3110069   3.232   4.483   6.358 -0.0468 -0.0036 -0.0390
 1560poe     o210070   3.125   4.568   6.394 -0.3623 -0.5157  0.2439
 1560poe    c2310071   3.169   4.656   6.495 -0.4747 -0.0491 -0.1080
 1560poe    c2310072   3.100   4.789   6.462 -0.1322  0.2756  0.4588
 1560poe     o210073   2.969   4.740   6.443  0.2822 -0.3949 -0.7451
 1560poe    c2310074   2.883   4.849   6.420  0.0802 -0.3151  0.3559
 1560poe    c2310075   2.739   4.806   6.387  0.1007 -0.2491  0.1795
 1560poe     o210076   2.749   4.689   6.309 -0.0582  0.0306 -0.2630
 1560poe    c2310077   2.623   4.635   6.277  0.1573 -0.4846 -0.2485
 1560poe    c2310078   2.625   4.482   6.257  0.5846 -0.4914 -0.1617
 1560poe     o210079   2.659   4.399   6.366 -0.1292 -0.1692  0.3125
 1560poe    c3110080   2.558   4.378   6.462 -0.3388  0.2636  0.1885
 1561poe    c3110081   6.137   3.433   1.577 -0.0428 -0.1777 -0.3680
 1561poe     o210082   5.999   3.408   1.562 -0.2033  0.4492  0.0023
 1561poe    c2310083   5.939   3.384   1.687 -0.3877  0.1005 -0.1497
 1561poe    c2310084   5.796   3.342   1.652 -0.5490  0.1150  0.4741
 1561poe     o210085   5.752   3.440   1.561 -0.3861  0.0692  0.3455
 1561poe    c2310086   5.613   3.434   1.539 -0.3933  0.2370  0.3469
 1561poe    c2310087   5.553   3.553   1.461 -0.2020  0.0599 -0.0690
 1561poe     o210088   5.617   3.583   1.339 -0.0124 -0.5932 -0.1376
 1561poe    c2310089   5.540   3.663   1.252  0.2001  0.0929  0.2934
 1561poe    c2310090   5.570   3.811   1.284 -0.2136  0.0264  1.0199
 1561poe     o210091   5.709   3.835   1.287 -0.1689 -0.0527 -0.1977
 1561poe    c3110092   5.736   3.973   1.284 -0.4374  0.0170  0.5265
 1562poe    c3110093   2.759   2.148   5.836 -0.3435  0.3313 -0.0292
 1562poe     o210094   2.711   2.034   5.767 -0.0973 -0.1215  0.5414
 1562poe    c2310095   2.722   1.913   5.838  0.3000 -0.1559  0.4239
 1562poe    c2310096   2.673   1.783   5.772  0.0487  0.1255  0.0514
 1562poe     o210097   2.709   1.790   5.636  0.1948 -0.0437  0.0793
 1562poe    c2310098   2.671   1.669   5.574  0.8607 -0.0854 -0.2534
 1562poe    c2310099   2.584   1.696   5.449  0.0758 -0.4657  0.2065
 1562poe     o210100   2.470   1.767   5.491  0.4439  0.3893 -0.2074
 1562poe    c2310101   2.397   1.809   5.378  0.0810  0.4964  0.0643
 1562poe    c2310102   2.304   1.930   5.401 -0.1603  0.3574 -0.1786
 1562poe     o210103   2.374   2.042   5.450 -0.2974  0.1817  0.4194
 1562poe    c3110104   2.293   2.153   5.482 -0.4106  0.3970 -0.5779
 1563poe    c3110105   6.148   0.939   2.889 -0.6034  0.0134 -0.3009
 1563poe     o210106   6.186   0.864   2.776 -0.0011  0.4607 -0.4015
 1563poe    c2310107   6.326   0.865   2.755  0.0160  0.1363 -0.3195
 1563poe    c2310108   6.387   0.736   2.698  0.5580  0.2181  0.0766
 1563poe     o210109   6.374   0.625   2.785 -0.4621 -0.1404 -0.5191
 1563poe    c2310110   6.407   0.510   2.711 -0.1291  0.0106 -0.6038
 1563poe    c2310111   6.338   0.398   2.790  0.6392 -0.6788 -0.9025
 1563poe     o210112   6.372   0.409   2.926 -0.4187  0.1933 -0.7008
 1563poe    c2310113   6.355   0.290   2.999 -0.3671  0.6072 -0.0013
 1563poe    c2310114   6.422   0.308   3.136 -0.5992  0.1251  0.1783
 1563poe     o210115   6.403   0.445   3.165 -0.1836  0.2833 -0.2763
 1563poe    c3110116   6.398   0.473   3.303  0.0805 -0.2387 -0.1585
 1564poe    c3110117   1.685   0.799   3.996  0.1146 -0.6242  0.3145
 1564poe     o210118   1.748   0.854   4.109  0.1031  0.4896 -0.2139
 1564poe    c2310119   1.808   0.974   4.065  0.2857  0.2643 -0.5816
 1564poe    c2310120   1.879   1.037   4.186 -0.1891 -0.7968  0.2679
 1564poe     o210121   1.780   1.023   4.286 -0.6009  0.3492  0.0474
 1564poe    c2310122   1.832   1.073   4.408  0.1235  0.2349 -0.2063
 1564poe    c2310123   1.737   1.046   4.526  0.3273 -0.3054 -0.1590
 1564poe     o210124   1.659   0.933   4.495 -0.0749  0.0109 -0.3107
 1564poe    c2310125   1.564   0.889   4.588  0.0814  0.1338 -0.0934
 1564poe    c2310126   1.417   0.936   4.584  0.0514  0.0512  0.0065
 1564poe     o210127   1.352   0.917   4.460 -0.0071  0.0806  0.0329
 1564poe    c3110128   1.212   0.928   4.478  0.0020  0.2782 -0.0185
 1565poe    c3110129   0.932   2.796   2.387  0.8512 -0.3115  0.1459
 1565poe     o210130   1.061   2.748   2.358  0.8763 -0.0608 -0.1555
 1565poe    c2310131   1.038   2.624   2.294 -0.2748 -0.0319  0.1766
 1565poe    c2310132   1.166   2.546   2.330 -0.0853  0.4350  0.5196
 1565poe     o210133   1.280   2.624   2.301 -0.1417  0.1434 -0.5071
 1565poe    c2310134   1.404   2.557   2.315 -0.1884  0.0778 -0.4085
 1565poe    c2310135   1.510   2.668   2.311 -0.0529 -0.0472 -0.2650
 1565poe     o210136   1.465   2.765   2.403  0.6646  0.4577 -0.4371
 1565poe    c2310137   1.550   2.788   2.514  0.1952  0.8664 -0.1589
 1565poe    c2310138   1.525   2.893   2.624 -0.1299  0.8879 -0.2514
 1565poe     o210139   1.413   2.857   2.702 -0.0716  0.3379 -0.4121
 1565poe    c3110140   1.370   2.928   2.816  0.3976  0.4902 -0.3273
 1566poe    c3110141   4.711   1.880   0.122 -0.1875 -0.0355 -0.0555
 1566poe     o210142   4.608   1.887   0.218  0.1397 -0.9077  0.3636
 1566poe    c2310143   4.647   1.947   0.339 -0.3551 -0.1288  0.1462
 1566poe    c2310144   4.514   1.979   0.409 -0.3514  0.0017  0.0927
 1566poe     o210145   4.426   1.870   0.394 -0.1611 -0.1056 -0.2658
 1566poe    c2310146   4.299   1.928   0.418 -0.3076 -0.3164 -0.5209
 1566poe    c2310147   4.215   1.805   0.457 -0.4642 -0.0402  0.0312
 1566poe     o210148   4.212   1.716   0.347 -0.6308  0.3629 -0.2902
 1566poe    c2310149   4.144   1.598   0.384  0.2068  0.0897  0.4041
 1566poe    c2310150   4.130   1.498   0.268  0.1006  0.2457  0.2817
 1566poe     o210151   4.260   1.469   0.221 -0.1730  0.2319 -0.4823
 1566poe    c3110152   4.250   1.377   0.115 -0.1459 -0.5449  0.1831
 1567poe    c3110153   2.563   3.679   2.192 -0.1997  0.9921  0.1664
 1567poe     o210154   2.643   3.609   2.284  0.4456  0.2046 -0.9633
 1567poe    c2310155   2.565   3.499   2.326  0.7471  0.0206 -0.8858
 1567poe    c2310156   2.677   3.396   2.354  0.3825 -0.0802  0.2512
 1567poe     o210157   2.733   3.394   2.483  0.2288 -0.4446  0.3161
 1567poe    c2310158   2.842   3.304   2.481  0.2012 -0.4764  0.2520
 1567poe    c2310159   2.924   3.327   2.609  0.0082  0.2410  0.2545
 1567poe     o210160   2.978   3.457   2.604  0.2996  0.1146  0.0780
 1567poe    c2310161   3.027   3.498   2.730 -0.6296  0.3441  0.3739
 1567poe    c2310162   3.177   3.529   2.719 -0.6521  0.2248 -0.2939
 1567poe     o210163   3.217   3.656   2.673 -0.0961  0.0536 -0.2944
 1567poe    c3110164   3.355   3.676   2.651 -0.1674  0.3937 -0.4368
 1568poe    c3110165   4.080   0.329   0.837 -0.5913  0.0251 -0.4260
 1568poe     o210166   4.039   0.462   0.819  0.2457  0.4175  0.4875
 1568poe    c2310167   4.107   0.507   0.704  0.7947 -0.5337  0.4280
 1568poe    c2310168   4.104   0.661   0.690  0.5093 -0.5753 -0.0062
 1568poe     o210169   3.982   0.708   0.740  0.7308 -0.4256  0.4000
 1568poe    c2310170   3.966   0.842   0.781 -0.8669 -0.3209 -0.4810
 1568poe    c2310171   3.817   0.869   0.810 -0.4725  0.4791  0.9297
 1568poe     o210172   3.753   0.764   0.879 -0.7605 -0.3263 -0.5238
 1568poe    c2310173   3.613   0.781   0.877 -0.6893  0.4401  0.5958
 1568poe    c2310174   3.545   0.663   0.948  0.4262 -0.3498  0.3880
 1568poe     o210175   3.542   0.537   0.885  0.2070 -0.2035  0.1018
 1568poe    c3110176   3.447   0.468   0.964 -0.2405  0.4691  0.1580
 1569poe    c3110177   6.558   6.988   1.419 -0.0322  0.6964 -0.3138
 1569poe     o210178   6.644   7.027   1.524 -0.4151  0.5543  0.0559
 1569poe    c2310179   6.753   6.938   1.538 -0.7089  0.1431 -0.2442
 1569poe    c2310180   6.872   6.995   1.618 -0.0863 -0.5360 -0.6764
 1569poe     o210181   6.951   7.075   1.533  0.0640  0.1058  0.0560
 1569poe    c2310182   7.051   7.149   1.598  0.0660 -0.1356  0.3305
 1569poe    c2310183   7.118   7.249   1.501 -0.2850  0.1877  0.4199
 1569poe     o210184   7.164   7.190   1.382  0.2148  0.1488  0.6267
 1569poe    c2310185   7.241   7.265   1.291  0.3454 -0.0069  0.6087
 1569poe    c2310186   7.275   7.172   1.173 -0.5061  0.3843  0.0424
 1569poe     o210187   7.172   7.081   1.143  0.1614 -0.3221 -0.1381
 1569poe    c3110188   7.179   7.027   1.013 -0.5531  0.0790 -0.3453
 1570poe    c3110189   2.061   4.933   4.461  0.2028  0.3309  0.3304
 1570poe     o210190   2.126   4.995   4.570  0.1018  0.2221  0.4536
 1570poe    c2310191   2.260   4.955   4.585  0.2290  0.6239  0.4056
 1570poe    c2310192   2.328   5.013   4.711  0.4073 -0.0594  0.6314
 1570poe     o210193   2.235   5.012   4.816 -0.2575 -0.2544  0.0509
 1570poe    c2310194   2.248   5.114   4.912 -0.0512 -0.2069 -0.0285
 1570poe    c2310195   2.155   5.073   5.028  0.0247  0.8637  0.4310
 1570poe     o210196   2.029   5.045   4.971  0.3410  0.3303 -0.0261
 1570poe    c2310197   1.917   5.037   5.057 -0.0409 -0.0338 -0.5479
 1570poe    c2310198   1.791   5.023   4.971 -0.2870  0.0425 -0.2023
 1570poe     o210199   1.784   4.906   4.893  0.6904 -0.2435  0.1355
 1570poe    c3110200   1.671   4.903   4.810  0.2484 -0.1576  0.7328
 1571poe    c3110201   3.696   0.652   4.926  0.0301 -0.5686  0.4611
 1571poe     o210202   3.636   0.569   4.828 -0.9238  0.6956 -0.0561
 1571poe    c2310203   3.648   0.610   4.694 -0.1099  0.2186 -0.1352
 1571poe    c2310204   3.559   0.512   4.616  0.0981 -0.1969  0.1508
 1571poe     o210205   3.573   0.382   4.670  0.4717 -0.1667  0.1297
 1571poe    c2310206   3.458   0.303   4.648  0.4548  0.0609 -0.6387
 1571poe    c2310207   3.479   0.160   4.702 -0.5786  0.0513 -0.2290
 1571poe     o210208   3.552   0.187   4.820 -0.2429 -1.1682 -0.1495
 1571poe    c2310209   3.645   0.088   4.858  0.0769 -0.7198  0.2386
 1571poe    c2310210   3.735   0.145   4.970  0.1871 -0.2244 -0.0961
 1571poe     o210211   3.768   0.278   4.938 -0.1009 -0.1976 -0.2931
 1571poe    c3110212   3.845   0.329   5.045 -0.1747 -0.2643 -0.2083
 1572poe    c3110213   6.571   1.574   5.129  0.1407 -0.8021  0.9591
 1572poe     o210214   6.538   1.626   5.255 -0.2864  0.1370  0.4700
 1572poe    c2310215   6.421   1.703   5.238 -0.7604 -0.6079  0.3415
 1572poe    c2310216   6.407   1.775   5.374  0.5357  0.3188  0.0025
 1572poe     o210217   6.425   1.673   5.470  0.2524  0.3794  0.1183
 1572poe    c2310218   6.385   1.711   5.600 -0.1175 -0.0873  0.1469
 1572poe    c2310219   6.403   1.591   5.694  0.1876  0.2783  0.5590
 1572poe     o210220   6.538   1.557   5.714  0.3542  0.5360 -0.0890
 1572poe    c2310221   6.563   1.431   5.774 -0.1364  0.3917 -0.1870
 1572poe    c2310222   6.710   1.437   5.820 -0.1351 -0.0915 -0.1287
 1572poe     o210223   6.787   1.461   5.705  0.1790 -0.0539  0.0909
 1572poe    c3110224   6.916   1.488   5.756  0.2921  0.3321 -0.3895
 1573poe    c3110225   5.698   4.683   5.398 -0.3010 -0.5157  0.0930
 1573poe     o210226   5.764   4.559   5.404  0.5010 -0.1025  0.0188
 1573poe    c2310227   5.802   4.520   5.274 -0.0391  0.0067 -0.1777
 1573poe    c2310228   5.859   4.376   5.269 -0.2279 -0.0799  0.1559
 1573poe     o210229   5.989   4.362   5.321 -0.1738 -0.3263 -0.0470
 1573poe    c2310230   6.054   4.238   5.307 -0.4002 -0.4501 -0.0180
 1573poe    c2310231   6.201   4.265   5.270 -0.2717 -0.0009  0.8098
 1573poe     o210232   6.271   4.308   5.385 -0.2725  0.4744  0.6326
 1573poe    c2310233   6.411   4.288   5.390 -0.3286 -0.0817  0.1063
 1573poe    c2310234   6.452   4.230   5.526  0.5542 -0.4856 -0.3213
 1573poe     o210235   6.421   4.093   5.533 -0.2183 -0.2949  0.2440
 1573poe    c3110236   6.357   4.052   5.652  0.5339 -0.5854  0.5584
 1574poe    c3110237   1.281   4.199   0.013  0.0416 -0.3126  0.1092
 1574poe     o210238   1.175   4.246   0.093  0.0552  0.5770 -0.3774
 1574poe    c2310239   1.050   4.193   0.053  0.3374 -0.2253 -0.2024
 1574poe    c2310240   0.939   4.240   0.149  0.4905 -0.0387 -0.1160
 1574poe     o210241   0.942   4.379   0.172 -0.8523  0.0040 -0.1187
 1574poe    c2310242   0.836   4.430   0.250 -0.1187 -0.0228  0.9184
 1574poe    c2310243   0.844   4.582   0.269  0.2363  0.1406 -0.4346
 1574poe     o210244   0.959   4.617   0.342  0.4230 -0.7787 -0.2781
 1574poe    c2310245   0.921   4.687   0.459  0.8219 -0.8778 -0.0875
 1574poe    c2310246   0.936   4.600   0.586 -0.0641  0.0313  0.6526
 1574poe     o210247   1.068   4.561   0.615  0.2504  0.3876 -0.2693
 1574poe    c3110248   1.063   4.494   0.739 -0.2069  0.0668 -0.4581
 1575poe    c3110249   0.073   6.568   5.723 -0.4890 -0.3189  0.6576
 1575poe     o210250   0.028   6.619   5.600 -0.2358 -0.2339  0.5984
 1575poe    c2310251   0.043   6.756   5.572  0.6697 -0.4318  0.0998
 1575poe    c2310252  -0.003   6.785   5.428  0.0141  0.2055  0.4314
 1575poe     o210253  -0.143   6.771   5.412  0.0354  0.3515  0.1000
 1575poe    c2310254  -0.169   6.903   5.373  0.6749  0.3258 -0.4301
 1575poe    c2310255  -0.310   6.923   5.314  0.4576  0.5974  0.1743
 1575poe     o210256  -0.390   6.846   5.401  0.1416  0.0935 -0.5476
 1575poe    c2310257  -0.523   6.843   5.355 -0.1427 -0.3272  0.2744
 1575poe    c2310258  -0.619   6.767   5.448 -0.4832  0.2608  0.4106
 1575poe     o210259  -0.551   6.649   5.485 -0.1217  0.1565 -0.5719
 1575poe    c3110260  -0.645   6.550   5.521  0.3094 -0.1940 -0.3968
 1576poe    c3110261   2.365   5.654   2.399 -0.3959  0.2863 -0.7095
 1576poe     o210262   2.354   5.688   2.263  0.0816  0.3809 -0.7282
 1576poe    c2310263   2.267   5.796   2.236 -0.1247  0.3971 -0.0085
 1576poe    c2310264   2.228   5.817   2.089  0.1539  0.1295 -0.1205
 1576poe     o210265   2.142   5.927   2.073  0.6344  0.4934 -0.2178
 1576poe    c2310266   2.051   5.930   1.965 -0.5843 -0.5342  0.7569
 1576poe    c2310267   2.042   6.070   1.902 -0.3936 -0.6875  0.3891
 1576poe     o210268   2.002   6.163   2.000  0.0731  0.0980 -0.1483
 1576poe    c2310269   1.973   6.288   1.943  0.2267  0.1237 -0.1715
 1576poe    c2310270   1.919   6.372   2.060  0.4904  0.7949 -0.5296
 1576poe     o210271   2.014   6.360   2.164 -0.3820  0.1504  0.1975
 1576poe    c3110272   1.996   6.465   2.256  0.1667 -0.2520  0.7673
 1577poe    c3110273   0.772   6.043   4.509  0.1224 -0.7060  0.0524
 1577poe     o210274   0.696   5.927   4.483 -0.6816 -0.1677 -0.0276
 1577poe    c2310275   0.592   5.958   4.392 -0.3236  0.1036 -0.3466
 1577poe    c2310276   0.525   5.820   4.379 -0.1484 -0.0303  0.1238
 1577poe     o210277   0.616   5.720   4.339 -0.2139 -0.0723  0.0790
 1577poe    c2310278   0.558   5.591   4.338 -0.7172  0.1486  0.4675
 1577poe    c2310279   0.636   5.503   4.437  0.1921 -0.2255 -0.5639
 1577poe     o210280   0.768   5.514   4.389  0.1250 -0.3147 -0.7681
 1577poe    c2310281   0.840   5.407   4.448 -0.1422 -0.0629  0.0310
 1577poe    c2310282   0.984   5.431   4.400 -0.2817  0.1558 -0.2847
 1577poe     o210283   1.024   5.566   4.401  0.8243 -0.1600 -0.1283
 1577poe    c3110284   1.153   5.569   4.343  0.7229 -0.1259 -0.3538
 1578poe    c3110285   1.691   3.705   6.592 -0.1757 -0.2684  0.0745
 1578poe     o210286   1.813   3.641   6.620 -0.2256 -0.1730  0.5196
 1578poe    c2310287   1.908   3.745   6.628 -0.0744 -0.2111 -0.6890
 1578poe    c2310288   2.044   3.700   6.569  0.3770 -0.0130  0.1853
 1578poe     o210289   2.104   3.579   6.609 -0.4905 -0.5151  0.0046
 1578poe    c2310290   2.229   3.563   6.545 -0.4730 -1.2419  0.2228
 1578poe    c2310291   2.290   3.442   6.619  0.5189 -0.6765  0.3417
 1578poe     o210292   2.181   3.354   6.634  0.0065 -0.1470 -0.2329
 1578poe    c2310293   2.227   3.231   6.685 -0.0258  0.0232  0.2116
 1578poe    c2310294   2.104   3.145   6.720  0.1678 -0.2887  0.1305
 1578poe     o210295   2.028   3.212   6.818  0.0300 -0.1285 -0.0864
 1578poe    c3110296   1.952   3.128   6.902  0.5600  0.0431  0.5758
 1579poe    c3110297   3.663   1.964   5.837  0.4850 -0.1428  0.3604
 1579poe     o210298   3.618   2.093   5.801  0.0037 -0.3668  0.1545
 1579poe    c2310299   3.693   2.188   5.874 -0.1610  0.0152 -0.1703
 1579poe    c2310300   3.673   2.323   5.803  0.1301  0.3560  0.3906
 1579poe     o210301   3.546   2.326   5.741 -0.0086  0.3195  0.6720
 1579poe    c2310302   3.539   2.432   5.649  0.4180 -0.2250  0.0059
 1579poe    c2310303   3.393   2.479   5.644  0.4209 -0.2158  0.0049
 1579poe     o210304   3.328   2.357   5.615  0.4976 -0.3975  0.5859
 1579poe    c2310305   3.213   2.339   5.694  0.2905 -0.2701  0.3146
 1579poe    c2310306   3.186   2.195   5.743  0.0860 -0.4777 -0.4006
 1579poe     o210307   3.310   2.155   5.796  0.2741 -0.3124 -0.7117
 1579poe    c3110308   3.300   2.023   5.844  0.4365 -0.2081 -0.3879
 1580poe    c3110309   4.217   6.392   6.097 -0.7036  0.1737 -0.2612
 1580poe     o210310   4.155   6.404   6.222  0.0675  0.1719  0.1315
 1580poe    c2310311   4.105   6.531   6.259  0.4688  0.2751  0.3171
 1580poe    c2310312   4.056   6.516   6.404 -0.2298  0.0663  0.0595
 1580poe     o210313   3.930   6.455   6.420 -0.1023 -0.3345 -0.4296
 1580poe    c2310314   3.909   6.471   6.559  0.6084 -0.4172 -0.3126
 1580poe    c2310315   3.768   6.419   6.588  0.6215 -0.4388 -0.2885
 1580poe     o210316   3.768   6.299   6.514  0.3887 -0.5312 -0.1394
 1580poe    c2310317   3.656   6.221   6.550  0.1730 -0.0970  0.1378
 1580poe    c2310318   3.681   6.086   6.481 -0.3634  0.2244 -0.7086
 1580poe     o210319   3.735   6.110   6.354  0.3455  0.3837 -0.3798
 1580poe    c3110320   3.718   6.005   6.261 -0.1479  0.2048 -0.0896
 1581poe    c3110321   3.105   0.025   0.030 -0.5846 -0.1100 -0.2594
 1581poe     o210322   3.006   0.093   0.103 -0.0770  0.7927 -0.3997
 1581poe    c2310323   2.879   0.076   0.046 -0.3352 -0.0015  0.3966
 1581poe    c2310324   2.789   0.172   0.127 -0.2381 -0.0013  0.5040
 1581poe     o210325   2.864   0.290   0.146 -0.3708  0.2894 -0.6490
 1581poe    c2310326   2.799   0.401   0.204 -0.2168 -0.3230  0.7569
 1581poe    c2310327   2.895   0.521   0.201 -0.4616 -0.1415 -0.1940
 1581poe     o210328   3.030   0.493   0.229 -0.4181 -0.1164 -0.3766
 1581poe    c2310329   3.111   0.609   0.236  0.2150 -0.5580 -0.2959
 1581poe    c2310330   3.261   0.578   0.222  0.2144 -0.5712 -0.2744
 1581poe     o210331   3.303   0.525   0.099  0.0844 -0.3058 -0.4336
 1581poe    c3110332   3.444   0.513   0.091  0.1090 -0.1769 -0.2116
 1582poe    c3110333   5.126   4.876   1.712  0.1164 -0.1422 -0.5715
 1582poe     o210334   4.985   4.874   1.710  0.1078 -0.0543 -0.1780
 1582poe    c2310335   4.918   4.753   1.737 -0.2701  0.1061 -0.3815
 1582poe    c2310336   4.777   4.771   1.679 -0.3894  0.4682  0.0149
 1582poe     o210337   4.732   4.903   1.699  0.1042  0.6024  0.2495
 1582poe    c2310338   4.613   4.931   1.629  0.1669 -0.2597 -0.2175
 1582poe    c2310339   4.572   5.076   1.664  0.2204 -0.2489 -0.1988
 1582poe     o210340   4.688   5.156   1.667 -0.0262  0.0954  0.2139
 1582poe    c2310341   4.657   5.293   1.680 -0.1774  0.0597  0.2251
 1582poe    c2310342   4.783   5.381   1.670  0.0454 -0.2885 -0.0571
 1582poe     o210343   4.872   5.373   1.780 -0.2379 -0.2953  0.1728
 1582poe    c3110344   4.962   5.481   1.782 -0.4516 -0.1170  0.1523
 1583poe    c3110345   5.012   3.388   2.570 -0.4307 -0.4841 -0.1558
 1583poe     o210346   5.044   3.484   2.471  0.0992  0.1296  0.6079
 1583poe    c2310347   4.988   3.598   2.531  0.3848  0.1701  0.8025
 1583poe    c2310348   5.047   3.714   2.449 -0.1949 -0.1696 -0.1143
 1583poe     o210349   5.020   3.676   2.316 -0.4234 -0.1251 -0.0803
 1583poe    c2310350   5.077   3.760   2.217 -0.1459 -0.4985 -0.2372
 1583poe    c2310351   5.091   3.682   2.085  0.2687 -0.3184 -0.2998
 1583poe     o210352   5.139   3.560   2.135 -0.3761 -0.3712  0.2036
 1583poe    c2310353   5.165   3.455   2.044  0.5106  0.2221 -0.2411
 1583poe    c2310354   5.206   3.336   2.134 -0.2655  0.0774 -0.0699
 1583poe     o210355   5.126   3.318   2.248  0.1834 -0.0054  0.2311
 1583poe    c3110356   5.141   3.187   2.298  0.2782  0.0203  0.2710
 1584poe    c3110357   3.856   3.245   1.633  0.3584  0.1926  0.7646
 1584poe     o210358   3.763   3.158   1.694  0.0318  0.3377  0.4724
 1584poe    c2310359   3.799   3.022   1.681 -0.2638  0.2900  0.1166
 1584poe    c2310360   3.697   2.932   1.609  0.0805  0.0654 -0.0940
 1584poe     o210361   3.576   2.917   1.680 -0.0547  0.4197 -0.2461
 1584poe    c2310362   3.505   2.806   1.629  0.1001  0.2884 -0.1757
 1584poe    c2310363   3.380   2.782   1.715  0.0584  0.3322 -0.2249
 1584poe     o210364   3.296   2.895   1.710 -0.2640  0.0926 -0.3081
 1584poe    c2310365   3.177   2.872   1.782 -0.2737 -0.5735 -0.5335
 1584poe    c2310366   3.091   2.998   1.768  0.2509 -0.1475 -0.0001
 1584poe     o210367   3.189   3.100   1.762  0.0747  0.0141 -0.1516
 1584poe    c3110368   3.135   3.199   1.846  0.6330 -0.0891  0.3346
 1585poe    c3110369   1.741   2.364   6.080  0.6108  0.2082  0.0770
 1585poe     o210370   1.829   2.285   6.156  0.2218 -0.0417  0.2705
 1585poe    c2310371   1.964   2.319   6.130  0.3244 -0.3203  0.4395
 1585poe    c2310372   2.058   2.226   6.209  0.1427 -0.9927 -0.1199
 1585poe     o210373   2.047   2.238   6.349  0.0146 -0.3927 -0.1775
 1585poe    c2310374   2.104   2.141   6.434 -0.4347 -0.4771  0.0291
 1585poe    c2310375   2.043   2.173   6.572 -0.0794  0.2248  0.0252
 1585poe     o210376   1.905   2.150   6.586  0.0399 -0.5419 -0.0077
 1585poe    c2310377   1.861   2.110   6.714 -0.3448 -0.4970 -0.1228
 1585poe    c2310378   1.711   2.143   6.729 -0.1558  0.3663 -0.1010
 1585poe     o210379   1.708   2.280   6.693  0.4006  0.5772  0.6327
 1585poe    c3110380   1.595   2.345   6.746 -0.6827 -0.6240 -0.1438
 1586poe    c3110381   5.131   5.261   3.041 -0.0460 -0.2627  0.2566
 1586poe     o210382   5.035   5.300   3.137  0.1129  0.4265  0.1420
 1586poe    c2310383   4.982   5.193   3.213  0.3181  0.3436  0.1679
 1586poe    c2310384   4.962   5.242   3.358 -0.1102  0.5152  0.0520
 1586poe     o210385   4.874   5.352   3.370 -0.4631  0.2489 -0.0897
 1586poe    c2310386   4.891   5.409   3.498 -0.0117  0.0649 -0.0635
 1586poe    c2310387   4.788   5.520   3.529  0.2188  0.3817 -0.4363
 1586poe     o210388   4.789   5.622   3.431  0.2809  0.0238 -0.8148
 1586poe    c2310389   4.675   5.702   3.451 -0.0027 -0.5467 -0.0750
 1586poe    c2310390   4.657   5.790   3.325 -0.2083 -0.3322  0.1029
 1586poe     o210391   4.622   5.702   3.220 -0.6882  0.0238 -0.0368
 1586poe    c3110392   4.620   5.784   3.106 -0.0570  0.5283  0.3080
 1587poe    c3110393   4.041   4.389   5.354 -0.3930  0.2769 -0.1617
 1587poe     o210394   3.920   4.317   5.343 -0.5407  0.5145 -0.1033
 1587poe    c2310395   3.807   4.399   5.353 -0.7005  0.3783 -0.7492
 1587poe    c2310396   3.675   4.320   5.359 -0.3819 -0.1164 -0.0667
 1587poe     o210397   3.674   4.213   5.267  0.0965 -0.1085 -0.0796
 1587poe    c2310398   3.552   4.145   5.259  0.3742 -0.5756 -0.3710
 1587poe    c2310399   3.562   4.015   5.341  0.0392 -0.2974  0.1106
 1587poe     o210400   3.684   3.946   5.327  0.0254 -0.1596 -0.7557
 1587poe    c2310401   3.668   3.819   5.388  0.4077  0.0253 -0.2592
 1587poe    c2310402   3.808   3.756   5.386  0.4494  0.1218 -0.5053
 1587poe     o210403   3.870   3.803   5.269  0.4834  0.1943 -0.4584
 1587poe    c3110404   3.964   3.704   5.235  0.0780 -0.4534  0.2782
 1588poe    c3110405   1.093   5.093   2.781  0.7458 -0.7172 -0.0848
 1588poe     o210406   1.139   5.040   2.904 -0.4853 -0.1322  0.6393
 1588poe    c2310407   1.120   5.131   3.010 -0.9044 -0.0683  0.5113
 1588poe    c2310408   1.188   5.089   3.141  0.1282  0.0459  0.0206
 1588poe     o210409   1.156   4.959   3.185 -0.3113  0.1483  0.0082
 1588poe    c2310410   1.238   4.942   3.298 -0.0253 -0.4956 -0.2848
 1588poe    c2310411   1.214   4.805   3.363 -0.0844 -0.3035  0.1052
 1588poe     o210412   1.176   4.715   3.261 -0.0226 -0.0861 -0.1090
 1588poe    c2310413   1.124   4.592   3.304  0.3857 -0.1084  0.3326
 1588poe    c2310414   1.076   4.506   3.186  0.1071  0.2188  0.2069
 1588poe     o210415   0.983   4.579   3.109  0.0408 -0.2740 -0.1867
 1588poe    c3110416   0.939   4.511   2.993 -0.0692 -0.4554 -0.0386
 1589poe    c3110417   2.827   4.726   5.101  0.2634 -0.0883  0.4872
 1589poe     o210418   2.710   4.687   5.170 -0.0991 -0.2436 -0.2058
 1589poe    c2310419   2.621   4.626   5.079 -0.2291  0.1217 -0.3271
 1589poe    c2310420   2.496   4.585   5.159  0.1268 -0.0403  0.1511
 1589poe     o210421   2.527   4.576   5.297 -0.3169  0.2509  0.2728
 1589poe    c2310422   2.432   4.499   5.366 -0.1624 -0.0591  0.1411
 1589poe    c2310423   2.485   4.467   5.507  0.7365 -0.1312 -0.2046
 1589poe     o210424   2.497   4.583   5.587 -0.6558 -0.0894 -0.0341
 1589poe    c2310425   2.556   4.558   5.712  0.0813  0.4902 -0.2614
 1589poe    c2310426   2.588   4.695   5.775 -0.3294  0.4356  0.0720
 1589poe     o210427   2.687   4.776   5.716  0.1015 -0.3788 -0.3403
 1589poe    c3110428   2.727   4.873   5.810 -0.5560 -0.1608 -0.2817
 1590poe    c3110429   6.868   1.576   0.311  0.2014  0.5830  0.4743
 1590poe     o210430   6.780   1.679   0.352  0.1695  0.4206  0.8242
 1590poe    c2310431   6.854   1.799   0.343  0.1248  0.3954  0.0519
 1590poe    c2310432   6.739   1.902   0.341  0.0697  0.3332 -0.0452
 1590poe     o210433   6.645   1.900   0.236 -0.4453  0.3334  0.4150
 1590poe    c2310434   6.684   1.977   0.124 -0.2019 -0.3949 -0.0063
 1590poe    c2310435   6.550   2.026   0.067  0.3009  0.2851 -0.6244
 1590poe     o210436   6.469   1.915   0.035  0.1832  0.1540  0.1069
 1590poe    c2310437   6.336   1.961   0.030 -0.1585 -0.7720  0.5056
 1590poe    c2310438   6.234   1.845   0.025 -1.0423 -0.0006  0.1747
 1590poe     o210439   6.291   1.747   0.110 -0.6722 -0.2449 -0.3467
 1590poe    c3110440   6.204   1.637   0.129 -0.6202 -0.2598 -0.1927
 1591poe    c3110441   1.369   5.345   1.253  1.0106  0.3334  0.0845
 1591poe     o210442   1.302   5.425   1.348  0.7290 -0.0934  0.2482
 1591poe    c2310443   1.311   5.386   1.484 -0.1040 -0.7422  0.1224
 1591poe    c2310444   1.232   5.481   1.576  0.2659 -0.2420 -0.0749
 1591poe     o210445   1.250   5.621   1.564  0.2250 -0.2089  0.2360
 1591poe    c2310446   1.236   5.695   1.683 -0.0727 -0.3638  0.2975
 1591poe    c2310447   1.197   5.837   1.639 -0.0697 -0.4406  0.0456
 1591poe     o210448   1.297   5.897   1.559 -0.5729 -0.0906 -0.3331
 1591poe    c2310449   1.241   6.002   1.483 -0.6460  0.5660  0.6076
 1591poe    c2310450   1.362   6.082   1.433 -0.4535  0.3367  0.7009
 1591poe     o210451   1.470   6.005   1.385 -0.3870  0.6047  0.4127
 1591poe    c3110452   1.593   6.062   1.345  0.1604 -0.6419  0.2840
 1592poe    c3110453   6.025   3.153   5.886 -0.0695 -0.0330  0.1911
 1592poe     o210454   6.044   3.099   5.757  0.1477  0.1529  0.1453
 1592poe    c2310455   5.999   2.966   5.758  0.1392  0.1561  0.2076
 1592poe    c2310456   5.931   2.933   5.624 -0.6352 -0.0330  0.6427
 1592poe     o210457   6.013   2.972   5.516 -0.6125 -0.6361  0.4390
 1592poe    c2310458   5.952   2.982   5.389 -0.4259  0.9752  0.4533
 1592poe    c2310459   6.074   3.028   5.308  0.1149 -0.3981  0.4605
 1592poe     o210460   6.125   3.145   5.368 -0.3463 -0.1921  0.4486
 1592poe    c2310461   6.244   3.169   5.297 -0.4370 -0.0311  0.3481
 1592poe    c2310462   6.300   3.309   5.327  0.4312 -0.3116  0.0650
 1592poe     o210463   6.363   3.315   5.453  0.1965 -0.1051  0.1730
 1592poe    c3110464   6.486   3.383   5.436  0.4156 -0.4966  0.1770
 1593poe    c3110465   6.271   0.991   5.874 -0.0489 -0.2735 -0.3568
 1593poe     o210466   6.324   0.890   5.792  0.3042 -0.1430 -0.2899
 1593poe    c2310467   6.253   0.768   5.790 -0.4141  0.2680 -0.0295
 1593poe    c2310468   6.333   0.673   5.699 -0.6303 -0.2537  0.3246
 1593poe     o210469   6.466   0.698   5.739 -0.3448 -0.2689 -0.6003
 1593poe    c2310470   6.534   0.599   5.666 -0.6111 -0.2037 -0.9419
 1593poe    c2310471   6.686   0.619   5.674 -0.6376 -0.0813 -0.7361
 1593poe     o210472   6.694   0.758   5.649  0.0770  0.0202 -0.0011
 1593poe    c2310473   6.828   0.790   5.621 -0.0624  0.3398 -0.3108
 1593poe    c2310474   6.869   0.938   5.635  0.0232  0.2606  0.3412
 1593poe     o210475   6.787   1.010   5.545  0.5243  0.2054 -0.1650
 1593poe    c3110476   6.839   1.130   5.493 -0.4298  0.7404  0.0936
 1594poe    c3110477   1.005   3.163   2.496  0.1870 -0.0496  0.1571
 1594poe     o210478   0.933   3.238   2.591  0.1528  0.4017 -0.2221
 1594poe    c2310479   0.997   3.214   2.715  0.2114  1.0606 -0.1189
 1594poe    c2310480   0.923   3.268   2.838 -0.0043  0.3645  0.0648
 1594poe     o210481   0.789   3.254   2.798 -0.0328  0.4388  0.1326
 1594poe    c2310482   0.703   3.300   2.900 -0.1230  0.2585  0.1392
 1594poe    c2310483   0.562   3.279   2.843 -0.0442  0.4779 -0.1352
 1594poe     o210484   0.559   3.329   2.711 -0.0976  0.7596 -0.0298
 1594poe    c2310485   0.428   3.321   2.660  0.0173  0.2703 -0.2602
 1594poe    c2310486   0.391   3.370   2.519 -0.4398 -0.4141 -0.3798
 1594poe     o210487   0.436   3.301   2.404  0.1905 -0.0461 -0.3562
 1594poe    c3110488   0.388   3.342   2.277  0.5102 -0.1657 -0.5160
 1595poe    c3110489   1.171   5.930   6.833 -0.3410  0.1594  0.3527
 1595poe     o210490   1.223   6.057   6.799  0.1283  0.0281  0.5748
 1595poe    c2310491   1.311   6.111   6.896 -0.1211 -0.0183  0.8292
 1595poe    c2310492   1.301   6.265   6.896 -0.1088 -0.0117  0.1085
 1595poe     o210493   1.324   6.303   6.762 -0.8854 -0.0287 -0.0367
 1595poe    c2310494   1.320   6.443   6.751 -0.3220 -0.0455 -0.5063
 1595poe    c2310495   1.314   6.480   6.602  0.7549 -0.4639 -0.6579
 1595poe     o210496   1.204   6.428   6.531  0.0960  0.2689 -0.1778
 1595poe    c2310497   1.166   6.506   6.419  0.1486  0.0584 -0.3420
 1595poe    c2310498   1.018   6.471   6.391  0.2543 -0.2383 -0.5344
 1595poe     o210499   0.999   6.332   6.373 -0.7247 -0.1316 -0.3809
 1595poe    c3110500   0.867   6.305   6.332 -0.7803  0.0866 -0.3488
 1596poe    c3110501   6.872   0.714   0.193 -0.0784  0.1030  0.0323
 1596poe     o210502   6.914   0.690   0.325 -0.1951 -0.5714 -0.0523
 1596poe    c2310503   6.812   0.615   0.386 -0.3493 -0.6551 -0.4074
 1596poe    c2310504   6.850   0.616   0.536 -0.1906 -0.1100 -0.4506
 1596poe     o210505   6.863   0.754   0.562 -0.3202 -0.1892  0.0464
 1596poe    c2310506   6.875   0.790   0.698 -0.4719 -0.0506  0.0237
 1596poe    c2310507   6.892   0.941   0.719 -0.1049 -0.0228 -0.4538
 1596poe     o210508   7.005   0.986   0.647  0.4000 -0.2192  0.2003
 1596poe    c2310509   7.087   1.080   0.712  0.3098 -0.1564  0.2248
 1596poe    c2310510   7.183   1.145   0.609 -0.0761 -0.7392 -0.5109
 1596poe     o210511   7.093   1.199   0.515 -0.4941 -0.3270  0.1215
 1596poe    c3110512   7.160   1.278   0.420 -0.5954 -0.5607 -0.1430
 1597poe    c3110513   6.240   6.170   2.615  0.5162  0.5391 -0.0416
 1597poe     o210514   6.241   6.141   2.477 -0.7143 -0.2738  0.1017
 1597poe    c2310515   6.327   6.035   2.442 -0.4159 -0.1931  0.5888
 1597poe    c2310516   6.288   5.999   2.298 -0.1073 -0.1982  0.5041
 1597poe     o210517   6.151   5.998   2.265  0.1491 -0.0439 -0.6066
 1597poe    c2310518   6.121   5.936   2.142  0.2168 -0.8590 -0.2170
 1597poe    c2310519   6.131   5.783   2.130 -0.0257 -0.8409 -0.6755
 1597poe     o210520   6.261   5.734   2.155  0.1289 -0.0753  0.0763
 1597poe    c2310521   6.281   5.599   2.120  0.1770 -0.1696  0.4653
 1597poe    c2310522   6.422   5.551   2.160  0.4060  0.0080 -0.1190
 1597poe     o210523   6.454   5.532   2.296  0.5395 -0.0350 -0.1560
 1597poe    c3110524   6.508   5.642   2.364  1.1962 -0.4198 -0.0497
 1598poe    c3110525   2.074   3.710   6.148 -0.4082  0.3473  0.1076
 1598poe     o210526   1.980   3.803   6.098 -0.4484  0.4638  0.4025
 1598poe    c2310527   1.858   3.790   6.167 -0.5111  0.1215  0.2276
 1598poe    c2310528   1.795   3.930   6.160 -0.2778  0.2060 -0.2289
 1598poe     o210529   1.812   3.974   6.027  0.0436  0.6061 -0.0603
 1598poe    c2310530   1.745   4.097   6.016 -0.3578  0.4247  0.2916
 1598poe    c2310531   1.790   4.144   5.876  0.2055 -0.5603  0.1359
 1598poe     o210532   1.930   4.138   5.861  0.2159 -0.3316  0.1361
 1598poe    c2310533   1.958   4.192   5.733  0.3408 -0.1723  0.2317
 1598poe    c2310534   2.106   4.190   5.688  0.3062  0.4547  0.0837
 1598poe     o210535   2.152   4.061   5.653 -0.3100  0.0904  0.5806
 1598poe    c3110536   2.281   4.053   5.598 -0.4737 -0.3676  0.2595
 1599poe    c3110537   0.121   5.153   5.818 -0.1908  0.2438 -0.0024
 1599poe     o210538   0.098   5.162   5.957  0.2777  0.0333  0.0914
 1599poe    c2310539   0.118   5.036   6.017 -0.4154 -0.2916 -0.3503
 1599poe    c2310540   0.149   5.058   6.166 -0.2045  0.3083 -0.4809
 1599poe     o210541   0.053   5.149   6.215 -0.4941 -0.0789 -0.3248
 1599poe    c2310542   0.052   5.170   6.354  0.1635  0.5297 -0.4090
 1599poe    c2310543  -0.066   5.260   6.394  0.1083  0.2032  0.1865
 1599poe     o210544  -0.077   5.341   6.278 -0.0571 -0.1522 -0.0474
 1599poe    c2310545  -0.172   5.442   6.301  0.0455 -0.1208  0.2479
 1599poe    c2310546  -0.323   5.411   6.297  0.0421 -0.1292  0.4210
 1599poe     o210547  -0.364   5.342   6.181  0.2706  0.0282  0.2440
 1599poe    c3110548  -0.504   5.331   6.191  0.1890  0.6626 -0.1025
 1600poe    c3110549   6.287   0.152   3.755 -0.0007  0.1140 -0.3162
 1600poe     o210550   6.171   0.215   3.706 -0.2125  0.1317  0.2089
 1600poe    c2310551   6.061   0.131   3.733 -0.3260  0.2701  0.1784
 1600poe    c2310552   5.918   0.186   3.719 -0.3506  0.2781  0.4615
 1600poe     o210553   5.894   0.236   3.590 -0.2918  0.0134  0.3486
 1600poe    c2310554   5.784   0.323   3.605 -0.3483  0.0606 -0.3118
 1600poe    c2310555   5.741   0.352   3.460 -0.5436 -0.2232 -0.3119
 1600poe     o210556   5.851   0.354   3.371  0.0231 -0.4890  0.3799
 1600poe    c2310557   5.830   0.390   3.237 -0.1013 -0.6850  0.3462
 1600poe    c2310558   5.932   0.328   3.140  0.1822  0.7574 -0.3073
 1600poe     o210559   5.950   0.194   3.181  0.4455  0.7874 -0.3222
 1600poe    c3110560   5.958   0.114   3.065 -0.2242 -0.0672  0.2153
 1601poe    c3110561   5.811   1.569   2.102 -0.3478 -0.0867  0.1382
 1601poe     o210562   5.790   1.457   2.185  0.3996 -0.1861  0.1975
 1601poe    c2310563   5.658   1.473   2.230  0.3455  0.0058 -0.0241
 1601poe    c2310564   5.629   1.345   2.310 -0.1682  0.1130 -0.0329
 1601poe     o210565   5.752   1.303   2.364 -0.5719 -0.3446  0.5414
 1601poe    c2310566   5.736   1.188   2.445 -0.0891  0.0909  1.2738
 1601poe    c2310567   5.875   1.145   2.495  0.1854 -0.6435 -0.0506
 1601poe     o210568   5.974   1.145   2.395  0.0985  0.1545 -0.1397
 1601poe    c2310569   6.097   1.081   2.420 -0.1688 -0.1941  0.2800
 1601poe    c2310570   6.202   1.115   2.313 -0.0121  0.4800  0.6428
 1601poe     o210571   6.240   1.250   2.299  0.9823  0.0808 -0.6907
 1601poe    c3110572   6.372   1.247   2.350  0.7685 -0.9046 -0.1792
 1602poe    c3110573   4.178   5.446   5.624  0.7647 -0.3285  0.1985
 1602poe     o210574   4.261   5.455   5.511 -0.1616 -0.5444 -0.5053
 1602poe    c2310575   4.388   5.395   5.525 -0.0771 -0.1640  0.4037
 1602poe    c2310576   4.467   5.463   5.411  0.4954 -0.6880  0.4801
 1602poe     o210577   4.401   5.437   5.289 -0.0382 -0.0639  0.6272
 1602poe    c2310578   4.473   5.516   5.197 -0.3663 -0.4324  0.0519
 1602poe    c2310579   4.402   5.547   5.064  0.6753 -0.1267 -0.4445
 1602poe     o210580   4.321   5.435   5.037 -0.1192  0.2034  0.5021
 1602poe    c2310581   4.214   5.449   4.946  0.2040 -0.1085  0.0704
 1602poe    c2310582   4.126   5.323   4.950  0.4298 -0.2686  0.0036
 1602poe     o210583   4.146   5.259   5.075  0.3336 -0.1883  0.0604
 1602poe    c3110584   4.049   5.159   5.091 -0.2847  0.3977  0.0216
 1603poe    c3110585   1.780   4.377   6.980 -0.2625  0.3625 -0.1767
 1603poe     o210586   1.799   4.516   6.964 -0.0473  0.3490 -0.0434
 1603poe    c2310587   1.852   4.591   7.071 -0.0812 -0.3368  0.4577
 1603poe    c2310588   1.882   4.740   7.047 -0.4759 -0.3814 -0.3476
 1603poe     o210589   1.990   4.791   6.972 -0.5611  0.0768 -0.1617
 1603poe    c2310590   2.043   4.902   7.040 -0.7105 -0.1185  0.2742
 1603poe    c2310591   2.173   4.966   6.990 -0.3286 -0.5889  0.6596
 1603poe     o210592   2.296   4.899   7.005 -0.0401 -0.1476  0.3164
 1603poe    c2310593   2.391   4.933   6.907 -0.0282 -0.7341  0.1166
 1603poe    c2310594   2.527   4.864   6.928  0.3994  0.2295  0.5815
 1603poe     o210595   2.514   4.725   6.909  0.1117  0.3369 -0.0450
 1603poe    c3110596   2.547   4.682   6.779 -0.7678  0.5290 -0.3369
 1604poe    c3110597   2.867   6.636   6.739 -0.2004  0.7240 -0.3669
 1604poe     o210598   2.752   6.563   6.779  0.0711  0.4031 -0.1629
 1604poe    c2310599   2.646   6.650   6.812  0.1977  0.7434 -0.6364
 1604poe    c2310600   2.535   6.569   6.881  0.5043  0.4850 -0.4450
 1604poe     o210601   2.516   6.449   6.810 -0.0679  0.1170  0.3187
 1604poe    c2310602   2.403   6.466   6.728  0.2726 -0.3815 -0.2604
 1604poe    c2310603   2.399   6.374   6.604 -0.0950 -0.1744 -0.4046
 1604poe     o210604   2.532   6.376   6.556 -0.1568  0.3223 -0.5503
 1604poe    c2310605   2.550   6.422   6.424  0.0450 -0.2175 -0.7120
 1604poe    c2310606   2.699   6.425   6.386  0.2030 -0.0595 -0.0975
 1604poe     o210607   2.757   6.298   6.404  0.1849 -0.0097  0.3189
 1604poe    c3110608   2.836   6.270   6.290 -0.1681 -0.3366  0.1530
 1605poe    c3110609   1.318   5.576   5.599 -0.0306  0.0147  0.3736
 1605poe     o210610   1.288   5.444   5.640 -0.5098 -0.1134 -0.3800
 1605poe    c2310611   1.401   5.387   5.700 -0.3746  0.2421 -0.2929
 1605poe    c2310612   1.381   5.235   5.681 -0.0262  0.2491 -0.7284
 1605poe     o210613   1.244   5.210   5.705  0.1405  0.0804  0.0782
 1605poe    c2310614   1.232   5.071   5.685 -0.3149  0.1098  0.1411
 1605poe    c2310615   1.079   5.053   5.682 -0.3138  0.1062  0.1149
 1605poe     o210616   1.025   5.149   5.594  0.3107  0.1509 -0.2253
 1605poe    c2310617   0.902   5.097   5.548  0.3198 -0.1324  0.0723
 1605poe    c2310618   0.805   5.190   5.474  0.3000 -0.1618  0.0606
 1605poe     o210619   0.883   5.239   5.367 -0.4638  0.6974 -0.1144
 1605poe    c3110620   0.791   5.314   5.291 -0.3525  0.9733  0.0211
 1606poe    c3110621   2.662   1.350   1.619 -0.2381  0.4670  0.6363
 1606poe     o210622   2.534   1.312   1.664 -0.2816 -0.2580 -0.0600
 1606poe    c2310623   2.519   1.352   1.799  0.2158  0.0679 -0.0995
 1606poe    c2310624   2.374   1.334   1.847  0.3468  0.3554  0.4100
 1606poe     o210625   2.299   1.381   1.738  0.8822 -0.4141 -0.3011
 1606poe    c2310626   2.162   1.369   1.766  0.9457 -0.1868  0.1111
 1606poe    c2310627   2.093   1.468   1.670  0.8167 -0.1838  0.2063
 1606poe     o210628   2.139   1.436   1.540  0.3991  0.1993 -0.0380
 1606poe    c2310629   2.047   1.489   1.447  0.3284  0.0987 -0.0261
 1606poe    c2310630   2.086   1.443   1.306  0.5213 -0.4132  0.1930
 1606poe     o210631   2.218   1.484   1.278  0.1481  0.5471 -0.2096
 1606poe    c3110632   2.229   1.476   1.138 -0.0816  0.2925 -0.2143
 1607poe    c3110633   6.960   2.996   1.039  0.0212  0.9461 -0.2485
 1607poe     o210634   7.057   3.023   0.941  0.3520 -0.2035 -0.2626
 1607poe    c2310635   7.073   3.164   0.940  0.5110 -0.2195  0.0675
 1607poe    c2310636   7.203   3.185   0.861  0.0597  0.0158 -0.6173
 1607poe     o210637   7.208   3.091   0.756  0.5505 -0.1226 -0.4731
 1607poe    c2310638   7.328   3.107   0.683  0.2712  0.1822 -0.8744
 1607poe    c2310639   7.310   3.040   0.546  0.9428 -0.6463 -0.5660
 1607poe     o210640   7.272   2.904   0.553 -0.0842 -0.3438 -0.1288
 1607poe    c2310641   7.381   2.815   0.552 -0.0168 -0.2621 -0.7231
 1607poe    c2310642   7.324   2.675   0.577 -0.1940  0.0591  0.7904
 1607poe     o210643   7.264   2.641   0.700 -0.0502 -0.1324  0.8072
 1607poe    c3110644   7.229   2.510   0.661  0.3462 -0.0069  0.0168
 1608poe    c3110645   0.841   3.506   6.574 -0.3029 -0.0230 -0.0641
 1608poe     o210646   0.964   3.501   6.505 -0.2671 -0.1070  0.0054
 1608poe    c2310647   1.050   3.402   6.558 -0.2691  0.0432  0.2877
 1608poe    c2310648   1.153   3.386   6.444 -0.5556  0.3753 -0.0216
 1608poe     o210649   1.201   3.517   6.421  0.0501  0.1737  0.0815
 1608poe    c2310650   1.318   3.520   6.343  0.2020  0.0603  0.3019
 1608poe    c2310651   1.322   3.661   6.280 -0.2514 -0.1523 -0.2155
 1608poe     o210652   1.185   3.670   6.246 -0.1665  0.4524 -0.4078
 1608poe    c2310653   1.134   3.797   6.210 -0.2008  0.3609 -0.6792
 1608poe    c2310654   0.981   3.798   6.225 -0.1133 -0.3419  0.3662
 1608poe     o210655   0.928   3.742   6.343 -0.6598 -0.3738  0.1058
 1608poe    c3110656   0.789   3.767   6.339 -0.5861  0.0037 -0.1143
 1609poe    c3110657   3.594   4.999   3.262 -0.1123 -0.0786  0.3505
 1609poe     o210658   3.637   5.087   3.364  0.4411  0.1272 -0.0555
 1609poe    c2310659   3.535   5.161   3.426  0.3240 -0.1051  0.0321
 1609poe    c2310660   3.570   5.203   3.570  0.2992 -0.3982  0.1224
 1609poe     o210661   3.704   5.246   3.579  0.1119  0.2739 -0.2208
 1609poe    c2310662   3.736   5.301   3.705  0.3556  0.2119 -0.2554
 1609poe    c2310663   3.885   5.342   3.709  0.3423  0.2296  0.0746
 1609poe     o210664   3.911   5.401   3.583  0.7587 -0.5813 -0.2301
 1609poe    c2310665   4.028   5.480   3.586  0.0836  0.4245  0.5315
 1609poe    c2310666   4.018   5.576   3.466  0.4518 -0.0595  0.1075
 1609poe     o210667   3.957   5.512   3.357  0.5297  0.0500 -0.0004
 1609poe    c3110668   4.003   5.558   3.232 -0.0615  0.1333 -0.1916
 1610poe    c3110669   6.039   4.564   3.930  0.6424 -0.4616  0.5939
 1610poe     o210670   5.980   4.641   4.032  0.7291  0.1952  0.1559
 1610poe    c2310671   6.077   4.721   4.095  0.6150  0.6611 -0.2583
 1610poe    c2310672   5.991   4.819   4.178  0.6598 -0.2357  0.8754
 1610poe     o210673   5.894   4.749   4.251 -0.3582  0.2227 -0.0005
 1610poe    c2310674   5.815   4.833   4.332 -0.2383  0.1178  0.2288
 1610poe    c2310675   5.730   4.750   4.430 -0.2580  0.0215  0.1295
 1610poe     o210676   5.651   4.664   4.351  0.2396 -0.4796  0.1734
 1610poe    c2310677   5.598   4.575   4.447 -0.7501  0.3859  0.4483
 1610poe    c2310678   5.540   4.437   4.409 -0.2321  0.2765  0.0319
 1610poe     o210679   5.642   4.349   4.369 -0.4261 -0.2411  0.6547
 1610poe    c3110680   5.648   4.241   4.459 -0.3160 -0.6708  0.1335
 1611poe    c3110681   0.032   2.467   0.023  0.1694  0.1367 -0.2514
 1611poe     o210682  -0.094   2.522  -0.007  0.1237  0.1026 -0.1236
 1611poe    c2310683  -0.111   2.650   0.049  0.0084  0.4014 -0.8267
 1611poe    c2310684  -0.247   2.703   0.001 -0.1770  0.7342  0.0430
 1611poe     o210685  -0.281   2.659  -0.129 -0.7590 -0.0305  0.4488
 1611poe    c2310686  -0.376   2.747  -0.185  0.0995  0.6925  0.1077
 1611poe    c2310687  -0.460   2.660  -0.281  0.4478 -0.7787  1.1164
 1611poe     o210688  -0.381   2.578  -0.364  0.5426  0.2671  0.1686
 1611poe    c2310689  -0.360   2.626  -0.496  0.1972 -0.7488 -0.2626
 1611poe    c2310690  -0.307   2.520  -0.594  0.3793 -0.5844 -0.3427
 1611poe     o210691  -0.198   2.452  -0.536  0.1528 -0.1261  0.6373
 1611poe    c3110692  -0.161   2.347  -0.622 -0.0106  0.0649  0.3319
 1612poe    c3110693   5.442   1.859   2.142 -0.1460 -0.5401 -0.5583
 1612poe     o210694   5.344   1.905   2.051 -0.0324  0.2849 -0.2716
 1612poe    c2310695   5.267   1.795   2.007  0.3363 -0.0348 -0.1212
 1612poe    c2310696   5.122   1.845   1.992  0.3101  0.1157  0.6068
 1612poe     o210697   5.128   1.968   1.923 -0.5403 -0.1494  0.0494
 1612poe    c2310698   4.994   2.011   1.915 -0.6280 -0.1217  1.3916
 1612poe    c2310699   5.005   2.147   1.845 -0.2595 -0.5494  0.6108
 1612poe     o210700   5.137   2.196   1.857 -0.3543 -0.4148  1.1108
 1612poe    c2310701   5.153   2.327   1.806 -0.3215 -0.5747  0.7068
 1612poe    c2310702   5.301   2.369   1.794 -0.3709 -0.5836  0.0085
 1612poe     o210703   5.369   2.294   1.697  0.0993 -0.2161  0.0541
 1612poe    c3110704   5.456   2.372   1.618  0.2321 -0.1846  0.2323
 1613poe    c3110705   4.562   2.484   1.992 -0.3647 -0.3543  0.8316
 1613poe     o210706   4.496   2.505   2.115 -0.1383  0.3472  0.8381
 1613poe    c2310707   4.376   2.432   2.117 -0.2754  0.5402  0.1378
 1613poe    c2310708   4.317   2.451   2.258 -0.2019  0.0739  0.2356
 1613poe     o210709   4.431   2.448   2.341 -0.0321 -0.1785 -0.0082
 1613poe    c2310710   4.405   2.514   2.463 -0.0439  0.7623 -0.5118
 1613poe    c2310711   4.530   2.497   2.551 -0.3875 -0.9522 -0.3206
 1613poe     o210712   4.626   2.554   2.465 -0.5410  0.2632  0.2890
 1613poe    c2310713   4.754   2.521   2.514 -0.0967  0.1525 -0.9016
 1613poe    c2310714   4.800   2.400   2.431  0.6155 -0.0642 -0.2179
 1613poe     o210715   4.752   2.422   2.300 -0.0597 -0.2657 -0.0071
 1613poe    c3110716   4.780   2.307   2.223 -0.2121  0.0337 -0.5195
 1614poe    c3110717   5.212   0.678   2.032  0.3547  0.4231 -0.3217
 1614poe     o210718   5.335   0.637   1.977  0.1611 -0.1779 -0.3045
 1614poe    c2310719   5.431   0.727   2.028 -0.5593  0.8302 -0.6922
 1614poe    c2310720   5.561   0.722   1.944 -0.2534  0.1103 -0.1851
 1614poe     o210721   5.582   0.587   1.909 -0.4626  0.0604 -0.1219
 1614poe    c2310722   5.708   0.573   1.846 -0.2369  0.3397  0.2683
 1614poe    c2310723   5.706   0.432   1.785  0.0364  0.6025 -0.3497
 1614poe     o210724   5.577   0.404   1.733 -0.0369  0.0399  0.1270
 1614poe    c2310725   5.589   0.267   1.705 -0.2174  0.0526 -0.0104
 1614poe    c2310726   5.461   0.187   1.738  0.1413 -0.5882 -0.1460
 1614poe     o210727   5.355   0.255   1.674  0.1465 -0.1963  0.2493
 1614poe    c3110728   5.233   0.192   1.707 -0.4105  0.8949  0.2978
 1615poe    c3110729   0.664   6.026   5.064 -0.9328  0.4931  0.4413
 1615poe     o210730   0.535   5.972   5.080 -0.6748 -0.1717  0.3066
 1615poe    c2310731   0.546   5.831   5.084 -0.0345 -0.1283  0.2918
 1615poe    c2310732   0.406   5.769   5.102 -0.0957 -0.0742  0.0085
 1615poe     o210733   0.344   5.795   5.226 -0.0188 -0.0498  0.0411
 1615poe    c2310734   0.230   5.714   5.243 -0.5859  0.7448  0.1101
 1615poe    c2310735   0.169   5.724   5.383 -0.3906 -0.4170  0.2915
 1615poe     o210736   0.163   5.861   5.419  0.2932 -0.3238  0.0664
 1615poe    c2310737   0.101   5.897   5.540  0.3451 -0.0762  0.0180
 1615poe    c2310738   0.123   6.049   5.560  0.3373 -0.1130  0.3178
 1615poe     o210739   0.260   6.081   5.555  0.4178 -0.4155  0.5670
 1615poe    c3110740   0.288   6.219   5.567 -0.2836 -0.1376 -0.7751
 1616poe    c3110741   1.338   4.115   3.510  0.4546 -0.0536 -0.6197
 1616poe     o210742   1.274   3.996   3.468  0.7050 -0.3509 -0.1760
 1616poe    c2310743   1.335   3.925   3.363  0.0780 -0.4785 -0.4617
 1616poe    c2310744   1.296   3.776   3.352  0.4373 -0.6303  0.2452
 1616poe     o210745   1.161   3.760   3.316  0.5880 -0.1150 -0.5922
 1616poe    c2310746   1.132   3.623   3.299  0.4807 -0.1291 -0.3146
 1616poe    c2310747   0.993   3.631   3.233  0.4739 -0.0924 -0.2959
 1616poe     o210748   1.001   3.720   3.124 -0.7237  0.1326 -0.2120
 1616poe    c2310749   0.890   3.717   3.037 -0.9701  0.4872  0.0849
 1616poe    c2310750   0.907   3.843   2.949 -0.3326  0.4883  0.2014
 1616poe     o210751   0.904   3.956   3.033  0.2310  0.1386  0.6913
 1616poe    c3110752   0.969   4.065   2.973  0.1716 -0.2842 -0.1530
 1617poe    c3110753   3.692   1.617   6.928  0.4462 -0.1917 -0.8840
 1617poe     o210754   3.686   1.751   6.885 -0.2415 -0.0839 -0.4733
 1617poe    c2310755   3.793   1.831   6.929 -0.4943  0.2012 -0.3802
 1617poe    c2310756   3.778   1.971   6.867 -0.6860  0.2002 -0.3360
 1617poe     o210757   3.678   2.062   6.908 -0.3823  0.1914  0.4310
 1617poe    c2310758   3.651   2.152   6.803 -0.2991 -0.5176 -0.2102
 1617poe    c2310759   3.584   2.277   6.863  0.3485 -0.5133  0.5234
 1617poe     o210760   3.473   2.235   6.938 -0.4762  0.0597 -0.3562
 1617poe    c2310761   3.420   2.342   7.013  0.0298 -0.0234  0.1207
 1617poe    c2310762   3.317   2.289   7.114  0.0797 -0.3921 -0.0198
 1617poe     o210763   3.379   2.186   7.189  0.3436 -0.2144  0.0064
 1617poe    c3110764   3.297   2.174   7.303 -0.0731 -0.2955 -0.2990
 1618poe    c3110765   1.880   5.800   6.076 -0.2208 -0.4800  0.1874
 1618poe     o210766   1.903   5.870   6.197  0.4402  0.2856 -0.3746
 1618poe    c2310767   1.804   5.840   6.293  0.6419  0.1361 -0.2137
 1618poe    c2310768   1.839   5.849   6.443 -0.0837 -0.3869 -0.0114
 1618poe     o210769   1.946   5.760   6.466  0.1602 -0.0508  0.1599
 1618poe    c2310770   1.943   5.726   6.603  0.2419 -0.1236  0.1437
 1618poe    c2310771   2.035   5.821   6.683 -0.0215  0.1712  0.1004
 1618poe     o210772   2.162   5.823   6.621 -0.0560 -1.0383 -0.0358
 1618poe    c2310773   2.249   5.898   6.702 -0.5379 -0.1966 -0.2784
 1618poe    c2310774   2.322   5.996   6.609 -0.3139 -0.2902 -0.2033
 1618poe     o210775   2.352   5.931   6.487 -0.3229 -0.1165 -0.3002
 1618poe    c3110776   2.445   6.009   6.416 -0.4552  0.0593 -0.2803
 1619poe    c3110777   3.552   5.281   2.910 -0.1983  0.4067  0.1117
 1619poe     o210778   3.479   5.173   2.856 -0.3122  0.5868 -0.0952
 1619poe    c2310779   3.368   5.139   2.936 -0.2942 -0.0004 -0.3156
 1619poe    c2310780   3.263   5.047   2.872 -0.2670 -0.2246 -0.0407
 1619poe     o210781   3.320   4.923   2.837 -0.1249 -0.1385 -0.1121
 1619poe    c2310782   3.236   4.837   2.763 -0.4892  0.4920 -0.4478
 1619poe    c2310783   3.315   4.706   2.738  0.1706  0.6521  0.7154
 1619poe     o210784   3.444   4.723   2.684 -0.0918  0.5174  0.0360
 1619poe    c2310785   3.507   4.599   2.658 -0.5926  0.1762  0.4251
 1619poe    c2310786   3.652   4.637   2.623 -0.4988 -0.3505  0.2327
 1619poe     o210787   3.648   4.767   2.568  0.1177 -0.1951  0.5512
 1619poe    c3110788   3.766   4.789   2.493  0.0935 -0.2056  0.5094
 1620poe    c3110789   2.275   0.163   3.796  0.1792  0.0787  0.3279
 1620poe     o210790   2.227   0.288   3.840  0.2151  0.2588 -0.1359
 1620poe    c2310791   2.329   0.385   3.836  0.1073  0.3580 -0.4928
 1620poe    c2310792   2.278   0.530   3.841 -0.3535  0.1832  0.0633
 1620poe     o210793   2.221   0.569   3.964 -0.0506  0.0862  0.2378
 1620poe    c2310794   2.181   0.705   3.969  0.8898  0.3605  0.4188
 1620poe    c2310795   2.135   0.711   4.115 -0.4210  0.7232  0.0038
 1620poe     o210796   2.005   0.665   4.143 -0.3284  0.5198  0.0993
 1620poe    c2310797   1.977   0.682   4.280 -0.1187 -0.2381  0.2399
 1620poe    c2310798   1.850   0.617   4.339 -0.3914  0.2365  0.1831
 1620poe     o210799   1.736   0.697   4.317  0.2108  1.1926  0.4895
 1620poe    c3110800   1.619   0.627   4.351  0.7162  0.1332  0.0965
 1621lim     li10801   1.894   0.932   1.435  0.1709  0.8423 -0.5392
 1622lim     li10802   4.498   2.770   4.395  0.8472 -0.0527 -0.6728
 1623lim     li10803   5.788   3.929   5.595  1.1824 -0.0432 -1.0520
 1624lim     li10804   0.696   1.992   0.146 -0.2402  0.7623  0.5477
 1625lim     li10805   2.142   0.507   0.601 -0.0257  1.3937  0.2853
 1626lim     li10806   6.002   0.228   0.826  0.1701 -0.2461 -0.3444
 1627lim     li10807   1.532   5.496   2.513  0.1753 -1.2140 -1.3633
 1628lim     li10808   1.855   3.207   0.957  0.7496  0.1970 -0.7131
 1629lim     li10809   4.718   1.215   5.517 -0.7576  0.3303 -0.1814
 1630lim     li10810   5.830   4.117   1.952 -0.1954 -0.1240  0.4881
 1631lim     li10811   5.512   2.902   0.880  0.5670  0.5269 -0.5455
 1632lim     li10812   2.055   5.013   4.745  0.4534 -1.2389 -0.1433
 1633lim     li10813   2.841   6.643   1.496 -0.2692  0.9934  0.4854
 1634lim     li10814   5.882   2.176   0.349 -0.3518 -0.2585 -0.0136
 1635lim     li10815   2.022   2.872   6.099 -1.2143  0.6143  1.2402
 1636lim     li10816   6.383   4.734   0.821 -0.4757 -0.2606 -0.8099
 1637lim     li10817   3.649   1.713   6.081 -0.7630 -0.8488 -0.4889
 1638lim     li10818   6.230   4.565   6.557 -0.1851  0.6948 -0.4062
 1639lim     li10819   6.393   0.554   3.021 -0.4862  0.7885  0.3508
 1640lim     li10820   1.551   4.858   0.777  0.2167 -0.0017 -0.9785
 1641lim     li10821   2.714   1.039   4.057  0.0671 -0.1015  0.8398
 1642lim     li10822   3.437   1.812   6.600 -0.2444 -0.0382  0.7673
 1643lim     li10823   5.942   0.989   0.477  0.3042 -0.0446  0.9886
 1644lim     li10824   2.945   0.497   6.234 -0.6627  0.4109  0.1244
 1645lim     li10825   0.225   1.237   3.064 -0.4766  0.6992  0.0896
 1646lim     li10826   2.429   0.327   2.213  1.0651 -1.8688  0.2413
 1647lim     li10827   2.800   3.797   2.601  1.1567  0.1024  0.4262
 1648lim     li10828   6.335   0.651   1.692  0.9537 -0.2922  0.5736
 1649lim     li10829   0.789   4.037   1.869  0.5719 -0.0958  0.5168
 1650lim     li10830   5.182   2.743   4.140  1.2035 -0.5899 -0.2530
 1651lim     li10831   2.601   6.549   0.702  0.7634 -0.4925  0.7127
 1652lim     li10832   2.729   4.703   3.629  0.8790 -0.7731  0.1768
 1653lim     li10833   6.486   0.865   5.724  0.5116 -0.3404 -0.0109
 1654lim     li10834   0.691   2.500   1.506 -0.5243 -0.5492  0.7486
 1655lim     li10835   5.579   3.170   3.822 -0.1574 -0.4305  0.0469
 1656lim     li10836   5.872   4.843   3.376  0.1435 -0.4206  0.7562
 1657lim     li10837   4.589   2.550   2.269  0.1574 -0.5777 -0.8580
 1658lim     li10838   6.359   2.207   3.642 -0.3763 -0.2165 -0.1078
 1659lim     li10839   2.773   2.869   6.039 -0.0458 -0.1701  0.0660
 1660lim     li10840   0.008   4.471   3.789 -0.4787  0.0615  0.3497
 1661lim     li10841   1.868   5.157   6.397  0.0455  0.5678  0.8044
 1662lim     li10842   0.857   5.656   4.368 -0.8685  0.1511  0.5946
 1663lim     li10843   1.140   5.334   5.613 -0.2624 -0.1757 -0.0102
 1664lim     li10844   0.013   4.616   5.790 -1.0891 -0.7452 -0.8017
 1665lim     li10845   3.153   6.673   6.132  0.5855  1.1410  0.0382
 1666lim     li10846   2.101   6.194   2.153  0.0547  0.1715  0.3591
 1667lim     li10847   1.868   1.424   5.197 -0.0387  0.5375 -1.1726
 1668lim     li10848   3.503   2.116   0.059  0.1639  0.1200 -1.1796
 1669lim     li10849   0.513   6.448   0.965  0.3930 -0.0334 -0.8779
 1670lim     li10850   6.713   2.080   4.499 -0.8977 -0.4182 -0.9885
 1671lim     li10851   0.917   0.325   4.560  0.3402 -0.6910  0.6869
 1672lim     li10852   5.937   2.400   6.225 -0.5322  1.6885 -0.2791
 1673lim     li10853   2.987   1.210   6.604  0.7334 -1.0010  0.4783
 1674lim     li10854   4.638   6.370   5.093  0.6885 -0.0192 -0.6815
 1675lim     li10855   3.006   3.535   4.712  0.7370 -0.4411 -0.2205
 1676lim     li10856   6.710   3.425   0.337 -1.2965  1.2664 -0.2098
 1677lim     li10857   1.382   2.256   3.259  0.1688  1.0400  0.4758
 1678lim     li10858   4.296   6.828   0.330 -0.2789 -0.1487 -0.7140
 1679lim     li10859   4.808   0.344   2.627 -1.4749 -0.1591 -0.3016
 1680lim     li10860   5.411   0.502   1.892  0.8300 -0.4105  0.5618
 1681lim     li10861   3.886   0.960   3.302 -0.3087 -0.3356  0.8255
 1682lim     li10862   3.342   4.947   5.449  1.6286  0.6527  0.2821
 1683lim     li10863   1.795   2.275   6.536 -0.2512 -0.7401 -0.1312
 1684lim     li10864   0.655   2.058   3.253 -0.4516  1.1474 -0.0539
 1685lim     li10865   1.401   5.442   3.657 -0.1599 -0.2925  0.0229
 1686lim     li10866   5.283   0.248   1.128 -0.6597 -0.0013  0.1252
 1687lim     li10867   4.170   5.473   4.535 -0.0732  0.4426  0.1039
 1688lim     li10868   4.223   4.181   1.946 -0.5374 -0.0310  0.1918
 1689lim     li10869   6.857   6.114   6.336 -0.3463 -0.5195 -0.8795
 1690lim     li10870   5.789   0.790   2.789  0.3731  0.5447 -1.0596
 1691lim     li10871   4.923   4.235   6.749 -0.7262 -0.0976 -1.2462
 1692lim     li10872   4.042   6.815   5.402  0.9378 -0.1319 -0.9952
 1693lim     li10873   5.566   2.500   3.041 -0.1901  0.6989 -0.0494
 1694lim     li10874   1.311   1.982   0.649  0.5101 -0.5520  1.0719
 1695lim     li10875   2.654   5.628   3.275  0.4537 -0.1713 -0.8031
 1696lim     li10876   1.549   6.586   5.085 -0.2435 -0.6085 -0.1692
 1697lim     li10877   3.885   6.657   2.434  1.2458  0.8384 -1.8302
 1698lim     li10878   6.962   0.831   0.431  1.0407 -0.9545  1.3147
 1699lim     li10879   0.511   4.981   1.126  1.3697  0.0054 -1.0149
 1700lim     li10880   3.136   4.166   2.623 -0.4630 -1.4766 -0.3845
 1701lim     li10881   0.518   3.928   4.532  0.1910  0.9652 -0.2240
 1702lim     li10882   4.770   0.808   0.861 -1.4248 -0.9445 -0.1284
 1703lim     li10883   3.804   0.255   6.184 -0.6822 -0.1708  0.5408
 1704lim     li10884   2.210   2.029   3.460  1.1839  0.6688 -0.5129
 1705lim     li10885   4.778   0.433   5.696  0.4666 -0.1683 -1.8651
 1706lim     li10886   1.617   4.066   4.850 -0.2476 -0.0172 -0.2483
 1707lim     li10887   3.006   3.757   5.887  0.2093  0.1126  0.2751
 1708lim     li10888   2.285   5.002   2.381 -0.0422  0.7576 -0.9311
 1709lim     li10889   1.150   4.854   4.461 -1.2411  0.0770  0.0025
 1710lim     li10890   0.169   0.497   2.546  0.3582  1.1782  0.3732
 1711lim     li10891   3.994   1.098   2.126 -0.0872 -1.0140  0.4042
 1712lim     li10892   6.957   3.262   3.415 -0.9381  0.5659 -0.8075
 1713lim     li10893   3.629   1.023   0.159  0.7656  0.1834 -0.2019
 1714lim     li10894   2.857   0.335   1.698 -0.9918  0.0464  0.0325
 1715lim     li10895   2.217   5.806   6.456  0.2185  0.3643  1.3505
 1716lim     li10896   1.934   6.258   0.793  0.3661  0.1468  1.1468
 1717lim     li10897   6.542   1.545   5.417  0.8828 -0.4891  0.0805
 1718lim     li10898   3.011   5.208   2.557  0.5096 -0.0054  0.3631
 1719lim     li10899   1.120   6.891   0.681  0.0693 -0.2476  0.0491
 1720lim     li10900   1.282   3.024   5.772 -0.2195 -0.1759 -0.0201
 1721lim     li10901   5.995   3.950   3.570 -0.1404  0.8107  0.9854
 1722lim     li10902   4.774   2.722   0.332  1.2584  0.1445 -0.6725
 1723lim     li10903   1.536   6.957   2.729  0.8178 -0.4361 -0.9760
 1724lim     li10904   5.031   6.274   4.057 -0.7276  0.1380  0.7086
 1725lim     li10905   2.049   0.651   4.948  0.6277 -0.4100 -0.3175
 1726lim     li10906   5.040   3.490   2.295 -0.3666  0.1100 -0.0780
 1727lim     li10907   3.062   0.137   5.317  0.7016  0.3176  0.1311
 1728lim     li10908   4.665   4.675   2.973 -0.3222  0.3290  0.5599
 1729lim     li10909   1.008   0.819   0.285  0.5157  0.5419  0.4960
 1730lim     li10910   4.795   3.542   2.998  0.2737  0.9854 -0.8203
 1731lim     li10911   3.541   4.943   4.520 -0.3679  0.3747  0.7778
 1732lim     li10912   6.906   6.245   0.543  0.0519  1.3477 -0.6079
 1733lim     li10913   1.310   1.222   3.446  0.7914 -0.6155  0.3150
 1734lim     li10914   2.373   1.652   2.179 -1.1056 -1.0035  0.5429
 1735lim     li10915   1.606   2.201   4.168 -1.1342  0.1567  0.6344
 1736lim     li10916   1.260   0.970   1.174 -0.1019 -1.0368  0.9839
 1737lim     li10917   1.047   4.738   6.648  0.9226  0.2230  0.7010
 1738lim     li10918   6.610   5.255   1.485 -0.1803  0.1759 -0.8705
 1739lim     li10919   0.977   6.489   2.051  0.3906 -0.7125 -0.6406
 1740lim     li10920   3.903   0.603   0.856  0.7024  0.6987  0.9978
 1741lim     li10921   1.448   1.419   4.267  0.4116 -0.6312 -0.1120
 1742lim     li10922   4.308   1.622   2.473  0.2729 -0.1714  0.7207
 1743lim     li10923   5.312   1.486   0.100 -0.2451  0.3082 -0.1554
 1744lim     li10924   3.369   1.815   0.928 -0.0462  0.6297 -0.4413
 1745lim     li10925   6.590   0.429   2.126  1.1913 -0.3207 -1.5230
 1746lim     li10926   0.704   0.070   5.892 -0.1378  0.3446 -1.0108
 1747lim     li10927   6.127   0.084   5.248 -0.9032  0.4158 -0.1875
 1748lim     li10928   6.380   3.010   3.400 -1.0082  0.0884  0.6315
 1749lim     li10929   6.429   1.784   1.965 -0.4101  1.6211  0.1256
 1750lim     li10930   6.090   6.450   1.658  0.3925  0.4551 -0.3476
 1751lim     li10931   2.123   3.969   3.282 -0.4216 -0.3357 -0.6749
 1752lim     li10932   3.201   4.503   0.488 -0.6432 -1.2289  0.5111
 1753lim     li10933   4.645   0.587   6.270 -0.4013 -0.0761  1.1086
 1754lim     li10934   4.055   1.916   4.431  0.2464 -0.0443  0.0950
 1755lim     li10935   6.840   3.098   4.734  0.4542  0.5133 -0.5257
 1756lim     li10936   1.265   2.788   2.385 -0.6518 -0.6315 -0.4622
 1757lim     li10937   5.100   3.368   6.356 -0.3875 -0.9412 -0.4721
 1758lim     li10938   6.938   3.609   2.462 -0.6904 -0.0021  0.5606
 1759lim     li10939   6.247   6.659   3.960  0.0966  0.2971  0.9083
 1760lim     li10940   6.806   2.481   6.856 -1.2226 -0.6195 -0.8265
 1761lim     li10941   5.910   3.593   6.660 -0.2172  0.6580  0.7430
 1762lim     li10942   2.223   0.767   3.210  1.4630 -0.3966  1.5129
 1763lim     li10943   5.012   4.285   2.068 -0.2467  0.7120  0.8811
 1764lim     li10944   5.966   3.982   2.931  0.9050  0.5994 -0.1043
 1765lim     li10945   6.495   5.414   3.646  0.2834 -0.4430  0.9430
 1766lim     li10946   3.820   6.823   4.463 -0.5537 -0.2510  0.0295
 1767lim     li10947   4.837   5.508   3.284 -0.0442 -0.2576 -0.3633
 1768lim     li10948   5.667   1.200   4.235 -0.2630  0.2751  0.7912
 1769lim     li10949   1.798   1.953   2.546 -0.3572 -0.8439 -0.6182
 1770lim     li10950   2.038   3.429   6.721  0.4150  0.6178 -0.2201
 1771lim     li10951   0.361   2.500   4.088 -0.4488  0.6596 -0.3956
 1772lim     li10952   6.236   6.603   4.743 -0.7874 -0.0205 -0.0436
 1773lim     li10953   3.326   5.266   0.530  0.2009 -0.4452  0.0452
 1774lim     li10954   3.889   2.777   6.355  0.0168  0.4281  0.0905
 1775lim     li10955   0.282   1.251   1.098  0.2039  0.6981  0.1679
 1776lim     li10956   2.595   1.518   0.572 -0.3744  0.7225 -0.0706
 1777lim     li10957   6.714   6.699   5.463  0.4741  0.5326  0.3800
 1778lim     li10958   2.857   2.045   4.502 -0.7288 -1.8795  0.6139
 1779lim     li10959   1.415   3.708   2.186  0.8054 -1.0864 -0.4054
 1780lim     li10960   5.286   3.635   0.537  0.9545  1.6841 -0.3496
 1781lim     li10961   0.081   2.172   1.732  0.4857  0.6624 -0.5838
 1782lim     li10962   4.607   6.494   6.133  0.1634  1.0355 -1.1072
 1783lim     li10963   1.957   6.724   4.528 -0.7512  1.1966  1.5823
 1784lim     li10964   0.129   5.273   5.146  0.6022 -0.1749  0.2282
 1785lim     li10965   5.853   2.016   2.626 -0.5862 -0.0054  0.0078
 1786lim     li10966   6.990   5.277   6.095  0.5970 -0.2863 -0.2029
 1787lim     li10967   6.882   1.047   4.566 -0.1085 -0.2375  0.1715
 1788lim     li10968   4.029   4.531   5.824 -2.0421  0.9218 -0.1379
 1789lim     li10969   5.854   2.942   0.138  1.1886 -0.3992  0.6097
 1790lim     li10970   4.022   5.858   0.087 -0.0481  0.2961 -0.2041
 1791lim     li10971   1.214   4.544   5.870 -0.1123 -0.0957 -1.0308
 1792lim     li10972   0.965   2.029   6.148 -0.0940  0.0522  0.0625
 1793lim     li10973   3.460   5.919   1.192 -1.1463  0.1713 -1.6605
 1794lim     li10974   1.777   1.467   0.288  0.4767 -0.0353  0.4819
 1795lim     li10975   6.362   5.392   4.416  0.3996 -1.2794 -0.1768
 1796lim     li10976   5.912   1.317   2.260 -0.1313 -0.5139  1.0410
 1797lim     li10977   1.547   6.306   5.902 -0.8782  0.0574  0.5770
 1798lim     li10978   4.377   0.969   4.757  0.1291 -0.3385  0.9098
 1799lim     li10979   4.197   5.992   4.112 -0.1409 -0.3873 -0.2180
 1800lim     li10980   5.691   2.205   5.315 -0.4014 -0.6613 -0.0984
 1801lim     li10981   5.870   3.496   1.449 -0.4321 -0.2909 -0.1793
 1802lim     li10982   5.170   2.018   1.162 -0.7730 -1.0257 -0.6401
 1803lim     li10983   6.806   1.962   0.856 -1.4169 -0.0170 -0.1180
 1804lim     li10984   1.999   3.368   1.867  0.6503 -0.0236  0.0703
 1805lim     li10985   1.061   3.637   6.412  0.9354  0.8065 -1.3059
 1806lim     li10986   0.618   2.672   5.452  0.1917  0.0098  0.0439
 1807lim     li10987   3.881   1.628   5.036 -0.2762 -0.3819 -0.2250
 1808lim     li10988   0.244   2.890   6.428  0.5408 -1.4704  0.0264
 1809lim     li10989   0.065   1.466   3.817 -0.0785  0.9948  0.7616
 1810lim     li10990   4.563   0.221   3.078  0.6002  0.4644  0.2192
 1811lim     li10991   2.043   4.884   5.602 -0.8976 -0.6923 -0.5062
 1812lim     li10992   3.420   6.179   5.133 -0.4444 -0.1559 -0.4522
 1813lim     li10993   5.006   6.221   3.039  0.7990 -0.2894  0.3671
 1814lim     li10994   0.901   5.357   1.361  0.3531  0.7187  0.6334
 1815lim     li10995   6.222   2.726   0.878  1.4135 -0.4129  0.3873
 1816lim     li10996   4.276   2.535   5.475  0.1817  0.6988 -0.3836
 1817lim     li10997   4.908   0.991   0.282  0.8236  1.6215  0.2000
 1818lim     li10998   6.403   1.516   3.151  1.0460  0.4814 -0.6665
 1819lim     li10999   5.122   2.068   4.630 -0.6065  0.0431 -0.7071
 1820lim     li11000   1.695   0.872   4.301  0.0659 -0.5363 -0.5480
 1821lim     li11001   1.678   2.805   0.207 -0.7219  0.6677 -0.0754
 1822lim     li11002   6.256   2.585   1.408  1.2501 -0.4142 -0.2296
 1823lim     li11003   5.307   3.016   1.774  0.2722 -0.5917  0.1143
 1824lim     li11004   1.739   5.968   4.571 -0.7270  0.6011  0.6025
 1825lim     li11005   2.812   0.983   5.684 -0.6034 -0.3372 -0.0047
 1826lim     li11006   1.246   3.042   4.737 -0.1696  0.2952 -0.1961
 1827lim     li11007   5.186   6.659   0.605 -0.2032 -0.0605 -0.3224
 1828lim     li11008   0.947   6.033   3.435 -0.0971 -1.1471 -0.1967
 1829lim     li11009   0.959   6.934   3.113  0.2833  1.0106  0.1945
 1830lim     li11010   1.972   3.955   5.968 -0.8745 -1.0605  0.2691
 1831lim     li11011   2.330   2.907   2.502 -1.2528 -0.5042 -0.2424
 1832lim     li11012   7.011   4.639   6.886 -0.0901 -0.4112 -0.8365
 1833lim     li11013   3.324   0.937   2.312  0.1468  0.4895 -0.8387
 1834lim     li11014   5.412   6.926   4.500 -0.6736  0.3184 -0.3210
 1835lim     li11015   2.352   4.829   1.372 -0.5712  0.1820 -0.6288
 1836lim     li11016   4.873   5.018   1.675  0.0720 -0.0831  0.5238
 1837lim     li11017   5.898   5.310   6.676 -0.2004 -0.4174 -0.0476
 1838lim     li11018   2.296   5.689   5.619  0.4437 -1.1854 -0.2112
 1839lim     li11019   6.058   6.719   6.427  0.0394 -1.6298  0.5461
 1840lim     li11020   0.094   4.234   2.712 -0.5183 -0.7592 -0.0865
 1841lim     li11021   5.507   1.658   6.112 -1.0208  0.8767 -0.3855
 1842lim     li11022   0.965   3.871   5.297  1.0098 -0.1554 -0.3579
 1843lim     li11023   0.378   1.004   5.740  0.5935  0.6677  0.1158
 1844lim     li11024   1.639   2.490   5.160 -0.2969 -1.3149  0.0647
 1845lim     li11025   6.140   7.000   0.348 -1.1402  0.4612  0.5801
 1846lim     li11026   6.256   1.731   6.301  0.1433 -0.0335  0.6190
 1847lim     li11027   5.828   4.613   4.138  0.1636  0.9164 -0.4341
 1848lim     li11028   0.417   6.080   6.746 -0.4284  0.1075  0.1727
 1849lim     li11029   5.301   3.823   3.856  0.1933  0.8237 -0.5884
 1850lim     li11030   0.049   6.675   6.891  0.4606 -0.7656  1.1325
 1851lim     li11031   6.589   0.306   4.555  0.2224  0.6970  0.1195
 1852lim     li11032   0.794   3.547   5.888 -0.3752  0.5569 -0.7492
 1853lim     li11033   4.076   6.164   3.111  0.2922  0.3916 -0.7047
 1854lim     li11034   6.171   3.537   4.558  1.4451  0.3764 -0.2527
 1855lim     li11035   3.988   4.496   3.434 -0.5223 -0.3865 -0.2284
 1856lim     li11036   0.078   3.378   5.712  0.1341 -0.2206  1.2902
 1857lim     li11037   2.835   4.755   4.147 -0.7693 -0.0048  0.0272
 1858lim     li11038   2.688   6.391   6.798 -0.2648 -0.2241  0.8520
 1859lim     li11039   4.854   0.752   3.768 -0.1320  0.7388 -0.0699
 1860lim     li11040   3.995   5.129   0.808 -0.2251  0.8466  0.0099
 1861lim     li11041   4.218   3.072   0.575  0.6020 -0.1835 -0.2561
 1862lim     li11042   1.469   0.210   3.810  0.7471 -0.7912 -1.2328
 1863lim     li11043   5.567   2.016   3.703  0.3652 -0.1408  1.1419
 1864lim     li11044   1.094   4.803   3.138  0.3240  1.3799  0.0951
 1865lim     li11045   5.394   0.251   3.450 -0.0362  0.1809  0.4423
 1866lim     li11046   5.214   0.161   0.008 -0.0163 -0.0782  0.4570
 1867lim     li11047   2.038   1.799   6.122 -0.0726  0.7915  1.3477
 1868lim     li11048   4.251   1.398   1.390  0.6491  1.0837  0.8508
 1869lim     li11049   5.686   4.994   0.101  0.8073  1.6970 -0.1086
 1870lim     li11050   0.479   5.075   3.025 -0.5283 -0.1800  0.4463
 1871lim     li11051   1.460   5.842   1.455 -0.8297 -0.1149  0.0863
 1872lim     li11052   1.871   2.169   1.517  0.7525  0.4721  0.7060
 1873lim     li11053   6.650   0.405   6.191 -0.5155 -0.4765  0.1085
 1874lim     li11054   2.074   4.252   2.486  0.1993  0.3615 -0.7308
 1875lim     li11055   3.488   2.791   3.807  0.3489 -0.4497  0.5873
 1876lim     li11056   0.740   5.630   0.702 -0.3093  0.7716 -0.9523
 1877lim     li11057   1.435   5.424   5.028 -0.6918 -0.1716 -0.5373
 1878lim     li11058   0.173   2.672   2.744 -0.0928 -0.0591 -1.2348
 1879lim     li11059   3.531   4.866   2.615  0.0359  0.3753  0.6981
 1880lim     li11060   6.143   1.505   4.613 -1.5859 -0.5328 -0.0060
 1881lim     li11061   2.273   3.181   5.171  0.0056 -0.0533  0.2681
 1882lim     li11062   5.491   5.300   2.190 -0.5829  0.0721  0.7114
 1883lim     li11063   0.968   2.793   3.575 -0.4445  0.6345 -0.0454
 1884lim     li11064   6.481   2.934   2.520 -0.0010  0.1159  0.1810
 1885lim     li11065   5.288   2.046   1.953 -0.1838  0.0828 -0.7402
 1886lim     li11066   3.227   6.465   0.393  0.0049  0.2958 -0.9184
 1887lim     li11067   5.645   0.791   5.334 -0.9449 -0.0421 -0.2803
 1888lim     li11068   3.909   3.661   4.328  0.9003 -1.6608  0.3831
 1889lim     li11069   1.527   0.180   6.409 -0.2004  0.0406 -0.3220
 1890lim     li11070   2.490   4.636   0.038  0.7377  0.2204  0.1425
 1891lim     li11071   0.307   1.918   4.821  1.2300 -0.0007  0.8538
 1892lim     li11072   1.180   6.237   0.348  0.2956  0.7309  0.3898
 1893lim     li11073   6.831   0.323   3.568  0.3788 -0.4883 -1.8920
 1894lim     li11074   5.207   5.863   5.697 -1.2257  1.0699 -1.2974
 1895lim     li11075   3.868   2.785   4.595  0.2844 -0.3317 -0.3702
 1896lim     li11076   4.924   4.691   3.915 -0.2355  0.4745 -0.0699
 1897lim     li11077   4.679   4.935   5.615 -0.6966  0.3852  0.9705
 1898lim     li11078   1.903   6.686   3.000 -0.0316  0.2264 -0.4830
 1899lim     li11079   5.522   1.231   5.097 -0.1601 -0.4144 -0.1764
 1900lim     li11080   0.270   1.064   1.763  0.9481  0.5620 -1.7433
 1901lim     li11081   5.528   6.955   2.350  0.3813 -0.8524  0.1901
 1902lim     li11082   0.517   4.997   1.988  0.1251 -1.2103  0.2511
 1903lim     li11083   3.912   5.512   1.412  0.6745  0.3970  0.9029
 1904lim     li11084   5.423   5.342   3.455  0.5018 -0.8967 -1.3240
 1905lim     li11085   2.060   6.794   5.966  0.2113  0.1921 -0.0043
 1906lim     li11086   6.096   3.138   5.561 -0.7101  0.7559 -0.2063
 1907lim     li11087   6.077   4.548   5.634  1.2732  0.0322 -0.9240
 1908lim     li11088   2.995   3.787   6.481 -0.6628  0.2165  0.4975
 1909lim     li11089   3.859   6.261   6.362 -0.8235 -0.2205 -0.1628
 1910lim     li11090   6.417   6.367   0.735  0.9011 -0.6006 -0.3540
 1911lim     li11091   2.903   7.000   3.712 -0.3566  0.1256  0.7647
 1912lim     li11092   2.110   3.391   3.935  0.4207 -0.1572 -0.8560
 1913lim     li11093   4.516   5.884   0.552  0.1120  0.0203  0.4587
 1914lim     li11094   4.409   5.046   2.381 -0.7014  0.4962  0.0344
 1915lim     li11095   6.135   5.257   2.674 -0.0716 -0.5809 -1.0690
 1916lim     li11096   4.767   2.010   2.947 -0.3647  0.2833  0.3037
 1917lim     li11097   0.026   1.339   6.719  1.9618  0.1336 -0.7866
 1918lim     li11098   5.296   4.796   4.993 -0.6176 -0.9160 -0.7716
 1919lim     li11099   5.588   3.021   6.192  0.0416  0.3370  0.7909
 1920lim     li11100   2.906   0.804   1.154 -0.5912 -1.0949 -1.0876
 1921lim     li11101   5.643   0.695   6.137 -0.7191  1.8642 -1.2695
 1922lim     li11102   4.640   2.665   3.291 -0.7811  2.0790 -0.0321
 1923lim     li11103   3.016   0.173   4.395  0.0719 -0.2344  0.3214
 1924lim     li11104   3.246   2.365   4.985  0.8454 -0.0725  0.0633
 1925lim     li11105   6.854   6.162   4.337 -0.7090 -0.5413  0.6064
 1926lim     li11106   6.407   0.592   7.006 -0.3763  0.6195  0.8123
 1927lim     li11107   2.577   2.670   0.834 -0.0522 -0.0516  1.2140
 1928lim     li11108   0.121   2.947   0.805  0.1419 -0.6340 -0.3010
 1929lim     li11109   3.462   1.002   4.150 -0.0053 -0.2284  0.4860
 1930lim     li11110   4.170   3.787   3.253  0.3448 -0.7865  0.3507
 1931lim     li11111   3.937   6.602   3.695  0.7891  0.0967  0.1950
 1932lim     li11112   5.244   5.985   4.712  0.0968 -0.2962 -0.0026
 1933lim     li11113   3.257   4.150   1.833  0.5418  0.7934 -0.6089
 1934lim     li11114   1.807   6.704   1.717  0.2469 -0.4620  0.6693
 1935lim     li11115   2.348   0.147   6.395  0.1051 -0.0419 -0.5473
 1936lim     li11116   0.042   0.052   1.287  0.6289 -1.3593  0.8377
 1937lim     li11117   2.417   4.130   4.979 -0.0174  1.8164 -0.3823
 1938lim     li11118   5.175   3.947   4.702  0.3935 -0.2814 -0.2705
 1939lim     li11119   3.399   3.781   6.869 -0.5848  0.7770  1.1099
 1940lim     li11120   1.394   4.568   2.374 -0.7433 -0.0574  0.4273
 1941lim     li11121   3.094   3.942   5.090 -0.7872  0.3026 -0.2281
 1942lim     li11122   6.770   6.167   1.519 -0.1472 -0.7621 -1.2414
 1943lim     li11123   1.668   3.024   3.940  0.3244 -0.5263  0.4719
 1944lim     li11124   3.802   5.689   2.432  0.2883  0.1690  0.0288
 1945lim     li11125   0.794   1.317   4.846  0.1792 -0.1600  0.8676
 1946lim     li11126   4.586   2.037   5.367 -0.8963  1.1797 -0.0822
 1947lim     li11127   1.908   0.806   2.341 -1.0455 -0.0403 -0.0096
 1948lim     li11128   3.827   2.564   3.344 -0.3923  1.0117 -0.2922
 1949lim     li11129   5.852   6.082   6.702  0.6206  0.9736  0.2192
 1950lim     li11130   1.248   6.183   6.667 -0.2408 -0.0105 -0.1778
 1951lim     li11131   3.607   0.356   4.857  0.2258 -0.5855 -0.3843
 1952lim     li11132   0.201   0.592   5.120 -0.1460  0.6356 -0.9960
 1953lim     li11133   3.593   1.642   3.059 -0.1463  0.3261 -0.4963
 1954lim     li11134   2.342   0.906   0.003 -0.3167  0.3216  0.8007
 1955lim     li11135   4.490   4.389   4.874  0.6675  0.2121  0.6594
 1956lim     li11136   3.137   2.709   2.586  0.0781  0.3640 -0.2255
 1957lim     li11137   3.044   0.284   0.163  0.0092  0.3497 -0.4695
 1958lim     li11138   1.891   3.787   0.297  0.7217  0.2988 -0.8837
 1959lim     li11139   6.548   4.019   3.452 -1.0622  0.2792 -0.4843
 1960lim     li11140   6.906   2.057   5.620 -0.5400  0.3380  1.0303
 1961lim     li11141   5.137   4.869   5.969  0.2408  0.5792  0.6312
 1962lim     li11142   0.761   0.238   6.618  0.6576 -0.8952 -0.3464
 1963lim     li11143   6.569   3.392   6.270 -0.4190 -0.7988 -0.8990
 1964lim     li11144   2.180   2.063   0.511 -0.6186  0.7563  0.7143
 1965lim     li11145   3.462   2.179   5.701 -0.9602  0.3256  0.5989
 1966lim     li11146   4.281   5.346   5.191  0.3560  1.1941  1.2271
 1967lim     li11147   4.387   3.819   0.166  0.2854  0.2216 -0.2618
 1968lim     li11148   2.383   0.246   5.648 -0.3332 -0.5147  0.2589
 1969lim     li11149   1.145   4.388   0.217 -0.0948  1.0333  0.5670
 1970lim     li11150   3.929   3.919   6.159  1.2829  0.2217 -0.1102
 1971lim     li11151   1.090   3.865   3.189 -0.4475  0.7259 -0.3103
 1972lim     li11152   1.359   0.372   5.495  0.6232  0.1266 -0.6550
 1973lim     li11153   2.397   4.341   1.080 -0.2885 -0.5257 -0.4144
 1974lim     li11154   6.797   6.620   2.383 -0.8489 -0.4154 -0.2304
 1975lim     li11155   0.414   3.943   6.550 -0.5639  0.4680  0.1361
 1976lim     li11156   2.997   1.739   3.581  0.0682  0.1343  1.1434
 1977lim     li11157   2.736   2.472   6.781  0.2121  1.3107 -0.2974
 1978lim     li11158   3.849   0.806   1.471 -0.4726  0.1585  0.1333
 1979lim     li11159   4.555   5.637   5.998 -0.4446  0.1218 -0.0625
 1980lim     li11160   4.850   1.422   4.408  0.4327  0.1049  0.1224
 1981lim     li11161   2.487   1.371   6.293  0.6464  0.9457 -0.0544
 1982lim     li11162   6.458   1.012   1.231  0.7264 -0.4548 -0.6605
 1983lim     li11163   5.084   5.229   4.589 -0.0913  0.0540  0.6888
 1984lim     li11164   2.525   2.502   3.147 -0.1319 -0.2466  1.0771
 1985lim     li11165   0.364   5.419   3.803 -0.4822  0.7490  0.5060
 1986lim     li11166   1.847   5.968   3.183 -0.2229 -0.2042  1.1880
 1987lim     li11167   5.874   6.155   5.369  0.9430 -0.2999  0.3641
 1988lim     li11168   0.045   5.988   2.730  0.2534 -0.4008 -0.5249
 1989lim     li11169   1.096   3.470   0.560 -0.5235 -0.9630 -0.9662
 1990lim     li11170   2.092   1.459   3.348  0.5433  0.5251 -0.9373
 1991lim     li11171   6.206   0.850   3.914  1.0321 -1.2209  0.5412
 1992lim     li11172   1.238   1.433   2.552  0.8490  1.6898  1.1519
 1993lim     li11173   2.007   4.311   4.074 -0.3636 -0.0311  0.3548
 1994lim     li11174   1.015   1.286   6.557  0.9970  0.0453 -0.1224
 1995lim     li11175   0.652   1.811   0.860 -1.3786 -0.3350 -0.5989
 1996lim     li11176   3.570   5.448   5.536  1.0541  0.1907  0.6530
 1997lim     li11177   3.697   0.248   6.822 -0.1485  0.0585  0.1873
 1998lim     li11178   6.041   0.999   6.681 -0.1621 -0.7672  0.2616
 1999lim     li11179   5.178   3.129   5.126 -0.9193  0.0246  1.2576
 2000lim     li11180   4.156   4.499   4.245 -1.1801  0.3730 -0.4430
 2001lim     li11181   4.640   1.675   1.068  1.3073 -0.2463 -0.8982
 2002lim     li11182   0.830   0.605   3.080  1.0953  0.5392 -0.5250
 2003lim     li11183   5.740   5.832   3.969  1.0456  0.0557 -1.0426
 2004lim     li11184   0.437   1.897   2.304  0.4598 -0.2505 -0.2072
 2005lim     li11185   4.375   3.321   4.977 -0.1633 -0.8042  0.1868
 2006lim     li11186   3.975   3.760   1.003 -0.0591  0.6486  0.0135
 2007lim     li11187   6.939   3.660   6.855 -0.3979  0.1756 -0.1584
 2008lim     li11188   0.138   5.240   0.059 -0.4101  0.6470  0.3708
 2009lim     li11189   4.524   0.318   1.659 -0.6138  0.5534 -1.3159
 2010lim     li11190   4.893   2.543   0.855 -0.2296  0.3218 -0.8588
 2011lim     li11191   2.363   2.598   4.174  0.0189  0.3385  0.2856
 2012lim     li11192   4.461   1.781   0.229  0.3781 -1.4445 -0.0913
 2013lim     li11193   5.865   5.950   0.679  0.0949  0.2758  0.6532
 2014lim     li11194   0.438   3.730   0.866 -0.7270  0.1963 -0.4069
 2015lim     li11195   5.771   6.271   3.189  0.3084 -0.0467  0.1080
 2016lim     li11196   1.608   5.000   1.698 -0.1068 -0.1360  0.2762
 2017lim     li11197   6.528   6.166   2.915 -0.3445  0.1925  0.3526
 2018lim     li11198   2.825   6.137   2.228  0.5446  0.5942  0.1133
 2019lim     li11199   4.588   2.563   6.400 -1.8134  0.6808 -0.4789
 2020lim     li11200   5.964   0.225   3.417 -0.0027  0.6383 -0.5147
 2021lim     li11201   4.712   6.647   2.148 -0.3610 -0.2593  0.8178
 2022lim     li11202   5.218   4.290   0.637  1.4842 -0.5736  0.9868
 2023lim     li11203   4.079   4.421   1.007 -0.9157  0.3728 -0.1274
 2024lim     li11204   6.478   1.745   0.086  0.0833 -0.5979 -0.2016
 2025lim     li11205   3.331   3.072   1.674 -0.6132 -0.2542 -0.1043
 2026lim     li11206   2.522   2.643   1.884 -0.0738  0.7824 -0.8842
 2027lim     li11207   6.461   4.327   4.379 -0.5421 -1.0670  0.7834
 2028lim     li11208   0.876   3.782   1.252  0.0964 -0.6541  0.2113
 2029lim     li11209   2.320   5.586   0.453  0.0811 -0.3916 -0.0374
 2030lim     li11210   2.672   0.435   3.017 -0.5200 -0.2692  0.9529
 2031lim     li11211   4.800   3.752   1.314 -0.4228 -0.1800 -0.4301
 2032lim     li11212   0.317   5.934   5.344 -0.1246  0.1344 -0.0470
 2033lim     li11213   1.265   0.433   2.228  0.7852 -0.2909  0.6818
 2034lim     li11214   5.514   6.932   5.787 -0.3997 -0.0255 -1.0840
 2035lim     li11215   3.710   2.237   2.136  0.6228  0.4828 -0.4943
 2036lim     li11216   1.615   5.379   0.285  0.4087  0.8388  1.0539
 2037lim     li11217   3.724   0.278   3.689  1.2751  0.3376 -0.0061
 2038lim     li11218   3.625   3.310   2.241 -0.3815 -0.8361 -0.2411
 2039lim     li11219   6.492   5.627   0.101  0.1027  0.6385 -0.8176
 2040lim     li11220   6.446   4.527   1.736 -0.7107  0.2758  1.5510
 2041lim     li11221   2.839   5.021   1.741  0.1810  0.9583  0.5771
 2042lim     li11222   1.134   3.751   4.118 -0.4531 -0.4981 -0.6457
 2043lim     li11223   3.885   0.419   2.575 -1.0874  0.4657  0.1666
 2044lim     li11224   0.118   6.512   3.424  0.5555 -1.5900 -0.0158
 2045lim     li11225   1.357   4.238   0.994 -0.2310  0.6407  0.6759
 2046lim     li11226   6.394   5.838   5.939 -1.6228  0.1938 -0.8175
 2047lim     li11227   3.050   4.340   3.525 -0.9339  0.7640  0.9285
 2048lim     li11228   0.773   3.307   2.627 -0.2843  0.0000  0.0880
 2049lim     li11229   4.858   3.874   5.753 -0.2286  0.4488  0.1315
 2050lim     li11230   6.177   3.026   4.298 -1.1086  0.5596 -0.4216
 2051lim     li11231   0.913   6.566   4.192  1.0004  0.8421 -0.5749
 2052lim     li11232   3.029   3.378   3.262  0.6145 -0.4110  1.0305
 2053lim     li11233   2.879   5.586   6.185 -1.1812  0.4614 -0.4459
 2054lim     li11234   3.273   6.412   2.077 -0.7326  0.5742  0.5919
 2055lim     li11235   4.353   3.369   6.025  0.4173  0.4532 -0.9953
 2056lim     li11236   1.944   0.018   0.100  0.0658  0.0956  1.5863
 2057lim     li11237   3.273   6.003   3.600 -0.1093  0.5113 -0.3573
 2058lim     li11238   4.113   2.207   1.306  0.3442 -1.0709 -0.9377
 2059lim     li11239   4.598   1.431   6.343 -1.1664  0.6375 -0.8129
 2060lim     li11240   5.877   1.634   1.109  0.4325 -0.0306  0.2355
 2061lim     li11241   1.042   1.690   1.873 -0.6899  0.0829 -0.1090
 2062lim     li11242   2.875   6.597   2.757  1.2464  0.8363  0.3740
 2063lim     li11243   1.830   4.916   3.597  1.2865 -0.1605 -0.5420
 2064lim     li11244   4.629   4.818   0.539  1.4134 -0.8622 -0.3848
 2065lim     li11245   6.527   3.728   0.950  0.1708  0.9237  0.9475
 2066lim     li11246   2.957   3.017   0.231 -0.3967 -0.6177  0.2447
 2067lim     li11247   3.589   6.809   0.829  0.8690 -0.1919 -0.8326
 2068lim     li11248   4.485   3.502   3.942 -1.3750  0.1079 -0.3832
 2069lim     li11249   0.850   5.558   6.486 -0.1870  0.1183  0.1333
 2070lim     li11250   2.395   1.470   4.369  0.8465 -0.9230 -0.4714
 2071lim     li11251   2.098   0.333   3.948  0.4877  0.0793  0.2568
 2072lim     li11252   1.880   3.244   3.001  0.2792  0.1226  0.9438
 2073lim     li11253   4.924   2.688   5.653  0.5933  0.1168  0.6358
 2074lim     li11254   5.092   2.406   6.802  0.2809 -0.9374 -0.5739
 2075lim     li11255   5.368   1.417   3.245 -0.1792  0.1794  0.3169
 2076lim     li11256   3.839   3.965   5.236 -1.2269  1.4690 -0.0152
 2077lim     li11257   4.771   6.876   6.475  0.5314  0.4383 -0.0746
 2078lim     li11258   2.678   4.638   5.340  0.9961  1.4579 -0.0662
 2079lim     li11259   4.492   1.817   3.765  0.3632 -0.7391  0.5375
 2080lim     li11260   0.405   4.692   5.183  0.2992 -1.0103  1.1008
 2081lim     li11261   3.159   3.089   5.428  0.0084 -0.5667  0.4219
 2082lim     li11262   3.635   2.496   0.665 -0.8634 -1.8819 -1.1267
 2083lim     li11263   3.140   5.624   4.258  0.6952 -0.4784  1.0213
 2084lim     li11264   2.744   3.620   1.620 -0.1718  1.0208 -0.3740
 2085lim     li11265   4.964   1.127   2.567 -0.2625 -0.4331 -0.2239
 2086lim     li11266   0.419   0.187   3.965 -1.2155  0.4668  0.0299
 2087lim     li11267   1.183   1.535   5.526  0.1287  0.8059 -1.0305
 2088lim     li11268   4.003   3.195   3.238  0.3232 -0.3044  0.7481
 2089lim     li11269   6.663   4.000   5.229  0.6056 -0.5511  0.5830
 2090lim     li11270   6.537   1.843   2.592 -0.3835  0.8440 -0.4948
 2091lim     li11271   4.936   5.996   6.790 -0.0101  0.1653  0.4042
 2092lim     li11272   6.746   5.052   2.451 -0.2016 -0.4180 -0.6899
 2093lim     li11273   0.257   4.393   0.699  0.0107 -0.1527  0.5703
 2094lim     li11274   2.402   5.609   1.554  0.8285  0.5886  0.6426
 2095lim     li11275   0.826   4.639   3.979 -0.9236  0.3682  0.0300
 2096lim     li11276   3.698   0.819   5.846  1.0378  0.3981  0.0303
 2097lim     li11277   5.026   6.085   2.333 -1.2407 -0.4484 -1.2501
 2098lim     li11278   5.837   4.626   0.921 -0.3951 -0.1270  0.1987
 2099lim     li11279   0.342   5.638   2.440  0.3787 -0.7083 -1.3459
 2100lim     li11280   4.736   0.003   4.589 -0.6282  1.0594 -0.4866
 2101lim     li11281   2.987   1.189   5.048 -0.7927  1.0008 -0.2146
 2102lim     li11282   3.450   1.424   1.829  0.3678  0.1048 -0.1582
 2103lim     li11283   5.535   3.281   2.625  0.3511 -0.7909  0.0251
 2104lim     li11284   0.695   1.343   3.924  0.1633 -0.2359 -0.3519
 2105lim     li11285   5.566   1.164   1.596  0.2971 -0.6006 -0.2441
 2106lim     li11286   0.781   2.700   0.882 -0.3093 -0.6575 -0.8713
 2107lim     li11287   3.310   3.613   0.900 -0.6532  1.1238 -0.5847
 2108lim     li11288   2.927   2.053   1.509 -0.1538  0.3007  0.3921
 2109lim     li11289   3.426   3.103   1.051 -0.2561  0.7523 -0.0103
 2110lim     li11290   1.566   0.933   5.896 -0.0350 -0.8210  0.2965
 2111lim     li11291   4.052   4.552   6.624 -0.4194  0.3914 -1.3107
 2112lim     li11292   5.358   6.311   1.519  0.6808 -0.6272 -0.1517
 2113lim     li11293   1.731   6.919   1.184  0.1415 -0.2755  0.7123
 2114lim     li11294   4.098   6.490   1.566  0.0652 -0.3270 -0.4169
 2115lim     li11295   0.909   0.281   1.799  0.1194 -0.5901  0.6673
 2116lim     li11296   5.770   5.305   1.492 -0.6913  0.1664  0.7407
 2117lim     li11297   6.095   5.425   5.221 -1.1923 -1.3882  0.1793
 2118lim     li11298   2.962   1.187   3.030 -0.6571 -1.5207  0.3495
 2119lim     li11299   0.084   3.874   1.708  0.2769  0.5729  1.1811
 2120lim     li11300   2.390   1.368   1.590  1.1195 -0.3538  0.7333
 2121lim     li11301   6.127   6.218   2.337 -1.3324 -0.8099  0.8291
 2122lim     li11302   0.097   4.816   4.491  0.3141 -0.2711 -0.0014
 2123lim     li11303   6.920   3.180   1.718  0.7013 -0.8203  0.5855
 2124lim     li11304   0.354   0.323   0.205 -0.6725 -0.7618 -0.5365
 2125lim     li11305   4.406   5.765   1.633  0.1682  0.3110  1.5184
 2126lim     li11306   0.499   6.561   4.602  0.2275  1.1718 -0.6752
 2127lim     li11307   1.369   2.784   1.541 -0.1280 -0.1487  0.1081
 2128lim     li11308   4.457   0.992   6.930 -0.2309 -1.1007 -1.0967
 2129lim     li11309   6.058   3.920   0.609 -0.4901 -0.0837 -0.2830
 2130lim     li11310   2.913   2.930   4.288  0.3942 -0.8620  0.6487
 2131lim     li11311   4.424   3.152   1.743  0.3525 -0.5849  1.1085
 2132lim     li11312   0.931   2.703   6.899  0.0411  1.0390  0.9611
 2133lim     li11313   6.633   2.645   5.298  0.6515  0.8592  0.0684
 2134lim     li11314   0.294   1.756   6.007 -0.3533 -0.9191  0.7860
 2135lim     li11315   3.811   5.403   3.430 -1.9285 -0.4697  0.2550
 2136lim     li11316   3.264   3.786   3.778 -0.1968 -0.1873 -0.4050
 2137lim     li11317   5.013   5.285   0.047 -0.8647  0.8398  0.5041
 2138lim     li11318   2.570   5.862   4.667 -0.4178  0.4526 -0.4810
 2139lim     li11319   3.817   3.158   6.795  0.5463  0.0698  0.0755
 2140lim     li11320   5.871   2.266   4.604  0.6971 -0.6252  0.5129
 2141lim     li11321   0.873   2.280   4.658  0.5752  1.1382 -0.0096
 2142lim     li11322   5.320   4.557   2.733  0.3668  0.0071 -0.5735
 2143lim     li11323   2.413   6.275   3.625 -1.4747  0.0969  0.0882
 2144lim     li11324   2.981   5.397   6.899 -0.3663  0.6071 -0.5190
 2145lim     li11325   2.834   1.689   2.615 -0.2361 -0.2762  0.0890
 2146lim     li11326   2.951   4.598   6.336 -0.5904 -0.0959 -0.8830
 2147lim     li11327   0.205   3.194   4.042 -0.0144 -0.0299 -0.5225
 2148lim     li11328   4.063   6.044   5.886 -0.1068  0.6136  0.3177
 2149lim     li11329   3.318   6.113   4.340  0.6423 -0.7225  0.0164
 2150lim     li11330   0.897   6.369   5.645 -0.1481 -0.1706 -0.0984
 2151lim     li11331   3.861   2.727   2.605 -0.5092 -0.1095  1.0530
 2152lim     li11332   3.747   5.326   6.481  0.1085  0.0300 -0.5806
 2153lim     li11333   5.018   5.429   0.886 -0.0805 -0.2068  0.2374
 2154lim     li11334   4.298   0.820   3.907 -0.1285 -0.9171 -0.1791
 2155lim     li11335   2.732   1.973   5.606 -0.8375 -0.9087  0.8210
 2156lim     li11336   3.442   4.801   1.612  0.0447  0.0672  0.3823
 2157lim     li11337   0.350   4.033   3.286 -0.0619  0.4793 -0.2279
 2158lim     li11338   6.145   4.791   5.113  0.3423  0.5078  0.3545
 2159lim     li11339   0.859   5.917   2.250  0.4064  0.0626  0.3801
 2160lim     li11340   2.583   6.258   5.446  0.2967 -0.2404  0.2601
 2161ntf    cn111341   1.517   4.034   5.563  0.0750  0.5319 -0.5734
 2161ntf    sn211342   1.342   4.078   5.581 -0.0154 -0.1008  0.1427
 2161ntf    nn311343   1.272   3.961   5.658 -0.5457  0.0424 -0.1157
 2161ntf    sn211344   1.189   3.960   5.791 -0.1397  0.3136  0.1417
 2161ntf    cn111345   1.326   3.927   5.905 -0.2216  0.5046  0.2965
 2161ntf    fn411346   1.533   3.932   5.481  0.5333  0.1412 -0.0050
 2161ntf    fn411347   1.584   4.128   5.498  0.3615  0.4807 -0.3594
 2161ntf    fn411348   1.582   3.996   5.673 -0.4710  0.3725 -0.3057
 2161ntf    on511349   1.349   4.204   5.651 -0.7658  0.1723 -0.2581
 2161ntf    on511350   1.292   4.081   5.446 -0.8013  0.3269  0.4371
 2161ntf    on511351   1.099   3.847   5.793  0.1011  0.1234  0.1529
 2161ntf    on511352   1.134   4.089   5.826  0.2283  0.5036  0.0251
 2161ntf    fn411353   1.296   3.958   6.030 -0.0694  0.6043  0.3094
 2161ntf    fn411354   1.362   3.801   5.891  0.2737  0.6996 -0.2532
 2161ntf    fn411355   1.435   3.996   5.873 -0.1619  0.5595  0.6146
 2162ntf    cn111356   2.576   5.845   0.023  0.2296 -0.1602 -0.1773
 2162ntf    sn211357   2.534   6.016  -0.021  0.2301 -0.0750  0.1514
 2162ntf    nn311358   2.381   6.009   0.009  0.1415  1.0538  0.0033
 2162ntf    sn211359   2.300   6.061   0.133 -0.2462  0.2462  0.0913
 2162ntf    cn111360   2.134   6.085   0.064 -0.3057  0.3789  0.2789
 2162ntf    fn411361   2.499   5.762  -0.047 -0.4622  0.5143 -0.2278
 2162ntf    fn411362   2.703   5.820  -0.001  0.2272 -0.4313  0.0854
 2162ntf    fn411363   2.551   5.812   0.149  0.8591 -0.1393 -0.0454
 2162ntf    on511364   2.612   6.103   0.063 -0.0360  0.0297  0.2900
 2162ntf    on511365   2.573   6.015  -0.160 -0.4376 -0.4077 -0.0353
 2162ntf    on511366   2.327   6.194   0.181  0.0801  0.1584  0.1500
 2162ntf    on511367   2.288   5.949   0.224  0.0439  0.0993 -0.0504
 2162ntf    fn411368   2.080   5.971   0.024  0.1789  0.2031  0.1160
 2162ntf    fn411369   2.048   6.129   0.155 -0.3236  0.8440  0.0416
 2162ntf    fn411370   2.133   6.173  -0.035 -0.2516  0.2872  0.1969
 2163ntf    cn111371   6.540   2.518   4.782  0.4631 -0.0760 -0.2576
 2163ntf    sn211372   6.547   2.641   4.649  0.2104  0.0209 -0.1824
 2163ntf    nn311373   6.616   2.552   4.539 -0.1852 -1.0159  0.3953
 2163ntf    sn211374   6.565   2.503   4.399 -0.1303  0.5597 -0.1996
 2163ntf    cn111375   6.711   2.557   4.307  0.3062  0.2328  0.2936
 2163ntf    fn411376   6.460   2.415   4.756 -0.1390  0.4247 -0.4212
 2163ntf    fn411377   6.653   2.458   4.815  0.0710 -0.4896  0.3781
 2163ntf    fn411378   6.502   2.580   4.892  0.2334  0.2116 -0.4981
 2163ntf    on511379   6.410   2.677   4.621  0.1908  0.0472 -0.0513
 2163ntf    on511380   6.639   2.737   4.705 -0.3192  0.1629  0.4579
 2163ntf    on511381   6.450   2.573   4.346 -0.5026  0.1848  0.1049
 2163ntf    on511382   6.560   2.360   4.381  0.3675  0.4492  0.5216
 2163ntf    fn411383   6.822   2.507   4.359  0.2824  0.4918  0.5966
 2163ntf    fn411384   6.701   2.516   4.181 -0.8601 -0.5134  0.6152
 2163ntf    fn411385   6.728   2.688   4.304  0.0617  0.2520 -0.8036
 2164ntf    cn111386   1.584   2.169   0.284  0.2460 -0.4012 -0.0931
 2164ntf    sn211387   1.700   2.154   0.424  0.2350  0.4213  0.0101
 2164ntf    nn311388   1.831   2.139   0.340 -0.1513  0.1679 -0.5530
 2164ntf    sn211389   1.914   2.011   0.301  0.2220  0.2093  0.0894
 2164ntf    cn111390   1.948   2.058   0.128  0.0227  0.4087  0.1041
 2164ntf    fn411391   1.566   2.300   0.275  0.3184 -0.3544  0.3825
 2164ntf    fn411392   1.622   2.130   0.164 -0.0881 -0.1869 -0.2687
 2164ntf    fn411393   1.468   2.113   0.314  0.2069 -0.1937  0.1446
 2164ntf    on511394   1.693   2.280   0.494  0.0460  0.5291 -0.2014
 2164ntf    on511395   1.671   2.034   0.499 -0.2733  0.2756 -0.4102
 2164ntf    on511396   1.845   1.884   0.293  0.1682  0.2513 -0.1319
 2164ntf    on511397   2.045   2.006   0.360 -0.1960 -0.1429  1.0038
 2164ntf    fn411398   1.839   2.063   0.053 -0.0253  0.1070  0.1524
 2164ntf    fn411399   1.991   2.183   0.130  0.2504  0.3350 -0.1430
 2164ntf    fn411400   2.030   1.978   0.063 -0.3198 -0.2247  0.4428
 2165ntf    cn111401   3.963   4.946   3.060  0.2916 -0.0620  0.2453
 2165ntf    sn211402   3.915   4.777   3.014  0.6652 -0.2291  0.4643
 2165ntf    nn311403   4.026   4.744   2.908  0.2562  0.0220 -0.0466
 2165ntf    sn211404   4.151   4.650   2.911  0.3065  0.0872 -0.0853
 2165ntf    cn111405   4.097   4.508   2.810  0.5701 -0.2227  0.2039
 2165ntf    fn411406   3.897   4.989   3.166 -0.5261 -0.3580 -0.1326
 2165ntf    fn411407   4.092   4.962   3.083  0.4649 -0.1622 -0.6231
 2165ntf    fn411408   3.938   5.035   2.965 -0.0806 -0.3278  0.0909
 2165ntf    on511409   3.906   4.710   3.142 -0.0769 -0.9092  0.0686
 2165ntf    on511410   3.794   4.809   2.942  0.2567 -0.3715  1.0753
 2165ntf    on511411   4.179   4.602   3.044 -1.0404  0.2523  0.2709
 2165ntf    on511412   4.266   4.706   2.844  0.0482  0.3760 -0.2883
 2165ntf    fn411413   4.057   4.548   2.691 -0.5036 -0.2957  0.5278
 2165ntf    fn411414   4.200   4.428   2.791  0.7893  0.0813  0.0989
 2165ntf    fn411415   4.006   4.432   2.869 -0.2719  0.7242  0.1765
 2166ntf    cn111416   5.761   4.018   6.097  0.3604  0.0944  0.1489
 2166ntf    sn211417   5.885   4.143   6.142  0.2348  0.2669  0.0217
 2166ntf    nn311418   6.016   4.073   6.090 -0.2070 -0.1817 -0.4912
 2166ntf    sn211419   6.101   4.119   5.966  0.4019  0.3776  0.1311
 2166ntf    cn111420   6.258   4.040   6.014  0.0738 -0.3246  0.0660
 2166ntf    fn411421   5.757   3.984   5.969  0.2160 -0.2809  0.2535
 2166ntf    fn411422   5.769   3.903   6.160 -0.5597  0.1451  0.3725
 2166ntf    fn411423   5.642   4.067   6.129  0.1146 -0.3607 -0.0555
 2166ntf    on511424   5.835   4.252   6.062 -0.4174 -0.0546 -0.0140
 2166ntf    on511425   5.876   4.151   6.286 -0.1372  0.4156 -0.0081
 2166ntf    on511426   6.139   4.257   5.960  0.3126  0.3728 -0.5594
 2166ntf    on511427   6.068   4.059   5.839 -0.2484  0.1910  0.3822
 2166ntf    fn411428   6.244   3.909   6.025  0.2650 -0.4273 -0.7922
 2166ntf    fn411429   6.356   4.070   5.929 -0.4933  0.4127 -0.3380
 2166ntf    fn411430   6.297   4.082   6.133 -0.1686 -0.9233  0.3573
 2167ntf    cn111431   4.508   1.636   2.100 -0.0898  0.1415  0.0356
 2167ntf    sn211432   4.447   1.761   2.217 -0.3306  0.1673 -0.1160
 2167ntf    nn311433   4.409   1.882   2.124 -0.4538  0.3199  0.1305
 2167ntf    sn211434   4.433   2.037   2.133 -0.3796  0.3186 -0.0344
 2167ntf    cn111435   4.578   2.047   2.023 -0.0801 -0.0260  0.3254
 2167ntf    fn411436   4.542   1.521   2.156 -0.4766 -0.0364 -0.0864
 2167ntf    fn411437   4.426   1.614   1.998 -0.2995 -0.0982  0.2513
 2167ntf    fn411438   4.616   1.680   2.039 -0.2843  0.5354 -0.0293
 2167ntf    on511439   4.343   1.694   2.291  0.0956 -0.2546  0.1044
 2167ntf    on511440   4.569   1.783   2.290 -0.3352  0.1572 -0.1043
 2167ntf    on511441   4.489   2.074   2.261 -0.4860 -0.1206  0.1414
 2167ntf    on511442   4.332   2.116   2.068 -0.3045  0.2237 -0.2697
 2167ntf    fn411443   4.558   1.979   1.912  0.1977 -0.0943  0.3160
 2167ntf    fn411444   4.599   2.174   1.992  0.2015 -0.0382  0.4600
 2167ntf    fn411445   4.690   2.004   2.080 -0.3571 -0.5092  0.5135
 2168ntf    cn111446   2.594   4.295   2.940  0.6618 -0.2355  0.0556
 2168ntf    sn211447   2.542   4.235   2.776 -0.5419 -0.0414  0.3563
 2168ntf    nn311448   2.566   4.361   2.687  0.4122 -0.9051 -0.6294
 2168ntf    sn211449   2.701   4.414   2.626  0.3033  0.0663 -0.0557
 2168ntf    cn111450   2.676   4.345   2.459  0.3558 -0.1311  0.0175
 2168ntf    fn411451   2.722   4.326   2.945  0.6417 -0.1257 -0.1053
 2168ntf    fn411452   2.547   4.414   2.973  0.7196 -0.2254  0.1015
 2168ntf    fn411453   2.579   4.203   3.035 -0.0087 -0.6162 -0.4084
 2168ntf    on511454   2.632   4.126   2.749  0.1228  0.5794  0.0363
 2168ntf    on511455   2.403   4.207   2.802 -0.5623 -0.2109  0.0624
 2168ntf    on511456   2.825   4.353   2.667  0.2225 -0.3340 -0.3946
 2168ntf    on511457   2.701   4.557   2.618 -1.1893  0.0908  0.1233
 2168ntf    fn411458   2.622   4.225   2.476 -0.3409  0.1543 -0.1316
 2168ntf    fn411459   2.598   4.417   2.381  0.0394 -0.9489 -0.4331
 2168ntf    fn411460   2.793   4.327   2.402  0.5716 -0.3371  0.5137
 2169ntf    cn111461   6.498   6.555   1.285 -0.5432 -0.0702 -0.1457
 2169ntf    sn211462   6.498   6.672   1.146  0.1952 -0.2569 -0.3056
 2169ntf    nn311463   6.651   6.705   1.126 -0.0234  1.0544  0.1159
 2169ntf    sn211464   6.757   6.682   1.013 -0.0791 -0.3928  0.3337
 2169ntf    cn111465   6.752   6.847   0.935  0.1092 -0.6284 -0.1793
 2169ntf    fn411466   6.546   6.433   1.266 -0.3203 -0.0928  0.5653
 2169ntf    fn411467   6.577   6.601   1.381 -0.3452 -0.5842 -0.0595
 2169ntf    fn411468   6.380   6.554   1.344 -0.3983  0.4609  0.1593
 2169ntf    on511469   6.438   6.595   1.040  0.3250 -0.4424 -0.2450
 2169ntf    on511470   6.434   6.791   1.195  0.4186 -0.4549  0.4813
 2169ntf    on511471   6.718   6.591   0.909  0.6715 -0.1057 -0.2057
 2169ntf    on511472   6.892   6.670   1.064  0.0034 -0.9002 -0.0019
 2169ntf    fn411473   6.846   6.925   0.985 -0.4814 -0.2014  0.2879
 2169ntf    fn411474   6.776   6.855   0.805 -0.2142 -0.2659 -0.2174
 2169ntf    fn411475   6.641   6.915   0.962  0.6643  0.2631 -0.1204
 2170ntf    cn111476   1.720   2.830   4.921 -0.0124  0.0452 -0.2003
 2170ntf    sn211477   1.706   2.658   4.864 -0.0468  0.1025 -0.3655
 2170ntf    nn311478   1.592   2.688   4.761 -0.5275  0.2105  0.1955
 2170ntf    sn211479   1.508   2.581   4.683 -0.0458 -0.0962  0.0940
 2170ntf    cn111480   1.345   2.602   4.763  0.1205 -0.0949  0.4357
 2170ntf    fn411481   1.766   2.913   4.830 -0.2676  0.4880  0.0706
 2170ntf    fn411482   1.599   2.880   4.943  0.1600  0.3901 -0.0343
 2170ntf    fn411483   1.793   2.841   5.031  0.3268 -0.0709 -0.4127
 2170ntf    on511484   1.833   2.621   4.807  0.3559  0.2954  0.3885
 2170ntf    on511485   1.653   2.579   4.973  0.1827  0.2673 -0.1308
 2170ntf    on511486   1.538   2.443   4.713  0.6189  0.0658  0.1852
 2170ntf    on511487   1.480   2.616   4.546  0.4396 -0.0059  0.0182
 2170ntf    fn411488   1.251   2.517   4.723  0.4368 -0.1691 -0.1649
 2170ntf    fn411489   1.363   2.578   4.892  0.5781  0.3609  0.4605
 2170ntf    fn411490   1.300   2.725   4.746 -0.4608 -0.3459  0.1135
 2171ntf    cn111491   5.946   3.479   6.070  0.4599  0.2938 -0.1260
 2171ntf    sn211492   5.785   3.524   5.998  0.3205  0.0837  0.0508
 2171ntf    nn311493   5.748   3.398   5.912  0.2410  0.1551 -0.0191
 2171ntf    sn211494   5.670   3.395   5.775  0.1048  0.0085  0.0617
 2171ntf    cn111495   5.591   3.232   5.787 -0.1999  0.1563  0.0588
 2171ntf    fn411496   5.943   3.374   6.150 -0.4576  0.5029  0.1259
 2171ntf    fn411497   6.040   3.459   5.980 -0.1536 -0.2403 -0.6557
 2171ntf    fn411498   5.986   3.576   6.151 -0.1266  0.3377  0.1125
 2171ntf    on511499   5.704   3.544   6.115  0.0324  0.5118 -0.2174
 2171ntf    on511500   5.817   3.645   5.925 -0.5462  0.3561  0.1093
 2171ntf    on511501   5.767   3.372   5.671  0.4096  0.6263  0.2014
 2171ntf    on511502   5.563   3.489   5.755  0.2763  0.3257  0.6012
 2171ntf    fn411503   5.678   3.133   5.791 -0.2313  0.1073 -0.4499
 2171ntf    fn411504   5.508   3.210   5.888  0.2138  0.1890  0.4110
 2171ntf    fn411505   5.515   3.207   5.682 -0.3628  0.5965  0.0696
 2172ntf    cn111506   4.633   4.073   1.003 -0.2338 -0.2700  0.2800
 2172ntf    sn211507   4.465   4.085   0.934 -0.1140  0.3685  0.0935
 2172ntf    nn311508   4.497   4.035   0.789 -0.4792  0.3913  0.0029
 2172ntf    sn211509   4.397   3.953   0.700 -0.1535  0.0939 -0.0943
 2172ntf    cn111510   4.458   3.787   0.740 -0.0276  0.1581 -0.0181
 2172ntf    fn411511   4.668   3.951   1.041  0.2870  0.0281  0.7608
 2172ntf    fn411512   4.718   4.112   0.909 -0.2754 -0.1888  0.2759
 2172ntf    fn411513   4.647   4.161   1.101 -0.3985  0.3792 -0.2702
 2172ntf    on511514   4.400   3.996   1.027  0.1726 -0.0419 -0.0948
 2172ntf    on511515   4.433   4.225   0.949 -0.1058  0.3770  0.0313
 2172ntf    on511516   4.423   3.963   0.559  0.1824 -0.5067 -0.0766
 2172ntf    on511517   4.258   3.952   0.741 -0.0245  0.3375  0.3602
 2172ntf    fn411518   4.585   3.765   0.710  0.1900  0.4817  0.6503
 2172ntf    fn411519   4.443   3.758   0.869 -0.6579 -0.2222 -0.1712
 2172ntf    fn411520   4.397   3.690   0.674  0.4858 -0.1448 -0.0529
 2173ntf    cn111521   0.437   4.977   6.549  0.0776  0.0692 -0.1387
 2173ntf    sn211522   0.380   4.811   6.504 -0.0895  0.1723 -0.3088
 2173ntf    nn311523   0.519   4.740   6.489 -0.2702 -0.1949 -0.2796
 2173ntf    sn211524   0.624   4.732   6.372 -0.0003  0.1356 -0.0658
 2173ntf    cn111525   0.588   4.564   6.312 -0.0641  0.0012  0.3438
 2173ntf    fn411526   0.337   5.053   6.590  0.5488  0.5238  0.1788
 2173ntf    fn411527   0.527   4.967   6.646 -0.2529  0.4626  0.2172
 2173ntf    fn411528   0.500   5.035   6.448 -0.1731  0.3056 -0.1579
 2173ntf    on511529   0.319   4.772   6.629  0.0560 -0.0058 -0.2934
 2173ntf    on511530   0.298   4.826   6.386 -0.2985 -0.9491 -0.3225
 2173ntf    on511531   0.756   4.726   6.430 -0.0117 -0.3470 -0.0815
 2173ntf    on511532   0.602   4.820   6.260  0.5941  0.3133 -0.0418
 2173ntf    fn411533   0.595   4.481   6.415  0.1977 -0.0624  0.2765
 2173ntf    fn411534   0.470   4.549   6.254  0.2122 -0.6820 -0.0547
 2173ntf    fn411535   0.679   4.529   6.223 -0.2625 -0.2125  0.2240
 2174ntf    cn111536   4.281   0.585   0.360 -0.5382  0.2891 -0.1167
 2174ntf    sn211537   4.355   0.728   0.277  0.1061  0.0570  0.0516
 2174ntf    nn311538   4.286   0.846   0.354  0.3573  0.2578 -0.0275
 2174ntf    sn211539   4.322   0.998   0.337  0.3464  0.2684  0.0458
 2174ntf    cn111540   4.277   1.085   0.490  0.1862 -0.0978  0.2092
 2174ntf    fn411541   4.151   0.561   0.346 -0.5177  0.4378 -0.5647
 2174ntf    fn411542   4.333   0.470   0.321 -0.3525  0.2729  0.1741
 2174ntf    fn411543   4.287   0.580   0.492 -0.0097  0.2083 -0.1449
 2174ntf    on511544   4.496   0.712   0.304  0.0069 -0.4316  0.2830
 2174ntf    on511545   4.317   0.717   0.138  0.0354 -0.0200  0.0772
 2174ntf    on511546   4.240   1.062   0.237  0.5192  0.1613 -0.1635
 2174ntf    on511547   4.464   1.018   0.327  0.3387 -0.0732 -0.8238
 2174ntf    fn411548   4.277   1.214   0.462  0.3200 -0.0576  0.3880
 2174ntf    fn411549   4.159   1.052   0.539  0.1938 -0.4186  0.0093
 2174ntf    fn411550   4.366   1.062   0.586  0.2205  0.0687  0.2179
 2175ntf    cn111551   0.132   0.144   6.674 -0.5611 -0.1392  0.2978
 2175ntf    sn211552   0.246   0.235   6.565 -0.3077 -0.4377  0.3128
 2175ntf    nn311553   0.309   0.328   6.675  0.0423  0.2194 -0.4361
 2175ntf    sn211554   0.456   0.373   6.708  0.0656 -0.0997 -0.1034
 2175ntf    cn111555   0.430   0.535   6.630  0.3647 -0.1697 -0.3488
 2175ntf    fn411556   0.055   0.224   6.746 -0.6441 -0.2575  0.3399
 2175ntf    fn411557   0.054   0.068   6.600  0.0786  0.2293 -0.7779
 2175ntf    fn411558   0.208   0.081   6.762 -0.3328  0.0918  0.2702
 2175ntf    on511559   0.328   0.126   6.518 -0.3440 -0.3731  0.1005
 2175ntf    on511560   0.153   0.293   6.472  0.2979 -0.6908 -0.4575
 2175ntf    on511561   0.562   0.310   6.633  0.6314  0.1804  0.4518
 2175ntf    on511562   0.479   0.397   6.849 -0.2724  0.0373 -0.0687
 2175ntf    fn411563   0.352   0.612   6.704  0.3617 -0.4770 -0.0298
 2175ntf    fn411564   0.536   0.610   6.607  0.0273  0.4574  0.1327
 2175ntf    fn411565   0.362   0.519   6.517 -0.4299 -0.1229  0.1170
 2176ntf    cn111566   5.431   5.694   4.163 -0.2191  0.1731 -0.0453
 2176ntf    sn211567   5.556   5.789   4.254 -0.0570 -0.2863  0.2120
 2176ntf    nn311568   5.608   5.689   4.363 -0.4300 -0.8730 -0.1431
 2176ntf    sn211569   5.745   5.612   4.371  0.0894  0.0656  0.1152
 2176ntf    cn111570   5.810   5.704   4.514 -0.0408  0.0103  0.2103
 2176ntf    fn411571   5.465   5.578   4.109 -0.4141  0.1194 -0.0522
 2176ntf    fn411572   5.329   5.668   4.244 -0.6848 -0.0712 -0.6978
 2176ntf    fn411573   5.374   5.767   4.068 -0.5623 -0.1285 -0.0740
 2176ntf    on511574   5.648   5.819   4.148 -0.3508 -0.4912 -0.1012
 2176ntf    on511575   5.481   5.899   4.311 -0.3343 -0.2233 -0.2732
 2176ntf    on511576   5.853   5.638   4.280  0.0143  0.1992  0.0643
 2176ntf    on511577   5.724   5.482   4.430  0.1129 -0.2025 -0.4713
 2176ntf    fn411578   5.723   5.704   4.614  0.0510  0.6363  0.2955
 2176ntf    fn411579   5.929   5.662   4.554  0.2227  0.4613 -0.0930
 2176ntf    fn411580   5.818   5.835   4.498 -0.7074  0.0453  0.1370
 2177ntf    cn111581   5.665   2.808   6.584 -0.3283 -0.1252 -0.9049
 2177ntf    sn211582   5.701   2.976   6.524  0.0736  0.1735  0.1444
 2177ntf    nn311583   5.856   2.971   6.505 -0.0094 -0.4048 -0.4034
 2177ntf    sn211584   5.944   2.933   6.380  0.0393  0.0065 -0.4962
 2177ntf    cn111585   6.095   2.867   6.457 -0.0165  0.2545 -0.1737
 2177ntf    fn411586   5.762   2.731   6.537 -0.1051 -0.2553 -0.2400
 2177ntf    fn411587   5.687   2.786   6.713  0.0053  0.3100 -0.8857
 2177ntf    fn411588   5.549   2.762   6.541 -0.8151 -0.1313  0.3687
 2177ntf    on511589   5.629   3.001   6.402  0.0127 -0.0902  0.1252
 2177ntf    on511590   5.668   3.064   6.634 -0.0979  0.2335  0.0466
 2177ntf    on511591   5.997   3.054   6.322  0.1626  0.1176 -0.1582
 2177ntf    on511592   5.890   2.826   6.300 -0.0280 -0.1876 -0.1951
 2177ntf    fn411593   6.173   2.817   6.363  0.1485  0.0703  0.0593
 2177ntf    fn411594   6.173   2.956   6.517  0.2399 -0.1650  0.1248
 2177ntf    fn411595   6.074   2.770   6.544  0.1715  0.2135 -0.1725
 2178ntf    cn111596   3.580   3.540   6.079  0.0925  0.3962  0.2387
 2178ntf    sn211597   3.637   3.506   6.248  0.2570  0.2540  0.1564
 2178ntf    nn311598   3.714   3.640   6.278 -0.2290  0.5423  0.1426
 2178ntf    sn211599   3.862   3.647   6.330 -0.1524 -0.1296  0.0285
 2178ntf    cn111600   3.840   3.647   6.511  0.0896 -0.3944  0.0582
 2178ntf    fn411601   3.540   3.662   6.047  0.3815  0.4237 -0.0259
 2178ntf    fn411602   3.662   3.515   5.978  0.5865  0.4139  0.6331
 2178ntf    fn411603   3.479   3.461   6.049  0.3916  0.0307  0.1801
 2178ntf    on511604   3.515   3.496   6.325  0.3026  0.1016  0.2079
 2178ntf    on511605   3.714   3.386   6.233 -0.3466 -0.1366  0.1400
 2178ntf    on511606   3.920   3.777   6.309  0.4552 -0.3769  0.1669
 2178ntf    on511607   3.957   3.540   6.314  0.0266 -0.0246  0.3798
 2178ntf    fn411608   3.745   3.725   6.561  0.5450  0.0378  0.2626
 2178ntf    fn411609   3.814   3.527   6.559 -0.2734 -0.0596  0.7101
 2178ntf    fn411610   3.945   3.696   6.576 -0.4538 -0.0072  0.6530
 2179ntf    cn111611   0.648   6.911   3.533 -0.0387 -0.2253 -0.1244
 2179ntf    sn211612   0.758   7.045   3.589 -0.3792  0.0046 -0.0037
 2179ntf    nn311613   0.660   7.167   3.571 -0.3932 -0.0357 -0.2113
 2179ntf    sn211614   0.606   7.261   3.685  0.2494  0.2827 -0.1615
 2179ntf    cn111615   0.754   7.327   3.766  0.3231 -0.2471  0.1399
 2179ntf    fn411616   0.560   6.903   3.631  0.2116 -0.4844  0.0826
 2179ntf    fn411617   0.584   6.922   3.418 -0.0182  0.5135 -0.0729
 2179ntf    fn411618   0.716   6.797   3.535 -0.6468 -0.5807  0.6424
 2179ntf    on511619   0.788   7.011   3.725 -0.8350  0.2213  0.1546
 2179ntf    on511620   0.861   7.036   3.488 -0.7404  0.0938 -0.3877
 2179ntf    on511621   0.541   7.189   3.792  0.1086  0.7038  0.0376
 2179ntf    on511622   0.533   7.373   3.632  0.1891  0.1526 -0.3588
 2179ntf    fn411623   0.742   7.456   3.792 -0.4730 -0.2700 -0.0944
 2179ntf    fn411624   0.772   7.257   3.877  0.2738  0.2049  0.4350
 2179ntf    fn411625   0.863   7.311   3.693 -0.1434 -0.1901 -0.5712
 2180ntf    cn111626   1.658   0.635   3.536 -0.1358 -0.1679  0.4385
 2180ntf    sn211627   1.792   0.525   3.592  0.2956  0.0019 -0.2467
 2180ntf    nn311628   1.742   0.381   3.556 -0.0159  0.1719 -0.4954
 2180ntf    sn211629   1.744   0.247   3.638 -0.0145  0.2502 -0.3662
 2180ntf    cn111630   1.821   0.127   3.525  0.1759  0.1715 -0.1522
 2180ntf    fn411631   1.711   0.755   3.519  0.3965 -0.4168  0.3042
 2180ntf    fn411632   1.594   0.597   3.427  0.1323  0.1309  0.1768
 2180ntf    fn411633   1.567   0.645   3.632 -0.1842  0.4139  0.3331
 2180ntf    on511634   1.910   0.580   3.530  0.4868  0.3517  0.4123
 2180ntf    on511635   1.790   0.538   3.736 -0.1867 -0.4651 -0.2105
 2180ntf    on511636   1.612   0.193   3.660 -0.0501  0.4315 -0.1364
 2180ntf    on511637   1.838   0.249   3.747 -0.5252 -0.2264  0.0838
 2180ntf    fn411638   1.754   0.137   3.412  0.2616 -0.0925 -0.2281
 2180ntf    fn411639   1.948   0.141   3.490  0.3046 -0.2800  0.1251
 2180ntf    fn411640   1.802   0.002   3.563  0.6225  0.1713  0.0786
 2181ntf    cn111641   6.462   4.158   2.470 -0.3620 -0.3504 -0.0707
 2181ntf    sn211642   6.407   4.186   2.641 -0.3582 -0.1221 -0.1064
 2181ntf    nn311643   6.482   4.072   2.719 -0.4766 -0.0034  0.1805
 2181ntf    sn211644   6.430   3.930   2.760 -0.1077 -0.1590  0.1172
 2181ntf    cn111645   6.559   3.883   2.879  0.0530  0.6028  0.2496
 2181ntf    fn411646   6.435   4.044   2.408  0.4758 -0.6447  0.0824
 2181ntf    fn411647   6.415   4.246   2.383 -0.1802  0.4294  0.6063
 2181ntf    fn411648   6.594   4.165   2.467 -0.3801 -0.0806 -0.3458
 2181ntf    on511649   6.463   4.314   2.675  0.0064 -0.1576 -0.5580
 2181ntf    on511650   6.263   4.175   2.639 -0.4227  0.6845  0.0851
 2181ntf    on511651   6.435   3.826   2.660 -0.4747 -0.6970  0.6479
 2181ntf    on511652   6.315   3.925   2.847 -0.2551  0.2235 -0.0546
 2181ntf    fn411653   6.584   3.983   2.961 -0.4294  0.5642  0.4465
 2181ntf    fn411654   6.534   3.782   2.961  0.2734 -0.2231 -0.6784
 2181ntf    fn411655   6.675   3.859   2.820 -0.3362  0.1144 -0.3266
 2182ntf    cn111656   6.874   4.123   0.237  0.0039  0.1045 -0.2705
 2182ntf    sn211657   6.906   4.077   0.410 -0.0434  0.1321 -0.2543
 2182ntf    nn311658   6.945   3.927   0.383 -0.2113  0.0519 -0.0474
 2182ntf    sn211659   6.988   3.810   0.478 -0.3525  0.2370  0.2456
 2182ntf    cn111660   7.140   3.750   0.399 -0.4537  0.2321  0.0558
 2182ntf    fn411661   6.809   4.030   0.169  0.4005 -0.3544 -0.0300
 2182ntf    fn411662   6.807   4.237   0.226 -0.1022  0.0439 -0.2522
 2182ntf    fn411663   6.993   4.149   0.186  0.1388  0.0533  0.0129
 2182ntf    on511664   7.025   4.150   0.447  0.2929 -0.3260 -0.4293
 2182ntf    on511665   6.780   4.095   0.477  0.4218  0.2917  0.5872
 2182ntf    on511666   6.902   3.695   0.476  0.1548 -0.1490  0.4636
 2182ntf    on511667   7.037   3.837   0.612  0.4643 -0.2926  0.0575
 2182ntf    fn411668   7.198   3.648   0.459  0.0394  0.1511 -0.5523
 2182ntf    fn411669   7.117   3.708   0.275 -0.0471 -0.9266  0.3663
 2182ntf    fn411670   7.227   3.850   0.386  0.2742 -0.3592  0.3349
 2183ntf    cn111671   5.912   0.725   3.650  0.0119 -0.0772  0.0931
 2183ntf    sn211672   6.087   0.726   3.601 -0.0475  0.3557 -0.1142
 2183ntf    nn311673   6.104   0.848   3.503  0.3780  0.1643 -0.2835
 2183ntf    sn211674   6.092   0.854   3.347 -0.3979 -0.3068 -0.2476
 2183ntf    cn111675   6.056   1.032   3.330  0.0258 -0.1682  0.2842
 2183ntf    fn411676   5.886   0.838   3.714 -0.4339 -0.2150  0.1543
 2183ntf    fn411677   5.832   0.711   3.546 -0.0892 -0.1693  0.1841
 2183ntf    fn411678   5.875   0.629   3.734  0.3377 -0.3927 -0.1204
 2183ntf    on511679   6.142   0.746   3.733  0.2026 -0.6472 -0.0552
 2183ntf    on511680   6.108   0.598   3.537 -0.1611  0.2230  0.1134
 2183ntf    on511681   5.975   0.788   3.294 -0.3583 -0.2663 -0.3861
 2183ntf    on511682   6.217   0.854   3.275 -0.5134 -0.4954 -0.4478
 2183ntf    fn411683   6.125   1.101   3.419 -0.0175  0.0326  0.1626
 2183ntf    fn411684   6.087   1.065   3.205 -0.0761 -0.0790  0.2831
 2183ntf    fn411685   5.932   1.075   3.347  0.0622  0.1161 -0.1336
 2184ntf    cn111686   1.475   0.995   1.820 -0.1613 -0.2231 -0.3481
 2184ntf    sn211687   1.395   1.058   1.669 -0.5080  0.0906 -0.0355
 2184ntf    nn311688   1.248   1.005   1.681 -0.3842 -0.1841  0.2906
 2184ntf    sn211689   1.106   1.069   1.664 -0.3212 -0.1868 -0.2572
 2184ntf    cn111690   1.053   0.986   1.511 -0.0396 -0.1177 -0.3923
 2184ntf    fn411691   1.599   1.038   1.838 -0.3278  0.0790  0.0939
 2184ntf    fn411692   1.414   1.034   1.931  0.0222 -0.3318 -0.2076
 2184ntf    fn411693   1.471   0.863   1.823 -0.0886 -0.2176 -0.0333
 2184ntf    on511694   1.414   1.200   1.690  0.1560 -0.0887  0.6507
 2184ntf    on511695   1.467   0.999   1.559 -0.1324 -0.1710  0.3461
 2184ntf    on511696   1.103   1.208   1.624 -0.1993  0.0268  0.4579
 2184ntf    on511697   1.009   1.028   1.762 -0.3013 -0.1709 -0.2307
 2184ntf    fn411698   1.042   0.855   1.525 -0.1926 -0.0728 -0.0883
 2184ntf    fn411699   0.929   1.025   1.490  0.0924  0.8195  0.5147
 2184ntf    fn411700   1.134   1.009   1.409 -0.1477 -0.0879 -0.4710
 2185ntf    cn111701   6.519   3.315   3.783  0.0514  0.0390 -0.3407
 2185ntf    sn211702   6.681   3.249   3.834  0.0854  0.0817 -0.3926
 2185ntf    nn311703   6.637   3.174   3.965  0.5171  0.2793 -0.1291
 2185ntf    sn211704   6.717   3.053   4.024  0.1147  0.1405  0.1353
 2185ntf    cn111705   6.644   2.920   3.924  0.3089  0.2054 -0.0932
 2185ntf    fn411706   6.441   3.355   3.881  0.2795 -0.4222  0.0355
 2185ntf    fn411707   6.522   3.420   3.702  0.4216  0.2763 -0.0248
 2185ntf    fn411708   6.439   3.221   3.734  0.4230 -0.3599 -0.1905
 2185ntf    on511709   6.720   3.154   3.732  0.3677 -0.0537 -0.1615
 2185ntf    on511710   6.764   3.365   3.856  0.4615 -0.1675 -0.4879
 2185ntf    on511711   6.680   3.021   4.160 -0.4177 -0.2997 -0.1087
 2185ntf    on511712   6.859   3.046   4.000  0.1297  0.4720  0.1228
 2185ntf    fn411713   6.522   2.955   3.888  0.0247 -0.3600  0.2907
 2185ntf    fn411714   6.702   2.895   3.808 -0.3951 -0.0708 -0.3915
 2185ntf    fn411715   6.646   2.800   3.981  0.7674  0.3730  0.2540
 2186ntf    cn111716   6.167   4.795   0.291  0.0840 -0.3388 -0.0326
 2186ntf    sn211717   6.010   4.721   0.346 -0.0541 -0.0139  0.0121
 2186ntf    nn311718   6.040   4.568   0.359 -0.3228 -0.1029 -0.3924
 2186ntf    sn211719   6.057   4.483   0.490  0.0070 -0.0687 -0.4099
 2186ntf    cn111720   5.885   4.463   0.546  0.1623 -0.4491 -0.0688
 2186ntf    fn411721   6.259   4.773   0.382  0.1662  0.1160 -0.0036
 2186ntf    fn411722   6.210   4.740   0.178  0.5349 -0.6858  0.3058
 2186ntf    fn411723   6.160   4.926   0.273  0.2674 -0.3314 -0.0493
 2186ntf    on511724   5.989   4.797   0.466  0.0235 -0.2727  0.1897
 2186ntf    on511725   5.920   4.742   0.235  0.5028 -0.8340 -0.6134
 2186ntf    on511726   6.121   4.549   0.600  0.6091  0.3595 -1.0149
 2186ntf    on511727   6.094   4.346   0.467 -0.1783 -0.2246  0.2012
 2186ntf    fn411728   5.813   4.403   0.453 -0.3163  0.0011  0.0055
 2186ntf    fn411729   5.876   4.385   0.653  0.4153 -0.2870  0.0718
 2186ntf    fn411730   5.827   4.578   0.574  0.1174 -0.4790 -0.0380
 2187ntf    cn111731   6.890   0.733   4.035 -0.0620  0.2943  0.1642
 2187ntf    sn211732   6.772   0.852   3.965 -0.4902 -0.1643  0.1018
 2187ntf    nn311733   6.858   0.983   3.974 -0.3402 -0.2529 -0.0267
 2187ntf    sn211734   6.832   1.112   4.059  0.1244 -0.1209 -0.0822
 2187ntf    cn111735   6.696   1.179   3.959  0.0738  0.4277  0.3468
 2187ntf    fn411736   6.969   0.684   3.940 -0.2484  0.6556 -0.1793
 2187ntf    fn411737   6.965   0.786   4.130 -0.5235  0.8236  0.2318
 2187ntf    fn411738   6.838   0.623   4.088  0.6120 -0.3446 -0.4655
 2187ntf    on511739   6.766   0.807   3.828 -0.1413  0.8632 -0.2627
 2187ntf    on511740   6.652   0.843   4.044  0.0630  0.5370  1.0347
 2187ntf    on511741   6.936   1.210   4.041  0.2582 -0.2380  0.0511
 2187ntf    on511742   6.784   1.085   4.192 -0.3912 -0.1638 -0.2757
 2187ntf    fn411743   6.654   1.295   4.006 -0.3146  0.1914  0.5864
 2187ntf    fn411744   6.735   1.203   3.835 -0.7411 -0.1928 -0.0398
 2187ntf    fn411745   6.594   1.095   3.956  0.1418  0.3510  0.1431
 2188ntf    cn111746   4.921   3.378   6.997  0.2943  0.3394  0.6563
 2188ntf    sn211747   5.035   3.508   6.940  0.1433  0.1532 -0.0813
 2188ntf    nn311748   5.145   3.469   7.045  0.0397  0.2289  0.0549
 2188ntf    sn211749   5.300   3.461   7.025  0.0053 -0.0373 -0.1209
 2188ntf    cn111750   5.332   3.283   7.002  0.1270 -0.0469  0.1173
 2188ntf    fn411751   4.903   3.390   7.127 -0.1972  0.3022  0.5942
 2188ntf    fn411752   4.803   3.383   6.938  0.4058  0.7656  0.4643
 2188ntf    fn411753   4.979   3.260   6.983 -0.1187  0.2326 -0.2208
 2188ntf    on511754   5.059   3.476   6.801  0.7744  0.0780  0.0435
 2188ntf    on511755   4.964   3.631   6.967  0.1038  0.2373 -0.5559
 2188ntf    on511756   5.383   3.488   7.139  0.4045  0.1093 -0.4433
 2188ntf    on511757   5.351   3.516   6.902  0.5041 -0.0509  0.0789
 2188ntf    fn411758   5.451   3.250   6.954 -0.0915 -0.2432 -0.2977
 2188ntf    fn411759   5.316   3.203   7.106 -0.0050  0.1116  0.2198
 2188ntf    fn411760   5.244   3.234   6.916  0.0923  0.2262 -0.0053
 2189ntf    cn111761   0.313   2.558   3.398  0.4610  0.3440 -0.7029
 2189ntf    sn211762   0.324   2.678   3.535  0.0450 -0.0284 -0.3400
 2189ntf    nn311763   0.177   2.733   3.530 -0.0379 -0.1914  0.2644
 2189ntf    sn211764   0.083   2.804   3.634 -0.2182 -0.0607  0.0111
 2189ntf    cn111765  -0.021   2.668   3.695 -0.0671 -0.1564  0.0556
 2189ntf    fn411766   0.427   2.528   3.337  0.8966  0.3192  0.1039
 2189ntf    fn411767   0.265   2.442   3.440  0.0781  0.5867 -0.4631
 2189ntf    fn411768   0.237   2.607   3.302 -0.3866  0.6165  0.0902
 2189ntf    on511769   0.357   2.600   3.652 -0.0496 -0.1063 -0.3652
 2189ntf    on511770   0.423   2.777   3.500  0.3116 -0.0067  0.4442
 2189ntf    on511771  -0.014   2.888   3.568 -0.1263 -0.1089 -0.1889
 2189ntf    on511772   0.146   2.855   3.753  0.7770  0.5717 -0.7685
 2189ntf    fn411773   0.038   2.599   3.791 -0.1694  0.1035  0.3060
 2189ntf    fn411774  -0.130   2.716   3.753 -0.0271  0.5181 -0.4195
 2189ntf    fn411775  -0.072   2.597   3.596 -0.6155  0.1537  0.1065
 2190ntf    cn111776   6.036   0.253   6.845  0.1317  0.2442  0.2954
 2190ntf    sn211777   6.000   0.240   6.667 -0.1466 -0.3341  0.3936
 2190ntf    nn311778   6.142   0.254   6.602 -0.3970  0.3283 -0.0139
 2190ntf    sn211779   6.179   0.349   6.482 -0.0893  0.0841 -0.1114
 2190ntf    cn111780   6.130   0.234   6.350 -0.6901 -0.1490  0.3148
 2190ntf    fn411781   6.106   0.358   6.887  0.4058  0.2129 -0.0792
 2190ntf    fn411782   5.924   0.262   6.915 -0.0004 -0.7609  0.2155
 2190ntf    fn411783   6.107   0.151   6.890 -0.2063 -0.3104 -0.4117
 2190ntf    on511784   5.956   0.105   6.639 -0.9300 -0.0851  0.4012
 2190ntf    on511785   5.906   0.348   6.651  0.3100 -0.1041 -0.7494
 2190ntf    on511786   6.323   0.356   6.474 -0.0825 -0.2605 -0.2854
 2190ntf    on511787   6.111   0.475   6.472 -0.0719  0.1055  0.0292
 2190ntf    fn411788   6.169   0.110   6.373  0.6072  0.2116  0.0975
 2190ntf    fn411789   5.998   0.228   6.334 -0.5948 -0.2896 -0.4320
 2190ntf    fn411790   6.180   0.266   6.232  0.1041 -0.3809  0.5830
 2191ntf    cn111791   4.561   2.506   1.628  0.1113 -0.3696  0.0643
 2191ntf    sn211792   4.728   2.514   1.556  0.0533  0.0176 -0.0288
 2191ntf    nn311793   4.727   2.395   1.454  0.3623 -0.0116  0.0005
 2191ntf    sn211794   4.796   2.255   1.470 -0.0758 -0.1973  0.3008
 2191ntf    cn111795   4.967   2.302   1.430 -0.0494 -0.5948 -0.0520
 2191ntf    fn411796   4.470   2.527   1.535  0.1465 -0.1792  0.0717
 2191ntf    fn411797   4.534   2.388   1.681 -1.1208  0.1176  0.5566
 2191ntf    fn411798   4.535   2.592   1.726 -0.2340 -0.1256 -0.2405
 2191ntf    on511799   4.741   2.642   1.490 -0.3101  0.0073 -0.1257
 2191ntf    on511800   4.817   2.498   1.668  0.2528 -0.0192 -0.1930
 2191ntf    on511801   4.773   2.167   1.358 -0.3409  0.3237 -0.0586
 2191ntf    on511802   4.800   2.189   1.597  0.2072 -0.0227  0.3845
 2191ntf    fn411803   5.058   2.206   1.431  0.2256 -0.3342  0.1361
 2191ntf    fn411804   4.980   2.370   1.317  0.0357  0.0209  0.3259
 2191ntf    fn411805   5.014   2.381   1.525  0.0675 -0.9185  0.1612
 2192ntf    cn111806   3.459   5.796   6.002  0.1169  0.0847  0.2810
 2192ntf    sn211807   3.599   5.737   5.903 -0.1634  0.0125 -0.0714
 2192ntf    nn311808   3.571   5.824   5.775  0.0712 -0.3950 -0.4040
 2192ntf    sn211809   3.639   5.958   5.731  0.0068 -0.2233  0.0113
 2192ntf    cn111810   3.509   6.033   5.629  0.0341  0.0350  0.1653
 2192ntf    fn411811   3.460   5.926   6.025 -0.8700  0.1347  0.0941
 2192ntf    fn411812   3.340   5.770   5.950  0.2159  0.0578  0.0712
 2192ntf    fn411813   3.463   5.739   6.122 -0.3608 -0.2937  0.1227
 2192ntf    on511814   3.717   5.770   5.979 -0.0029  0.3223 -0.4531
 2192ntf    on511815   3.574   5.595   5.897 -0.5540  0.0765  0.0070
 2192ntf    on511816   3.745   5.943   5.634 -0.3395  0.6576 -0.5214
 2192ntf    on511817   3.659   6.059   5.832 -0.0411  0.1545 -0.3516
 2192ntf    fn411818   3.423   6.102   5.702 -0.1096  0.2724 -0.2213
 2192ntf    fn411819   3.565   6.128   5.556 -0.0145  0.0608  0.1608
 2192ntf    fn411820   3.442   5.955   5.545  0.0719  0.2987 -0.1134
 2193ntf    cn111821   1.350   5.886   2.195 -0.2292 -0.0813 -0.3971
 2193ntf    sn211822   1.301   5.901   2.020 -0.2760 -0.2013 -0.3943
 2193ntf    nn311823   1.402   6.017   1.989 -0.1168 -0.2655 -0.1237
 2193ntf    sn211824   1.500   6.044   1.869 -0.1117  0.2907  0.0057
 2193ntf    cn111825   1.639   6.120   1.959  0.0122  0.2020 -0.1121
 2193ntf    fn411826   1.270   5.965   2.265  0.0263  0.1434 -0.3551
 2193ntf    fn411827   1.332   5.765   2.244  0.1606  0.1397  0.3042
 2193ntf    fn411828   1.476   5.923   2.209 -0.2344 -0.1749 -0.1064
 2193ntf    on511829   1.323   5.769   1.966 -0.4635 -0.2976 -0.2371
 2193ntf    on511830   1.164   5.942   2.034  0.1938  1.2630  0.0461
 2193ntf    on511831   1.459   6.148   1.778 -0.2234  0.3733  0.1503
 2193ntf    on511832   1.554   5.923   1.814 -0.1306  0.3562 -0.1561
 2193ntf    fn411833   1.602   6.224   2.031 -0.2859  0.3777 -0.5182
 2193ntf    fn411834   1.704   6.035   2.037 -0.0389 -0.0639 -0.3580
 2193ntf    fn411835   1.734   6.167   1.879  0.2556  0.3419  0.2545
 2194ntf    cn111836   5.171   1.411   3.868  0.3014  0.2876  0.5426
 2194ntf    sn211837   5.112   1.521   3.736  0.2028  0.3868  0.6699
 2194ntf    nn311838   4.971   1.458   3.709  0.3831  0.2677 -0.0083
 2194ntf    sn211839   4.835   1.534   3.732  0.1040 -0.2659  0.1294
 2194ntf    cn111840   4.724   1.399   3.685  0.2607 -0.3491 -0.0038
 2194ntf    fn411841   5.300   1.429   3.892  0.3711 -0.0725  0.4436
 2194ntf    fn411842   5.107   1.438   3.981  0.3128  0.1621  0.5791
 2194ntf    fn411843   5.149   1.283   3.845  0.2407  0.4236 -0.1690
 2194ntf    on511844   5.113   1.651   3.799 -0.2102  0.5499  0.3434
 2194ntf    on511845   5.203   1.494   3.628 -0.4460 -0.2559  0.2744
 2194ntf    on511846   4.811   1.631   3.628  0.4876 -0.3548 -0.0459
 2194ntf    on511847   4.799   1.561   3.869  0.0845  0.6883 -0.0598
 2194ntf    fn411848   4.738   1.361   3.559  0.0059 -0.4401 -0.0058
 2194ntf    fn411849   4.741   1.295   3.765 -0.7596 -0.0333  0.6468
 2194ntf    fn411850   4.596   1.431   3.693  0.4851  0.7537 -0.6183
 2195ntf    cn111851   2.917   5.801   0.463  0.1278  0.2318 -0.4170
 2195ntf    sn211852   2.780   5.893   0.538  0.1741  0.0678 -0.1280
 2195ntf    nn311853   2.808   5.854   0.688 -0.0657 -0.7674 -0.2930
 2195ntf    sn211854   2.728   5.762   0.786 -0.1644  0.0163  0.3691
 2195ntf    cn111855   2.867   5.662   0.846  0.2569  0.0867 -0.4780
 2195ntf    fn411856   3.037   5.850   0.492  0.2615 -0.2949 -0.0548
 2195ntf    fn411857   2.922   5.675   0.505  1.0252  0.5142  0.3546
 2195ntf    fn411858   2.916   5.799   0.331  0.2377  0.1113 -0.4176
 2195ntf    on511859   2.804   6.032   0.511 -0.5539  0.2461  0.1207
 2195ntf    on511860   2.673   5.824   0.469  0.5424 -0.5949 -0.0429
 2195ntf    on511861   2.637   5.666   0.728  0.1141  0.0381 -0.1119
 2195ntf    on511862   2.681   5.844   0.896 -0.4176  0.3769 -0.0033
 2195ntf    fn411863   2.961   5.736   0.902  0.7869 -0.3824 -0.7347
 2195ntf    fn411864   2.826   5.567   0.928  0.0694 -0.2446 -0.9467
 2195ntf    fn411865   2.932   5.601   0.748  0.7377  0.0115 -0.1150
 2196ntf    cn111866   6.433   1.321   0.915 -0.0064  0.0019  0.6728
 2196ntf    sn211867   6.501   1.323   1.083  0.1816  0.0637  0.5957
 2196ntf    nn311868   6.434   1.449   1.148  0.3223  0.6116 -0.3055
 2196ntf    sn211869   6.293   1.469   1.214  0.3414 -0.0583 -0.0616
 2196ntf    cn111870   6.343   1.480   1.389 -0.1026 -0.2939  0.0834
 2196ntf    fn411871   6.470   1.210   0.853 -0.5641  0.5992 -0.7889
 2196ntf    fn411872   6.301   1.332   0.915 -0.0623 -0.5545 -0.4462
 2196ntf    fn411873   6.465   1.425   0.840  0.0706 -0.1369  0.5129
 2196ntf    on511874   6.460   1.195   1.134  0.3290 -0.4019 -0.4354
 2196ntf    on511875   6.643   1.338   1.063 -0.0463  0.5897 -0.7079
 2196ntf    on511876   6.197   1.361   1.220  0.1815  0.0532 -0.6090
 2196ntf    on511877   6.237   1.601   1.198  0.5661  0.0799  0.2857
 2196ntf    fn411878   6.423   1.381   1.425  0.1539 -0.2852 -0.4445
 2196ntf    fn411879   6.397   1.595   1.425  0.4793 -0.5199 -0.0533
 2196ntf    fn411880   6.238   1.476   1.470 -0.2820 -0.5185 -0.1574
 2197ntf    cn111881   2.821   3.222   0.983  0.1461 -0.0900  0.1954
 2197ntf    sn211882   2.979   3.153   1.041  0.2894  0.2743  0.2393
 2197ntf    nn311883   3.044   3.095   0.911  0.1877 -0.1867  0.3941
 2197ntf    sn211884   3.012   2.959   0.838 -0.2277  0.1385 -0.0389
 2197ntf    cn111885   3.148   2.849   0.889 -0.2494  0.1381  0.0195
 2197ntf    fn411886   2.752   3.145   0.900  0.1136  0.2640 -0.1085
 2197ntf    fn411887   2.742   3.257   1.084 -0.4137  0.2666 -0.3582
 2197ntf    fn411888   2.845   3.331   0.912  0.0652  0.1298  0.5033
 2197ntf    on511889   3.060   3.264   1.086  0.3115  0.4389 -0.1916
 2197ntf    on511890   2.956   3.050   1.139 -0.0270  0.2608  0.1538
 2197ntf    on511891   3.044   2.969   0.698  0.0725 -0.2202 -0.0001
 2197ntf    on511892   2.889   2.891   0.871 -0.1494  0.2318  0.4662
 2197ntf    fn411893   3.140   2.796   1.010  0.0617  0.5796  0.2365
 2197ntf    fn411894   3.165   2.747   0.806  0.5064 -0.0862  0.4429
 2197ntf    fn411895   3.264   2.913   0.896 -0.5745  0.7421 -0.0101
 2198ntf    cn111896   4.846   5.242   5.171 -0.5408 -0.2234 -0.1156
 2198ntf    sn211897   4.707   5.131   5.133 -0.4445 -0.3611 -0.0688
 2198ntf    nn311898   4.789   5.011   5.075 -0.3599 -0.1476 -0.3961
 2198ntf    sn211899   4.814   4.865   5.128 -0.0951 -0.0271 -0.1804
 2198ntf    cn111900   4.670   4.775   5.062  0.0158 -0.1958 -0.1911
 2198ntf    fn411901   4.812   5.369   5.188  0.8204  0.1719 -0.2695
 2198ntf    fn411902   4.913   5.205   5.279  0.0305  0.3760 -0.2602
 2198ntf    fn411903   4.930   5.250   5.069 -0.3163  0.4745  0.1217
 2198ntf    on511904   4.632   5.113   5.255 -0.6189  0.3100 -0.0733
 2198ntf    on511905   4.622   5.194   5.035  0.0930  0.4099 -0.0486
 2198ntf    on511906   4.808   4.855   5.271 -0.1204 -0.3695 -0.2052
 2198ntf    on511907   4.924   4.799   5.061 -0.0383  0.0100 -0.1239
 2198ntf    fn411908   4.678   4.651   5.107  0.2588 -0.3068 -0.5295
 2198ntf    fn411909   4.556   4.836   5.088  0.3024  0.1895  0.1708
 2198ntf    fn411910   4.667   4.761   4.930  0.7562 -0.1800 -0.2183
 2199ntf    cn111911   5.536   0.627   3.423  0.0055 -0.1283  0.2414
 2199ntf    sn211912   5.440   0.781   3.403  0.0828 -0.1770 -0.5331
 2199ntf    nn311913   5.325   0.730   3.309 -0.0000  0.3556 -0.7195
 2199ntf    sn211914   5.171   0.736   3.336  0.1293  0.1337  0.0809
 2199ntf    cn111915   5.108   0.758   3.167  0.2271 -0.2746 -0.0107
 2199ntf    fn411916   5.647   0.652   3.490 -0.0750  0.6660  0.0895
 2199ntf    fn411917   5.466   0.533   3.483 -0.2549  0.3482  0.7010
 2199ntf    fn411918   5.565   0.575   3.305 -0.4053 -0.4306  0.2719
 2199ntf    on511919   5.404   0.819   3.538  0.8779 -0.4395 -0.2425
 2199ntf    on511920   5.532   0.866   3.333  0.8388 -0.2961  0.2888
 2199ntf    on511921   5.132   0.858   3.401 -0.1074  0.1394 -0.0688
 2199ntf    on511922   5.115   0.608   3.372  0.7572 -0.0707  0.3436
 2199ntf    fn411923   5.169   0.689   3.072  0.1164 -0.1239 -0.1909
 2199ntf    fn411924   4.978   0.732   3.162  0.1563  0.0484  0.0764
 2199ntf    fn411925   5.119   0.884   3.127  0.2823 -0.2124  0.1969
 2200ntf    cn111926   4.147   5.800   6.343  0.1992 -0.0131 -0.2361
 2200ntf    sn211927   4.293   5.900   6.305  0.1478  0.1688  0.0425
 2200ntf    nn311928   4.341   5.931   6.451  0.2089  0.1972  0.0170
 2200ntf    sn211929   4.440   5.860   6.550 -0.0841  0.3391  0.4146
 2200ntf    cn111930   4.343   5.848   6.703 -0.5192  0.1756  0.1270
 2200ntf    fn411931   4.177   5.697   6.421  0.2062  0.1617 -0.0050
 2200ntf    fn411932   4.053   5.869   6.406  0.1815 -0.0697 -0.1998
 2200ntf    fn411933   4.094   5.750   6.233 -0.0362 -0.1285 -0.0730
 2200ntf    on511934   4.376   5.808   6.231  0.2633  0.5724 -0.3387
 2200ntf    on511935   4.236   6.012   6.234  0.1171  0.2033  0.1218
 2200ntf    on511936   4.554   5.942   6.584 -0.2348  0.4926  0.5510
 2200ntf    on511937   4.465   5.723   6.514 -0.6148  0.3661 -0.0732
 2200ntf    fn411938   4.305   5.969   6.741  0.4187  0.5419 -0.0728
 2200ntf    fn411939   4.235   5.771   6.698 -0.3419 -0.0938  0.3755
 2200ntf    fn411940   4.409   5.804   6.810 -0.1431  0.5994  0.0719
 2201ntf    cn111941   3.449   4.368   1.388 -0.2702  0.0202 -0.0508
 2201ntf    sn211942   3.563   4.380   1.247 -0.3030  0.0567 -0.0740
 2201ntf    nn311943   3.593   4.534   1.236  0.2209 -0.0504 -0.2112
 2201ntf    sn211944   3.626   4.619   1.108  0.1988 -0.1380 -0.2751
 2201ntf    cn111945   3.469   4.680   1.039  0.0684 -0.2060 -0.0422
 2201ntf    fn411946   3.505   4.426   1.493  0.3966 -0.8017  0.0617
 2201ntf    fn411947   3.333   4.427   1.366 -0.2140  0.1879  0.1052
 2201ntf    fn411948   3.430   4.245   1.433  0.1284 -0.0071  0.0463
 2201ntf    on511949   3.676   4.295   1.274 -0.2406  0.2235  0.1877
 2201ntf    on511950   3.473   4.339   1.142 -0.0590  0.1176 -0.3079
 2201ntf    on511951   3.686   4.544   1.001  0.7505 -0.0014 -0.0656
 2201ntf    on511952   3.688   4.743   1.148  0.5379 -0.3775 -0.0617
 2201ntf    fn411953   3.369   4.595   1.026  0.2262 -0.4239  0.1672
 2201ntf    fn411954   3.429   4.776   1.121 -0.5469  0.2251 -0.8364
 2201ntf    fn411955   3.481   4.749   0.927  0.0764 -0.1773 -0.0237
 2202ntf    cn111956   1.007   2.799   6.320 -0.1273  0.3520 -0.1126
 2202ntf    sn211957   0.980   2.974   6.278  0.2332  0.3668 -0.2836
 2202ntf    nn311958   0.896   2.970   6.146 -0.5187  0.3403  0.1938
 2202ntf    sn211959   0.947   2.961   5.998  0.1200 -0.3225  0.4485
 2202ntf    cn111960   0.792   2.953   5.903  0.5386 -0.4936 -0.2213
 2202ntf    fn411961   1.094   2.778   6.417 -0.0233  0.1063 -0.2569
 2202ntf    fn411962   0.887   2.752   6.352  0.3411 -0.6390  0.2368
 2202ntf    fn411963   1.051   2.732   6.215 -0.6344  0.1137 -0.1759
 2202ntf    on511964   0.901   3.021   6.389 -0.1141 -0.5621 -0.1340
 2202ntf    on511965   1.113   3.029   6.269  0.3257  0.2254  0.1677
 2202ntf    on511966   1.001   2.837   5.949 -0.0469 -0.0592 -0.4123
 2202ntf    on511967   1.023   3.078   5.960  0.3481 -0.4274  0.5843
 2202ntf    fn411968   0.702   2.876   5.962  0.2453 -0.2785 -0.3843
 2202ntf    fn411969   0.734   3.071   5.894 -0.2384 -0.8329  0.3216
 2202ntf    fn411970   0.807   2.913   5.777  0.6059  0.1221 -0.4119
 2203ntf    cn111971   1.550   0.850   2.116 -0.2155 -0.0276  0.0409
 2203ntf    sn211972   1.636   0.698   2.169  0.2392  0.1284 -0.2466
 2203ntf    nn311973   1.691   0.635   2.036 -0.2787  0.5043 -0.6435
 2203ntf    sn211974   1.682   0.491   1.974 -0.0650  0.1585  0.1208
 2203ntf    cn111975   1.859   0.454   1.965 -0.1286 -0.1344  0.0727
 2203ntf    fn411976   1.443   0.823   2.043  0.1733 -0.0160 -0.5394
 2203ntf    fn411977   1.505   0.920   2.219 -0.6560 -0.1823 -0.0462
 2203ntf    fn411978   1.632   0.924   2.045 -0.0761  0.0181  0.2477
 2203ntf    on511979   1.745   0.737   2.255 -0.0256 -0.6331  0.4401
 2203ntf    on511980   1.525   0.626   2.225  0.0681 -0.0445 -0.7956
 2203ntf    on511981   1.637   0.483   1.837 -0.2042 -0.6899  0.2115
 2203ntf    on511982   1.629   0.391   2.064  0.5860  0.0750  0.4168
 2203ntf    fn411983   1.918   0.438   2.083  0.2146 -0.8062 -0.1834
 2203ntf    fn411984   1.883   0.343   1.896 -0.3396  0.1494 -0.4546
 2203ntf    fn411985   1.920   0.560   1.914 -0.2909  0.0552  0.2725
 2204ntf    cn111986   1.068   0.022   5.391 -0.3343 -0.2965 -0.1675
 2204ntf    sn211987   1.139  -0.085   5.263  0.0959 -0.1493 -0.0546
 2204ntf    nn311988   1.013  -0.173   5.230 -0.3529  0.2846  0.4944
 2204ntf    sn211989   0.960  -0.314   5.271 -0.0629  0.0852  0.1896
 2204ntf    cn111990   0.811  -0.297   5.168 -0.0564  0.4228  0.2347
 2204ntf    fn411991   0.990   0.114   5.337 -0.4265 -0.0442  0.3900
 2204ntf    fn411992   0.993  -0.040   5.480 -0.2828 -0.3268 -0.1454
 2204ntf    fn411993   1.165   0.078   5.463 -0.5727 -0.4670  0.2893
 2204ntf    on511994   1.173   0.001   5.152  0.0454  0.0247  0.0642
 2204ntf    on511995   1.238  -0.169   5.326  0.0833 -0.1727 -0.0662
 2204ntf    on511996   0.916  -0.331   5.407 -0.3906 -0.0929  0.0640
 2204ntf    on511997   1.029  -0.428   5.215  0.1308  0.0157  0.5669
 2204ntf    fn411998   0.751  -0.183   5.196 -0.2532  0.5760 -0.7807
 2204ntf    fn411999   0.824  -0.280   5.037 -0.1524 -0.3281  0.1210
 2204ntf    fn412000   0.731  -0.402   5.181 -0.1764  0.5452  0.5065
 2205ntf    cn112001   4.627   5.583   2.468 -0.4660 -0.1156 -0.3933
 2205ntf    sn212002   4.595   5.544   2.643  0.1717  0.4989 -0.1346
 2205ntf    nn312003   4.741   5.507   2.688  0.0135 -0.2452 -0.2187
 2205ntf    sn212004   4.833   5.584   2.789 -0.1970  0.0376 -0.2427
 2205ntf    cn112005   4.999   5.534   2.735 -0.0969 -0.0614  0.1605
 2205ntf    fn412006   4.519   5.586   2.392 -0.3684  0.3684 -0.5122
 2205ntf    fn412007   4.668   5.707   2.448  0.4068 -0.3573 -0.1266
 2205ntf    fn412008   4.713   5.505   2.403  0.0135  0.4371 -0.4273
 2205ntf    on512009   4.542   5.671   2.683  0.6634  0.9773 -0.9609
 2205ntf    on512010   4.504   5.432   2.645  0.4344  0.2762 -0.4451
 2205ntf    on512011   4.836   5.541   2.926  0.1129  0.5301 -0.0918
 2205ntf    on512012   4.843   5.727   2.770 -0.5012 -0.0480 -1.0997
 2205ntf    fn412013   5.008   5.530   2.603 -0.0524 -0.2275  0.1672
 2205ntf    fn412014   5.089   5.619   2.782 -0.2247  0.0527  0.1968
 2205ntf    fn412015   5.030   5.412   2.776  0.2704 -0.0032  0.0635
 2206ntf    cn112016   2.302   6.797   3.976  0.1599 -0.4301  0.0339
 2206ntf    sn212017   2.223   6.895   4.107  0.2128 -0.2782 -0.0479
 2206ntf    nn312018   2.326   7.013   4.114 -0.1949  0.0327  0.8891
 2206ntf    sn212019   2.448   7.030   4.211  0.1574 -0.4786  0.5411
 2206ntf    cn112020   2.366   7.119   4.347 -0.6192  0.1922 -0.3574
 2206ntf    fn412021   2.434   6.798   3.988  0.1451 -0.8021  0.2521
 2206ntf    fn412022   2.274   6.668   3.975  0.6730 -0.5415 -0.1750
 2206ntf    fn412023   2.264   6.848   3.860  0.0668 -0.4811  0.0422
 2206ntf    on512024   2.098   6.933   4.047  0.5629 -0.0274 -0.6202
 2206ntf    on512025   2.222   6.803   4.218  0.2281  0.4587  0.5690
 2206ntf    on512026   2.540   7.127   4.157 -0.7326 -0.0274 -0.1995
 2206ntf    on512027   2.506   6.907   4.259 -0.5123 -0.7999  0.5435
 2206ntf    fn412028   2.438   7.106   4.457 -0.3442 -0.0271 -0.5633
 2206ntf    fn412029   2.343   7.246   4.321 -0.1826  0.3538  0.0442
 2206ntf    fn412030   2.248   7.063   4.369 -0.4119  0.1412  0.6826
 2207ntf    cn112031   3.754   1.280   1.512  0.1819  0.0972 -0.6010
 2207ntf    sn212032   3.884   1.262   1.638 -0.1528  0.4023 -0.2086
 2207ntf    nn312033   3.888   1.408   1.695  0.9983  0.3442 -0.1263
 2207ntf    sn212034   3.809   1.464   1.819  0.1843  0.2015 -0.5740
 2207ntf    cn112035   3.823   1.642   1.782  0.3225  0.2797 -0.1473
 2207ntf    fn412036   3.637   1.297   1.571  0.5869 -0.0098  0.2458
 2207ntf    fn412037   3.773   1.384   1.431 -0.1865  0.6485  0.0086
 2207ntf    fn412038   3.730   1.174   1.438  0.2651  0.0097 -0.5028
 2207ntf    on512039   3.843   1.156   1.727  0.7899 -0.2415 -0.5234
 2207ntf    on512040   4.005   1.238   1.564 -0.2675 -0.3210 -0.1698
 2207ntf    on512041   3.875   1.443   1.945 -0.3963  0.9073 -0.1447
 2207ntf    on512042   3.668   1.439   1.823  0.2319  0.0542  0.4198
 2207ntf    fn412043   3.768   1.716   1.877  0.0275 -0.4502  0.2639
 2207ntf    fn412044   3.947   1.685   1.765  0.2959  0.0815 -0.8702
 2207ntf    fn412045   3.765   1.665   1.666 -0.1418  0.0790  0.0447
 2208ntf    cn112046   5.357   4.833   6.449  0.1546 -0.2236 -0.0758
 2208ntf    sn212047   5.413   4.682   6.365  0.1139 -0.3642  0.1476
 2208ntf    nn312048   5.562   4.653   6.404  0.1820 -0.0339  0.1381
 2208ntf    sn212049   5.633   4.654   6.544 -0.0700 -0.1415  0.2665
 2208ntf    cn112050   5.639   4.479   6.591  0.2390 -0.3248 -0.4520
 2208ntf    fn412051   5.456   4.919   6.466  0.1894 -0.2082 -0.3572
 2208ntf    fn412052   5.269   4.903   6.379 -0.0268 -0.7475 -0.3710
 2208ntf    fn412053   5.304   4.828   6.571 -0.1486  0.5046 -0.1724
 2208ntf    on512054   5.323   4.588   6.427 -0.0582  0.0204  0.4840
 2208ntf    on512055   5.387   4.703   6.225  0.2776 -0.1017  0.1556
 2208ntf    on512056   5.562   4.721   6.651  0.6750  1.3124 -0.1229
 2208ntf    on512057   5.773   4.688   6.539  0.0313 -0.5762  0.1951
 2208ntf    fn412058   5.518   4.426   6.585  0.0764  0.0256 -0.2624
 2208ntf    fn412059   5.709   4.406   6.506  0.4630 -0.6234 -0.0117
 2208ntf    fn412060   5.690   4.464   6.713 -0.5866 -0.0407 -0.0652
 2209ntf    cn112061   6.165   6.128   4.417 -0.1336  0.1469  0.0000
 2209ntf    sn212062   6.311   6.051   4.491 -0.2026  0.1074  0.0952
 2209ntf    nn312063   6.257   6.064   4.638  0.0534 -0.4230  0.2397
 2209ntf    sn212064   6.312   6.139   4.763  0.4527  0.0560 -0.2214
 2209ntf    cn112065   6.459   6.038   4.799  0.2286 -0.3937 -0.5678
 2209ntf    fn412066   6.173   6.140   4.285  0.5156 -0.8092 -0.0545
 2209ntf    fn412067   6.054   6.059   4.437 -0.2505  0.3829  0.1693
 2209ntf    fn412068   6.140   6.250   4.461 -0.2066  0.0758  0.1563
 2209ntf    on512069   6.312   5.916   4.441  0.2157  0.2555 -0.3110
 2209ntf    on512070   6.414   6.142   4.447  0.6359 -0.7075  0.3225
 2209ntf    on512071   6.225   6.134   4.878  0.1323  0.7628 -0.4285
 2209ntf    on512072   6.366   6.268   4.727  0.0371  0.2641 -0.1045
 2209ntf    fn412073   6.542   6.016   4.698  0.9160 -0.2982 -0.0286
 2209ntf    fn412074   6.530   6.101   4.891 -0.3198 -0.2082 -0.2682
 2209ntf    fn412075   6.421   5.927   4.859  0.3881  0.1457  0.5557
 2210ntf    cn112076   0.481   3.028   0.061 -0.2374 -0.4778  0.0601
 2210ntf    sn212077   0.389   2.891  -0.015 -0.3983 -0.1407 -0.3552
 2210ntf    nn312078   0.478   2.768   0.024  0.0160 -0.0481 -1.0047
 2210ntf    sn212079   0.431   2.620   0.004 -0.2386 -0.0467 -0.4384
 2210ntf    cn112080   0.397   2.564   0.173 -0.2364  0.2405 -0.3423
 2210ntf    fn412081   0.610   3.024   0.032 -0.1251 -0.6569  0.5759
 2210ntf    fn412082   0.431   3.144   0.021  0.5086 -0.3043 -0.3954
 2210ntf    fn412083   0.468   3.018   0.192 -0.9289  0.1020  0.0416
 2210ntf    on512084   0.262   2.902   0.053  0.0333  0.2192  0.4054
 2210ntf    on512085   0.397   2.912  -0.157 -1.0310 -0.6192 -0.4663
 2210ntf    on512086   0.532   2.528  -0.042 -0.0686 -0.2590  0.3592
 2210ntf    on512087   0.302   2.606  -0.060 -0.3592  0.2514 -0.2591
 2210ntf    fn412088   0.512   2.561   0.238 -0.3144  0.0478 -0.2113
 2210ntf    fn412089   0.328   2.650   0.247 -0.1094  0.7679 -0.8355
 2210ntf    fn412090   0.348   2.441   0.181  1.0513 -0.2783 -0.1833
 2211ntf    cn112091   1.580   6.540   6.261  0.1196  0.2445  0.0381
 2211ntf    sn212092   1.741   6.560   6.344  0.0900  0.0249  0.1502
 2211ntf    nn312093   1.794   6.413   6.342  0.2230  0.0769 -0.2002
 2211ntf    sn212094   1.780   6.302   6.452  0.0585  0.0671 -0.2316
 2211ntf    cn112095   1.938   6.308   6.542 -0.2795 -0.5430  0.4181
 2211ntf    fn412096   1.504   6.648   6.266 -0.0711  0.1129 -0.0005
 2211ntf    fn412097   1.614   6.524   6.134 -0.4554  0.1068 -0.1022
 2211ntf    fn412098   1.512   6.435   6.303  0.0803 -0.0210 -0.6887
 2211ntf    on512099   1.817   6.639   6.251 -0.2612  0.1865 -0.0011
 2211ntf    on512100   1.710   6.617   6.473  0.4863 -0.4103  0.4416
 2211ntf    on512101   1.769   6.172   6.390  0.2140 -0.0062 -0.1054
 2211ntf    on512102   1.682   6.320   6.557  0.2309 -0.6085  0.0522
 2211ntf    fn412103   2.034   6.243   6.479 -0.5924 -0.4467 -0.1660
 2211ntf    fn412104   1.984   6.430   6.566 -0.7454 -0.2663 -0.0605
 2211ntf    fn412105   1.924   6.263   6.665 -0.4647 -0.6764  0.3484
 2212ntf    cn112106   5.042   2.897   2.928 -0.0831  0.5015  0.1110
 2212ntf    sn212107   5.153   2.825   3.053  0.2697 -0.0155 -0.4924
 2212ntf    nn312108   5.172   2.957   3.136 -0.1903 -0.4424  0.3117
 2212ntf    sn212109   5.267   2.979   3.259 -0.0456 -0.0600  0.1349
 2212ntf    cn112110   5.425   3.033   3.186 -0.1559 -0.0893 -0.1266
 2212ntf    fn412111   5.034   2.825   2.817  0.0154  0.3745  0.1852
 2212ntf    fn412112   4.922   2.905   2.984  0.1073  0.0398  0.5923
 2212ntf    fn412113   5.085   3.015   2.885 -0.0394  0.3370 -0.2921
 2212ntf    on512114   5.067   2.724   3.110  0.5242  0.0020 -0.0718
 2212ntf    on512115   5.267   2.783   2.976  0.5029 -0.2085 -0.0456
 2212ntf    on512116   5.298   2.857   3.329 -0.3636  0.0632  0.4954
 2212ntf    on512117   5.236   3.095   3.339 -0.1461  0.2438 -0.3433
 2212ntf    fn412118   5.528   3.015   3.267  0.1439  0.2160 -0.4387
 2212ntf    fn412119   5.453   2.975   3.070 -0.7150 -0.4088 -0.1080
 2212ntf    fn412120   5.425   3.163   3.161 -0.4833  0.0292  0.4694
 2213ntf    cn112121   3.003   5.608   2.119 -0.0212  0.2061 -0.0326
 2213ntf    sn212122   3.142   5.589   2.003  0.0011 -0.1797  0.0561
 2213ntf    nn312123   3.243   5.696   2.058  0.1637 -0.0970 -0.3962
 2213ntf    sn212124   3.247   5.846   2.012  0.4079 -0.0485 -0.2172
 2213ntf    cn112125   3.338   5.837   1.855 -0.0376  0.3087 -0.4958
 2213ntf    fn412126   2.947   5.728   2.113 -0.0065  0.2332  0.3702
 2213ntf    fn412127   2.906   5.519   2.108  0.5213 -0.3537 -0.3448
 2213ntf    fn412128   3.049   5.602   2.242 -0.1798  0.4646  0.0408
 2213ntf    on512129   3.189   5.458   2.041 -0.0038 -0.1817  0.0558
 2213ntf    on512130   3.084   5.603   1.872 -0.3934  0.0325  0.2519
 2213ntf    on512131   3.329   5.924   2.101 -0.0792 -0.0779  0.2646
 2213ntf    on512132   3.120   5.898   1.970  0.1984 -0.4625 -0.1036
 2213ntf    fn412133   3.273   5.784   1.753  0.6567 -1.2753 -0.1455
 2213ntf    fn412134   3.381   5.944   1.789  0.1567  0.5299 -0.0145
 2213ntf    fn412135   3.451   5.770   1.870 -0.3550 -0.2276 -0.5006
 2214ntf    cn112136   6.916   6.485   2.974 -0.2779 -0.1408  0.0015
 2214ntf    sn212137   7.018   6.345   2.917 -0.2920 -0.1675  0.0402
 2214ntf    nn312138   7.088   6.401   2.788 -0.1702 -0.3111  0.0444
 2214ntf    sn212139   7.154   6.322   2.669 -0.1361 -0.3000  0.0560
 2214ntf    cn112140   7.330   6.362   2.686 -0.2903  0.2201  0.4388
 2214ntf    fn412141   6.988   6.587   3.016 -0.3227  0.0468 -0.3688
 2214ntf    fn412142   6.850   6.527   2.867 -0.2785 -0.4130 -0.1073
 2214ntf    fn412143   6.829   6.452   3.068 -0.2133 -0.2239  0.0325
 2214ntf    on512144   7.116   6.321   3.020 -0.2291 -0.0867 -0.0003
 2214ntf    on512145   6.914   6.248   2.901  0.0202 -0.3927 -0.6797
 2214ntf    on512146   7.120   6.381   2.541 -0.2349  0.0045  0.2214
 2214ntf    on512147   7.139   6.179   2.684  0.2599 -0.2921  0.5393
 2214ntf    fn412148   7.408   6.327   2.586 -0.7210  0.3783  0.0432
 2214ntf    fn412149   7.342   6.490   2.719  0.0933  0.2036  0.3605
 2214ntf    fn412150   7.377   6.296   2.791  0.4305  0.1158  0.0557
 2215ntf    cn112151   3.811   1.435   4.584  0.2864  0.2934  0.0884
 2215ntf    sn212152   3.989   1.411   4.613  0.2562  0.2666  0.2508
 2215ntf    nn312153   4.023   1.284   4.526  0.2509  0.4865 -0.0730
 2215ntf    sn212154   4.149   1.248   4.440  0.3629  0.3198  0.1594
 2215ntf    cn112155   4.099   1.274   4.267 -0.1744  0.1700  0.2927
 2215ntf    fn412156   3.790   1.482   4.462  0.3305  0.5400  0.1762
 2215ntf    fn412157   3.746   1.320   4.591  0.5473  0.1745  0.5691
 2215ntf    fn412158   3.752   1.524   4.662 -0.0489 -0.2236  0.4297
 2215ntf    on512159   4.041   1.535   4.561  0.2468  0.4947  0.7843
 2215ntf    on512160   3.994   1.381   4.754 -0.4150 -0.4455  0.1338
 2215ntf    on512161   4.176   1.107   4.439  0.2979  0.3082 -0.7261
 2215ntf    on512162   4.261   1.339   4.457  0.7771 -0.1157 -0.2107
 2215ntf    fn412163   4.186   1.225   4.181 -0.1133  0.4121  0.2136
 2215ntf    fn412164   3.986   1.211   4.241 -0.7346  0.9554  0.7615
 2215ntf    fn412165   4.084   1.400   4.228 -0.3629 -0.0825 -0.4684
 2216ntf    cn112166   0.211   1.842   4.179  0.1057  0.1530  0.1142
 2216ntf    sn212167   0.291   1.983   4.096  0.0107  0.0815 -0.0988
 2216ntf    nn312168   0.423   1.932   4.028 -0.1417 -0.5252  0.0542
 2216ntf    sn212169   0.555   1.888   4.101  0.2247 -0.1832 -0.3942
 2216ntf    cn112170   0.650   2.042   4.094 -0.0674  0.0409  0.5068
 2216ntf    fn412171   0.097   1.882   4.232 -0.2580  0.2034 -0.6826
 2216ntf    fn412172   0.180   1.751   4.087  0.0851  0.3299 -0.0540
 2216ntf    fn412173   0.283   1.770   4.264  0.1943  0.1812  0.0639
 2216ntf    on512174   0.190   2.021   4.000 -0.3344 -0.9154 -0.1465
 2216ntf    on512175   0.318   2.073   4.205  0.9533  0.0505 -0.3035
 2216ntf    on512176   0.629   1.794   4.020 -0.1740 -0.6911 -0.1797
 2216ntf    on512177   0.545   1.859   4.242 -0.0364  0.1648 -0.3395
 2216ntf    fn412178   0.751   2.036   4.179  0.2287  0.1710  0.1636
 2216ntf    fn412179   0.709   2.068   3.979  0.0373  0.0070  0.5519
 2216ntf    fn412180   0.589   2.155   4.126  0.1194  0.2182  0.2364
 2217ntf    cn112181   1.913   4.639   2.043  0.1638  0.0121 -0.3047
 2217ntf    sn212182   1.791   4.544   2.137  0.3759 -0.0147 -0.0554
 2217ntf    nn312183   1.829   4.407   2.071  0.5053 -0.1927  0.3811
 2217ntf    sn212184   1.756   4.276   2.025 -0.1414  0.3055 -0.0353
 2217ntf    cn112185   1.749   4.319   1.848 -0.3180  0.2904 -0.0314
 2217ntf    fn412186   1.877   4.640   1.915 -0.1893  0.3342 -0.2056
 2217ntf    fn412187   1.918   4.767   2.076 -0.4110 -0.0830  0.1641
 2217ntf    fn412188   2.039   4.600   2.037  0.0320 -0.3835 -0.5275
 2217ntf    on512189   1.833   4.558   2.274 -0.2409  0.4447  0.0956
 2217ntf    on512190   1.659   4.593   2.103  0.3995 -0.2659 -0.5198
 2217ntf    on512191   1.619   4.252   2.062  0.1057 -0.0724  0.6477
 2217ntf    on512192   1.845   4.162   2.017 -0.7389 -0.1748  0.0886
 2217ntf    fn412193   1.654   4.407   1.821 -0.2766  0.3596  0.0500
 2217ntf    fn412194   1.869   4.354   1.805 -0.0950 -0.9504 -0.4638
 2217ntf    fn412195   1.715   4.208   1.784 -0.3679  0.3089 -0.0379
 2218ntf    cn112196   5.365   2.469   2.421 -0.2526 -0.1007  0.3220
 2218ntf    sn212197   5.202   2.497   2.346 -0.1879 -0.3964  0.0715
 2218ntf    nn312198   5.226   2.645   2.300  0.2675 -0.4927 -0.0076
 2218ntf    sn212199   5.189   2.710   2.161 -0.5525 -0.3062  0.2936
 2218ntf    cn112200   5.044   2.810   2.205 -0.3127  0.2187 -0.1023
 2218ntf    fn412201   5.395   2.560   2.512 -0.3166  0.2812 -0.0338
 2218ntf    fn412202   5.387   2.353   2.482  0.8080 -0.4013 -0.5934
 2218ntf    fn412203   5.461   2.483   2.331 -0.5174 -0.2643  0.0119
 2218ntf    on512204   5.191   2.397   2.243  0.6215  0.0238 -0.4366
 2218ntf    on512205   5.117   2.498   2.462 -0.8660  0.2658 -0.4209
 2218ntf    on512206   5.138   2.619   2.062  0.4223  0.2548 -0.7490
 2218ntf    on512207   5.287   2.804   2.113 -0.8614 -0.2783 -0.2914
 2218ntf    fn412208   5.014   2.890   2.104 -0.6689  0.2618  0.0358
 2218ntf    fn412209   4.930   2.747   2.228 -0.1524  0.0417  0.2125
 2218ntf    fn412210   5.072   2.881   2.313  0.3543  0.3773 -0.3799
 2219ntf    cn112211   6.728   2.346   1.453  0.2774 -0.2659  0.1791
 2219ntf    sn212212   6.705   2.167   1.431 -0.3860 -0.1800  0.1804
 2219ntf    nn312213   6.665   2.156   1.279  0.5147 -0.3067 -0.0523
 2219ntf    sn212214   6.523   2.150   1.213  0.2875  0.3882  0.3611
 2219ntf    cn112215   6.485   1.972   1.219  0.3258  0.3783  0.3192
 2219ntf    fn412216   6.762   2.388   1.574  0.5798  0.2139 -0.0665
 2219ntf    fn412217   6.826   2.392   1.376 -0.1970  0.1045 -0.2036
 2219ntf    fn412218   6.613   2.404   1.423  0.3500 -0.3617 -0.2868
 2219ntf    on512219   6.836   2.111   1.448 -0.0075  0.8806  0.8492
 2219ntf    on512220   6.608   2.131   1.531 -0.4561  0.0226  0.1874
 2219ntf    on512221   6.537   2.168   1.071  0.0076 -0.7713  0.1742
 2219ntf    on512222   6.406   2.202   1.280 -0.0728  0.2222 -0.1255
 2219ntf    fn412223   6.356   1.953   1.200  0.4324 -0.2192  0.1846
 2219ntf    fn412224   6.547   1.900   1.127  0.6085  0.4729  0.4351
 2219ntf    fn412225   6.514   1.926   1.340  0.2504 -0.0979  0.1578
 2220ntf    cn112226   1.597   4.427   3.550  0.3646 -0.7873 -0.1491
 2220ntf    sn212227   1.607   4.383   3.727 -0.0890  0.2118  0.1319
 2220ntf    nn312228   1.493   4.474   3.784 -0.4897 -0.3063  0.1632
 2220ntf    sn212229   1.489   4.613   3.858 -0.3727 -0.0509 -0.3028
 2220ntf    cn112230   1.396   4.714   3.738 -0.0994  0.2232 -0.2835
 2220ntf    fn412231   1.684   4.359   3.477  0.2270 -0.2776 -0.7924
 2220ntf    fn412232   1.475   4.411   3.503  0.2434 -0.1388 -0.0690
 2220ntf    fn412233   1.626   4.555   3.531  0.3846 -0.7698 -0.0043
 2220ntf    on512234   1.574   4.243   3.727 -0.3208  0.2664  0.8562
 2220ntf    on512235   1.742   4.415   3.769  0.0645 -0.2053 -0.0396
 2220ntf    on512236   1.613   4.683   3.872 -0.6887  0.4437  0.0413
 2220ntf    on512237   1.396   4.605   3.968 -0.2676  0.1306 -0.2012
 2220ntf    fn412238   1.474   4.754   3.639  0.1115  0.6948  0.0720
 2220ntf    fn412239   1.294   4.648   3.687 -0.1082 -0.2169  0.2952
 2220ntf    fn412240   1.351   4.827   3.790 -0.1586  0.2931 -0.4882
 2221ntf    cn112241   2.215   0.846   6.466  0.1436 -0.0199 -0.0944
 2221ntf    sn212242   2.376   0.926   6.490  0.2104 -0.1754 -0.0284
 2221ntf    nn312243   2.446   0.905   6.351 -0.3536 -0.9892 -0.1911
 2221ntf    sn212244   2.576   0.823   6.318  0.1904 -0.1918 -0.0504
 2221ntf    cn112245   2.517   0.749   6.163 -0.3016  0.1652 -0.0386
 2221ntf    fn412246   2.134   0.934   6.410 -0.5820 -0.1692  0.6940
 2221ntf    fn412247   2.227   0.739   6.389 -0.8071 -0.0218 -0.2492
 2221ntf    fn412248   2.162   0.804   6.579  0.1057 -0.2076 -0.1826
 2221ntf    on512249   2.346   1.063   6.521  0.6203 -0.2400  0.6789
 2221ntf    on512250   2.432   0.847   6.598  0.1777  0.1864  0.2560
 2221ntf    on512251   2.600   0.703   6.394 -0.2753 -0.1971  0.0948
 2221ntf    on512252   2.684   0.903   6.268 -0.0472  0.0351 -0.2048
 2221ntf    fn412253   2.617   0.674   6.118 -0.5504 -0.2515  0.1060
 2221ntf    fn412254   2.403   0.683   6.166 -0.4264  0.3875  0.1121
 2221ntf    fn412255   2.506   0.846   6.074  0.3524 -0.1331 -0.4613
 2222ntf    cn112256   4.150   1.471   6.713  0.1202 -0.0603 -0.0638
 2222ntf    sn212257   4.229   1.624   6.770  0.4221 -0.2914  0.1451
 2222ntf    nn312258   4.362   1.563   6.825  0.3532 -0.4111  0.1788
 2222ntf    sn212259   4.499   1.533   6.754  0.2037 -0.0643 -0.2558
 2222ntf    cn112260   4.597   1.675   6.813 -0.0870  0.0510 -0.0486
 2222ntf    fn412261   4.212   1.405   6.616  0.4072  0.3762 -0.1768
 2222ntf    fn412262   4.153   1.382   6.812  0.1808 -0.0967 -0.0989
 2222ntf    fn412263   4.025   1.484   6.674  0.0734  0.1305  0.1463
 2222ntf    on512264   4.240   1.699   6.647 -0.2234 -0.4391 -0.0068
 2222ntf    on512265   4.143   1.684   6.869  0.2721 -0.5628  0.1792
 2222ntf    on512266   4.497   1.542   6.610 -0.0383  0.2875 -0.2333
 2222ntf    on512267   4.560   1.416   6.811 -0.6969 -0.3002  0.2461
 2222ntf    fn412268   4.717   1.684   6.759 -0.0061 -0.2469  0.0806
 2222ntf    fn412269   4.531   1.790   6.803 -0.3649 -0.1161 -0.1591
 2222ntf    fn412270   4.628   1.650   6.939  0.3733  0.1188 -0.1474
 2223ntf    cn112271   2.552   2.633   4.808 -0.3181  0.4166 -0.1251
 2223ntf    sn212272   2.525   2.528   4.661  0.0472 -0.0982  0.1724
 2223ntf    nn312273   2.409   2.436   4.712 -0.3054  0.4820  0.4302
 2223ntf    sn212274   2.253   2.442   4.693 -0.2652  0.3071  0.0227
 2223ntf    cn112275   2.227   2.338   4.546 -0.5082  0.0427  0.2501
 2223ntf    fn412276   2.445   2.702   4.843 -0.2947  0.0659  0.6356
 2223ntf    fn412277   2.590   2.560   4.911 -1.0719  0.1073 -0.0553
 2223ntf    fn412278   2.647   2.724   4.793 -0.1088  0.2996  0.4964
 2223ntf    on512279   2.486   2.618   4.556 -0.1716 -0.1071  0.2469
 2223ntf    on512280   2.649   2.457   4.642 -0.1659 -0.6472  0.7947
 2223ntf    on512281   2.194   2.570   4.663 -0.2745  0.2843 -0.0564
 2223ntf    on512282   2.189   2.357   4.791 -0.8802  0.7363  0.0009
 2223ntf    fn412283   2.104   2.290   4.534 -0.1609 -0.9041  0.4374
 2223ntf    fn412284   2.256   2.409   4.438 -0.5967  0.2311  0.3496
 2223ntf    fn412285   2.304   2.231   4.537 -0.5346  0.0205  0.2865
 2224ntf    cn112286   2.015   4.617   5.030  0.0039 -0.3038  0.0882
 2224ntf    sn212287   2.085   4.545   5.182 -0.0687 -0.3122  0.1173
 2224ntf    nn312288   1.960   4.476   5.247 -0.2096  0.0895  0.2754
 2224ntf    sn212289   1.924   4.323   5.241  0.1971  0.0137 -0.3083
 2224ntf    cn112290   1.761   4.310   5.321  0.3486  0.1597  0.0298
 2224ntf    fn412291   1.947   4.528   4.961 -0.0607 -0.4118  0.2926
 2224ntf    fn412292   1.931   4.719   5.042  0.5124  0.2138 -0.6158
 2224ntf    fn412293   2.115   4.663   4.957 -0.2260 -0.3279 -0.2433
 2224ntf    on512294   2.187   4.456   5.133  0.2136 -0.1496  0.4105
 2224ntf    on512295   2.144   4.656   5.252 -0.2571 -0.0560 -0.1248
 2224ntf    on512296   2.015   4.239   5.315  0.1528  0.6707  0.5113
 2224ntf    on512297   1.893   4.271   5.111 -0.3019  0.2686 -0.2944
 2224ntf    fn412298   1.724   4.183   5.333  0.4791  0.1049 -0.1480
 2224ntf    fn412299   1.776   4.349   5.446  0.2571  0.2052  0.0267
 2224ntf    fn412300   1.662   4.380   5.268  0.0949 -0.0531  0.2238
 2225ntf    cn112301   3.606   3.583   1.887  0.1735 -0.2470  0.1968
 2225ntf    sn212302   3.481   3.505   1.994 -0.1627 -0.1551 -0.1266
 2225ntf    nn312303   3.405   3.637   2.033  0.0334 -0.1319  0.1856
 2225ntf    sn212304   3.254   3.649   2.077  0.0267 -0.0659  0.1435
 2225ntf    cn112305   3.270   3.654   2.258 -0.3482 -0.1814  0.1807
 2225ntf    fn412306   3.687   3.502   1.821  0.2955  0.0027  0.0414
 2225ntf    fn412307   3.551   3.666   1.801 -0.3154 -0.1212  0.6267
 2225ntf    fn412308   3.688   3.663   1.954  0.5804 -0.2734 -0.2677
 2225ntf    on512309   3.415   3.401   1.920  0.1950 -0.2538 -0.3093
 2225ntf    on512310   3.567   3.455   2.099 -0.0334  0.4284  0.0530
 2225ntf    on512311   3.167   3.536   2.058  0.8322 -0.8507  1.0706
 2225ntf    on512312   3.207   3.781   2.042 -0.6735 -0.1518  0.7391
 2225ntf    fn412313   3.294   3.536   2.314  0.1011 -0.4774 -0.6000
 2225ntf    fn412314   3.368   3.734   2.296  0.0681 -0.4530 -0.2957
 2225ntf    fn412315   3.164   3.696   2.323 -0.3364  0.1627 -0.0223
 2226ntf    cn112316   6.604   6.682   6.150  0.2404 -0.1547 -0.6051
 2226ntf    sn212317   6.471   6.558   6.146 -0.1250  0.2046  0.1353
 2226ntf    nn312318   6.410   6.602   6.008  0.1452 -0.3291 -0.1614
 2226ntf    sn212319   6.258   6.608   5.969  0.2652  0.0439 -0.5744
 2226ntf    cn112320   6.240   6.785   6.005 -0.0704 -0.0481 -0.2877
 2226ntf    fn412321   6.668   6.692   6.266  0.3401  0.1787 -0.6890
 2226ntf    fn412322   6.698   6.674   6.057  0.8098 -0.3876 -0.0228
 2226ntf    fn412323   6.544   6.798   6.130 -0.1676 -0.3680 -0.6149
 2226ntf    on512324   6.548   6.436   6.139 -0.5050  0.0005 -0.5994
 2226ntf    on512325   6.401   6.588   6.268 -0.3668  0.2830 -0.0217
 2226ntf    on512326   6.162   6.559   6.065  0.4043 -0.0336 -0.4749
 2226ntf    on512327   6.228   6.604   5.828 -0.3469  0.2088 -0.4524
 2226ntf    fn412328   6.114   6.823   5.989 -0.1656 -0.2616 -0.0588
 2226ntf    fn412329   6.279   6.800   6.131  0.3301 -0.0111 -0.4139
 2226ntf    fn412330   6.305   6.860   5.918  0.3428 -0.1150 -0.0420
 2227ntf    cn112331   4.259   5.007   4.359  0.2178  0.1621  0.2192
 2227ntf    sn212332   4.083   5.044   4.384  0.1950  0.3304 -0.1805
 2227ntf    nn312333   4.061   5.142   4.263  0.0805  0.1249 -0.3274
 2227ntf    sn212334   3.922   5.171   4.197 -0.0070  0.2439 -0.0914
 2227ntf    cn112335   3.914   5.044   4.067 -0.2303  0.3175 -0.1485
 2227ntf    fn412336   4.286   4.918   4.265  0.3950  0.6638 -0.2102
 2227ntf    fn412337   4.332   5.117   4.348  0.1191  0.1685 -0.3703
 2227ntf    fn412338   4.303   4.942   4.465  0.0428 -0.1807  0.0828
 2227ntf    on512339   4.022   4.913   4.382 -0.1876  0.4963  0.3435
 2227ntf    on512340   4.085   5.115   4.510 -0.7126 -0.0071  0.0372
 2227ntf    on512341   3.925   5.295   4.123 -0.5415 -0.0385 -0.5953
 2227ntf    on512342   3.809   5.152   4.284  0.3566 -1.0082  0.1297
 2227ntf    fn412343   3.851   5.078   3.955  0.1236  0.2669 -0.3659
 2227ntf    fn412344   4.039   5.030   4.027 -0.2303 -0.2873  0.0615
 2227ntf    fn412345   3.870   4.924   4.100 -0.1319  0.3995  0.2844
 2228ntf    cn112346   2.273   0.937   2.390  0.0022 -0.3517 -0.0503
 2228ntf    sn212347   2.407   0.839   2.464  0.1373  0.0189  0.1983
 2228ntf    nn312348   2.345   0.830   2.608 -0.5602  0.1081 -0.0905
 2228ntf    sn212349   2.403   0.781   2.746  0.0255  0.1809 -0.3100
 2228ntf    cn112350   2.421   0.939   2.835  0.3454 -0.0538  0.0466
 2228ntf    fn412351   2.242   1.048   2.455  0.5515 -0.3346  0.1874
 2228ntf    fn412352   2.309   0.971   2.268 -0.2941 -0.1759 -0.0916
 2228ntf    fn412353   2.157   0.873   2.378 -0.1161 -0.1983  0.2512
 2228ntf    on512354   2.400   0.716   2.389  0.3959 -0.3389  0.7498
 2228ntf    on512355   2.526   0.920   2.456 -0.0421  0.2403 -0.2845
 2228ntf    on512356   2.540   0.737   2.754  0.1364  0.6453  0.5090
 2228ntf    on512357   2.311   0.704   2.826 -0.2074  0.6468 -0.1256
 2228ntf    fn412358   2.315   1.015   2.812  0.5999  0.4723  0.6076
 2228ntf    fn412359   2.411   0.926   2.966 -0.6113 -0.5112 -0.0602
 2228ntf    fn412360   2.523   1.017   2.803  0.1897  0.3461  0.5106
 2229ntf    cn112361   6.936   1.587   4.342 -0.0927 -0.1302 -0.2903
 2229ntf    sn212362   6.769   1.601   4.413  0.1366  0.1053  0.2167
 2229ntf    nn312363   6.813   1.643   4.557  0.0917  0.3034  0.1718
 2229ntf    sn212364   6.838   1.781   4.629  0.3583  0.2305  0.2221
 2229ntf    cn112365   6.716   1.761   4.763  0.3456 -0.2391  0.1422
 2229ntf    fn412366   7.007   1.506   4.418  0.1285  0.3500  0.0224
 2229ntf    fn412367   6.963   1.541   4.221  0.1500 -0.2399 -0.1949
 2229ntf    fn412368   7.009   1.697   4.346 -1.0505  0.5024  0.2005
 2229ntf    on512369   6.711   1.704   4.330 -0.0038 -0.5546 -0.5185
 2229ntf    on512370   6.720   1.465   4.404  0.1357  0.1552 -0.6523
 2229ntf    on512371   6.798   1.896   4.553 -0.1746  0.3302  0.6427
 2229ntf    on512372   6.963   1.783   4.701  0.1177  0.1029  0.6538
 2229ntf    fn412373   6.759   1.801   4.881 -0.1647 -0.2649  0.3427
 2229ntf    fn412374   6.610   1.836   4.737  0.2050 -0.4552  0.0883
 2229ntf    fn412375   6.676   1.635   4.777  0.0469 -0.1925 -0.2739
 2230ntf    cn112376   1.693   0.405   1.030  0.0609  0.2587 -0.2883
 2230ntf    sn212377   1.668   0.339   0.863  0.3428 -0.5380 -0.0167
 2230ntf    nn312378   1.598   0.457   0.787  0.7079 -0.3522 -0.0669
 2230ntf    sn212379   1.628   0.523   0.647  0.0753 -0.2904 -0.1747
 2230ntf    cn112380   1.498   0.433   0.557 -0.0601 -0.0890 -0.1797
 2230ntf    fn412381   1.771   0.326   1.102  0.1258 -0.0357 -0.6779
 2230ntf    fn412382   1.750   0.524   1.021  0.6039  0.0301  0.0740
 2230ntf    fn412383   1.583   0.423   1.100 -0.1027  0.0910 -0.5015
 2230ntf    on512384   1.802   0.307   0.820  0.0228 -0.1004 -1.3899
 2230ntf    on512385   1.584   0.225   0.891 -0.2470  0.0319  0.5585
 2230ntf    on512386   1.755   0.502   0.582  0.1985  0.2301 -0.1028
 2230ntf    on512387   1.575   0.657   0.650 -0.1065 -0.3659  0.0458
 2230ntf    fn412388   1.526   0.307   0.531  0.5206 -0.0777  0.3649
 2230ntf    fn412389   1.377   0.444   0.610  0.2447  0.6252  0.3823
 2230ntf    fn412390   1.483   0.487   0.436 -0.0497  0.4246  0.0447
 2231ntf    cn112391   4.803   6.915   6.938 -0.4608 -0.1696  0.2561
 2231ntf    sn212392   4.927   6.811   7.019  0.0932  0.2371 -0.0633
 2231ntf    nn312393   5.027   6.788   6.899 -0.5726  0.0657 -0.5882
 2231ntf    sn212394   5.141   6.884   6.852  0.0025 -0.3232 -0.0056
 2231ntf    cn112395   5.276   6.764   6.873  0.1249 -0.1973 -0.0628
 2231ntf    fn412396   4.706   6.954   7.020  0.0317  0.1953  0.6726
 2231ntf    fn412397   4.859   7.022   6.883 -0.4663 -0.5056 -0.4093
 2231ntf    fn412398   4.746   6.848   6.839  0.1214 -0.5684  0.1869
 2231ntf    on512399   4.983   6.872   7.137  0.6069 -0.9197  0.3022
 2231ntf    on512400   4.842   6.699   7.049  0.6096 -0.0577  0.3197
 2231ntf    on512401   5.184   6.988   6.942 -0.0696 -0.2167 -0.0926
 2231ntf    on512402   5.116   6.918   6.714 -0.2350 -0.0156  0.1117
 2231ntf    fn412403   5.395   6.815   6.849 -0.2182  0.4623 -0.3786
 2231ntf    fn412404   5.278   6.723   6.999  0.0360  0.1579  0.0542
 2231ntf    fn412405   5.259   6.660   6.794  0.5409 -0.6028  0.3738
 2232ntf    cn112406   1.492   5.011   6.899 -0.1260  0.0939  0.5404
 2232ntf    sn212407   1.327   5.079   6.936 -0.2796 -0.0738  0.1725
 2232ntf    nn312408   1.270   4.966   7.028 -0.2114 -0.2947 -0.0567
 2232ntf    sn212409   1.247   4.955   7.183  0.1701  0.0392  0.0254
 2232ntf    cn112410   1.065   4.961   7.187  0.1582  0.1528 -0.5349
 2232ntf    fn412411   1.559   5.086   6.812  0.0489 -0.2815  0.3480
 2232ntf    fn412412   1.572   4.993   7.002 -0.1647 -0.2355  0.5123
 2232ntf    fn412413   1.483   4.897   6.833  0.3648  0.3697 -0.0094
 2232ntf    on512414   1.363   5.206   6.996 -0.3252  0.1672 -0.3025
 2232ntf    on512415   1.257   5.080   6.810 -0.0653  0.1543  0.0511
 2232ntf    on512416   1.286   5.073   7.256 -0.4868  0.0474  0.3768
 2232ntf    on512417   1.279   4.826   7.238 -0.6201 -0.0770  0.2187
 2232ntf    fn412418   0.999   4.881   7.105  0.0363  0.0621 -0.3493
 2232ntf    fn412419   1.014   4.919   7.302  0.5260  0.2391 -0.3393
 2232ntf    fn412420   1.026   5.085   7.162  0.0650  0.2331 -0.0071
 2233ntf    cn112421   0.456   6.265   6.115  0.0512 -0.1750 -0.5667
 2233ntf    sn212422   0.298   6.355   6.122  0.1566 -0.0363  0.0640
 2233ntf    nn312423   0.345   6.493   6.179  0.5116 -0.0786 -0.1292
 2233ntf    sn212424   0.314   6.575   6.309 -0.2046 -0.3402 -0.1344
 2233ntf    cn112425   0.223   6.715   6.239  0.4418  0.0636 -0.1737
 2233ntf    fn412426   0.541   6.324   6.033  0.1282  0.6056  0.0621
 2233ntf    fn412427   0.517   6.246   6.230 -0.0821  0.3896 -0.3987
 2233ntf    fn412428   0.434   6.143   6.067  0.1805 -0.4948  0.1783
 2233ntf    on512429   0.252   6.361   5.986  0.1469 -0.3478  0.0521
 2233ntf    on512430   0.226   6.269   6.214 -0.0187  0.1642  0.1142
 2233ntf    on512431   0.435   6.633   6.361  0.1071 -0.7743 -0.3717
 2233ntf    on512432   0.221   6.516   6.402 -0.3118  0.4034  0.2391
 2233ntf    fn412433   0.181   6.804   6.327  0.0754 -0.4645  0.1903
 2233ntf    fn412434   0.292   6.782   6.148  0.1009 -0.0437 -0.5136
 2233ntf    fn412435   0.118   6.668   6.172 -0.2666  0.6260  0.5203
 2234ntf    cn112436   5.690   2.379   0.903  0.4399 -0.2085  0.1271
 2234ntf    sn212437   5.582   2.343   0.762  0.0696  0.0051  0.3546
 2234ntf    nn312438   5.491   2.228   0.817  0.0582 -0.1259  0.0624
 2234ntf    sn212439   5.501   2.075   0.784 -0.1799 -0.1228 -0.0312
 2234ntf    cn112440   5.394   2.062   0.638 -0.1695 -0.0460 -0.0455
 2234ntf    fn412441   5.750   2.496   0.893 -0.5866  0.3148 -0.0429
 2234ntf    fn412442   5.622   2.395   1.016 -0.3127  0.5054 -0.4219
 2234ntf    fn412443   5.785   2.291   0.930  0.3369 -0.4194 -0.1959
 2234ntf    on512444   5.506   2.466   0.751 -0.2955 -0.2583 -0.0963
 2234ntf    on512445   5.673   2.317   0.654 -0.5705  0.7106 -0.3731
 2234ntf    on512446   5.427   1.992   0.876 -0.7153 -0.0617 -0.4054
 2234ntf    on512447   5.637   2.042   0.746 -0.0845 -0.3744  0.5185
 2234ntf    fn412448   5.271   2.099   0.669 -0.3399 -0.1675 -0.5588
 2234ntf    fn412449   5.434   2.134   0.534  0.2099  0.0112  0.1389
 2234ntf    fn412450   5.388   1.938   0.593  0.5811 -0.2263  0.3314
 2235ntf    cn112451   1.730   4.489   0.834 -0.0249  0.2848 -0.3061
 2235ntf    sn212452   1.670   4.610   0.956  0.1001  0.1938 -0.1542
 2235ntf    nn312453   1.787   4.613   1.061  0.4366 -0.4539 -0.5037
 2235ntf    sn212454   1.879   4.736   1.093 -0.1304 -0.1558  0.0006
 2235ntf    cn112455   1.973   4.753   0.939  0.1570  0.3337  0.2274
 2235ntf    fn412456   1.630   4.426   0.775 -0.5585  0.8539 -0.0264
 2235ntf    fn412457   1.815   4.544   0.749  0.2974  0.0068 -0.1628
 2235ntf    fn412458   1.806   4.398   0.893 -0.4178  0.0281 -0.1896
 2235ntf    on512459   1.643   4.738   0.897 -0.4439  0.2423  0.1874
 2235ntf    on512460   1.555   4.539   1.008  0.1782 -0.0532 -0.3179
 2235ntf    on512461   1.978   4.713   1.195 -0.3777 -0.5745  0.1523
 2235ntf    on512462   1.815   4.865   1.103 -0.2502 -0.2079 -0.0904
 2235ntf    fn412463   2.013   4.876   0.910  0.5619  0.2896  0.5872
 2235ntf    fn412464   2.079   4.674   0.936  0.2636  0.4954 -0.6286
 2235ntf    fn412465   1.904   4.721   0.831 -0.5158  0.8136  0.5068
 2236ntf    cn112466   5.337   0.600   0.187  0.4205  0.5038  0.1461
 2236ntf    sn212467   5.514   0.599   0.145  0.3707  0.5179 -0.0700
 2236ntf    nn312468   5.597   0.631   0.275  0.2076  0.6005  0.0145
 2236ntf    sn212469   5.664   0.535   0.379 -0.2677  0.1408 -0.1014
 2236ntf    cn112470   5.613   0.618   0.533  0.2254 -0.0213  0.1534
 2236ntf    fn412471   5.260   0.576   0.082  0.1650  0.3016  0.3771
 2236ntf    fn412472   5.322   0.505   0.278 -0.3837  0.0582 -0.4419
 2236ntf    fn412473   5.297   0.710   0.248  0.2005  0.5822 -0.1374
 2236ntf    on512474   5.535   0.466   0.092  0.5420  0.4110  0.2600
 2236ntf    on512475   5.533   0.708   0.053  0.2527  0.6973  0.1182
 2236ntf    on512476   5.808   0.546   0.385 -0.2293 -0.1250 -0.4789
 2236ntf    on512477   5.614   0.400   0.387  0.7426 -0.2501 -0.1865
 2236ntf    fn412478   5.483   0.641   0.545  0.3278  0.3361  0.6115
 2236ntf    fn412479   5.654   0.555   0.642  0.6325  0.4863  0.2991
 2236ntf    fn412480   5.666   0.739   0.539 -0.0200  0.1046 -0.1467
 2237ntf    cn112481   6.472   2.573   3.074 -0.2497 -0.2227  0.3755
 2237ntf    sn212482   6.299   2.608   3.119 -0.2927  0.4352 -0.2754
 2237ntf    nn312483   6.240   2.463   3.105 -0.0029  0.2829  0.0407
 2237ntf    sn212484   6.202   2.382   2.976  0.1865 -0.0686  0.2081
 2237ntf    cn112485   6.021   2.390   2.988  0.1702 -0.0093 -0.0810
 2237ntf    fn412486   6.521   2.464   3.130 -0.1042  0.0408  0.7651
 2237ntf    fn412487   6.491   2.558   2.944 -0.4533 -0.7611  0.4053
 2237ntf    fn412488   6.558   2.668   3.107  0.2958 -0.4276 -0.4453
 2237ntf    on512489   6.320   2.650   3.256  0.5424  0.3017 -0.3534
 2237ntf    on512490   6.249   2.706   3.026 -0.0080  0.7874 -0.0602
 2237ntf    on512491   6.217   2.239   2.992  0.1313 -0.1404 -0.3691
 2237ntf    on512492   6.237   2.438   2.848  0.0276 -0.4148  0.0108
 2237ntf    fn412493   5.979   2.516   2.986 -0.2261 -0.1297  0.4821
 2237ntf    fn412494   5.966   2.337   2.880  0.1989  0.0424 -0.1215
 2237ntf    fn412495   5.967   2.332   3.093 -0.3098  0.1463 -0.2381
 2238ntf    cn112496   0.257   6.163   4.197 -0.2387 -0.4858  0.0897
 2238ntf    sn212497   0.356   6.309   4.150 -0.2333 -0.4054  0.3483
 2238ntf    nn312498   0.266   6.369   4.036  0.4521  0.7088  0.3847
 2238ntf    sn212499   0.149   6.474   4.041 -0.0322  0.2020 -0.1335
 2238ntf    cn112500   0.027   6.408   3.924 -0.1881  0.3796 -0.0707
 2238ntf    fn412501   0.126   6.183   4.197 -0.2101 -0.2494 -0.7135
 2238ntf    fn412502   0.274   6.067   4.108  0.5734 -0.1190 -0.1578
 2238ntf    fn412503   0.289   6.111   4.314  0.6053  0.2919  0.2192
 2238ntf    on512504   0.358   6.393   4.267  0.1969  0.0622  0.0085
 2238ntf    on512505   0.474   6.245   4.098  0.4041  0.4449  0.7340
 2238ntf    on512506   0.195   6.596   3.981 -0.4198  0.4851  0.1430
 2238ntf    on512507   0.069   6.484   4.161  0.6291  0.4402  0.2982
 2238ntf    fn412508  -0.089   6.471   3.931 -0.5069 -0.2253  0.2399
 2238ntf    fn412509   0.078   6.428   3.804 -0.0734  0.7558  0.0417
 2238ntf    fn412510  -0.003   6.279   3.934 -0.2252  0.3873 -0.0915
 2239ntf    cn112511   0.128   0.365   5.943 -0.2273  0.2130  0.1188
 2239ntf    sn212512   0.045   0.458   5.811 -0.1403  0.3734  0.1771
 2239ntf    nn312513  -0.050   0.341   5.768  0.1620  0.0965  0.2617
 2239ntf    sn212514  -0.103   0.296   5.627  0.3020  0.1858  0.1805
 2239ntf    cn112515   0.038   0.203   5.559  0.2133  0.1073  0.1043
 2239ntf    fn412516   0.213   0.279   5.887  0.2172  0.5132  0.3283
 2239ntf    fn412517   0.190   0.451   6.021 -0.0411 -0.0165  0.2273
 2239ntf    fn412518   0.039   0.307   6.022 -0.2483  0.1502  0.0499
 2239ntf    on512519  -0.018   0.563   5.888  1.0935  0.9791  0.3817
 2239ntf    on512520   0.150   0.480   5.715  0.1981 -0.1199  0.4315
 2239ntf    on512521  -0.120   0.411   5.541  0.0764  0.2047  0.2503
 2239ntf    on512522  -0.212   0.203   5.618  0.0114  0.5701 -0.3337
 2239ntf    fn412523   0.134   0.281   5.511 -0.2532  0.7181  0.1495
 2239ntf    fn412524   0.093   0.119   5.645  0.1663 -0.0443 -0.0155
 2239ntf    fn412525  -0.003   0.128   5.459  0.0822 -0.2030  0.3894
 2240ntf    cn112526   0.391   2.317   1.248 -0.3525 -0.1054 -0.2036
 2240ntf    sn212527   0.395   2.460   1.360  0.0968 -0.2030 -0.0934
 2240ntf    nn312528   0.337   2.578   1.275 -0.0667  0.1051  0.4400
 2240ntf    sn212529   0.187   2.622   1.258 -0.0509 -0.0508 -0.1532
 2240ntf    cn112530   0.183   2.775   1.357 -0.2260 -0.0800 -0.1159
 2240ntf    fn412531   0.441   2.203   1.292 -0.4369 -0.0872 -0.0625
 2240ntf    fn412532   0.269   2.290   1.206 -0.3283  0.5549 -0.7110
 2240ntf    fn412533   0.456   2.343   1.135  0.1413  0.1439  0.1353
 2240ntf    on512534   0.316   2.419   1.474 -0.6420  0.0808 -0.4994
 2240ntf    on512535   0.533   2.487   1.392 -0.0843  0.5163  0.0857
 2240ntf    on512536   0.093   2.535   1.324  0.5453 -0.2211  0.4948
 2240ntf    on512537   0.154   2.685   1.133  0.4750  0.5631  0.0105
 2240ntf    fn412538   0.061   2.792   1.406 -0.4199 -0.2070 -0.5510
 2240ntf    fn412539   0.256   2.758   1.466 -0.4146 -0.3506 -0.0296
 2240ntf    fn412540   0.225   2.878   1.286  0.0190 -0.4202 -0.4688
 2241ntf    cn112541   0.130   3.756   3.950  0.0889  0.0770 -0.0629
 2241ntf    sn212542   0.309   3.782   3.974  0.0852 -0.0275  0.0808
 2241ntf    nn312543   0.351   3.635   4.011 -0.7110 -0.2998 -0.0587
 2241ntf    sn212544   0.393   3.565   4.146 -0.1019  0.0694 -0.0498
 2241ntf    cn112545   0.567   3.615   4.134 -0.1024  0.1793  0.3867
 2241ntf    fn412546   0.095   3.687   3.842  0.1304 -0.2550  0.1330
 2241ntf    fn412547   0.067   3.693   4.048  0.3549  0.6666  0.4938
 2241ntf    fn412548   0.060   3.868   3.945  0.2282  0.1567 -0.2441
 2241ntf    on512549   0.362   3.823   3.846 -0.3513  0.0857 -0.0667
 2241ntf    on512550   0.319   3.877   4.082 -0.4074  0.2274 -0.0950
 2241ntf    on512551   0.398   3.421   4.134 -0.1389  0.0656 -0.0168
 2241ntf    on512552   0.343   3.622   4.269 -0.3270 -0.1190 -0.0526
 2241ntf    fn412553   0.588   3.742   4.164 -0.6781  0.4117 -0.1737
 2241ntf    fn412554   0.649   3.554   4.218  0.1425  0.3901  0.3025
 2241ntf    fn412555   0.609   3.607   4.009  0.1251 -0.2878  0.4922
 2242ntf    cn112556   0.489   6.068   0.721 -0.6807  0.0686 -0.3062
 2242ntf    sn212557   0.367   6.192   0.775 -0.3489  0.2223  0.0977
 2242ntf    nn312558   0.306   6.121   0.900 -0.1292 -0.3297 -0.1048
 2242ntf    sn212559   0.157   6.093   0.941 -0.1505  0.0019  0.0504
 2242ntf    cn112560   0.156   5.914   0.906  0.0707  0.0398 -0.1501
 2242ntf    fn412561   0.537   6.085   0.599  0.2095 -0.4367 -0.0384
 2242ntf    fn412562   0.598   6.072   0.796 -0.4293 -0.1817 -0.6592
 2242ntf    fn412563   0.451   5.941   0.723  0.7306 -0.3746 -0.3474
 2242ntf    on512564   0.443   6.310   0.808 -0.5176  0.2569  0.3643
 2242ntf    on512565   0.282   6.207   0.660  0.5419  0.8374 -0.5001
 2242ntf    on512566   0.055   6.151   0.858 -0.1901  0.1754  0.2204
 2242ntf    on512567   0.132   6.109   1.082 -0.8101  0.0315 -0.0660
 2242ntf    fn412568   0.197   5.883   0.784  0.3942 -0.3664  0.0601
 2242ntf    fn412569   0.243   5.857   0.988  0.2019 -0.3619 -0.5659
 2242ntf    fn412570   0.036   5.860   0.922 -0.0853  0.5001  0.2833
 2243ntf    cn112571   3.746   1.965   2.639 -0.1285 -0.0585  0.0903
 2243ntf    sn212572   3.574   2.003   2.686 -0.0738 -0.1433  0.3609
 2243ntf    nn312573   3.477   1.914   2.599 -0.1038  0.2272  0.0161
 2243ntf    sn212574   3.438   1.920   2.447 -0.1430 -0.0568  0.0156
 2243ntf    cn112575   3.451   1.747   2.395  0.1907  0.0947 -0.4056
 2243ntf    fn412576   3.784   1.858   2.707  0.0227 -0.3481 -0.4434
 2243ntf    fn412577   3.747   1.939   2.510 -0.5392  0.2797  0.0170
 2243ntf    fn412578   3.833   2.060   2.667 -0.0511 -0.1964  0.3194
 2243ntf    on512579   3.562   1.957   2.822 -0.1251 -0.1231  0.3628
 2243ntf    on512580   3.566   2.145   2.664  0.4012 -0.0387  0.8193
 2243ntf    on512581   3.526   2.000   2.366  0.4733 -0.5012  0.2354
 2243ntf    on512582   3.296   1.941   2.431 -0.1068  0.1603 -0.0223
 2243ntf    fn412583   3.440   1.739   2.263 -0.2076 -1.1667 -0.3113
 2243ntf    fn412584   3.561   1.680   2.424  0.1388  0.3202  0.3289
 2243ntf    fn412585   3.352   1.677   2.448  0.3101  0.0350 -0.2602
 2244ntf    cn112586   4.643   3.953   2.129 -0.2538  0.2471 -0.0547
 2244ntf    sn212587   4.578   4.019   2.286  0.1166 -0.1646  0.2723
 2244ntf    nn312588   4.557   4.172   2.262  0.0540 -0.2883 -0.4952
 2244ntf    sn212589   4.431   4.256   2.219 -0.0566 -0.1726  0.0427
 2244ntf    cn112590   4.359   4.280   2.384 -0.2098 -0.0813 -0.0371
 2244ntf    fn412591   4.710   4.052   2.072 -0.1773  0.2986  0.1264
 2244ntf    fn412592   4.732   3.856   2.138 -0.4154  0.1205  0.1728
 2244ntf    fn412593   4.548   3.909   2.048 -0.1435  0.2562 -0.1900
 2244ntf    on512594   4.458   3.944   2.316 -0.1560  0.1755  0.0299
 2244ntf    on512595   4.693   4.001   2.371  0.1246 -0.2937  0.2352
 2244ntf    on512596   4.337   4.194   2.129 -0.1389 -0.3585  0.2573
 2244ntf    on512597   4.477   4.389   2.185  0.2200 -0.1535  0.4908
 2244ntf    fn412598   4.427   4.363   2.460  0.1490  0.0406 -0.4848
 2244ntf    fn412599   4.232   4.316   2.383 -0.0888  0.3532  0.3317
 2244ntf    fn412600   4.363   4.163   2.445  0.4941 -0.1837 -0.2726
 2245ntf    cn112601   1.392   3.492   2.788  0.1460  0.0415  0.1672
 2245ntf    sn212602   1.422   3.515   2.966  0.1204  0.4778  0.1167
 2245ntf    nn312603   1.337   3.391   3.011  0.6791  0.0109 -0.0925
 2245ntf    sn212604   1.385   3.278   3.110 -0.5110 -0.2895  0.1556
 2245ntf    cn112605   1.264   3.143   3.118 -0.4010 -0.3982 -0.0245
 2245ntf    fn412606   1.468   3.565   2.708  0.2544 -0.1929  0.0562
 2245ntf    fn412607   1.411   3.365   2.755  0.3163  0.0486  0.2368
 2245ntf    fn412608   1.269   3.518   2.749  0.0285 -0.4421  0.2020
 2245ntf    on512609   1.566   3.504   2.965  0.1367  0.6058 -0.8511
 2245ntf    on512610   1.370   3.642   3.007 -0.3610  0.2273  0.2852
 2245ntf    on512611   1.388   3.329   3.245 -0.2932 -0.0466  0.0593
 2245ntf    on512612   1.497   3.200   3.063 -0.2020  0.4370 -0.3463
 2245ntf    fn412613   1.159   3.186   3.185 -0.0040 -0.2162  0.4935
 2245ntf    fn412614   1.224   3.108   2.997  0.2421 -0.0444 -0.3415
 2245ntf    fn412615   1.315   3.032   3.170  0.1006 -0.1646 -0.0149
 2246ntf    cn112616   1.817   4.897   2.700  0.0569  0.2220  0.0968
 2246ntf    sn212617   1.831   4.854   2.524  0.1664  0.4093  0.0594
 2246ntf    nn312618   1.814   4.999   2.468 -0.2559  0.1590 -0.4743
 2246ntf    sn212619   1.693   5.072   2.400 -0.6771  0.2798  0.3916
 2246ntf    cn112620   1.715   5.031   2.224 -0.2122  0.5943  0.3761
 2246ntf    fn412621   1.753   4.804   2.769 -0.5109  0.0676 -0.6232
 2246ntf    fn412622   1.932   4.924   2.760  0.3328 -0.2312 -0.2202
 2246ntf    fn412623   1.751   5.012   2.704  0.3094  0.3685  0.0846
 2246ntf    on512624   1.963   4.799   2.509  0.0033 -0.0894  0.4063
 2246ntf    on512625   1.720   4.762   2.513  0.6831 -0.2347  0.1297
 2246ntf    on512626   1.697   5.216   2.403  0.3696  0.2792 -0.4043
 2246ntf    on512627   1.561   5.022   2.429 -0.7849  0.0888 -0.4048
 2246ntf    fn412628   1.672   4.908   2.202 -0.3836  0.6601  0.3480
 2246ntf    fn412629   1.654   5.114   2.141 -0.2534 -0.2892 -0.4924
 2246ntf    fn412630   1.842   5.027   2.187 -0.2154  0.9202  0.3255
 2247ntf    cn112631   6.206   6.058   6.243  0.1862 -0.2206  0.1395
 2247ntf    sn212632   6.367   5.974   6.240  0.2728 -0.0447 -0.1435
 2247ntf    nn312633   6.360   5.879   6.364  0.8427  0.2806  0.1398
 2247ntf    sn212634   6.435   5.742   6.382  0.1378 -0.1158  0.0915
 2247ntf    cn112635   6.299   5.621   6.383 -0.0236  0.0626 -0.3043
 2247ntf    fn412636   6.120   5.989   6.170 -0.1615  0.3329  0.0182
 2247ntf    fn412637   6.155   6.062   6.365  0.3260 -0.7244  0.2157
 2247ntf    fn412638   6.204   6.183   6.198  0.0468 -0.5070 -0.6504
 2247ntf    on512639   6.361   5.904   6.114 -0.0642 -0.6632  0.2121
 2247ntf    on512640   6.462   6.081   6.251  0.1590  0.0099  0.3120
 2247ntf    on512641   6.502   5.714   6.507 -0.2738  0.9171  0.5533
 2247ntf    on512642   6.506   5.695   6.265 -0.4439 -0.5314 -0.0984
 2247ntf    fn412643   6.247   5.593   6.264 -0.3821 -0.4213 -0.0318
 2247ntf    fn412644   6.326   5.503   6.434  0.1886  0.1169 -0.2875
 2247ntf    fn412645   6.187   5.660   6.442  0.0481  0.4178 -0.3980
 2248ntf    cn112646   4.664   6.174   4.530 -0.5443 -0.0139  0.1769
 2248ntf    sn212647   4.650   6.355   4.542 -0.1025  0.0299  0.0279
 2248ntf    nn312648   4.506   6.373   4.483 -0.0444 -0.0102 -0.1261
 2248ntf    sn212649   4.470   6.423   4.338  0.1524 -0.1215 -0.2133
 2248ntf    cn112650   4.298   6.470   4.372  0.3457 -0.1221  0.8219
 2248ntf    fn412651   4.588   6.110   4.617  0.3008 -0.2432  0.7573
 2248ntf    fn412652   4.628   6.128   4.411 -0.1794  0.1940 -0.0153
 2248ntf    fn412653   4.786   6.132   4.555 -0.6338 -0.0510  0.5568
 2248ntf    on512654   4.659   6.381   4.684 -0.5828  0.4526 -0.0177
 2248ntf    on512655   4.765   6.401   4.467 -0.2228  0.6140  0.1913
 2248ntf    on512656   4.453   6.325   4.234 -0.2203 -0.2505 -0.0307
 2248ntf    on512657   4.523   6.549   4.292  0.4475 -0.0780  0.2367
 2248ntf    fn412658   4.222   6.517   4.274  0.5930  0.0006  0.6890
 2248ntf    fn412659   4.234   6.369   4.427  0.1882 -0.9293 -0.7930
 2248ntf    fn412660   4.285   6.567   4.461 -0.0910  0.8539 -0.2667
 2249ntf    cn112661   1.308   4.995   5.070  0.0316  0.1924 -0.0454
 2249ntf    sn212662   1.395   5.117   5.173 -0.0099  0.1040  0.0960
 2249ntf    nn312663   1.532   5.050   5.214 -0.3863 -0.2589  0.7686
 2249ntf    sn212664   1.620   5.082   5.340  0.3392  0.4767  0.0881
 2249ntf    cn112665   1.558   4.953   5.453  0.3241  0.0606 -0.3931
 2249ntf    fn412666   1.180   5.028   5.073  0.0177  0.1091  0.5904
 2249ntf    fn412667   1.357   5.000   4.948  0.5259  0.0626  0.1423
 2249ntf    fn412668   1.310   4.873   5.122 -0.0060  0.3735  0.3899
 2249ntf    on512669   1.410   5.225   5.078  0.0723 -0.4440 -0.5236
 2249ntf    on512670   1.305   5.143   5.282 -0.1130 -0.0341  0.0448
 2249ntf    on512671   1.598   5.211   5.401 -0.1779  0.1829  0.5260
 2249ntf    on512672   1.752   5.040   5.302 -0.1367 -0.8423 -0.1658
 2249ntf    fn412673   1.654   4.895   5.524 -0.1335 -0.4255 -0.1691
 2249ntf    fn412674   1.476   5.004   5.543  0.0648 -0.3163 -0.4171
 2249ntf    fn412675   1.489   4.859   5.390 -0.6072  0.3171  0.2369
 2250ntf    cn112676   1.027   4.621   1.681  0.3006 -0.2982 -0.1034
 2250ntf    sn212677   1.094   4.749   1.571 -0.2287  0.0342 -0.0401
 2250ntf    nn312678   1.142   4.654   1.456 -0.0331  0.2677 -0.1520
 2250ntf    sn212679   1.211   4.688   1.318  0.1190 -0.0224 -0.1496
 2250ntf    cn112680   1.386   4.662   1.357 -0.0258 -0.5620  0.1540
 2250ntf    fn412681   1.108   4.520   1.707  1.0072  0.2686 -0.0740
 2250ntf    fn412682   0.986   4.669   1.797 -0.0355 -0.2345 -0.2490
 2250ntf    fn412683   0.916   4.567   1.634 -0.1555  0.0224  0.5910
 2250ntf    on512684   0.972   4.824   1.552 -0.0733  0.1200 -0.7188
 2250ntf    on512685   1.195   4.814   1.650  0.4147 -0.8578 -0.1238
 2250ntf    on512686   1.192   4.829   1.295 -0.2935 -0.0432  0.0460
 2250ntf    on512687   1.183   4.601   1.207 -0.1736 -0.0578 -0.0502
 2250ntf    fn412688   1.419   4.557   1.431  0.3183 -0.3251  0.3378
 2250ntf    fn412689   1.463   4.653   1.250  0.2719 -0.5981  0.3696
 2250ntf    fn412690   1.435   4.759   1.433 -0.1124 -0.2463 -0.1938
 2251ntf    cn112691   2.939   2.453   0.325 -0.2457  0.2081  0.0632
 2251ntf    sn212692   2.900   2.359   0.174  0.1338  0.1132  0.0235
 2251ntf    nn312693   2.938   2.212   0.216  0.0987 -0.2012 -1.0394
 2251ntf    sn212694   2.848   2.085   0.239 -0.0817  0.0956 -0.0668
 2251ntf    cn112695   2.978   1.964   0.280 -0.1587 -0.0578 -0.2726
 2251ntf    fn412696   2.905   2.398   0.440 -0.3484 -0.5094 -0.3024
 2251ntf    fn412697   3.066   2.490   0.331 -0.3345  0.5310 -0.0321
 2251ntf    fn412698   2.877   2.570   0.322  0.4219  0.5622 -0.6056
 2251ntf    on512699   2.762   2.395   0.155  0.0694 -0.0484  0.1736
 2251ntf    on512700   2.990   2.404   0.072  0.0558  0.1906 -0.0108
 2251ntf    on512701   2.793   2.035   0.115  0.7617 -0.0254 -0.3960
 2251ntf    on512702   2.761   2.091   0.354 -0.2810  0.5422 -0.2390
 2251ntf    fn412703   3.015   1.960   0.406 -0.2692 -0.2713 -0.2470
 2251ntf    fn412704   2.943   1.839   0.253  0.3257 -0.3365  0.3807
 2251ntf    fn412705   3.087   1.985   0.208  0.3100 -0.0625  0.4290
 2252ntf    cn112706   0.319   5.933   1.849  0.0215  0.1879 -0.0038
 2252ntf    sn212707   0.481   5.871   1.903  0.1215  0.1679 -0.3285
 2252ntf    nn312708   0.581   5.942   1.805 -0.0805  0.1732 -0.5312
 2252ntf    sn212709   0.726   6.000   1.816 -0.1058  0.1093  0.1563
 2252ntf    cn112710   0.704   6.132   1.693  0.9738  0.1443 -0.0118
 2252ntf    fn412711   0.323   5.942   1.718 -0.5623  0.1315 -0.0301
 2252ntf    fn412712   0.225   5.841   1.862  0.0248  0.2587  0.5530
 2252ntf    fn412713   0.276   6.048   1.900 -0.4635 -0.1360  0.3270
 2252ntf    on512714   0.505   5.932   2.032 -0.4402 -0.2771 -0.0106
 2252ntf    on512715   0.480   5.727   1.900  0.5711  0.1581 -0.0754
 2252ntf    on512716   0.826   5.909   1.767 -0.3402  0.0498 -0.2079
 2252ntf    on512717   0.755   6.076   1.936  0.4495  0.2261 -0.0492
 2252ntf    fn412718   0.814   6.203   1.671  0.6614  0.6403  0.0148
 2252ntf    fn412719   0.664   6.091   1.574 -0.3982  0.5923  0.2713
 2252ntf    fn412720   0.617   6.225   1.729  1.0459  0.1435  0.1670
 2253ntf    cn112721   3.236   1.634   3.941  0.1901  0.0035 -0.0786
 2253ntf    sn212722   3.103   1.538   3.862 -0.2228  0.2611  0.2953
 2253ntf    nn312723   3.182   1.410   3.818 -0.3401  0.3809 -0.2732
 2253ntf    sn212724   3.241   1.368   3.678  0.0733 -0.1483  0.0580
 2253ntf    cn112725   3.419   1.349   3.709  0.0866 -0.2725 -0.0945
 2253ntf    fn412726   3.348   1.648   3.872  0.3940  0.6118  0.3591
 2253ntf    fn412727   3.192   1.756   3.967  0.2938  0.0376 -0.0618
 2253ntf    fn412728   3.274   1.586   4.058 -0.2505  0.1562  0.1287
 2253ntf    on512729   3.006   1.507   3.963 -0.5936  0.5543  0.0339
 2253ntf    on512730   3.050   1.616   3.752 -0.2639  0.1271  0.2202
 2253ntf    on512731   3.244   1.473   3.580  0.6409 -0.1406  0.0786
 2253ntf    on512732   3.207   1.238   3.625  0.2313 -0.0827 -0.2034
 2253ntf    fn412733   3.449   1.257   3.799  0.2660 -0.3930 -0.2750
 2253ntf    fn412734   3.480   1.315   3.597  0.0110 -0.0395 -0.2068
 2253ntf    fn412735   3.472   1.461   3.756  0.2330 -0.4309  0.1196
 2254ntf    cn112736   5.864   6.648   3.706 -0.2276  0.4584 -0.1112
 2254ntf    sn212737   6.036   6.693   3.670 -0.1108  0.1086  0.0049
 2254ntf    nn312738   6.074   6.575   3.573 -0.0311 -0.3050  0.5388
 2254ntf    sn212739   6.147   6.438   3.599  0.0726 -0.3901 -0.1719
 2254ntf    cn112740   6.320   6.471   3.552  0.0288 -0.0597 -0.1028
 2254ntf    fn412741   5.787   6.672   3.601  0.3659 -0.0923 -0.6720
 2254ntf    fn412742   5.860   6.522   3.745  0.6696  0.3165 -0.4762
 2254ntf    fn412743   5.805   6.716   3.804 -0.2922 -0.1629  0.2879
 2254ntf    on512744   6.028   6.820   3.603 -0.2938  0.0436 -0.0976
 2254ntf    on512745   6.109   6.694   3.794 -0.1440 -0.4123  0.0289
 2254ntf    on512746   6.115   6.333   3.506 -0.5118 -0.6433  0.3109
 2254ntf    on512747   6.151   6.395   3.737  0.1551  0.6700  0.1727
 2254ntf    fn412748   6.401   6.374   3.588  0.2795  0.4098  0.6277
 2254ntf    fn412749   6.330   6.482   3.420 -0.6730 -0.2211 -0.1724
 2254ntf    fn412750   6.369   6.581   3.607  0.5829 -0.4787  0.2523
 2255ntf    cn112751   5.414   0.886   4.553  0.7315 -0.1618  0.0101
 2255ntf    sn212752   5.372   1.061   4.574 -0.0679 -0.3494  0.0124
 2255ntf    nn312753   5.219   1.045   4.548 -0.1473 -0.3329  0.4607
 2255ntf    sn212754   5.103   1.042   4.655 -0.5228  0.0663  0.0639
 2255ntf    cn112755   5.034   0.876   4.631 -0.6193  0.1132  0.0148
 2255ntf    fn412756   5.368   0.820   4.658 -0.0566 -0.1135 -0.2960
 2255ntf    fn412757   5.351   0.843   4.445  0.1067 -0.2828  0.4191
 2255ntf    fn412758   5.541   0.856   4.530  0.7292 -0.2583  0.1260
 2255ntf    on512759   5.410   1.088   4.711  0.2318 -0.6546 -0.0088
 2255ntf    on512760   5.444   1.135   4.473  0.0310 -0.0627  0.2895
 2255ntf    on512761   4.988   1.127   4.632 -0.5464 -0.0515 -0.2700
 2255ntf    on512762   5.137   1.026   4.794  0.3973 -0.4209 -0.2113
 2255ntf    fn412763   4.970   0.850   4.744  0.2737  0.4376  0.6087
 2255ntf    fn412764   4.951   0.858   4.529 -0.5964 -0.3312  0.0716
 2255ntf    fn412765   5.128   0.784   4.626  0.0468  0.8141 -0.4535
 2256ntf    cn112766   0.069   0.053   3.131 -0.0780 -0.3800  0.0103
 2256ntf    sn212767   0.243   0.061   3.080 -0.0445 -0.2978  0.1356
 2256ntf    nn312768   0.236   0.185   2.984 -0.2043 -0.2344  0.2299
 2256ntf    sn212769   0.341   0.300   3.000  0.1048 -0.4802 -0.0385
 2256ntf    cn112770   0.269   0.402   3.131 -0.0183 -0.4438 -0.1348
 2256ntf    fn412771   0.056  -0.042   3.222  0.1631 -0.4799 -0.0570
 2256ntf    fn412772   0.041   0.168   3.190  0.5258  0.0768 -0.5748
 2256ntf    fn412773  -0.018   0.030   3.034 -0.6132 -0.2602  0.4539
 2256ntf    on512774   0.312   0.071   3.206  0.0218  0.0525  0.0715
 2256ntf    on512775   0.270  -0.066   3.017  0.3144  0.0394 -0.4048
 2256ntf    on512776   0.330   0.383   2.883  0.1666 -0.2662  0.1081
 2256ntf    on512777   0.469   0.251   3.046  0.0085 -0.0299  0.7233
 2256ntf    fn412778   0.231   0.321   3.229  0.4770 -0.5570 -0.0349
 2256ntf    fn412779   0.343   0.495   3.188  0.1261 -0.1729 -0.7532
 2256ntf    fn412780   0.153   0.448   3.087 -0.1795 -0.5664  0.1641
 2257ntf    cn112781   5.297   0.300   5.354  0.3351 -0.1986 -0.0231
 2257ntf    sn212782   5.409   0.299   5.211  0.0702  0.2707 -0.2384
 2257ntf    nn312783   5.324   0.381   5.108  0.0444  0.0691 -0.3798
 2257ntf    sn212784   5.254   0.329   4.977 -0.6339 -0.3306  0.1330
 2257ntf    cn112785   5.093   0.410   4.996 -0.4002 -0.0080  0.7694
 2257ntf    fn412786   5.217   0.405   5.348  0.7880  0.1512 -0.0203
 2257ntf    fn412787   5.227   0.189   5.364  0.4126 -0.2448  0.0060
 2257ntf    fn412788   5.369   0.307   5.464  0.3915  0.7988 -0.1119
 2257ntf    on512789   5.523   0.368   5.265  0.2009 -0.2477  0.1608
 2257ntf    on512790   5.438   0.161   5.179 -0.4185 -0.0197  0.5571
 2257ntf    on512791   5.231   0.187   4.961 -0.0287 -0.4289  0.0762
 2257ntf    on512792   5.311   0.402   4.867 -0.1888 -0.5954  0.1831
 2257ntf    fn412793   5.031   0.370   5.106 -0.5786 -0.6356  0.4450
 2257ntf    fn412794   5.101   0.542   5.002 -0.2688  0.0265 -0.0512
 2257ntf    fn412795   5.008   0.384   4.898 -0.1777  0.3671  0.4726
 2258ntf    cn112796   3.541   3.042   2.972  0.5224  0.1423 -0.0161
 2258ntf    sn212797   3.585   3.153   2.834  0.4173  0.3819  0.1414
 2258ntf    nn312798   3.660   3.053   2.738 -0.3987  0.0658 -0.1706
 2258ntf    sn212799   3.816   3.040   2.729 -0.3854  0.1201 -0.0180
 2258ntf    cn112800   3.862   3.144   2.587 -0.2595 -0.1378 -0.1654
 2258ntf    fn412801   3.640   2.957   2.995 -0.2343 -0.5682  0.6290
 2258ntf    fn412802   3.529   3.115   3.081 -0.1714  0.0821 -0.0497
 2258ntf    fn412803   3.430   2.978   2.941  0.4794  0.4096 -0.4220
 2258ntf    on512804   3.459   3.202   2.785 -0.4305 -0.6019  1.2705
 2258ntf    on512805   3.661   3.251   2.908  0.6334  0.5936 -0.3568
 2258ntf    on512806   3.835   2.905   2.685 -0.5669  0.0585  0.0894
 2258ntf    on512807   3.891   3.089   2.843 -0.1238  0.1299 -0.1944
 2258ntf    fn412808   3.993   3.157   2.577 -0.1941  0.0434  0.8408
 2258ntf    fn412809   3.813   3.089   2.477  0.6261  0.1550 -0.7100
 2258ntf    fn412810   3.811   3.263   2.611 -0.0894  0.0009 -0.4906
 2259ntf    cn112811   2.402   4.395   1.889  0.1316  0.3720  0.4672
 2259ntf    sn212812   2.573   4.360   1.838 -0.0660 -0.1620  0.1633
 2259ntf    nn312813   2.596   4.242   1.939  0.4887 -0.0120  0.2163
 2259ntf    sn212814   2.624   4.089   1.916 -0.2513 -0.0775 -0.2661
 2259ntf    cn112815   2.466   4.007   1.955 -0.3437  0.1795 -0.1024
 2259ntf    fn412816   2.401   4.471   1.998  0.5141  0.5443  0.3525
 2259ntf    fn412817   2.329   4.453   1.796  0.2455  0.6706  0.5627
 2259ntf    fn412818   2.335   4.284   1.916  0.1457  0.4069  0.6536
 2259ntf    on512819   2.563   4.319   1.700 -0.7699  0.1062  0.1307
 2259ntf    on512820   2.657   4.474   1.864 -0.4165  0.1495 -0.0611
 2259ntf    on512821   2.708   4.037   2.020  0.1433  0.3776 -0.3574
 2259ntf    on512822   2.657   4.041   1.784 -0.7916  0.4426 -0.5944
 2259ntf    fn412823   2.431   4.037   2.079  0.5057  0.2973  0.1109
 2259ntf    fn412824   2.362   4.040   1.880 -0.2157 -0.3420 -0.5120
 2259ntf    fn412825   2.478   3.877   1.938  0.3787  0.2598 -0.2330
 2260ntf    cn112826   0.645   2.393   0.498 -0.1164  0.0484  0.7203
 2260ntf    sn212827   0.821   2.374   0.540  0.0003 -0.4893  0.0102
 2260ntf    nn312828   0.885   2.477   0.440  0.3084 -0.7512 -0.0645
 2260ntf    sn212829   0.934   2.461   0.292 -0.0548 -0.2099 -0.2428
 2260ntf    cn112830   1.114   2.471   0.309 -0.0573 -0.0972 -0.2811
 2260ntf    fn412831   0.567   2.343   0.592 -1.0152  0.4570  0.1971
 2260ntf    fn412832   0.605   2.517   0.472  0.4912  0.1162  0.0487
 2260ntf    fn412833   0.634   2.333   0.380 -1.0622  0.4245  0.6103
 2260ntf    on512834   0.835   2.416   0.677 -0.0217  0.2957 -0.2234
 2260ntf    on512835   0.859   2.237   0.515 -0.5920 -0.5760 -0.4258
 2260ntf    on512836   0.891   2.573   0.211 -0.6113  0.1041  0.4700
 2260ntf    on512837   0.903   2.332   0.235  0.0102 -0.3978  0.1466
 2260ntf    fn412838   1.144   2.577   0.383  0.0649 -0.1825 -0.2087
 2260ntf    fn412839   1.160   2.367   0.378  0.3868  0.2168 -0.0922
 2260ntf    fn412840   1.174   2.485   0.192  0.6200  0.4974  0.1211
 2261ntf    cn112841   2.329   6.880   2.639  0.1013  0.1544  0.2851
 2261ntf    sn212842   2.242   7.030   2.583  0.1690  0.0447 -0.1188
 2261ntf    nn312843   2.250   7.105   2.721 -0.3061 -0.1228  0.0006
 2261ntf    sn212844   2.272   7.258   2.746  0.4801 -0.1751 -0.3441
 2261ntf    cn112845   2.129   7.294   2.852  0.2273 -0.4610 -0.5891
 2261ntf    fn412846   2.319   6.782   2.550  0.7129  0.5403 -0.2107
 2261ntf    fn412847   2.458   6.903   2.656  0.1244  0.2628 -0.0174
 2261ntf    fn412848   2.284   6.820   2.748  0.5134  0.0017  0.3736
 2261ntf    on512849   2.318   7.077   2.469  0.6378 -0.3935  0.0079
 2261ntf    on512850   2.113   6.969   2.559  0.1331  0.2375 -0.4212
 2261ntf    on512851   2.244   7.352   2.640  0.4951 -0.1080 -0.2889
 2261ntf    on512852   2.385   7.282   2.832  0.1362 -0.1310  0.1011
 2261ntf    fn412853   2.126   7.218   2.960 -0.0772 -0.3991 -0.5523
 2261ntf    fn412854   2.129   7.421   2.888 -0.1570 -0.4399 -0.6557
 2261ntf    fn412855   2.022   7.262   2.781 -0.2397 -0.1345 -0.0413
 2262ntf    cn112856   3.158   0.035   6.609 -0.1595  0.0214 -0.3997
 2262ntf    sn212857   2.982   0.037   6.563 -0.2327 -0.0149 -0.1193
 2262ntf    nn312858   2.935   0.136   6.676  0.0473  0.2725 -0.2530
 2262ntf    sn212859   2.908   0.291   6.677 -0.1611  0.2385 -0.3901
 2262ntf    cn112860   2.728   0.304   6.697 -0.1386  0.0539 -0.0667
 2262ntf    fn412861   3.242  -0.038   6.537  0.1132  0.5495 -0.6203
 2262ntf    fn412862   3.212   0.156   6.601 -0.5579  0.2246 -0.0441
 2262ntf    fn412863   3.159  -0.008   6.734 -0.6417 -0.0355 -0.4147
 2262ntf    on512864   2.978   0.084   6.427  0.2749  0.4015  0.0068
 2262ntf    on512865   2.939  -0.098   6.587  0.0065 -0.1943 -0.6886
 2262ntf    on512866   2.926   0.357   6.550  0.0040 -0.6897 -0.8628
 2262ntf    on512867   2.956   0.350   6.800 -0.1414 -0.2816 -0.1442
 2262ntf    fn412868   2.679   0.427   6.695  0.2787  0.2291  0.2443
 2262ntf    fn412869   2.667   0.239   6.600 -0.1777  0.1530 -0.1089
 2262ntf    fn412870   2.679   0.245   6.805  0.3554  0.0591  0.1631
 2263ntf    cn112871   4.382   0.124   5.912 -0.0860  0.0063  0.3214
 2263ntf    sn212872   4.236   0.124   6.021 -0.2156  0.3447  0.1490
 2263ntf    nn312873   4.228  -0.027   6.063  0.7212  0.2176 -0.1006
 2263ntf    sn212874   4.311  -0.097   6.177 -0.0199 -0.2885  0.1354
 2263ntf    cn112875   4.194  -0.100   6.316 -0.0241 -0.2565  0.1321
 2263ntf    fn412876   4.488   0.057   5.955  0.2112  0.0996 -0.2541
 2263ntf    fn412877   4.346   0.087   5.790 -0.5648  0.5542  0.2925
 2263ntf    fn412878   4.425   0.249   5.902  0.4320 -0.1636  0.3851
 2263ntf    on512879   4.260   0.212   6.132  0.6371 -0.0080  0.2557
 2263ntf    on512880   4.117   0.148   5.943  0.0397 -0.1003 -0.3879
 2263ntf    on512881   4.425  -0.025   6.227  0.0145  0.2155 -0.6539
 2263ntf    on512882   4.325  -0.238   6.153 -0.0811 -0.2131 -0.3475
 2263ntf    fn412883   4.139   0.019   6.338 -0.5101 -0.5371  0.4427
 2263ntf    fn412884   4.096  -0.188   6.307  0.2181 -0.5035 -0.0954
 2263ntf    fn412885   4.250  -0.119   6.434 -0.6936  0.5411  0.5977
 2264ntf    cn112886   6.770   6.943   4.242  0.2508 -0.0619 -0.4532
 2264ntf    sn212887   6.648   6.982   4.113 -0.2135 -0.0321 -0.0064
 2264ntf    nn312888   6.638   7.137   4.138 -0.5150 -0.0581  0.0338
 2264ntf    sn212889   6.629   7.257   4.038 -0.2155 -0.2224 -0.1886
 2264ntf    cn112890   6.807   7.296   4.029 -0.2402 -0.0644  0.0282
 2264ntf    fn412891   6.729   6.972   4.364 -0.2599 -0.0697 -0.6205
 2264ntf    fn412892   6.818   6.820   4.243 -0.2284 -0.2529  0.6324
 2264ntf    fn412893   6.881   7.014   4.228  0.0903  0.2142 -0.3177
 2264ntf    on512894   6.715   6.958   3.988  0.4680  0.1036  0.3290
 2264ntf    on512895   6.526   6.908   4.133 -0.1492  0.0634  0.7694
 2264ntf    on512896   6.568   7.374   4.095 -0.2205  0.1379 -0.9232
 2264ntf    on512897   6.596   7.213   3.904 -0.6985  0.1578 -0.1986
 2264ntf    fn412898   6.886   7.192   4.011  0.3474  0.4478 -0.4017
 2264ntf    fn412899   6.838   7.379   3.931  0.2718 -0.2978 -0.0063
 2264ntf    fn412900   6.856   7.350   4.140  0.3219  0.2824 -0.3879
 2265ntf    cn112901   0.793   3.234   3.267  0.1343  0.2338 -0.0603
 2265ntf    sn212902   0.752   3.287   3.436  0.3473 -0.1265  0.1054
 2265ntf    nn312903   0.785   3.160   3.522 -0.0539  0.0567  0.5325
 2265ntf    sn212904   0.920   3.137   3.598  0.3232  0.1496 -0.1077
 2265ntf    cn112905   0.889   3.204   3.764  0.4096 -0.2436  0.0700
 2265ntf    fn412906   0.711   3.140   3.224 -0.0904  0.3081  0.2029
 2265ntf    fn412907   0.776   3.338   3.187  0.4979  0.3839  0.0565
 2265ntf    fn412908   0.913   3.182   3.246 -0.0506 -0.1633 -0.1300
 2265ntf    on512909   0.839   3.402   3.447  0.2412 -0.0880  0.5579
 2265ntf    on512910   0.612   3.318   3.430  0.4238  0.2120  0.0602
 2265ntf    on512911   1.038   3.202   3.547  0.3445  0.0045 -0.2468
 2265ntf    on512912   0.936   2.999   3.636 -0.2374 -0.0152 -0.4565
 2265ntf    fn412913   1.005   3.223   3.824  0.4645 -0.3413 -0.0044
 2265ntf    fn412914   0.825   3.320   3.767 -0.2807 -0.5979 -0.6562
 2265ntf    fn412915   0.824   3.125   3.847  0.1775 -0.4307 -0.2845
 2266ntf    cn112916   3.052   0.677   3.204  0.0168  0.2008 -0.1775
 2266ntf    sn212917   3.060   0.610   3.372  0.1954  0.2319 -0.1725
 2266ntf    nn312918   2.983   0.723   3.450  0.0694  0.0155  0.0201
 2266ntf    sn212919   2.900   0.713   3.583  0.1224  0.4423  0.0867
 2266ntf    cn112920   2.781   0.849   3.561 -0.1499  0.1751 -0.1165
 2266ntf    fn412921   3.106   0.797   3.193 -0.0938  0.1995 -0.7646
 2266ntf    fn412922   3.108   0.604   3.109  0.1561  0.2582 -0.1396
 2266ntf    fn412923   2.928   0.698   3.163  0.1360  0.5263 -0.3752
 2266ntf    on512924   2.986   0.488   3.349 -0.0287  0.2500  0.4181
 2266ntf    on512925   3.202   0.605   3.394  0.2043 -0.4524 -0.3677
 2266ntf    on512926   2.959   0.756   3.707  0.3826  0.6673 -0.1130
 2266ntf    on512927   2.810   0.600   3.577  0.2969  0.2966  0.1993
 2266ntf    fn412928   2.674   0.845   3.638 -0.1646 -0.4175 -0.1653
 2266ntf    fn412929   2.830   0.971   3.575  0.3272 -0.0444  0.1571
 2266ntf    fn412930   2.743   0.847   3.435 -0.1108 -0.4251 -0.1208
 2267ntf    cn112931   0.541   4.158   5.054  0.0603 -0.2261  0.2285
 2267ntf    sn212932   0.447   4.125   5.206 -0.0980  0.1805  0.2208
 2267ntf    nn312933   0.337   4.026   5.155 -0.1160  0.0499  0.5084
 2267ntf    sn212934   0.325   3.871   5.181 -0.0407 -0.0705 -0.1597
 2267ntf    cn112935   0.171   3.860   5.084 -0.0802  0.3452 -0.1470
 2267ntf    fn412936   0.630   4.256   5.069 -0.0738 -0.0338 -0.2269
 2267ntf    fn412937   0.604   4.048   5.016 -0.3320 -0.3271 -0.1351
 2267ntf    fn412938   0.460   4.198   4.958 -0.1941 -0.3373  0.3963
 2267ntf    on512939   0.538   4.065   5.301  0.2960 -0.2406 -0.4173
 2267ntf    on512940   0.392   4.255   5.235  0.3969  0.4534 -0.0508
 2267ntf    on512941   0.300   3.831   5.317  0.7757 -0.9298 -0.2495
 2267ntf    on512942   0.416   3.787   5.107 -0.0005  0.1093 -0.3167
 2267ntf    fn412943   0.148   3.731   5.064 -0.1593  0.3053  0.1857
 2267ntf    fn412944   0.064   3.900   5.150 -0.2009 -0.5107  0.1953
 2267ntf    fn412945   0.177   3.920   4.967  0.0390  0.6127 -0.0040
 2268ntf    cn112946   3.155   5.798   2.874  0.0670 -0.2484 -0.0441
 2268ntf    sn212947   3.143   5.630   2.942  0.2666 -0.2105  0.0859
 2268ntf    nn312948   3.266   5.640   3.038  0.1688  0.6196  0.1316
 2268ntf    sn212949   3.273   5.646   3.195  0.2396 -0.1005  0.1582
 2268ntf    cn112950   3.386   5.512   3.248  0.2608 -0.1451 -0.0007
 2268ntf    fn412951   3.128   5.892   2.963 -0.9536 -0.4998 -0.0802
 2268ntf    fn412952   3.276   5.822   2.826  0.1663 -0.1998  0.2258
 2268ntf    fn412953   3.071   5.811   2.773 -0.0219  0.8537  0.1584
 2268ntf    on512954   3.012   5.644   3.000  0.0858 -0.4249 -0.2668
 2268ntf    on512955   3.155   5.549   2.823  0.3995 -0.1479  0.0563
 2268ntf    on512956   3.152   5.615   3.266  0.0256  0.1957 -0.0759
 2268ntf    on512957   3.341   5.760   3.251  0.8042 -0.4630  0.2276
 2268ntf    fn412958   3.508   5.524   3.199  0.3060 -0.3775  0.0574
 2268ntf    fn412959   3.399   5.516   3.379  0.3408  0.4791 -0.0204
 2268ntf    fn412960   3.348   5.392   3.208 -0.2559 -0.1708  0.5540
 2269ntf    cn112961   4.596   4.201   0.165  0.1659  0.0353  0.5943
 2269ntf    sn212962   4.534   4.321   0.043  0.3672 -0.0864  0.3717
 2269ntf    nn312963   4.574   4.454   0.116 -0.4613  0.2947  0.1372
 2269ntf    sn212964   4.686   4.559   0.082 -0.2567  0.0839  0.1642
 2269ntf    cn112965   4.593   4.693   0.004  0.4898  0.6417  0.2179
 2269ntf    fn412966   4.720   4.223   0.205  0.4849 -0.5037 -0.0876
 2269ntf    fn412967   4.519   4.213   0.272  0.1453  0.6769  0.5142
 2269ntf    fn412968   4.592   4.077   0.121  0.2234  0.1830  0.1682
 2269ntf    on512969   4.617   4.282  -0.069 -0.0166  0.1407  0.0060
 2269ntf    on512970   4.391   4.303   0.043  0.4296 -0.5868  0.0327
 2269ntf    on512971   4.789   4.524  -0.013 -0.1495  0.2182  0.2302
 2269ntf    on512972   4.730   4.615   0.208 -0.3940  0.1074  0.2010
 2269ntf    fn412973   4.499   4.743   0.082 -0.0371 -0.0900  0.0663
 2269ntf    fn412974   4.673   4.790  -0.035  0.5904  0.2213 -0.6424
 2269ntf    fn412975   4.522   4.658  -0.102  1.1066 -0.1501  0.0630
 2270ntf    cn112976   2.822   5.295   4.902  0.2296  0.1223  0.3500
 2270ntf    sn212977   2.885   5.176   5.024  0.5839 -0.1845 -0.1272
 2270ntf    nn312978   2.760   5.113   5.095  0.3376  0.0933 -0.3099
 2270ntf    sn212979   2.693   5.157   5.230  0.2162 -0.1056 -0.3053
 2270ntf    cn112980   2.517   5.145   5.185  0.1618 -0.6269  0.0389
 2270ntf    fn412981   2.766   5.398   4.964 -0.1180  0.3138 -0.2717
 2270ntf    fn412982   2.917   5.343   4.822  0.3051  0.2020  0.4864
 2270ntf    fn412983   2.726   5.237   4.832  0.2583 -0.0240  0.4318
 2270ntf    on512984   2.952   5.077   4.944  0.5864 -0.1108 -0.2165
 2270ntf    on512985   2.975   5.244   5.114  0.1384  0.0511  0.1428
 2270ntf    on512986   2.711   5.297   5.260 -0.2449 -0.1496  0.1930
 2270ntf    on512987   2.711   5.059   5.334  0.5914  0.1042 -0.1729
 2270ntf    fn412988   2.480   5.020   5.160 -0.1667 -0.5112 -0.0564
 2270ntf    fn412989   2.434   5.197   5.274 -0.1235 -0.1097 -0.5216
 2270ntf    fn412990   2.501   5.210   5.071  0.4804 -0.2342  0.2159
 2271ntf    cn112991   4.762   2.500   3.835 -0.0611  0.4034 -0.3351
 2271ntf    sn212992   4.719   2.626   3.958  0.3498  0.1084  0.1154
 2271ntf    nn312993   4.667   2.540   4.079 -0.5434  0.0704 -0.2807
 2271ntf    sn212994   4.715   2.551   4.229 -0.0433  0.1444 -0.4455
 2271ntf    cn112995   4.659   2.392   4.294 -0.1007  0.5529  0.5197
 2271ntf    fn412996   4.855   2.413   3.873 -0.2875  0.2717 -0.0820
 2271ntf    fn412997   4.659   2.421   3.808 -0.3390  0.6305  0.0590
 2271ntf    fn412998   4.807   2.546   3.719  0.1926 -0.3302 -0.5366
 2271ntf    on512999   4.841   2.701   3.975  0.3307  0.0609  0.4688
 2271ntf    on513000   4.604   2.697   3.906  0.0097 -0.7141 -0.2807
 2271ntf    on513001   4.638   2.648   4.303  0.1234  0.0674 -0.1703
 2271ntf    on513002   4.857   2.543   4.253 -0.1570 -0.2131  0.1166
 2271ntf    fn413003   4.703   2.284   4.231  0.1538  0.8291  0.2228
 2271ntf    fn413004   4.677   2.380   4.424 -0.1865 -0.6752  0.4318
 2271ntf    fn413005   4.528   2.375   4.285  0.0004 -0.3505  0.6054
 2272ntf    cn113006   1.534   0.075   3.145  0.1219  0.1582 -0.0880
 2272ntf    sn213007   1.486  -0.059   3.031  0.1644 -0.0528  0.1411
 2272ntf    nn313008   1.522  -0.191   3.107  0.6898  0.0808  0.1321
 2272ntf    sn213009   1.583  -0.318   3.037  0.0155 -0.0467 -0.2450
 2272ntf    cn113010   1.491  -0.450   3.123  0.1104 -0.2809 -0.5022
 2272ntf    fn413011   1.524   0.192   3.084 -0.0637 -0.1498 -0.6518
 2272ntf    fn413012   1.456   0.087   3.251  0.0012  0.2755 -0.1899
 2272ntf    fn413013   1.662   0.066   3.176  0.0158  0.3353  0.4031
 2272ntf    on513014   1.346  -0.032   3.011  0.1866  0.0989  0.1878
 2272ntf    on513015   1.563  -0.036   2.911  0.0268  0.1825  0.0972
 2272ntf    on513016   1.722  -0.336   3.074 -0.1773 -0.3931  0.3334
 2272ntf    on513017   1.551  -0.332   2.898 -0.3402  0.1644 -0.1852
 2272ntf    fn413018   1.473  -0.437   3.253  0.3966  0.1406 -0.5012
 2272ntf    fn413019   1.374  -0.472   3.066 -0.0437 -0.6171 -0.0596
 2272ntf    fn413020   1.564  -0.560   3.118  0.5996  0.0046  0.2084
 2273ntf    cn113021   4.433   3.304   3.248  0.0721  0.2399  0.0719
 2273ntf    sn213022   4.362   3.161   3.335  0.1159  0.2806  0.1742
 2273ntf    nn313023   4.367   3.041   3.233 -0.6028  0.3120  0.0972
 2273ntf    sn213024   4.255   2.994   3.133 -0.3109  0.0749 -0.1184
 2273ntf    cn113025   4.324   3.057   2.978  0.0487 -0.1051 -0.0329
 2273ntf    fn413026   4.560   3.287   3.214 -0.1039  0.5349 -0.7663
 2273ntf    fn413027   4.369   3.311   3.132  0.6698  0.2622 -0.2598
 2273ntf    fn413028   4.419   3.419   3.311  0.1904  0.3537 -0.1074
 2273ntf    on513029   4.468   3.155   3.432  0.3492 -0.2811 -0.1048
 2273ntf    on513030   4.230   3.200   3.377  0.0447  0.1076  0.1153
 2273ntf    on513031   4.126   3.057   3.146 -0.3949 -0.1887  0.3779
 2273ntf    on513032   4.261   2.852   3.107  0.5107  0.1104 -0.1527
 2273ntf    fn413033   4.318   3.189   2.972  0.2310 -0.0930  0.0466
 2273ntf    fn413034   4.453   3.030   2.961  0.1765  0.2378  0.3719
 2273ntf    fn413035   4.265   3.020   2.865  0.1287  0.2478 -0.1923
 2274ntf    cn113036   6.344   3.916   3.791  0.4947  0.5640  0.0990
 2274ntf    sn213037   6.302   4.057   3.683 -0.1821  0.2752 -0.0183
 2274ntf    nn313038   6.268   4.177   3.778 -0.8421  0.3813 -0.3815
 2274ntf    sn213039   6.361   4.298   3.814 -0.3877 -0.0225 -0.1848
 2274ntf    cn113040   6.330   4.412   3.676  0.4374  0.3241 -0.0939
 2274ntf    fn413041   6.400   3.815   3.727  0.3364  0.0421  0.7714
 2274ntf    fn413042   6.432   3.957   3.881  0.1240  0.1326  0.6635
 2274ntf    fn413043   6.232   3.879   3.851  0.1742  1.1029 -0.1551
 2274ntf    on513044   6.415   4.070   3.594 -0.5511  0.0786 -0.5268
 2274ntf    on513045   6.181   4.018   3.616 -0.0606 -0.2027  0.0345
 2274ntf    on513046   6.504   4.279   3.804 -0.2210  0.7438  0.5645
 2274ntf    on513047   6.310   4.375   3.924  0.2318  0.0745  0.0406
 2274ntf    fn413048   6.208   4.462   3.688  0.3239  0.0870 -0.2472
 2274ntf    fn413049   6.420   4.509   3.682  0.6920  0.0957 -0.1927
 2274ntf    fn413050   6.342   4.353   3.558 -0.1515  0.1451 -0.0709
 2275ntf    cn113051   1.359   4.228   4.408 -0.1113 -0.2117  0.1343
 2275ntf    sn213052   1.222   4.145   4.495 -0.3953 -0.0278 -0.1370
 2275ntf    nn313053   1.191   4.263   4.594  0.5119  0.4175 -0.3726
 2275ntf    sn213054   1.084   4.377   4.589 -0.1483 -0.1765 -0.0479
 2275ntf    cn113055   0.937   4.272   4.576 -0.1391 -0.1459 -0.4305
 2275ntf    fn413056   1.411   4.334   4.469 -0.1003 -0.0783 -0.1037
 2275ntf    fn413057   1.466   4.153   4.390  0.3410  0.3519  0.4153
 2275ntf    fn413058   1.326   4.258   4.284 -0.0845 -0.7958 -0.0138
 2275ntf    on513059   1.123   4.117   4.394  0.1158  0.3919 -0.7677
 2275ntf    on513060   1.289   4.033   4.557  0.1479  0.4047  0.0664
 2275ntf    on513061   1.072   4.451   4.465 -0.3727  0.0679  0.1178
 2275ntf    on513062   1.070   4.455   4.710  0.0903 -0.0938 -0.0716
 2275ntf    fn413063   0.899   4.236   4.455  0.1810 -0.3362 -0.4747
 2275ntf    fn413064   0.952   4.167   4.656  0.0759 -0.2983 -0.6723
 2275ntf    fn413065   0.830   4.329   4.629 -0.3871 -0.3798 -0.6741
 2276ntf    cn113066   3.445   0.000   2.635 -0.4901  0.3374  0.3198
 2276ntf    sn213067   3.466  -0.119   2.499 -0.2106  0.4249  0.2861
 2276ntf    nn313068   3.325  -0.102   2.431 -0.0867  0.5354  0.0579
 2276ntf    sn213069   3.291  -0.101   2.277 -0.2362  0.1138  0.0878
 2276ntf    cn113070   3.332   0.070   2.233 -0.7692  0.1613 -0.2300
 2276ntf    fn413071   3.374  -0.031   2.742  0.1668  0.3178  0.7539
 2276ntf    fn413072   3.565   0.044   2.668 -0.1934 -0.3443  0.1448
 2276ntf    fn413073   3.381   0.108   2.590 -0.0866  0.5256  0.1949
 2276ntf    on513074   3.575  -0.075   2.415  0.4057 -0.2318  0.7324
 2276ntf    on513075   3.481  -0.235   2.582 -0.2722  0.1169 -0.1311
 2276ntf    on513076   3.148  -0.103   2.264 -0.2386  0.2612  0.0874
 2276ntf    on513077   3.362  -0.192   2.190 -0.2924 -0.0480  0.2103
 2276ntf    fn413078   3.463   0.088   2.241 -0.7357 -0.1753 -0.0174
 2276ntf    fn413079   3.297   0.107   2.111  0.5572  0.3915 -0.5639
 2276ntf    fn413080   3.287   0.161   2.318 -0.3598  0.1488  0.0053
 2277ntf    cn113081   4.527   1.151   1.857 -0.1519  0.1555  0.2437
 2277ntf    sn213082   4.353   1.100   1.862 -0.0269 -0.3052 -0.0321
 2277ntf    nn313083   4.360   0.975   1.957  0.3555  0.0680  0.4371
 2277ntf    sn213084   4.298   0.944   2.098  0.4046  0.0707  0.4594
 2277ntf    cn113085   4.266   0.767   2.074 -0.1698  0.2271  0.0504
 2277ntf    fn413086   4.540   1.265   1.792  0.0755 -0.2307 -0.3921
 2277ntf    fn413087   4.570   1.170   1.981 -0.1579  0.7550  0.1543
 2277ntf    fn413088   4.607   1.061   1.802  0.3451  0.3832  0.5826
 2277ntf    on513089   4.274   1.211   1.910 -1.1079 -0.7852 -0.6531
 2277ntf    on513090   4.348   1.072   1.721  0.4887 -0.3856 -0.0354
 2277ntf    on513091   4.166   1.000   2.117  0.1963 -0.0503 -0.5565
 2277ntf    on513092   4.395   0.946   2.204  0.5930  0.0373  0.2890
 2277ntf    fn413093   4.376   0.697   2.052 -0.3922 -0.1486  0.1218
 2277ntf    fn413094   4.216   0.720   2.187  0.7472 -0.5940  0.1288
 2277ntf    fn413095   4.177   0.751   1.977 -0.4862  0.0747  0.3626
 2278ntf    cn113096   2.411   5.138   6.131  0.6666 -0.0943 -0.4069
 2278ntf    sn213097   2.327   5.236   6.003  0.3691  0.2483  0.0498
 2278ntf    nn313098   2.212   5.307   6.084  0.2582 -0.0809  0.1831
 2278ntf    sn213099   2.187   5.460   6.106  0.2366 -0.0492 -0.0539
 2278ntf    cn113100   2.118   5.504   5.944 -0.2242 -0.2961  0.0741
 2278ntf    fn413101   2.443   5.207   6.239 -0.1304 -0.1362 -0.1434
 2278ntf    fn413102   2.329   5.047   6.180  0.3530  0.1776 -0.4279
 2278ntf    fn413103   2.522   5.078   6.091  0.4506 -0.6269 -0.2164
 2278ntf    on513104   2.425   5.327   5.949  0.3241 -0.0902 -0.6104
 2278ntf    on513105   2.273   5.138   5.912  0.2637  0.1138  0.2564
 2278ntf    on513106   2.300   5.549   6.122  0.0020  0.3072 -0.3640
 2278ntf    on513107   2.080   5.470   6.202  0.2306  0.0369 -0.0692
 2278ntf    fn413108   2.195   5.445   5.855  0.6322  0.1390  0.5096
 2278ntf    fn413109   1.994   5.464   5.921 -0.0979 -0.3392 -0.5532
 2278ntf    fn413110   2.113   5.634   5.921  0.1515 -0.2869  0.0454
 2279ntf    cn113111   4.092   1.940   5.387  0.5237 -0.0279  0.0894
 2279ntf    sn213112   4.082   2.046   5.239 -0.1579 -0.0722  0.1019
 2279ntf    nn313113   3.937   2.008   5.192 -0.1837 -0.0663  0.1748
 2279ntf    sn213114   3.807   2.097   5.188 -0.1778 -0.0577  0.1746
 2279ntf    cn113115   3.706   1.988   5.083  0.1452  0.0746 -0.2755
 2279ntf    fn413116   3.995   1.967   5.473  0.5384 -0.2772  0.1850
 2279ntf    fn413117   4.064   1.814   5.358  0.0607 -0.0120  0.4567
 2279ntf    fn413118   4.206   1.952   5.452  0.5145  0.4946  0.0139
 2279ntf    on513119   4.098   2.179   5.292 -0.2403 -0.1043  0.2077
 2279ntf    on513120   4.190   1.986   5.164  0.1925  0.2070  0.3841
 2279ntf    on513121   3.813   2.220   5.113  0.2278 -0.7618 -0.9787
 2279ntf    on513122   3.735   2.089   5.312  0.3774  0.4480  0.5363
 2279ntf    fn413123   3.706   1.861   5.122 -0.1096  0.1901  0.1050
 2279ntf    fn413124   3.580   2.028   5.082  0.2814  0.5155  0.1901
 2279ntf    fn413125   3.749   1.990   4.957  0.7346 -0.4048 -0.0868
 2280ntf    cn113126   3.098   2.748   5.836 -0.4247 -0.1497 -0.1929
 2280ntf    sn213127   3.103   2.861   5.978  0.4158  0.2821 -0.5640
 2280ntf    nn313128   3.168   2.990   5.917 -0.2324  0.5832 -0.6256
 2280ntf    sn213129   3.133   3.139   5.951  0.1168  0.5683 -0.1961
 2280ntf    cn113130   3.259   3.200   6.067  0.1064  0.0531  0.0898
 2280ntf    fn413131   3.209   2.762   5.766 -0.1180 -0.4322  0.2277
 2280ntf    fn413132   3.092   2.619   5.867 -0.2260 -0.1008  0.0547
 2280ntf    fn413133   2.994   2.759   5.755 -0.4967  0.0011 -0.0809
 2280ntf    on513134   2.962   2.860   6.006  0.5367 -0.4587  0.0752
 2280ntf    on513135   3.189   2.804   6.080 -0.1353  0.4035 -0.0234
 2280ntf    on513136   3.006   3.165   6.013 -0.1498 -0.6198 -0.2181
 2280ntf    on513137   3.163   3.222   5.837  0.4543  0.9572  0.1705
 2280ntf    fn413138   3.255   3.154   6.191  0.4610 -0.0974  0.0466
 2280ntf    fn413139   3.381   3.175   6.025  0.0665  0.3142 -0.1850
 2280ntf    fn413140   3.237   3.330   6.077  0.1922  0.0734  0.0110
 2281ntf    cn113141   1.700   4.346   0.453  0.0691  0.0173 -0.1395
 2281ntf    sn213142   1.544   4.320   0.363  0.0915 -0.0868 -0.1474
 2281ntf    nn313143   1.544   4.176   0.298  0.1036 -0.1941  0.0911
 2281ntf    sn213144   1.487   4.041   0.354 -0.2973 -0.0620  0.0039
 2281ntf    cn113145   1.567   3.916   0.250 -0.0328 -0.4741  0.6967
 2281ntf    fn413146   1.704   4.293   0.574  0.4220 -0.1607 -0.2292
 2281ntf    fn413147   1.803   4.294   0.388 -0.2862 -1.3085  0.3306
 2281ntf    fn413148   1.725   4.476   0.463  0.0854  0.0287 -0.3102
 2281ntf    on513149   1.445   4.336   0.467  0.2544  0.8923 -0.1344
 2281ntf    on513150   1.545   4.422   0.262  0.7056  0.0665  0.0089
 2281ntf    on513151   1.350   4.020   0.316 -0.3287 -0.0451  0.1063
 2281ntf    on513152   1.514   4.014   0.493 -0.5599  0.1799  0.1039
 2281ntf    fn413153   1.695   3.898   0.280  0.1753 -0.2049 -0.0023
 2281ntf    fn413154   1.508   3.800   0.271 -0.5928 -0.2869  0.1661
 2281ntf    fn413155   1.563   3.936   0.119  0.1675 -0.8697  0.6303
 2282ntf    cn113156   4.946   0.947   1.432 -0.0035 -0.0085  0.1425
 2282ntf    sn213157   4.905   0.771   1.409 -0.0675 -0.0051  0.2277
 2282ntf    nn313158   4.837   0.724   1.542 -0.5308 -0.1098 -0.0446
 2282ntf    sn213159   4.887   0.654   1.673  0.0287  0.1866 -0.0955
 2282ntf    cn113160   4.863   0.787   1.794  0.4781  0.2683 -0.0942
 2282ntf    fn413161   5.018   0.997   1.333 -0.3302 -0.0493 -0.1147
 2282ntf    fn413162   4.847   1.028   1.465 -0.3929 -0.4555  0.0849
 2282ntf    fn413163   5.027   0.953   1.537 -0.1970  0.1365  0.2840
 2282ntf    on513164   4.803   0.776   1.307  0.5247 -0.1406 -0.3775
 2282ntf    on513165   5.027   0.702   1.375 -0.1396 -0.1387  0.2386
 2282ntf    on513166   5.030   0.638   1.677  0.0336  0.2718  0.0722
 2282ntf    on513167   4.803   0.544   1.715 -0.5202  0.5751 -0.1638
 2282ntf    fn413168   4.851   0.728   1.911 -0.4999 -0.0443 -0.3409
 2282ntf    fn413169   4.970   0.865   1.788  0.0188  0.9158  0.0176
 2282ntf    fn413170   4.758   0.866   1.772  0.3300 -0.0989 -0.7222
 2283ntf    cn113171   4.732   5.725   4.574  0.1581 -0.0126  0.3445
 2283ntf    sn213172   4.638   5.739   4.729 -0.5195  0.1374 -0.0773
 2283ntf    nn313173   4.730   5.651   4.819 -0.1373  0.8430  0.2314
 2283ntf    sn213174   4.881   5.675   4.855  0.1047  0.3011 -0.4011
 2283ntf    cn113175   4.879   5.596   5.019 -0.0927 -0.2569 -0.6681
 2283ntf    fn413176   4.852   5.779   4.584  0.1230  0.1216  0.0348
 2283ntf    fn413177   4.750   5.594   4.566 -0.4226 -0.0790  0.0844
 2283ntf    fn413178   4.662   5.771   4.472  0.8824 -0.1129 -0.2078
 2283ntf    on513179   4.635   5.877   4.772 -0.2072  0.1022  0.0614
 2283ntf    on513180   4.511   5.684   4.690 -0.4448  0.2534 -0.4962
 2283ntf    on513181   4.920   5.810   4.888 -0.2955  0.4046 -0.3496
 2283ntf    on513182   4.977   5.597   4.781  0.1223  0.3086 -0.3866
 2283ntf    fn413183   4.903   5.467   5.007 -0.3604 -0.3900  0.1402
 2283ntf    fn413184   4.972   5.639   5.104 -0.7288 -0.3504  0.0919
 2283ntf    fn413185   4.763   5.604   5.083  0.3730  0.3488  0.1310
 2284ntf    cn113186   4.878   2.333   3.453 -0.2641  0.0326 -0.0012
 2284ntf    sn213187   4.856   2.191   3.341  0.1305  0.1524 -0.2325
 2284ntf    nn313188   4.955   2.230   3.226  0.1772 -0.1222 -0.2873
 2284ntf    sn213189   4.925   2.279   3.080 -0.1821  0.0899 -0.1434
 2284ntf    cn113190   5.076   2.361   3.020 -0.0450  0.1280  0.2488
 2284ntf    fn413191   4.810   2.314   3.565 -0.4976 -0.1589 -0.1744
 2284ntf    fn413192   5.004   2.357   3.486 -0.0502 -0.1616 -0.6656
 2284ntf    fn413193   4.834   2.450   3.410  0.5023  0.3357  0.0179
 2284ntf    on513194   4.916   2.085   3.419  0.5527  0.2706 -0.3941
 2284ntf    on513195   4.714   2.182   3.319  0.1026  0.4191 -0.1647
 2284ntf    on513196   4.836   2.393   3.079 -0.1606  0.1081 -0.0589
 2284ntf    on513197   4.896   2.174   2.986 -0.2459 -0.0803  0.0679
 2284ntf    fn413198   5.073   2.387   2.890 -0.5822 -0.0557  0.2237
 2284ntf    fn413199   5.108   2.473   3.082 -0.4205  0.2832  0.1680
 2284ntf    fn413200   5.179   2.279   3.029 -0.0253  0.1812  0.5007
 2285ntf    cn113201   1.049   0.534   6.062 -0.2044 -0.2655 -0.0919
 2285ntf    sn213202   0.871   0.503   6.038 -0.2327 -0.1101 -0.0860
 2285ntf    nn313203   0.856   0.555   5.890  0.5013  0.0896 -0.0943
 2285ntf    sn213204   0.769   0.671   5.830  0.1238 -0.0487  0.1828
 2285ntf    cn113205   0.677   0.565   5.715 -0.1970  0.2199  0.1914
 2285ntf    fn413206   1.125   0.453   5.991  0.4315  0.3888 -0.1704
 2285ntf    fn413207   1.087   0.655   6.022 -0.2466 -0.6650 -1.4115
 2285ntf    fn413208   1.089   0.526   6.187 -0.9009 -0.6978  0.1108
 2285ntf    on513209   0.865   0.360   6.053 -0.3446 -0.1273 -0.2880
 2285ntf    on513210   0.816   0.580   6.146  0.3424 -0.2972  0.3449
 2285ntf    on513211   0.849   0.762   5.752  0.2216 -0.1231  0.1964
 2285ntf    on513212   0.668   0.735   5.911 -0.3678 -0.0661 -0.4085
 2285ntf    fn413213   0.732   0.538   5.598  0.0390  1.1886  0.0697
 2285ntf    fn413214   0.649   0.447   5.766 -0.7008  0.4458  0.4434
 2285ntf    fn413215   0.563   0.617   5.671  0.0126 -0.1574 -0.8279
 2286ntf    cn113216   1.054   0.530   0.784 -0.2648  0.0111 -0.3025
 2286ntf    sn213217   0.903   0.631   0.778 -0.1838  0.1395 -0.1950
 2286ntf    nn313218   0.869   0.646   0.931 -0.0869  0.2951 -0.1893
 2286ntf    sn213219   0.786   0.754   1.010 -0.0391  0.2093 -0.0221
 2286ntf    cn113220   0.732   0.663   1.157 -0.0988  0.0209 -0.1606
 2286ntf    fn413221   1.087   0.480   0.666 -0.2031 -0.3846 -0.1201
 2286ntf    fn413222   1.155   0.590   0.845 -0.1529 -0.2588 -0.2213
 2286ntf    fn413223   1.030   0.422   0.857  0.2144  0.8063  1.0718
 2286ntf    on513224   0.947   0.745   0.702  0.2180 -0.1179 -0.3504
 2286ntf    on513225   0.814   0.538   0.712 -0.8110  0.1834  0.5721
 2286ntf    on513226   0.663   0.780   0.940  0.2186  0.4188 -0.4055
 2286ntf    on513227   0.865   0.861   1.066  0.4083  0.3485 -0.9025
 2286ntf    fn413228   0.827   0.636   1.246 -0.3530 -0.0032  0.1054
 2286ntf    fn413229   0.639   0.733   1.218 -0.1077 -0.0899 -0.0454
 2286ntf    fn413230   0.668   0.556   1.113 -0.3281 -0.2167  0.7186
 2287ntf    cn113231   1.705   5.682   5.736 -0.1668  0.0241 -0.4404
 2287ntf    sn213232   1.761   5.849   5.689  0.1865  0.0754  0.1481
 2287ntf    nn313233   1.719   5.838   5.538 -0.4283 -0.1072  0.3274
 2287ntf    sn213234   1.611   5.921   5.459 -0.3898 -0.1149  0.2663
 2287ntf    cn113235   1.679   5.908   5.291 -0.2702  0.1924  0.2922
 2287ntf    fn413236   1.579   5.658   5.703 -0.2828  0.0661 -0.0287
 2287ntf    fn413237   1.780   5.584   5.689 -0.3070 -0.1738 -0.2508
 2287ntf    fn413238   1.701   5.667   5.867 -0.1817 -0.1283 -0.4584
 2287ntf    on513239   1.681   5.936   5.772  0.5194  0.3847  0.1426
 2287ntf    on513240   1.904   5.862   5.695  0.2012  0.2089 -0.3687
 2287ntf    on513241   1.613   6.063   5.480  0.5693 -0.2058  0.8271
 2287ntf    on513242   1.487   5.848   5.441 -0.4708  0.1091 -0.0870
 2287ntf    fn413243   1.593   5.966   5.209 -0.0639 -0.6653 -0.5399
 2287ntf    fn413244   1.797   5.968   5.289 -0.0994 -0.1574 -0.1809
 2287ntf    fn413245   1.696   5.783   5.252  0.5352  0.3755  0.0424
 2288ntf    cn113246   3.981   1.043   5.363 -0.1523  0.1539  0.1785
 2288ntf    sn213247   3.848   1.160   5.321 -0.1630  0.0716 -0.0180
 2288ntf    nn313248   3.869   1.285   5.413  0.1492  0.0154 -0.0106
 2288ntf    sn213249   3.816   1.286   5.561 -0.0606 -0.2163 -0.0821
 2288ntf    cn113250   3.637   1.312   5.548 -0.0797 -0.3744 -0.1309
 2288ntf    fn413251   4.088   1.106   5.406  0.3805 -0.6049 -0.0195
 2288ntf    fn413252   3.957   0.957   5.461 -0.1452  0.5026  0.4900
 2288ntf    fn413253   4.016   0.975   5.255 -0.5384 -0.1614  0.2509
 2288ntf    on513254   3.872   1.210   5.188  1.2235 -0.2601  0.0911
 2288ntf    on513255   3.723   1.092   5.340 -0.1889  0.1080 -0.0570
 2288ntf    on513256   3.857   1.409   5.626  0.3928  0.1495 -1.0475
 2288ntf    on513257   3.831   1.164   5.637  0.0524  0.0400  0.3145
 2288ntf    fn413258   3.573   1.204   5.506 -0.1370 -0.3592 -0.0842
 2288ntf    fn413259   3.589   1.350   5.666  0.3387 -0.0566 -0.0599
 2288ntf    fn413260   3.606   1.410   5.465 -0.0676 -0.4569 -0.2330
 2289ntf    cn113261   1.398   5.635   6.390 -0.3347  0.1381  0.0232
 2289ntf    sn213262   1.364   5.796   6.467  0.1122  0.3689 -0.2544
 2289ntf    nn313263   1.387   5.776   6.621 -0.0039  0.3017 -0.2453
 2289ntf    sn213264   1.522   5.764   6.700 -0.0715  0.4392 -0.1095
 2289ntf    cn113265   1.459   5.648   6.825 -0.0538  0.4873 -0.0563
 2289ntf    fn413266   1.504   5.572   6.438 -0.1011  0.8326  0.4368
 2289ntf    fn413267   1.292   5.558   6.405 -0.1314 -0.1188  0.1646
 2289ntf    fn413268   1.424   5.637   6.260 -0.2722 -0.0353  0.0320
 2289ntf    on513269   1.453   5.884   6.396  0.1195  0.4284 -0.1704
 2289ntf    on513270   1.222   5.811   6.442  0.0095 -0.5373 -0.2432
 2289ntf    on513271   1.543   5.887   6.771 -0.3059  0.8167 -0.6858
 2289ntf    on513272   1.630   5.688   6.643 -0.7387 -0.7845  0.2083
 2289ntf    fn413273   1.551   5.581   6.893 -0.2983  0.0254 -0.1725
 2289ntf    fn413274   1.382   5.702   6.919  0.0264  0.0151  0.2889
 2289ntf    fn413275   1.390   5.556   6.760  0.3387  0.1059  0.0635
 2290ntf    cn113276   1.760   2.496   1.037  0.0098 -0.4901  0.0085
 2290ntf    sn213277   1.809   2.607   1.172 -0.1158 -0.2419 -0.1503
 2290ntf    nn313278   1.950   2.658   1.125  0.1647 -0.6014  0.2965
 2290ntf    sn213279   2.097   2.605   1.130  0.4075  0.0639  0.2123
 2290ntf    cn113280   2.168   2.698   1.270  0.0989  0.5135  0.0712
 2290ntf    fn413281   1.660   2.414   1.068 -0.0906 -0.3284  0.1130
 2290ntf    fn413282   1.715   2.566   0.934  0.5175 -0.3685 -0.1299
 2290ntf    fn413283   1.864   2.427   0.993  0.2048 -0.0749 -0.1797
 2290ntf    on513284   1.702   2.704   1.179  0.0398 -0.1280  0.7008
 2290ntf    on513285   1.823   2.531   1.293  0.2214 -0.3228 -0.2404
 2290ntf    on513286   2.180   2.656   1.023 -0.5315  0.2791 -0.4190
 2290ntf    on513287   2.109   2.467   1.168  0.2526 -0.0379 -0.1097
 2290ntf    fn413288   2.291   2.661   1.300  0.0294  0.2239  0.0043
 2290ntf    fn413289   2.176   2.827   1.242  0.3615  0.3831 -0.4634
 2290ntf    fn413290   2.096   2.694   1.382  0.1711 -0.3304  0.0897
 2291ntf    cn113291   1.138   6.824   5.696 -0.0223  0.2531 -0.2479
 2291ntf    sn213292   1.205   6.934   5.824 -0.1952  0.0838 -0.0115
 2291ntf    nn313293   1.224   6.827   5.938  0.2967 -0.1951 -0.3546
 2291ntf    sn213294   1.129   6.716   5.996  0.2775 -0.0661 -0.1380
 2291ntf    cn113295   1.048   6.810   6.128  0.4553 -0.1817  0.0541
 2291ntf    fn413296   1.169   6.865   5.574  0.2466  0.0941 -0.2326
 2291ntf    fn413297   1.194   6.705   5.706  0.3351  0.3880 -0.6381
 2291ntf    fn413298   1.006   6.810   5.694  0.0296 -0.3008  0.0418
 2291ntf    on513299   1.326   6.985   5.765 -0.2965 -0.2081 -0.4754
 2291ntf    on513300   1.100   7.029   5.852 -0.1056 -0.1041  0.9983
 2291ntf    on513301   1.195   6.604   6.060 -0.1992  0.0692  0.5958
 2291ntf    on513302   1.018   6.681   5.911  0.0527  0.5755 -0.1147
 2291ntf    fn413303   0.936   6.765   6.183  0.1677  0.1223 -0.2808
 2291ntf    fn413304   1.128   6.830   6.231  0.2740  0.3696  0.0915
 2291ntf    fn413305   1.031   6.933   6.081  0.2722 -0.0568  0.4384
 2292ntf    cn113306   4.631   5.013   1.171  0.1993  0.2765  0.2437
 2292ntf    sn213307   4.671   5.189   1.191  0.1574  0.3117  0.0189
 2292ntf    nn313308   4.531   5.253   1.160  0.1521  0.3561  0.1339
 2292ntf    sn213309   4.510   5.404   1.121 -0.0536  0.2893 -0.0150
 2292ntf    cn113310   4.413   5.472   1.259  0.0639  0.0993  0.1603
 2292ntf    fn413311   4.738   4.936   1.164  0.2835  0.4483 -0.3841
 2292ntf    fn413312   4.554   4.966   1.268  0.0012  0.7572  0.3210
 2292ntf    fn413313   4.566   4.991   1.058 -0.0655 -0.2078  0.4872
 2292ntf    on513314   4.716   5.186   1.328 -0.2706 -0.3765  0.1482
 2292ntf    on513315   4.755   5.200   1.074 -0.0135 -0.1278 -0.1460
 2292ntf    on513316   4.420   5.409   1.008  0.1066  0.3451 -0.1397
 2292ntf    on513317   4.627   5.487   1.106  0.5113 -0.4735  0.1044
 2292ntf    fn413318   4.486   5.489   1.368  0.2964  0.1146  0.0027
 2292ntf    fn413319   4.356   5.588   1.231  0.5818  0.2827 -0.1427
 2292ntf    fn413320   4.310   5.398   1.298 -0.3929  0.2716 -0.6996
 2293ntf    cn113321   3.761   3.729   4.874 -0.6080  0.4804  0.2274
 2293ntf    sn213322   3.662   3.577   4.889  0.3184 -0.1710 -0.2179
 2293ntf    nn313323   3.629   3.585   5.042  0.0367 -0.0418 -0.2854
 2293ntf    sn213324   3.489   3.579   5.113  0.2993  0.1730  0.2549
 2293ntf    cn113325   3.461   3.399   5.119 -0.1061  0.2107 -0.4421
 2293ntf    fn413326   3.842   3.751   4.976  0.1135 -0.4088 -0.1393
 2293ntf    fn413327   3.828   3.728   4.760 -0.0886  0.2504  0.5323
 2293ntf    fn413328   3.689   3.839   4.858 -0.8529  0.3580  0.4651
 2293ntf    on513329   3.552   3.600   4.798  0.0426 -0.3536  0.0684
 2293ntf    on513330   3.750   3.470   4.848 -0.0054 -0.5505  0.0739
 2293ntf    on513331   3.380   3.638   5.039  0.5801  0.4952  0.0965
 2293ntf    on513332   3.495   3.612   5.253  0.5528  0.2457  0.2270
 2293ntf    fn413333   3.449   3.338   5.002 -0.3643 -0.5849 -0.0117
 2293ntf    fn413334   3.569   3.337   5.162 -0.0370  0.0236 -0.8774
 2293ntf    fn413335   3.360   3.363   5.197  0.0266  0.3789 -0.1911
 2294ntf    cn113336   5.821   3.368   3.439  0.0645 -0.3402  0.2022
 2294ntf    sn213337   5.865   3.435   3.602 -0.0477  0.2019  0.0086
 2294ntf    nn313338   6.005   3.365   3.612 -0.1905 -0.2009 -0.7276
 2294ntf    sn213339   6.141   3.430   3.567 -0.0860 -0.0286 -0.1794
 2294ntf    cn113340   6.209   3.438   3.735 -0.4672 -0.1980 -0.0156
 2294ntf    fn413341   5.806   3.236   3.443  0.5737 -0.4016  0.2024
 2294ntf    fn413342   5.704   3.417   3.401 -0.0003 -0.5934  0.0722
 2294ntf    fn413343   5.898   3.408   3.339  0.1427 -0.0840  0.3651
 2294ntf    on513344   5.866   3.576   3.570 -1.0062  0.0455 -0.7390
 2294ntf    on513345   5.764   3.385   3.691 -0.1599 -0.3185 -0.4091
 2294ntf    on513346   6.142   3.564   3.513  0.1467 -0.3782 -1.0672
 2294ntf    on513347   6.240   3.346   3.505  0.1766  0.1902 -0.0589
 2294ntf    fn413348   6.119   3.478   3.824 -0.3361 -0.0950  0.0719
 2294ntf    fn413349   6.256   3.323   3.780  0.1293  0.0182 -0.0711
 2294ntf    fn413350   6.299   3.535   3.738 -0.7683  0.0833 -0.0515
 2295ntf    cn113351   6.055   0.171   5.882 -0.0326 -0.3105 -0.1997
 2295ntf    sn213352   5.929   0.175   5.750 -0.3243  0.4643  0.0951
 2295ntf    nn313353   5.854   0.309   5.780 -0.6071  0.2329  0.4259
 2295ntf    sn213354   5.914   0.451   5.751  0.3437 -0.2629 -0.0567
 2295ntf    cn113355   5.856   0.484   5.582  0.1151 -0.4732 -0.0207
 2295ntf    fn413356   6.150   0.260   5.857 -0.1831  0.0853  0.5862
 2295ntf    fn413357   6.010   0.189   6.005  0.2110 -0.2190 -0.1238
 2295ntf    fn413358   6.111   0.052   5.892 -0.8579 -0.6911 -0.0668
 2295ntf    on513359   6.005   0.186   5.628 -0.3184  0.0875  0.0620
 2295ntf    on513360   5.841   0.062   5.764 -0.1591  0.2750 -0.3970
 2295ntf    on513361   6.056   0.455   5.726  0.3437 -0.6081 -0.1154
 2295ntf    on513362   5.856   0.552   5.835  0.2092 -0.1333 -0.3040
 2295ntf    fn413363   5.868   0.613   5.555  0.1871 -0.4671  0.0412
 2295ntf    fn413364   5.921   0.419   5.487  0.4933 -0.1165 -0.0124
 2295ntf    fn413365   5.729   0.448   5.575 -0.0767  0.1635  0.0711
 2296ntf    cn113366   0.688   6.279   2.887  0.0891  0.0321 -0.1307
 2296ntf    sn213367   0.786   6.390   2.992  0.0528 -0.0252 -0.0361
 2296ntf    nn313368   0.925   6.345   2.934 -0.2892  0.0122 -0.8908
 2296ntf    sn213369   1.040   6.437   2.881 -0.0294  0.1819 -0.0334
 2296ntf    cn113370   1.182   6.331   2.925  0.0761  0.5007  0.4095
 2296ntf    fn413371   0.733   6.155   2.900 -0.5058 -0.2200 -0.4397
 2296ntf    fn413372   0.560   6.264   2.916 -0.0155  0.4437 -0.3846
 2296ntf    fn413373   0.686   6.312   2.759  0.1034  0.3152 -0.0567
 2296ntf    on513374   0.739   6.521   2.954  0.1331 -0.0619 -0.2633
 2296ntf    on513375   0.764   6.343   3.127 -0.1920 -0.1015 -0.1033
 2296ntf    on513376   1.068   6.566   2.940 -0.4775  0.5009 -0.5158
 2296ntf    on513377   1.041   6.428   2.737  0.0298 -0.0220 -0.0214
 2296ntf    fn413378   1.218   6.341   3.052  0.8519 -0.1122  0.2425
 2296ntf    fn413379   1.153   6.204   2.903  0.8875  0.3293  0.2875
 2296ntf    fn413380   1.284   6.363   2.847  0.1074  0.0100  0.2490
 2297ntf    cn113381   1.585   5.856   0.674 -0.0425  0.1426  0.4820
 2297ntf    sn213382   1.732   5.761   0.723 -0.0057 -0.0435  0.0203
 2297ntf    nn313383   1.674   5.691   0.851 -0.0847 -0.7145 -0.3762
 2297ntf    sn213384   1.711   5.711   1.002 -0.2504 -0.0402 -0.4184
 2297ntf    cn113385   1.859   5.606   1.010 -0.1964  0.0845  0.2838
 2297ntf    fn413386   1.551   5.958   0.751  0.3298 -0.0560  0.9090
 2297ntf    fn413387   1.625   5.904   0.557  0.2074  0.0238  0.5190
 2297ntf    fn413388   1.478   5.786   0.640 -0.0484  0.3753  0.0131
 2297ntf    on513389   1.741   5.666   0.615  0.1593  0.0300 -0.0301
 2297ntf    on513390   1.836   5.861   0.734  0.2790 -0.3961  0.5419
 2297ntf    on513391   1.617   5.643   1.088  0.8311 -0.5361  0.3963
 2297ntf    on513392   1.751   5.841   1.049  0.0479 -0.2697 -0.0296
 2297ntf    fn413393   1.915   5.609   1.130  0.2207  0.4211  0.0838
 2297ntf    fn413394   1.828   5.483   0.975  0.1306  0.0820  0.0014
 2297ntf    fn413395   1.953   5.638   0.922  0.1020 -0.0209  0.5599
 2298ntf    cn113396   4.128   2.073   0.774  0.3104 -0.2114 -0.0519
 2298ntf    sn213397   4.239   2.116   0.911 -0.2304  0.4546  0.1833
 2298ntf    nn313398   4.236   1.979   0.989  0.2963  0.4541  0.2123
 2298ntf    sn213399   4.156   1.932   1.116  0.0369 -0.4915 -0.2925
 2298ntf    cn113400   4.001   1.872   1.043 -0.2763  0.2258 -0.2291
 2298ntf    fn413401   4.160   1.960   0.712 -0.0768 -0.0188 -0.6117
 2298ntf    fn413402   4.003   2.058   0.814  0.2728 -0.4350 -0.2516
 2298ntf    fn413403   4.121   2.167   0.681  0.3973 -0.0682  0.0869
 2298ntf    on513404   4.366   2.137   0.846 -0.4692  0.0310 -0.4246
 2298ntf    on513405   4.174   2.232   0.965  0.5419  0.7863  0.4182
 2298ntf    on513406   4.112   2.040   1.201  0.4860 -0.0343 -0.6346
 2298ntf    on513407   4.204   1.813   1.181  0.3395 -0.1795  0.0580
 2298ntf    fn413408   3.915   1.972   1.038  0.3495  0.7636 -0.2940
 2298ntf    fn413409   4.027   1.829   0.920 -0.0028 -0.0879 -0.0635
 2298ntf    fn413410   3.951   1.767   1.106  0.7549 -0.1260  0.0201
 2299ntf    cn113411   0.277   0.592   1.634 -0.2995 -0.2695 -0.0286
 2299ntf    sn213412   0.181   0.596   1.789  0.0359 -0.1379  0.1779
 2299ntf    nn313413   0.300   0.629   1.885 -0.3190 -0.3145  0.6814
 2299ntf    sn213414   0.351   0.774   1.918 -0.0141 -0.2138 -0.2046
 2299ntf    cn113415   0.529   0.737   1.918  0.0184 -0.0513 -0.6249
 2299ntf    fn413416   0.380   0.509   1.632 -0.1468 -0.1093  0.6659
 2299ntf    fn413417   0.197   0.547   1.539 -0.1067  0.0569 -0.3466
 2299ntf    fn413418   0.316   0.715   1.604 -0.4810 -0.2959 -0.3767
 2299ntf    on513419   0.076   0.694   1.776 -0.0091 -0.1250  0.6229
 2299ntf    on513420   0.152   0.455   1.804  0.7981 -0.3336 -0.1204
 2299ntf    on513421   0.318   0.817   2.052 -0.2657 -0.3998 -0.2046
 2299ntf    on513422   0.332   0.872   1.815  0.7840  0.3825  0.2002
 2299ntf    fn413423   0.582   0.683   1.809  0.0260  0.1173 -0.7064
 2299ntf    fn413424   0.589   0.851   1.951  0.2777 -0.4659  0.3676
 2299ntf    fn413425   0.563   0.654   2.015  0.0921 -0.1156 -0.7053
 2300ntf    cn113426   5.293   3.083   0.456  0.3415  0.2124 -0.1842
 2300ntf    sn213427   5.306   2.902   0.463 -0.2163  0.1799  0.0726
 2300ntf    nn313428   5.367   2.872   0.321  0.1307 -0.2497  0.3077
 2300ntf    sn213429   5.315   2.797   0.193  0.3508  0.1677 -0.0289
 2300ntf    cn113430   5.380   2.630   0.222 -0.1394  0.0169  0.2150
 2300ntf    fn413431   5.408   3.145   0.476  0.5041 -0.2143  0.2409
 2300ntf    fn413432   5.232   3.132   0.349  0.4149  0.0269 -0.3117
 2300ntf    fn413433   5.217   3.125   0.556  0.1780  0.4022 -0.3858
 2300ntf    on513434   5.405   2.883   0.566  0.1825  0.6186 -0.2275
 2300ntf    on513435   5.170   2.859   0.486  0.0046 -0.6089 -0.0566
 2300ntf    on513436   5.375   2.834   0.068  0.2122 -0.4005 -0.2648
 2300ntf    on513437   5.173   2.774   0.189  0.4046 -0.2023  0.1679
 2300ntf    fn413438   5.507   2.640   0.258 -0.0488 -0.1565 -0.0575
 2300ntf    fn413439   5.318   2.564   0.318 -0.5836 -0.7212 -0.5696
 2300ntf    fn413440   5.396   2.548   0.120 -0.6494  0.1222  0.0495
 2301ntf    cn113441   1.750   1.464   0.936  0.4966  0.1207 -0.2187
 2301ntf    sn213442   1.870   1.558   0.837  0.5340  0.1936 -0.1041
 2301ntf    nn313443   1.982   1.451   0.809  0.3013  0.0015 -0.3129
 2301ntf    sn213444   2.091   1.455   0.696  0.4732 -0.2469 -0.1555
 2301ntf    cn113445   2.144   1.281   0.692  0.5030 -0.2469  0.1796
 2301ntf    fn413446   1.796   1.415   1.050 -0.0674 -0.8240 -0.3846
 2301ntf    fn413447   1.643   1.530   0.975  0.3040 -0.0707 -0.4172
 2301ntf    fn413448   1.695   1.359   0.876  0.4069  0.0387  0.0080
 2301ntf    on513449   1.789   1.575   0.718 -0.1115 -0.4641  0.2355
 2301ntf    on513450   1.903   1.667   0.924  0.3623 -0.2615  0.5361
 2301ntf    on513451   2.213   1.520   0.736  0.4425 -0.2935  0.0138
 2301ntf    on513452   2.049   1.476   0.560  1.0026  0.0597 -0.2742
 2301ntf    fn413453   2.047   1.197   0.657  0.3251 -0.1811  0.5149
 2301ntf    fn413454   2.251   1.252   0.619  0.2805  0.6063 -0.4985
 2301ntf    fn413455   2.171   1.233   0.812  0.2298 -0.3066  0.2185
 2302ntf    cn113456   2.660   5.993   2.751  0.2595  0.3104 -0.0690
 2302ntf    sn213457   2.592   6.154   2.701 -0.1583  0.1799  0.0763
 2302ntf    nn313458   2.460   6.091   2.643  0.1781 -0.4564 -0.0087
 2302ntf    sn213459   2.355   6.160   2.549  0.1119 -0.2183  0.2374
 2302ntf    cn113460   2.251   6.255   2.664  0.0384 -0.0025 -0.0058
 2302ntf    fn413461   2.598   5.937   2.853 -0.9338  0.6859 -0.5666
 2302ntf    fn413462   2.657   5.905   2.653 -0.1675  0.1424  0.0911
 2302ntf    fn413463   2.787   5.998   2.790  0.2268 -0.2830  0.1181
 2302ntf    on513464   2.573   6.219   2.828  0.5240 -0.2529  0.4073
 2302ntf    on513465   2.690   6.204   2.608 -0.5097  0.3645 -0.1996
 2302ntf    on513466   2.262   6.062   2.497  0.1175 -0.7340  1.1622
 2302ntf    on513467   2.409   6.254   2.455 -0.0401  0.0119  0.3803
 2302ntf    fn413468   2.157   6.194   2.736  0.0685  0.1940  0.1983
 2302ntf    fn413469   2.332   6.323   2.743 -0.0705 -0.1384  0.2260
 2302ntf    fn413470   2.185   6.347   2.596 -0.7026  0.0747  0.7925
 2303ntf    cn113471   6.535   3.779   1.520 -0.0491 -0.0236 -0.3502
 2303ntf    sn213472   6.472   3.943   1.474 -0.0935  0.1124  0.1889
 2303ntf    nn313473   6.337   3.941   1.554  0.1413 -0.5482  0.5739
 2303ntf    sn213474   6.258   4.053   1.630  0.2394 -0.0995  0.0276
 2303ntf    cn113475   6.317   3.997   1.793 -0.5507  0.0851  0.3839
 2303ntf    fn413476   6.569   3.767   1.647  0.3151 -0.8103 -0.5155
 2303ntf    fn413477   6.449   3.684   1.489  0.0440 -0.0461 -0.5465
 2303ntf    fn413478   6.641   3.741   1.450 -0.1005 -0.1954 -0.3349
 2303ntf    on513479   6.575   4.029   1.527  0.0032  0.4285 -0.4895
 2303ntf    on513480   6.451   3.941   1.331  0.9600 -0.0993  0.0285
 2303ntf    on513481   6.116   4.039   1.649  0.1699 -0.0535 -0.4510
 2303ntf    on513482   6.318   4.184   1.633  0.3768 -0.1580 -0.2095
 2303ntf    fn413483   6.447   3.973   1.796 -0.4277  0.7095  0.2475
 2303ntf    fn413484   6.284   4.087   1.884  0.8036  0.4328  0.5533
 2303ntf    fn413485   6.256   3.886   1.830  0.0198 -0.3116  0.1422
 2304ntf    cn113486   5.958   1.956   1.670 -0.0406 -0.1002 -0.1069
 2304ntf    sn213487   5.786   1.928   1.720 -0.0189 -0.2654 -0.1242
 2304ntf    nn313488   5.811   1.920   1.875  0.2252  0.3552 -0.1277
 2304ntf    sn213489   5.767   2.019   1.989  0.1856  0.1299  0.0556
 2304ntf    cn113490   5.895   2.148   1.984  0.2607  0.0660  0.3415
 2304ntf    fn413491   6.037   2.023   1.752 -0.2866  0.1601 -0.0828
 2304ntf    fn413492   6.019   1.840   1.654 -0.2389 -0.2534  0.2622
 2304ntf    fn413493   5.969   2.026   1.557  0.5571 -0.0183 -0.0011
 2304ntf    on513494   5.724   2.051   1.679 -0.4239 -0.6138 -0.5682
 2304ntf    on513495   5.751   1.802   1.660 -0.8919 -0.2116  0.2421
 2304ntf    on513496   5.783   1.959   2.119 -0.5215  0.1127  0.1364
 2304ntf    on513497   5.639   2.083   1.975  0.4065  0.6589  0.4174
 2304ntf    fn413498   6.009   2.094   2.025  0.2710 -0.4581 -0.3675
 2304ntf    fn413499   5.920   2.179   1.858 -0.5052  0.2170  0.2226
 2304ntf    fn413500   5.870   2.257   2.054  1.0637  0.2993  0.2807
 2305ntf    cn113501   2.561   4.494   4.377 -0.2097  0.1410  0.5128
 2305ntf    sn213502   2.501   4.616   4.498 -0.3065  0.6833 -0.0791
 2305ntf    nn313503   2.350   4.578   4.514 -0.1097 -0.1907 -0.2440
 2305ntf    sn213504   2.267   4.514   4.632 -0.2655  0.1329 -0.1766
 2305ntf    cn113505   2.257   4.346   4.562 -0.5309 -0.0430  0.2832
 2305ntf    fn413506   2.556   4.368   4.417  0.0786  0.0535  0.2741
 2305ntf    fn413507   2.474   4.486   4.278  0.1231 -0.1487  0.2377
 2305ntf    fn413508   2.676   4.529   4.323 -0.2117 -0.3276  0.2037
 2305ntf    on513509   2.576   4.567   4.611 -0.3684  0.2091 -0.2392
 2305ntf    on513510   2.535   4.749   4.453 -0.1067  0.5992 -0.1781
 2305ntf    on513511   2.133   4.566   4.642 -0.1446  0.4034  0.0434
 2305ntf    on513512   2.333   4.485   4.756 -0.3206 -0.0111 -0.1797
 2305ntf    fn413513   2.212   4.353   4.438 -0.1078 -0.1713  0.1221
 2305ntf    fn413514   2.372   4.281   4.551 -0.2629  0.4388  0.2271
 2305ntf    fn413515   2.169   4.265   4.618 -0.7847  0.1404  0.1491
 2306ntf    cn113516   2.657   3.029   2.846 -0.1296  0.1718  0.3152
 2306ntf    sn213517   2.578   3.138   2.969 -0.3218 -0.1449  0.4734
 2306ntf    nn313518   2.529   3.258   2.880  0.2685 -0.1518  0.1329
 2306ntf    sn213519   2.582   3.405   2.882 -0.0323 -0.0475  0.5607
 2306ntf    cn113520   2.460   3.484   2.991 -0.3337  0.0086  0.1832
 2306ntf    fn413521   2.713   2.925   2.906  0.1230  0.4114  0.4979
 2306ntf    fn413522   2.584   2.978   2.749  0.4290  0.3826 -0.2241
 2306ntf    fn413523   2.761   3.088   2.790 -0.2338  0.1333  0.0820
 2306ntf    on513524   2.472   3.044   3.000 -0.5892  0.0644  0.1953
 2306ntf    on513525   2.685   3.149   3.065 -0.2224 -0.0596  0.3522
 2306ntf    on513526   2.563   3.470   2.755 -0.1296 -0.2014  0.4967
 2306ntf    on513527   2.710   3.431   2.944  0.0470 -0.2671  0.4877
 2306ntf    fn413528   2.491   3.611   3.015  0.0181 -0.0702  0.1489
 2306ntf    fn413529   2.343   3.488   2.930 -0.0306 -0.0376 -0.4041
 2306ntf    fn413530   2.453   3.435   3.114  0.5431  0.1619  0.3049
 2307ntf    cn113531   0.378   1.495   5.501  0.0757 -0.3575  0.1643
 2307ntf    sn213532   0.268   1.364   5.439 -0.0444 -0.2597  0.1700
 2307ntf    nn313533   0.166   1.461   5.368  0.2165  0.0121  0.1616
 2307ntf    sn213534   0.112   1.438   5.223 -0.2994  0.5422  0.2692
 2307ntf    cn113535   0.197   1.568   5.128 -0.4109  0.2708 -0.2037
 2307ntf    fn413536   0.297   1.566   5.578  0.0307  0.2899 -0.4691
 2307ntf    fn413537   0.479   1.453   5.574  0.3657 -0.3684 -0.2396
 2307ntf    fn413538   0.428   1.581   5.413  0.4314 -0.4408  0.2866
 2307ntf    on513539   0.356   1.282   5.358 -0.0484 -0.4745  0.3826
 2307ntf    on513540   0.211   1.296   5.552 -0.3979 -0.0317  0.1305
 2307ntf    on513541  -0.025   1.484   5.217 -0.5754 -0.3242 -0.1849
 2307ntf    on513542   0.146   1.321   5.147 -0.0889  0.1493  0.9659
 2307ntf    fn413543   0.168   1.540   5.001 -0.2317  0.3636 -0.2650
 2307ntf    fn413544   0.142   1.683   5.165  0.0945  0.3226  0.3806
 2307ntf    fn413545   0.328   1.575   5.144 -0.3410 -0.4187 -0.4323
 2308ntf    cn113546   5.089   4.947   2.539  0.4565  0.1811 -0.1248
 2308ntf    sn213547   4.956   4.896   2.427  0.2399  0.0237  0.2052
 2308ntf    nn313548   4.994   4.977   2.299  0.0778  0.0767  0.1909
 2308ntf    sn213549   4.980   4.940   2.147  0.0754  0.2533  0.1481
 2308ntf    cn113550   4.813   5.008   2.121 -0.0280 -0.0628 -0.0145
 2308ntf    fn413551   5.069   5.071   2.580 -0.0503  0.0982 -0.1233
 2308ntf    fn413552   5.109   4.861   2.637  0.0155  0.3602  0.1266
 2308ntf    fn413553   5.206   4.956   2.478  0.7533 -0.1674  0.3905
 2308ntf    on513554   4.984   4.754   2.419  0.1160  0.0526 -0.9331
 2308ntf    on513555   4.838   4.932   2.503  0.1540 -0.1386  0.1490
 2308ntf    on513556   4.985   4.802   2.106 -0.4361  0.2613  0.0522
 2308ntf    on513557   5.057   5.034   2.069 -0.2596  0.6439  0.2826
 2308ntf    fn413558   4.757   4.979   2.004 -0.2949  0.1885  0.0494
 2308ntf    fn413559   4.734   4.961   2.216  0.1731  0.4818  0.4280
 2308ntf    fn413560   4.809   5.140   2.113 -0.3471 -0.0605  0.1572
 2309ntf    cn113561   5.033   3.196   5.817  0.1810  0.0524  0.6620
 2309ntf    sn213562   5.095   3.097   5.957  0.3466 -0.1460  0.4494
 2309ntf    nn313563   4.961   3.093   6.040 -0.0516  0.1382 -0.1676
 2309ntf    sn213564   4.915   3.178   6.163 -0.0485  0.0882 -0.1319
 2309ntf    cn113565   4.849   3.043   6.265  0.1532 -0.0458 -0.1771
 2309ntf    fn413566   5.120   3.222   5.720  0.2219 -0.2209  0.6230
 2309ntf    fn413567   4.933   3.141   5.751  0.3422  0.2666  0.2319
 2309ntf    fn413568   4.992   3.314   5.859 -0.5992 -0.0965  0.3385
 2309ntf    on513569   5.129   2.967   5.903 -0.8164 -0.2460 -0.0847
 2309ntf    on513570   5.204   3.180   6.000  0.3108 -0.1614  0.5681
 2309ntf    on513571   4.807   3.266   6.127  0.2514  0.2139 -0.7325
 2309ntf    on513572   5.019   3.234   6.247 -0.0401 -0.4009  0.1879
 2309ntf    fn413573   4.759   2.982   6.190  0.3347 -0.4103 -0.1002
 2309ntf    fn413574   4.939   2.947   6.283  0.2145 -0.0460 -0.4780
 2309ntf    fn413575   4.812   3.072   6.389 -0.2279  0.2342 -0.3545
 2310ntf    cn113576   4.024   3.644   0.314  0.1818 -0.2125  0.0503
 2310ntf    sn213577   4.178   3.550   0.287  0.2452 -0.0362 -0.2163
 2310ntf    nn313578   4.143   3.450   0.171 -0.0512 -0.1135 -0.0616
 2310ntf    sn213579   4.155   3.467   0.016  0.2677  0.0082 -0.0235
 2310ntf    cn113580   4.208   3.300  -0.032 -0.3739 -0.2528  0.1686
 2310ntf    fn413581   4.034   3.727   0.416 -0.8533 -0.3110  0.2371
 2310ntf    fn413582   3.993   3.727   0.216  0.1250 -0.2958 -0.0031
 2310ntf    fn413583   3.916   3.569   0.321  0.1933 -0.2773 -0.4151
 2310ntf    on513584   4.275   3.648   0.245  0.6233 -0.6285 -0.7511
 2310ntf    on513585   4.206   3.483   0.412 -0.0432  0.1133 -0.0709
 2310ntf    on513586   4.267   3.543  -0.034  0.1529  0.0685 -0.1899
 2310ntf    on513587   4.024   3.490  -0.040  0.4708  0.3287 -0.3784
 2310ntf    fn413588   4.118   3.204  -0.019  0.0038 -0.6393 -0.0085
 2310ntf    fn413589   4.251   3.308  -0.157 -0.0371 -0.2555  0.2822
 2310ntf    fn413590   4.316   3.257   0.032  0.1977  0.6830 -0.1547
 2311ntf    cn113591   5.786   4.157   0.069  0.1573  0.1473  0.3912
 2311ntf    sn213592   5.727   4.014   0.166  0.0145 -0.1320 -0.0981
 2311ntf    nn313593   5.629   4.083   0.268  0.0129  0.0074 -0.1936
 2311ntf    sn213594   5.505   4.020   0.341 -0.1350 -0.0043 -0.4535
 2311ntf    cn113595   5.368   4.068   0.232  0.0152  0.5375 -0.4053
 2311ntf    fn413596   5.860   4.125  -0.036 -0.2093  0.5005  0.0231
 2311ntf    fn413597   5.693   4.237   0.019  0.4696  0.2557 -0.0178
 2311ntf    fn413598   5.867   4.237   0.136  0.0377  0.1876  0.4893
 2311ntf    on513599   5.677   3.920   0.070 -0.0932 -0.1798  0.0043
 2311ntf    on513600   5.845   3.977   0.241 -0.0532  1.0323  0.6183
 2311ntf    on513601   5.471   4.073   0.470  0.2278 -0.7331 -0.0520
 2311ntf    on513602   5.488   3.877   0.332 -0.2858  0.0105 -0.4025
 2311ntf    fn413603   5.383   4.028   0.107  0.2295 -0.2456 -0.1318
 2311ntf    fn413604   5.249   4.025   0.273  0.2951 -0.0665 -0.2157
 2311ntf    fn413605   5.358   4.200   0.230 -0.6429  0.4881 -0.7989
 2312ntf    cn113606   1.557   1.363   6.723  0.3370  0.3772 -0.4969
 2312ntf    sn213607   1.472   1.258   6.845  0.3757  0.2713 -0.5613
 2312ntf    nn313608   1.579   1.143   6.854 -0.2062 -0.2275  0.1122
 2312ntf    sn213609   1.688   1.122   6.965 -0.0067 -0.2174 -0.0805
 2312ntf    cn113610   1.672   0.941   6.967  0.1281 -0.2257  0.2979
 2312ntf    fn413611   1.531   1.328   6.598 -0.0637 -0.3313 -0.2239
 2312ntf    fn413612   1.530   1.491   6.743  0.2112  0.1734  0.6736
 2312ntf    fn413613   1.687   1.347   6.738  0.3058  0.7003  0.1269
 2312ntf    on513614   1.459   1.344   6.960 -0.0367 -0.1778 -0.2704
 2312ntf    on513615   1.351   1.221   6.776  0.1710 -0.1881  0.0361
 2312ntf    on513616   1.659   1.169   7.098 -0.0588 -0.0790 -0.1406
 2312ntf    on513617   1.817   1.152   6.907  0.0372 -1.2569 -0.5447
 2312ntf    fn413618   1.652   0.901   6.842 -0.4617 -1.0284  0.6470
 2312ntf    fn413619   1.777   0.876   7.013  0.2811 -0.4969 -0.4236
 2312ntf    fn413620   1.568   0.902   7.039  0.0100 -0.1920  0.1475
 2313ntf    cn113621   2.975   1.837   6.148 -0.1301  0.3825  0.4177
 2313ntf    sn213622   3.089   1.707   6.206 -0.1904 -0.0335 -0.3898
 2313ntf    nn313623   3.021   1.575   6.157 -0.3104  0.1039 -0.5978
 2313ntf    sn213624   2.885   1.518   6.210 -0.3350  0.4415 -0.2966
 2313ntf    cn113625   2.779   1.527   6.063 -0.6881 -0.3617 -0.1001
 2313ntf    fn413626   2.974   1.963   6.189 -0.2382  0.6306 -0.3451
 2313ntf    fn413627   3.008   1.851   6.021 -0.3728  0.2676  0.3409
 2313ntf    fn413628   2.849   1.797   6.138 -0.0025 -0.0010  0.3588
 2313ntf    on513629   3.212   1.734   6.135 -0.0749 -0.1667 -0.2397
 2313ntf    on513630   3.087   1.734   6.348  0.3839  0.8744 -0.5461
 2313ntf    on513631   2.814   1.593   6.311 -0.2027 -0.1655  0.2583
 2313ntf    on513632   2.896   1.376   6.235 -0.1635  0.5582  0.3227
 2313ntf    fn413633   2.686   1.433   6.072 -0.1095 -0.9259  0.0504
 2313ntf    fn413634   2.724   1.647   6.051 -0.0905 -0.1238 -0.5474
 2313ntf    fn413635   2.849   1.506   5.953 -0.1060  0.2928  0.1418
 2314ntf    cn113636   0.578   6.603   0.375 -0.0277 -0.2041 -0.2697
 2314ntf    sn213637   0.470   6.709   0.274  0.0136  0.1254  0.0287
 2314ntf    nn313638   0.419   6.814   0.379 -0.1954 -0.7583  0.8261
 2314ntf    sn213639   0.275   6.839   0.437 -0.3149  0.0313  0.2001
 2314ntf    cn113640   0.280   7.016   0.479 -0.1254  0.0588  0.0639
 2314ntf    fn413641   0.639   6.518   0.294  0.0122 -0.2782 -0.1623
 2314ntf    fn413642   0.670   6.672   0.442 -0.3430  0.4128 -0.4629
 2314ntf    fn413643   0.516   6.531   0.467  0.4459 -0.7389 -0.3610
 2314ntf    on513644   0.559   6.768   0.177 -0.7253 -0.1062 -0.7991
 2314ntf    on513645   0.371   6.615   0.227 -0.0437  0.0908  0.2173
 2314ntf    on513646   0.257   6.778   0.567 -0.2209 -0.1489  0.1288
 2314ntf    on513647   0.175   6.832   0.334  0.0614  0.3961 -0.1916
 2314ntf    fn413648   0.304   7.095   0.375  0.5620 -0.0996  0.0948
 2314ntf    fn413649   0.166   7.050   0.537 -0.1388 -0.3358  0.2721
 2314ntf    fn413650   0.370   7.033   0.574  0.1453 -0.1058 -0.1625
 2315ntf    cn113651   6.342   3.415   0.110 -0.2548  0.1944 -0.3698
 2315ntf    sn213652   6.519   3.375   0.097 -0.2739 -0.1022  0.2420
 2315ntf    nn313653   6.510   3.226   0.050  0.4063 -0.0648 -0.0222
 2315ntf    sn213654   6.492   3.167  -0.094 -0.0522  0.0679 -0.0224
 2315ntf    cn113655   6.660   3.108  -0.133  0.0024  0.2299 -0.0337
 2315ntf    fn413656   6.283   3.375   0.222  0.2423 -0.2775 -0.2684
 2315ntf    fn413657   6.317   3.544   0.104 -1.1342  0.0533  0.1242
 2315ntf    fn413658   6.281   3.359   0.007 -0.3927 -0.1064 -0.1285
 2315ntf    on513659   6.577   3.474   0.010 -0.4879 -0.2258 -0.0387
 2315ntf    on513660   6.562   3.364   0.235 -0.1157 -0.4288  0.1660
 2315ntf    on513661   6.470   3.260  -0.201 -0.4820 -0.0376 -0.0289
 2315ntf    on513662   6.414   3.045  -0.088 -0.5791  0.3919 -0.2467
 2315ntf    fn413663   6.662   3.057  -0.255  0.0885 -0.2894  0.1799
 2315ntf    fn413664   6.750   3.203  -0.123 -0.0426  0.2864 -0.1621
 2315ntf    fn413665   6.705   3.012  -0.054 -0.3803  0.0383 -0.0444
 2316ntf    cn113666   2.474   1.522   3.158 -0.2875 -0.1960  0.3220
 2316ntf    sn213667   2.457   1.595   2.993  0.1664 -0.3143  0.2217
 2316ntf    nn313668   2.354   1.496   2.928  0.5165 -0.3962 -0.2119
 2316ntf    sn213669   2.386   1.361   2.855  0.1561 -0.3545 -0.4500
 2316ntf    cn113670   2.221   1.337   2.783  0.0022  0.1488 -0.2702
 2316ntf    fn413671   2.522   1.399   3.149  0.3813  0.0804  0.1247
 2316ntf    fn413672   2.565   1.584   3.231 -0.1552 -0.2202  0.1766
 2316ntf    fn413673   2.364   1.514   3.232 -0.6107  0.7127 -0.0586
 2316ntf    on513674   2.394   1.722   3.023  0.3269 -0.2500  0.2864
 2316ntf    on513675   2.587   1.602   2.932 -0.1229  0.1066 -0.3600
 2316ntf    on513676   2.383   1.251   2.948 -0.7512 -0.6594 -0.8270
 2316ntf    on513677   2.476   1.366   2.743  0.2260 -0.2565 -0.3890
 2316ntf    fn413678   2.177   1.432   2.702 -0.1379  0.2871 -0.0329
 2316ntf    fn413679   2.193   1.221   2.725 -0.0017 -0.0229  0.0728
 2316ntf    fn413680   2.131   1.337   2.879 -0.1428  0.5305 -0.4041
 2317ntf    cn113681   5.536   1.256   1.092 -0.1112 -0.0970 -0.0060
 2317ntf    sn213682   5.689   1.161   1.072 -0.0165  0.0069  0.2256
 2317ntf    nn313683   5.638   1.060   0.964 -0.6569  0.3395  0.2138
 2317ntf    sn213684   5.605   0.908   0.989  0.1587  0.0895 -0.1857
 2317ntf    cn113685   5.764   0.822   1.004  0.2143  0.2405  0.1183
 2317ntf    fn413686   5.550   1.356   1.177  0.2128 -0.1373 -0.0140
 2317ntf    fn413687   5.496   1.306   0.976 -0.0793 -0.4412 -0.1676
 2317ntf    fn413688   5.433   1.178   1.122 -0.1004 -0.0771  0.0826
 2317ntf    on513689   5.782   1.259   1.020 -0.4116  0.1175 -0.2763
 2317ntf    on513690   5.715   1.096   1.198 -0.1556  0.1479  0.3271
 2317ntf    on513691   5.546   0.854   0.869  0.3850  0.1847 -0.3399
 2317ntf    on513692   5.543   0.881   1.117  0.1656 -0.5341 -0.3115
 2317ntf    fn413693   5.836   0.815   0.893  0.3949 -0.1064  0.2549
 2317ntf    fn413694   5.850   0.869   1.092  0.6471 -0.4501  0.0696
 2317ntf    fn413695   5.748   0.693   1.028  0.0061  0.1116 -0.6777
 2318ntf    cn113696   3.547   4.267   4.203  0.1768 -0.5504 -0.3152
 2318ntf    sn213697   3.412   4.360   4.124  0.1817 -0.2338  0.0403
 2318ntf    nn313698   3.282   4.301   4.189  0.2402 -0.2683  0.1262
 2318ntf    sn213699   3.227   4.156   4.209 -0.1495 -0.1335  0.0542
 2318ntf    cn113700   3.285   4.141   4.380  0.1824  0.2362 -0.0242
 2318ntf    fn413701   3.530   4.136   4.196  0.4366 -0.5723 -0.5138
 2318ntf    fn413702   3.665   4.291   4.148 -0.0701 -0.2021 -0.7030
 2318ntf    fn413703   3.559   4.305   4.330  0.6556 -0.5279 -0.3653
 2318ntf    on513704   3.431   4.498   4.160 -0.1604 -0.0832 -0.3454
 2318ntf    on513705   3.426   4.333   3.983  0.1721 -0.3340  0.0583
 2318ntf    on513706   3.286   4.041   4.144 -0.1608 -0.0080 -0.1771
 2318ntf    on513707   3.083   4.147   4.208 -0.1493 -0.1149 -0.7946
 2318ntf    fn413708   3.259   4.250   4.450  0.4651  0.3207 -0.0496
 2318ntf    fn413709   3.221   4.039   4.437  0.0466 -0.1063 -0.7839
 2318ntf    fn413710   3.415   4.117   4.390  0.1763  0.3157  0.2665
 2319ntf    cn113711   3.197   0.559   3.850 -0.2876  0.4289  0.2049
 2319ntf    sn213712   3.259   0.408   3.930  0.3967  0.4274 -0.3198
 2319ntf    nn313713   3.356   0.473   4.035  0.3284  0.1857 -0.1052
 2319ntf    sn213714   3.355   0.467   4.191  0.0210  0.0198 -0.1109
 2319ntf    cn113715   3.536   0.458   4.210 -0.0358 -0.4471  0.2401
 2319ntf    fn413716   3.181   0.667   3.925 -0.1802  0.2212  0.5313
 2319ntf    fn413717   3.283   0.593   3.755 -0.3023 -0.0874  0.0027
 2319ntf    fn413718   3.085   0.533   3.785 -0.3096 -0.1810  0.4811
 2319ntf    on513719   3.153   0.321   3.976  0.4010  0.6819  0.1737
 2319ntf    on513720   3.334   0.365   3.814 -0.0384 -0.4176 -0.3035
 2319ntf    on513721   3.305   0.349   4.257  0.3301 -0.1918 -0.2549
 2319ntf    on513722   3.327   0.597   4.246 -0.0395 -0.3263  0.6920
 2319ntf    fn413723   3.583   0.577   4.174 -0.4495 -0.2848  0.2249
 2319ntf    fn413724   3.582   0.433   4.331 -0.1698  0.2458  0.4377
 2319ntf    fn413725   3.589   0.371   4.125  0.6130 -0.2094  0.3928
 2320ntf    cn113726   5.485   6.752   3.993  0.1216  0.0406  0.6991
 2320ntf    sn213727   5.504   6.595   4.083  0.1924 -0.2607  0.1644
 2320ntf    nn313728   5.485   6.660   4.225  0.1683 -0.0347  0.0594
 2320ntf    sn213729   5.568   6.657   4.359  0.0426  0.1637  0.1416
 2320ntf    cn113730   5.496   6.516   4.447  0.3283 -0.0589  0.0226
 2320ntf    fn413731   5.364   6.800   4.017 -0.1761 -0.3143 -0.0577
 2320ntf    fn413732   5.580   6.837   4.029  0.2091  0.1782  0.1527
 2320ntf    fn413733   5.491   6.729   3.863 -0.5632  0.2298  0.6288
 2320ntf    on513734   5.386   6.519   4.055  0.0381 -0.0718  0.2984
 2320ntf    on513735   5.637   6.545   4.054  0.4096  0.3930  0.0077
 2320ntf    on513736   5.525   6.766   4.443 -0.2986  0.0182  0.1543
 2320ntf    on513737   5.709   6.629   4.345 -0.1185 -0.6241  0.0484
 2320ntf    fn413738   5.559   6.492   4.561  0.3529  0.2572  0.0769
 2320ntf    fn413739   5.373   6.544   4.489  0.1832 -0.1902 -0.3085
 2320ntf    fn413740   5.491   6.406   4.374  0.7560 -0.0873  0.0363
 2321ntf    cn113741   5.759   6.510   0.266  0.1396 -0.3994 -0.6117
 2321ntf    sn213742   5.933   6.527   0.314 -0.1180  0.2519  0.1162
 2321ntf    nn313743   5.958   6.666   0.247 -0.2693  0.1406 -0.1744
 2321ntf    sn213744   6.087   6.719   0.175 -0.0017 -0.2270  0.0297
 2321ntf    cn113745   6.004   6.806   0.038  0.4318 -0.3666 -0.3236
 2321ntf    fn413746   5.704   6.630   0.282  0.1358 -0.5205  0.3288
 2321ntf    fn413747   5.744   6.468   0.142 -0.1484  0.1307 -0.7631
 2321ntf    fn413748   5.696   6.426   0.347 -0.3224  0.3938 -0.1308
 2321ntf    on513749   5.930   6.547   0.457 -0.1847  0.5170  0.0784
 2321ntf    on513750   6.008   6.418   0.256 -0.0506  0.3687 -0.0140
 2321ntf    on513751   6.170   6.624   0.105 -0.2316 -0.4158  0.0117
 2321ntf    on513752   6.153   6.824   0.249 -0.1888 -0.0855 -0.0022
 2321ntf    fn413753   6.084   6.897  -0.015 -0.1467  0.1159 -0.3807
 2321ntf    fn413754   5.957   6.732  -0.061 -0.0766  0.1937 -0.5043
 2321ntf    fn413755   5.903   6.880   0.080  0.5351 -0.4601  0.0961
 2322ntf    cn113756   0.626   1.018   4.466  0.2793  0.0608 -0.1717
 2322ntf    sn213757   0.509   1.155   4.453 -0.2054 -0.2840  0.4987
 2322ntf    nn313758   0.594   1.240   4.351 -0.5365 -0.1245  0.3510
 2322ntf    sn213759   0.666   1.379   4.363 -0.0520 -0.3379 -0.0488
 2322ntf    cn113760   0.528   1.494   4.337  0.0754 -0.1295  0.1933
 2322ntf    fn413761   0.602   0.928   4.560  0.0681 -0.0715 -0.3511
 2322ntf    fn413762   0.629   0.950   4.352  0.3855  0.1562 -0.2262
 2322ntf    fn413763   0.751   1.059   4.484  0.4443 -0.2972 -0.4723
 2322ntf    on513764   0.394   1.107   4.380 -0.0092 -0.4717  0.3141
 2322ntf    on513765   0.503   1.214   4.584  0.0431 -0.1618  0.4545
 2322ntf    on513766   0.747   1.393   4.245  0.4353 -0.4137  0.2733
 2322ntf    on513767   0.730   1.410   4.489  0.2424  0.6581 -0.4338
 2322ntf    fn413768   0.414   1.441   4.379 -0.0272 -0.0921 -0.0341
 2322ntf    fn413769   0.548   1.611   4.395 -0.0120  0.0151 -0.0640
 2322ntf    fn413770   0.515   1.518   4.207  0.7654 -0.0120  0.1393
 2323ntf    cn113771   4.700   4.342   1.379  0.3016 -0.2359 -0.1102
 2323ntf    sn213772   4.824   4.378   1.508 -0.1137  0.4163  0.1171
 2323ntf    nn313773   4.939   4.281   1.462 -0.2506  0.1454  0.3395
 2323ntf    sn213774   5.033   4.184   1.542  0.4499  0.2045 -0.3950
 2323ntf    cn113775   5.207   4.222   1.505  0.6381 -0.1131  0.1577
 2323ntf    fn413776   4.601   4.430   1.382  0.9336  0.5215 -0.8847
 2323ntf    fn413777   4.750   4.361   1.258  0.2229  0.0454 -0.1012
 2323ntf    fn413778   4.649   4.220   1.380 -0.2249 -0.0209  0.4247
 2323ntf    on513779   4.850   4.518   1.485 -0.4958  0.5131  0.2667
 2323ntf    on513780   4.750   4.347   1.627  0.2578 -0.3262  0.1614
 2323ntf    on513781   5.023   4.047   1.496  0.6928 -0.0527  0.3127
 2323ntf    on513782   5.027   4.201   1.685 -0.1845 -0.1195 -0.3776
 2323ntf    fn413783   5.229   4.345   1.548 -0.0548  0.1591 -0.2418
 2323ntf    fn413784   5.292   4.144   1.569  0.0243 -0.9504 -0.0180
 2323ntf    fn413785   5.239   4.221   1.377 -0.1357 -0.4965 -0.0428
 2324ntf    cn113786   4.245   4.956   5.499  0.1564 -0.0512  0.0047
 2324ntf    sn213787   4.193   4.843   5.367 -0.2537 -0.0001  0.1186
 2324ntf    nn313788   4.055   4.901   5.321  0.0145  0.0431 -0.6461
 2324ntf    sn213789   3.911   4.842   5.345  0.2055 -0.0913  0.2072
 2324ntf    cn113790   3.889   4.759   5.185  0.0903  0.2059  0.0673
 2324ntf    fn413791   4.168   4.945   5.607 -0.0469 -0.3903 -0.1730
 2324ntf    fn413792   4.370   4.943   5.540  0.1459  0.1103  0.0889
 2324ntf    fn413793   4.229   5.082   5.462 -0.0903 -0.1558 -0.2489
 2324ntf    on513794   4.296   4.865   5.268 -0.0405 -0.9224  0.1172
 2324ntf    on513795   4.195   4.709   5.422 -0.2760  0.3248  0.9173
 2324ntf    on513796   3.815   4.949   5.340  0.6720  0.3163 -0.1876
 2324ntf    on513797   3.905   4.729   5.434  0.1251 -0.1525  0.1236
 2324ntf    fn413798   3.972   4.656   5.173 -0.0349  0.1446 -0.2853
 2324ntf    fn413799   3.762   4.725   5.170  0.3565 -0.7487 -0.1120
 2324ntf    fn413800   3.925   4.845   5.091  0.7062 -0.2000 -0.0775
 2325ntf    cn113801   2.736   3.274   6.945  0.1323 -0.3252 -0.1855
 2325ntf    sn213802   2.896   3.265   7.032 -0.0948  0.0672  0.2768
 2325ntf    nn313803   2.985   3.315   6.913 -0.7113 -0.3857 -0.3785
 2325ntf    sn213804   3.127   3.275   6.859 -0.3067  0.0531  0.3407
 2325ntf    cn113805   3.081   3.181   6.710 -0.3915  0.0282  0.3823
 2325ntf    fn413806   2.632   3.265   7.026  0.3925  0.3787  0.2415
 2325ntf    fn413807   2.725   3.393   6.889  0.7777 -0.0437  0.2643
 2325ntf    fn413808   2.717   3.178   6.857 -0.0443 -0.3264 -0.1449
 2325ntf    on513809   2.891   3.365   7.136  0.1710 -0.3322  0.6759
 2325ntf    on513810   2.914   3.126   7.063  0.0604  0.1691  0.6482
 2325ntf    on513811   3.210   3.189   6.938  0.0336 -0.4398 -0.5325
 2325ntf    on513812   3.190   3.395   6.811 -0.9153  0.3698  0.3231
 2325ntf    fn413813   2.976   3.108   6.745 -0.2454 -0.2751  0.1938
 2325ntf    fn413814   3.048   3.254   6.604  0.8265  0.3655  0.2275
 2325ntf    fn413815   3.179   3.109   6.659 -0.4053 -0.1328  0.5806
 2326ntf    cn113816   0.248   0.993   3.453 -0.2908  0.1377 -0.2708
 2326ntf    sn213817   0.376   1.003   3.325 -0.0744 -0.3977 -0.0994
 2326ntf    nn313818   0.515   1.013   3.398 -0.1893  0.1093  0.0506
 2326ntf    sn213819   0.595   1.143   3.435 -0.1474 -0.0362  0.4805
 2326ntf    cn113820   0.694   1.170   3.285  0.4364 -0.4705  0.7850
 2326ntf    fn413821   0.200   1.113   3.480 -0.3828  0.1106 -0.3149
 2326ntf    fn413822   0.141   0.926   3.412  0.2085 -0.5511 -0.4819
 2326ntf    fn413823   0.292   0.936   3.564  0.5567  0.4035 -0.4652
 2326ntf    on513824   0.349   0.874   3.266 -0.1070 -0.0466 -0.8619
 2326ntf    on513825   0.332   1.119   3.253  0.5263 -0.1387 -0.0543
 2326ntf    on513826   0.697   1.134   3.536  0.1438  0.0403  0.1957
 2326ntf    on513827   0.505   1.256   3.447 -0.0807  0.0578  0.1124
 2326ntf    fn413828   0.780   1.268   3.303  0.4472 -0.3317  0.0280
 2326ntf    fn413829   0.755   1.059   3.245 -0.2378 -0.3935 -0.5102
 2326ntf    fn413830   0.620   1.198   3.179  0.1326  0.2993  1.1953
 2327ntf    cn113831   2.747   2.158   2.395 -0.3809 -0.0961  0.1613
 2327ntf    sn213832   2.635   2.249   2.506  0.0265  0.1398  0.3865
 2327ntf    nn313833   2.508   2.156   2.501  0.3633 -0.3134  0.1934
 2327ntf    sn213834   2.378   2.176   2.586  0.0858 -0.0602 -0.2916
 2327ntf    cn113835   2.276   2.269   2.467  0.0672  0.2209 -0.0578
 2327ntf    fn413836   2.761   2.032   2.431 -0.2420 -0.0292  0.3440
 2327ntf    fn413837   2.706   2.157   2.270 -0.2961 -0.6719  0.1370
 2327ntf    fn413838   2.868   2.213   2.386 -0.2100 -0.5289 -0.2192
 2327ntf    on513839   2.708   2.249   2.630 -0.1465  0.4381  0.4887
 2327ntf    on513840   2.612   2.375   2.439  0.2375 -0.0230  0.0041
 2327ntf    on513841   2.380   2.272   2.694  0.2375  0.0182 -0.3635
 2327ntf    on513842   2.294   2.060   2.601 -0.4747  0.3647 -0.0834
 2327ntf    fn413843   2.327   2.241   2.348  0.2807 -0.0746  0.1016
 2327ntf    fn413844   2.152   2.224   2.457  0.0024  0.4724 -0.3810
 2327ntf    fn413845   2.270   2.398   2.495 -0.6620  0.1804 -0.0023
 2328ntf    cn113846   6.280   2.319   5.509 -0.4430 -0.0511 -0.0455
 2328ntf    sn213847   6.130   2.319   5.611 -0.5337 -0.0484 -0.1792
 2328ntf    nn313848   6.140   2.171   5.662  0.0401  0.0967  0.1382
 2328ntf    sn213849   6.171   2.120   5.807 -0.0592 -0.0936  0.0931
 2328ntf    cn113850   6.079   1.964   5.791  0.1006 -0.1239 -0.5430
 2328ntf    fn413851   6.391   2.293   5.576 -0.4864  0.4767  0.2322
 2328ntf    fn413852   6.266   2.221   5.421 -0.1464  0.4271 -0.6358
 2328ntf    fn413853   6.307   2.431   5.443 -0.6902 -0.0439 -0.1337
 2328ntf    on513854   6.149   2.422   5.710  0.5245 -0.5313  0.1312
 2328ntf    on513855   6.024   2.342   5.516 -0.1789  0.5600 -0.4340
 2328ntf    on513856   6.104   2.187   5.916  0.0875  0.3656 -0.0988
 2328ntf    on513857   6.303   2.063   5.820 -0.1055 -0.2914 -0.3087
 2328ntf    fn413858   6.128   1.876   5.705 -0.5858 -0.7405 -0.3108
 2328ntf    fn413859   6.079   1.900   5.907  0.1280  0.9026  0.0351
 2328ntf    fn413860   5.955   1.973   5.748 -0.0708  0.0707 -0.0153
 2329ntf    cn113861   4.762   6.566   2.676  0.2237 -0.0391  0.1194
 2329ntf    sn213862   4.913   6.667   2.686  0.3348 -0.2103  0.1845
 2329ntf    nn313863   4.862   6.798   2.754  0.4089 -0.3999  0.6063
 2329ntf    sn213864   4.938   6.905   2.841  0.0357  0.2296  0.1615
 2329ntf    cn113865   4.904   6.847   3.010 -0.0536 -0.3097 -0.0385
 2329ntf    fn413866   4.722   6.524   2.794  0.6322 -0.0047  0.2719
 2329ntf    fn413867   4.659   6.614   2.610  0.3240 -0.0993 -0.0846
 2329ntf    fn413868   4.784   6.454   2.608  0.7877  0.4092 -0.4489
 2329ntf    on513869   5.004   6.593   2.771  0.5095 -0.0701  0.1206
 2329ntf    on513870   4.950   6.669   2.546  0.0199  0.2875  0.1075
 2329ntf    on513871   4.882   7.038   2.836 -0.1090  0.1813  0.5062
 2329ntf    on513872   5.082   6.895   2.834  0.0383  0.4979 -0.1942
 2329ntf    fn413873   4.974   6.922   3.094 -0.4053 -0.2516  0.2005
 2329ntf    fn413874   4.774   6.844   3.036  0.0410  0.4031  0.5634
 2329ntf    fn413875   4.947   6.727   3.043 -0.1191 -0.1606  0.5991
 2330ntf    cn113876   2.095   6.003   1.359  0.2581  0.2323 -0.4035
 2330ntf    sn213877   2.165   5.993   1.527  0.0071 -0.0868 -0.3176
 2330ntf    nn313878   2.314   6.037   1.509 -0.0279 -0.0172 -0.4425
 2330ntf    sn213879   2.440   5.943   1.505 -0.0281 -0.0197 -0.3835
 2330ntf    cn113880   2.516   6.001   1.350 -0.1871 -0.0077 -0.4573
 2330ntf    fn413881   1.972   5.955   1.355  0.2541  0.2054  0.0184
 2330ntf    fn413882   2.085   6.126   1.312  0.3412  0.1398 -0.6706
 2330ntf    fn413883   2.157   5.923   1.273  0.1420 -0.2750 -0.0142
 2330ntf    on513884   2.087   6.099   1.587 -0.3556 -0.5091 -0.0387
 2330ntf    on513885   2.136   5.858   1.567 -0.3056 -0.1314 -0.6825
 2330ntf    on513886   2.428   5.802   1.477  0.1760 -0.1419  0.1381
 2330ntf    on513887   2.534   5.986   1.605 -0.4511  0.2409 -0.0947
 2330ntf    fn413888   2.443   5.978   1.242 -0.7654  0.9099 -0.2764
 2330ntf    fn413889   2.528   6.133   1.355  0.1621 -0.0538  0.0446
 2330ntf    fn413890   2.636   5.947   1.333 -0.3110 -0.0964 -1.0597
 2331ntf    cn113891   6.637   3.252   5.074 -0.2854 -0.0547 -0.3406
 2331ntf    sn213892   6.651   3.078   5.126 -0.4391  0.0234 -0.0383
 2331ntf    nn313893   6.725   3.089   5.264  0.1003 -0.2386 -0.3048
 2331ntf    sn213894   6.701   2.995   5.387 -0.3872  0.0601 -0.1677
 2331ntf    cn113895   6.866   3.002   5.464 -0.5562  0.4817  0.1567
 2331ntf    fn413896   6.562   3.261   4.966 -0.2238 -0.3176 -0.4069
 2331ntf    fn413897   6.584   3.330   5.167  0.1071  0.3357 -0.4448
 2331ntf    fn413898   6.753   3.306   5.042 -0.1285  0.0996  0.4619
 2331ntf    on513899   6.514   3.034   5.130 -0.4627  0.1188  0.3111
 2331ntf    on513900   6.736   3.014   5.029 -0.4943  0.1315 -0.1582
 2331ntf    on513901   6.681   2.856   5.353  0.0262 -0.0872  0.1724
 2331ntf    on513902   6.621   3.056   5.490  0.3350  0.3245  0.2469
 2331ntf    fn413903   6.965   3.002   5.377 -0.5385 -0.1715  0.1724
 2331ntf    fn413904   6.881   3.107   5.544  0.4667  0.2544  0.2757
 2331ntf    fn413905   6.884   2.896   5.541 -0.2048  0.1871 -0.3281
 2332ntf    cn113906   4.327   6.838   2.605  0.1242  0.2758  0.2420
 2332ntf    sn213907   4.454   6.946   2.533 -0.0770  0.3400 -0.0162
 2332ntf    nn313908   4.365   7.042   2.447 -0.2606  0.3223  0.1557
 2332ntf    sn213909   4.381   7.081   2.296 -0.2426  0.0725  0.0920
 2332ntf    cn113910   4.223   7.026   2.226 -0.3403  0.1890  0.2206
 2332ntf    fn413911   4.251   6.782   2.512  0.8778 -0.1799 -0.1081
 2332ntf    fn413912   4.382   6.736   2.669 -0.2017 -0.0077  0.0739
 2332ntf    fn413913   4.256   6.901   2.697 -0.2180  0.1993  0.0314
 2332ntf    on513914   4.512   7.020   2.643  0.0372 -0.4110  0.4371
 2332ntf    on513915   4.539   6.855   2.460 -0.1130  0.4024 -0.1364
 2332ntf    on513916   4.474   7.003   2.219 -0.6122 -0.3835  0.1074
 2332ntf    on513917   4.383   7.225   2.298  0.3360  0.0679 -0.0285
 2332ntf    fn413918   4.202   6.897   2.211  0.3202  0.1750 -0.6564
 2332ntf    fn413919   4.124   7.081   2.295 -0.3907  0.2811  0.0774
 2332ntf    fn413920   4.217   7.072   2.102  0.0062  0.7861  0.4193
 2333ntf    cn113921   0.505   4.303   4.675 -0.2275 -0.0695 -0.2242
 2333ntf    sn213922   0.366   4.420   4.684 -0.1413  0.0228 -0.0970
 2333ntf    nn313923   0.253   4.343   4.607 -0.0163 -0.2375 -0.0176
 2333ntf    sn213924   0.102   4.378   4.586  0.0525  0.1082  0.0595
 2333ntf    cn113925   0.014   4.260   4.692 -0.0384 -0.2258 -0.3835
 2333ntf    fn413926   0.479   4.203   4.757 -0.2545  0.8674  0.9265
 2333ntf    fn413927   0.528   4.243   4.559  0.2414 -0.3128 -0.0067
 2333ntf    fn413928   0.622   4.349   4.715 -0.1993 -0.5663  0.2711
 2333ntf    on513929   0.347   4.437   4.825  0.1455 -0.0543 -0.0479
 2333ntf    on513930   0.411   4.542   4.620 -0.3063  0.0493 -0.1629
 2333ntf    on513931   0.052   4.341   4.456  0.2495  0.2687 -0.0621
 2333ntf    on513932   0.061   4.510   4.625 -0.4793 -0.2445  0.7065
 2333ntf    fn413933  -0.116   4.272   4.713  0.0776 -0.0443  0.2627
 2333ntf    fn413934   0.041   4.135   4.657  0.5348 -0.1424 -0.2386
 2333ntf    fn413935   0.053   4.276   4.817 -0.0745 -0.1720 -0.3796
 2334ntf    cn113936   3.111   6.274   1.170  0.3163 -0.1943  0.0003
 2334ntf    sn213937   3.155   6.320   1.340 -0.4215 -0.0499  0.1555
 2334ntf    nn313938   3.252   6.442   1.316 -0.1086 -0.3040  0.1269
 2334ntf    sn213939   3.405   6.443   1.279 -0.1744 -0.0331 -0.1345
 2334ntf    cn113940   3.479   6.438   1.445  0.2885  0.1384 -0.3339
 2334ntf    fn413941   3.209   6.200   1.119 -0.0536 -0.3294 -0.5200
 2334ntf    fn413942   3.004   6.197   1.169  0.1714  0.0061  0.0509
 2334ntf    fn413943   3.082   6.375   1.090  0.5376  0.2891  0.5247
 2334ntf    on513944   3.031   6.363   1.398 -0.6214  0.0715 -0.3519
 2334ntf    on513945   3.207   6.198   1.396  0.9002  0.2514 -0.3737
 2334ntf    on513946   3.439   6.576   1.233 -0.3925  0.1138  0.1220
 2334ntf    on513947   3.447   6.321   1.216  0.1015 -0.3503  0.6591
 2334ntf    fn413948   3.458   6.326   1.512 -0.1301  0.6039  0.3348
 2334ntf    fn413949   3.611   6.442   1.445  0.2961  0.0880  0.6183
 2334ntf    fn413950   3.436   6.540   1.518  0.0145  0.1438 -0.5011
 2335ntf    cn113951   6.534   6.086   5.195  0.0718 -0.2255 -0.2201
 2335ntf    sn213952   6.457   6.050   5.356  0.3602  0.0082 -0.0301
 2335ntf    nn313953   6.507   5.902   5.370  0.2998 -0.0130 -0.0393
 2335ntf    sn213954   6.423   5.770   5.380  0.0193  0.1588 -0.1141
 2335ntf    cn113955   6.534   5.671   5.484 -0.5097 -0.4414 -0.1133
 2335ntf    fn413956   6.658   6.040   5.191  0.0866 -0.2252  0.2058
 2335ntf    fn413957   6.459   6.035   5.098 -0.3733  0.0610 -0.0282
 2335ntf    fn413958   6.536   6.216   5.170  0.2279 -0.2645 -0.4163
 2335ntf    on513959   6.511   6.153   5.442  0.0725  0.1008  0.0411
 2335ntf    on513960   6.319   6.070   5.318  0.4090 -0.3843 -0.4285
 2335ntf    on513961   6.422   5.691   5.260 -0.2429  0.7667 -0.5163
 2335ntf    on513962   6.306   5.772   5.465  0.1633 -0.0634  0.0909
 2335ntf    fn413963   6.552   5.730   5.601 -0.0736 -0.5855 -0.1050
 2335ntf    fn413964   6.488   5.548   5.498 -0.6185 -0.4199 -0.2809
 2335ntf    fn413965   6.646   5.662   5.415 -0.1087  0.4545  0.3982
 2336ntf    cn113966   3.115   1.750   4.800 -0.2355 -0.2569  0.2703
 2336ntf    sn213967   2.984   1.638   4.744 -0.1828 -0.1857  0.0032
 2336ntf    nn313968   3.042   1.623   4.599  0.2419  0.4058  0.1076
 2336ntf    sn213969   3.118   1.506   4.527  0.2500  0.2329  0.3937
 2336ntf    cn113970   3.287   1.568   4.502  0.3448 -0.2491 -0.1923
 2336ntf    fn413971   3.234   1.696   4.817  0.0766  0.5477  0.7229
 2336ntf    fn413972   3.126   1.848   4.712  0.1057 -0.2856  0.2803
 2336ntf    fn413973   3.078   1.800   4.917 -0.1903  0.1975  0.0908
 2336ntf    on513974   2.986   1.520   4.826 -0.4517 -0.4131 -0.3106
 2336ntf    on513975   2.863   1.717   4.741 -0.2025 -0.2435 -0.9173
 2336ntf    on513976   3.078   1.488   4.389 -0.3034 -0.6369  0.6568
 2336ntf    on513977   3.140   1.386   4.603 -0.1143 -0.0724  0.0286
 2336ntf    fn413978   3.357   1.591   4.612  0.0573  0.3437 -0.1257
 2336ntf    fn413979   3.350   1.482   4.424 -0.4617 -0.7257 -0.3325
 2336ntf    fn413980   3.290   1.683   4.436  0.5619 -0.3482 -0.3565
 2337ntf    cn113981   3.781   5.039   5.933  0.0389 -0.5565  0.2301
 2337ntf    sn213982   3.900   5.000   6.064  0.2788  0.0394  0.1913
 2337ntf    nn313983   4.029   5.050   5.989  0.2912  0.0350  0.2095
 2337ntf    sn213984   4.134   5.155   6.041  0.2916  0.0053  0.2673
 2337ntf    cn113985   4.240   5.057   6.151 -0.0566 -0.2055  0.4193
 2337ntf    fn413986   3.763   5.169   5.915 -0.2491 -0.5340  0.6556
 2337ntf    fn413987   3.822   4.996   5.815  0.1497 -0.0432  0.0784
 2337ntf    fn413988   3.659   4.993   5.953 -0.0457 -0.4935 -0.1255
 2337ntf    on513989   3.852   5.078   6.176  0.2338  0.4661 -0.1222
 2337ntf    on513990   3.898   4.857   6.076 -0.3869  0.0224 -0.1000
 2337ntf    on513991   4.073   5.264   6.113  0.5902 -0.0982  0.6819
 2337ntf    on513992   4.234   5.196   5.947 -0.2851  0.4634 -0.1577
 2337ntf    fn413993   4.176   4.979   6.237  0.1341 -0.3294  0.4514
 2337ntf    fn413994   4.320   4.980   6.080 -0.4866 -0.1598 -0.1186
 2337ntf    fn413995   4.309   5.138   6.231 -0.2549 -0.0070  0.3919
 2338ntf    cn113996   4.633   6.188   1.854 -0.1693 -0.0815 -0.5124
 2338ntf    sn213997   4.620   6.347   1.767 -0.3033  0.3645  0.3070
 2338ntf    nn313998   4.726   6.322   1.654 -0.2254 -0.1955  0.4980
 2338ntf    sn213999   4.866   6.391   1.635 -0.3739 -0.0639 -0.1430
 2338ntf    cn114000   4.834   6.509   1.500  0.1681  0.0605 -0.1649
 2338ntf    fn414001   4.751   6.167   1.909 -0.5016 -1.4082 -0.2566
 2338ntf    fn414002   4.534   6.175   1.942 -0.2445 -0.1798 -0.6104
 2338ntf    fn414003   4.610   6.084   1.776  0.2606 -0.8116  0.3104
 2338ntf    on514004   4.485   6.337   1.717 -0.0821  0.2001 -0.2751
 2338ntf    on514005   4.654   6.436   1.874  0.3860 -0.0180  0.4116
 2338ntf    on514006   4.973   6.310   1.581 -0.2346  0.1788 -0.2297
 2338ntf    on514007   4.911   6.479   1.739 -0.4447 -0.1240 -0.0613
 2338ntf    fn414008   4.729   6.587   1.519  0.0458 -0.0760 -0.2766
 2338ntf    fn414009   4.938   6.589   1.485  0.0647  0.1410 -0.4632
 2338ntf    fn414010   4.824   6.454   1.380 -0.0726 -0.6441  0.1737
 2339ntf    cn114011   5.682   1.713   4.250 -0.1978 -0.0013 -0.0421
 2339ntf    sn214012   5.828   1.642   4.332 -0.3523 -0.4436 -0.1517
 2339ntf    nn314013   5.921   1.767   4.347 -0.3012 -0.5121  0.1096
 2339ntf    sn214014   6.049   1.796   4.261 -0.5541  0.2892 -0.0102
 2339ntf    cn114015   6.139   1.895   4.384 -0.2186  0.1108 -0.1107
 2339ntf    fn414016   5.714   1.768   4.134 -0.5805  0.1498 -0.0791
 2339ntf    fn414017   5.589   1.620   4.238 -0.7886  0.5852 -0.0962
 2339ntf    fn414018   5.634   1.812   4.324  0.0738  0.3363 -0.3140
 2339ntf    on514019   5.781   1.600   4.462  0.5102  0.2721  0.4090
 2339ntf    on514020   5.879   1.546   4.238 -0.0427 -0.1035 -0.3339
 2339ntf    on514021   6.030   1.891   4.154  0.4220  0.9723  0.3988
 2339ntf    on514022   6.127   1.676   4.243 -0.3194  0.4505 -0.0679
 2339ntf    fn414023   6.061   1.988   4.436  0.2819  0.4507  0.0424
 2339ntf    fn414024   6.188   1.820   4.482 -0.4356 -0.3137 -0.3254
 2339ntf    fn414025   6.235   1.965   4.326 -0.0993 -0.0011 -0.0504
 2340ntf    cn114026   6.199   5.062   3.903  0.5444  0.0518  0.0334
 2340ntf    sn214027   6.254   4.959   3.763 -0.0366  0.0824 -0.2169
 2340ntf    nn314028   6.386   4.893   3.815 -0.0861  0.4145  0.3452
 2340ntf    sn214029   6.531   4.951   3.801 -0.0216  0.0961 -0.3853
 2340ntf    cn114030   6.582   4.897   3.635  0.0766 -0.4292 -0.1871
 2340ntf    fn414031   6.175   4.991   4.012 -0.0866 -0.0724 -0.1845
 2340ntf    fn414032   6.291   5.145   3.950  0.4356  0.6677 -0.8105
 2340ntf    fn414033   6.091   5.134   3.880  0.2915 -0.3510 -0.0516
 2340ntf    on514034   6.145   4.864   3.756 -0.2398  0.2720  0.3487
 2340ntf    on514035   6.269   5.053   3.654  0.3734 -0.2347 -0.4332
 2340ntf    on514036   6.624   4.888   3.891  0.2491  0.3710 -0.4727
 2340ntf    on514037   6.541   5.095   3.810  0.0605  0.0696 -0.0283
 2340ntf    fn414038   6.516   4.965   3.542  0.2139 -0.2118 -0.1275
 2340ntf    fn414039   6.710   4.926   3.618  0.1242 -0.2218  0.4731
 2340ntf    fn414040   6.566   4.770   3.602 -0.2052 -0.5186  0.2859
 2341ntf    cn114041   5.254   0.722   2.808  0.0803 -0.1128  0.0761
 2341ntf    sn214042   5.314   0.669   2.645 -0.0805  0.2310 -0.0974
 2341ntf    nn314043   5.369   0.805   2.589  0.0242 -0.3418 -1.4311
 2341ntf    sn214044   5.507   0.870   2.625 -0.4409  0.0775 -0.3613
 2341ntf    cn114045   5.583   0.836   2.463  0.0072 -0.5203 -0.0243
 2341ntf    fn414046   5.331   0.817   2.858 -0.1814  0.2990 -0.2893
 2341ntf    fn414047   5.132   0.773   2.798 -0.1239 -0.4186  0.9203
 2341ntf    fn414048   5.250   0.627   2.900 -0.8322  0.2153  0.3865
 2341ntf    on514049   5.411   0.566   2.676  0.0630  0.2287 -0.5470
 2341ntf    on514050   5.196   0.630   2.573  0.2616  0.0432 -0.5667
 2341ntf    on514051   5.596   0.812   2.722 -0.8171  0.0078 -0.0549
 2341ntf    on514052   5.493   1.014   2.628 -0.3438  0.0764  0.2318
 2341ntf    fn414053   5.708   0.875   2.446  0.2141 -0.8092  0.7627
 2341ntf    fn414054   5.590   0.704   2.450  0.0387 -0.5858  0.6141
 2341ntf    fn414055   5.516   0.885   2.360 -0.0225  0.2026  0.3340
 2342ntf    cn114056   2.178   1.686   3.736  0.1214 -0.0766 -0.4389
 2342ntf    sn214057   2.223   1.702   3.560  0.0880  0.4412 -0.4028
 2342ntf    nn314058   2.378   1.689   3.586  0.1704  0.1654 -1.0145
 2342ntf    sn214059   2.470   1.562   3.583  0.1457  0.1217 -0.2341
 2342ntf    cn114060   2.489   1.541   3.762 -0.0513  0.1676 -0.2076
 2342ntf    fn414061   2.251   1.770   3.808 -0.2998  0.1076 -0.2223
 2342ntf    fn414062   2.047   1.699   3.751  0.2151  0.2426  0.1061
 2342ntf    fn414063   2.209   1.567   3.783 -0.0409  0.1114  0.1545
 2342ntf    on514064   2.162   1.594   3.487  0.2568  0.2257 -0.2276
 2342ntf    on514065   2.177   1.834   3.526 -0.3325  0.2748 -0.4757
 2342ntf    on514066   2.601   1.601   3.536  0.3037 -0.0206  0.0936
 2342ntf    on514067   2.421   1.436   3.535 -0.0528 -0.0936  0.5328
 2342ntf    fn414068   2.401   1.453   3.807  0.1160  0.2298  0.2507
 2342ntf    fn414069   2.609   1.496   3.794 -0.4142 -0.3746  0.4251
 2342ntf    fn414070   2.480   1.657   3.825  0.2204  0.0948 -0.0276
 2343ntf    cn114071   2.132   5.637   3.070  0.2859  0.7096 -0.3684
 2343ntf    sn214072   2.114   5.783   3.177 -0.0069  0.3407  0.0901
 2343ntf    nn314073   2.068   5.720   3.313 -0.0739  1.1112  0.4277
 2343ntf    sn214074   2.137   5.678   3.447 -0.3479 -0.1834  0.1766
 2343ntf    cn114075   2.058   5.514   3.460 -0.2704 -0.2195  0.1922
 2343ntf    fn414076   2.171   5.659   2.945  0.2032  0.2840 -0.4724
 2343ntf    fn414077   2.209   5.548   3.132 -0.5638 -0.0106 -0.3311
 2343ntf    fn414078   2.019   5.569   3.059  0.6143 -0.0197  0.5799
 2343ntf    on514079   2.247   5.839   3.168 -0.0151  0.3354 -0.0876
 2343ntf    on514080   2.002   5.854   3.119 -0.0482 -0.0250 -0.2885
 2343ntf    on514081   2.096   5.749   3.566 -0.0565 -0.2830  0.3388
 2343ntf    on514082   2.277   5.641   3.440 -0.2143  0.2816  0.3487
 2343ntf    fn414083   2.094   5.443   3.565 -0.1450  0.5513  0.6787
 2343ntf    fn414084   1.926   5.516   3.463 -0.2729 -0.1639  0.0803
 2343ntf    fn414085   2.093   5.434   3.360  0.2496 -0.0103  0.2001
 2344ntf    cn114086   3.258   5.386   1.263  0.1089 -0.2940  0.1223
 2344ntf    sn214087   3.434   5.397   1.221 -0.0155 -0.2167 -0.3936
 2344ntf    nn314088   3.431   5.343   1.074 -0.3577  0.1463 -0.5215
 2344ntf    sn214089   3.532   5.236   1.017 -0.0445  0.2415 -0.1561
 2344ntf    cn114090   3.435   5.087   1.053  0.1374  0.1904  0.1175
 2344ntf    fn414091   3.218   5.441   1.377  0.7330  0.1301  0.1410
 2344ntf    fn414092   3.179   5.441   1.172  0.6271 -0.4674 -0.4366
 2344ntf    fn414093   3.220   5.259   1.264  0.1865 -0.3160  0.1725
 2344ntf    on514094   3.478   5.534   1.232 -0.1646 -0.2064  0.0987
 2344ntf    on514095   3.492   5.303   1.315 -0.2765  0.4522  0.4537
 2344ntf    on514096   3.661   5.217   1.077  0.0596  0.0547 -0.4337
 2344ntf    on514097   3.535   5.239   0.872 -0.3522  0.2504 -0.1632
 2344ntf    fn414098   3.306   5.113   1.045  0.0173 -0.4717 -0.2226
 2344ntf    fn414099   3.436   4.993   0.959 -0.1515 -0.0033  0.3062
 2344ntf    fn414100   3.464   5.031   1.169 -0.0063 -0.5533 -0.1968
 2345ntf    cn114101   6.362   4.024   6.726  0.4781  0.3256  0.0622
 2345ntf    sn214102   6.529   4.061   6.788  0.4418 -0.0047  0.3619
 2345ntf    nn314103   6.597   4.117   6.658  0.1699  0.4228  0.4021
 2345ntf    sn214104   6.741   4.081   6.606 -0.0992 -0.0625 -0.0148
 2345ntf    cn114105   6.702   3.999   6.449  0.3076 -0.3642  0.0413
 2345ntf    fn414106   6.290   4.130   6.695 -0.5302 -0.2877  0.2847
 2345ntf    fn414107   6.367   3.955   6.613  0.1735  0.4916 -0.0524
 2345ntf    fn414108   6.288   3.955   6.811 -0.0408  0.3089 -0.3941
 2345ntf    on514109   6.497   4.160   6.888  0.6324  0.9264 -0.4764
 2345ntf    on514110   6.554   3.927   6.835  0.2597 -0.1908 -0.0618
 2345ntf    on514111   6.808   3.986   6.690 -0.1776 -0.0898  0.0171
 2345ntf    on514112   6.813   4.199   6.565  0.3238 -0.2215  0.2633
 2345ntf    fn414113   6.588   3.935   6.468  0.0970  0.0732  0.2632
 2345ntf    fn414114   6.686   4.071   6.339  0.1461 -0.2775  0.1222
 2345ntf    fn414115   6.776   3.893   6.420 -0.5457 -0.8655 -0.3219
 2346ntf    cn114116   4.431   0.729   1.166  0.2995 -0.7328 -0.2110
 2346ntf    sn214117   4.339   0.790   1.021 -0.0745  0.2283  0.4263
 2346ntf    nn314118   4.415   0.922   0.983  0.0747 -0.0125 -0.1240
 2346ntf    sn214119   4.381   1.066   1.036  0.0810 -0.1551  0.2696
 2346ntf    cn114120   4.245   1.109   0.923  0.2042 -0.2478  0.0880
 2346ntf    fn414121   4.480   0.834   1.229 -0.5636 -0.2210 -0.3740
 2346ntf    fn414122   4.352   0.666   1.251 -0.0193 -0.0235  0.0249
 2346ntf    fn414123   4.527   0.643   1.135  0.3968 -0.8338  0.3577
 2346ntf    on514124   4.361   0.685   0.925  0.3946  0.0833  0.6882
 2346ntf    on514125   4.211   0.802   1.085  0.0968  0.7313  0.6791
 2346ntf    on514126   4.476   1.165   0.992  0.2471 -0.1613  0.6095
 2346ntf    on514127   4.332   1.084   1.171  0.3235 -0.5793  0.4164
 2346ntf    fn414128   4.141   1.031   0.947 -0.1896  0.3800  0.4212
 2346ntf    fn414129   4.208   1.235   0.933 -0.5894 -0.5093  0.5203
 2346ntf    fn414130   4.288   1.091   0.799  0.9708  0.1669  0.2877
 2347ntf    cn114131   2.058   5.474   5.013 -0.1479  0.0223 -0.0374
 2347ntf    sn214132   1.977   5.512   4.855  0.0169  0.3827 -0.0345
 2347ntf    nn314133   2.065   5.421   4.761  0.2136 -0.0027  0.5219
 2347ntf    sn214134   2.188   5.461   4.673 -0.3830  0.0868 -0.2777
 2347ntf    cn114135   2.111   5.523   4.520 -0.2533  0.3077 -0.2538
 2347ntf    fn414136   2.068   5.343   5.028  0.1857  0.0655  0.1336
 2347ntf    fn414137   2.182   5.517   5.031 -0.3590  0.3521  0.6437
 2347ntf    fn414138   1.993   5.515   5.121  0.3196  0.4923  0.0661
 2347ntf    on514139   1.840   5.470   4.870  0.1830 -0.0118  0.3746
 2347ntf    on514140   1.997   5.654   4.837  0.6046  0.3183  0.0937
 2347ntf    on514141   2.256   5.344   4.622  0.2280  0.3081  0.0231
 2347ntf    on514142   2.265   5.570   4.728 -0.3586  0.0703 -0.2790
 2347ntf    fn414143   2.077   5.651   4.528 -0.4955  0.2025  0.5463
 2347ntf    fn414144   2.186   5.509   4.412  0.0233  0.2490 -0.0572
 2347ntf    fn414145   2.008   5.445   4.493  0.1991 -0.4637  0.2141
 2348ntf    cn114146   5.620   6.551   2.555  0.0657 -0.1957 -0.6780
 2348ntf    sn214147   5.747   6.431   2.602 -0.2486 -0.2965 -0.0683
 2348ntf    nn314148   5.879   6.515   2.617  0.0363 -0.7059 -0.2328
 2348ntf    sn214149   6.020   6.514   2.548  0.0797  0.3626 -0.1706
 2348ntf    cn114150   6.126   6.491   2.693 -0.1621  0.2534 -0.0112
 2348ntf    fn414151   5.601   6.641   2.650  0.2129 -0.7987 -0.0674
 2348ntf    fn414152   5.647   6.624   2.448  0.0080 -0.1503 -0.6618
 2348ntf    fn414153   5.507   6.485   2.535 -0.0338 -0.4086  0.5082
 2348ntf    on514154   5.702   6.377   2.727 -0.3468 -0.0396  0.0061
 2348ntf    on514155   5.750   6.353   2.480 -0.3022 -0.0825 -0.2063
 2348ntf    on514156   6.051   6.641   2.486 -0.1519  0.3808 -0.2511
 2348ntf    on514157   6.045   6.394   2.472 -0.1322  0.5346 -0.5153
 2348ntf    fn414158   6.243   6.446   2.651  0.0295  0.2368  0.5312
 2348ntf    fn414159   6.139   6.601   2.766  0.8442  0.1180  0.0203
 2348ntf    fn414160   6.089   6.397   2.778 -0.0752  0.1327 -0.1082
 2349ntf    cn114161   3.857   3.518   5.739 -0.3879  0.1012  0.2440
 2349ntf    sn214162   3.931   3.660   5.825  0.2786 -0.0090 -0.1356
 2349ntf    nn314163   3.951   3.754   5.701  0.0081 -0.5450 -0.5912
 2349ntf    sn214164   4.058   3.868   5.693 -0.0103 -0.4784 -0.0006
 2349ntf    cn114165   4.173   3.798   5.571  0.1595 -0.0186 -0.1096
 2349ntf    fn414166   3.822   3.422   5.822  0.8961  0.0762  0.7772
 2349ntf    fn414167   3.743   3.546   5.677 -0.3059 -0.5708 -0.2247
 2349ntf    fn414168   3.921   3.475   5.631 -0.0237  0.1518  0.4389
 2349ntf    on514169   3.825   3.705   5.912  0.1247 -0.1206 -0.2637
 2349ntf    on514170   4.050   3.601   5.881  0.2399  0.2129  0.1847
 2349ntf    on514171   4.132   3.883   5.816  0.2298  0.1132 -0.2113
 2349ntf    on514172   4.005   3.979   5.618 -0.0134 -0.6674 -0.2801
 2349ntf    fn414173   4.197   3.675   5.613 -0.6086 -0.0616  0.2161
 2349ntf    fn414174   4.122   3.792   5.449 -0.2167  0.1339  0.0401
 2349ntf    fn414175   4.291   3.858   5.563  0.4201 -0.5295 -0.2112
 2350ntf    cn114176   4.197   2.428   5.973  0.1469  0.0113  0.0639
 2350ntf    sn214177   4.325   2.449   6.101 -0.0865 -0.3212  0.3549
 2350ntf    nn314178   4.416   2.540   6.012 -0.2104 -0.2191  0.3321
 2350ntf    sn214179   4.546   2.614   6.060 -0.2332  0.0185  0.0345
 2350ntf    cn114180   4.502   2.777   5.994  0.3046  0.1702  0.0454
 2350ntf    fn414181   4.245   2.359   5.870 -0.1280  0.0128 -0.0658
 2350ntf    fn414182   4.086   2.367   6.011 -0.1451  0.5171  0.0286
 2350ntf    fn414183   4.145   2.539   5.924 -0.3140  0.0528  0.6367
 2350ntf    on514184   4.257   2.514   6.211 -0.1406 -0.4382  0.3917
 2350ntf    on514185   4.381   2.319   6.125  0.5984  0.0564  0.8323
 2350ntf    on514186   4.666   2.571   5.991 -0.2132  0.3206 -0.1192
 2350ntf    on514187   4.551   2.620   6.204 -0.9326  0.3658  0.0442
 2350ntf    fn414188   4.533   2.772   5.865  0.5275  0.5791  0.0819
 2350ntf    fn414189   4.372   2.799   5.994  0.2069 -0.3911  0.5487
 2350ntf    fn414190   4.570   2.877   6.047  0.1119  0.4078 -0.1503
 2351ntf    cn114191   1.913   0.317   5.830  0.1585 -0.1765  0.0896
 2351ntf    sn214192   1.967   0.242   5.987 -0.0580 -0.1773  0.1640
 2351ntf    nn314193   1.908   0.342   6.093  0.0996 -0.0991  0.1795
 2351ntf    sn214194   1.882   0.322   6.246 -0.1130 -0.0731  0.1476
 2351ntf    cn114195   2.005   0.436   6.318 -0.4343  0.4995 -0.2001
 2351ntf    fn414196   1.940   0.446   5.813  0.2362 -0.1781  0.1951
 2351ntf    fn414197   1.978   0.259   5.731  0.4036 -0.6098  0.5000
 2351ntf    fn414198   1.787   0.295   5.800  0.1738 -0.4705  0.2319
 2351ntf    on514199   1.907   0.111   5.981  0.2262 -0.2763 -0.5919
 2351ntf    on514200   2.111   0.244   5.995 -0.0400 -0.1518 -0.1420
 2351ntf    on514201   1.931   0.197   6.300 -0.2135  0.1614  0.7941
 2351ntf    on514202   1.759   0.381   6.291 -0.1444  0.7018 -0.9100
 2351ntf    fn414203   2.118   0.416   6.254 -0.0120  0.4894  0.5370
 2351ntf    fn414204   1.967   0.561   6.300  0.0111  0.7485  0.5553
 2351ntf    fn414205   2.033   0.410   6.445 -0.7164  0.5302 -0.1312
 2352ntf    cn114206   6.651   6.414   2.030  0.1102 -0.3669  0.1655
 2352ntf    sn214207   6.701   6.369   2.199  0.3979 -0.1592  0.1367
 2352ntf    nn314208   6.794   6.245   2.177  0.3170 -0.2479  0.2940
 2352ntf    sn214209   6.775   6.092   2.207 -0.1261 -0.3104 -0.2841
 2352ntf    cn114210   6.867   6.016   2.070  0.5181 -0.1498  0.0549
 2352ntf    fn414211   6.581   6.526   2.024 -0.2065 -0.5683  0.0481
 2352ntf    fn414212   6.760   6.431   1.956  0.4683 -0.0999  0.7464
 2352ntf    fn414213   6.569   6.330   1.968 -0.3567  0.0718  0.1838
 2352ntf    on514214   6.768   6.487   2.247  0.3511  0.1672 -0.5736
 2352ntf    on514215   6.567   6.353   2.252  0.0302  0.0870 -0.6922
 2352ntf    on514216   6.640   6.042   2.198 -0.2795  0.1503 -0.5797
 2352ntf    on514217   6.850   6.051   2.323 -0.5301 -0.4446 -0.0665
 2352ntf    fn414218   6.882   5.887   2.090  0.5735 -0.2214 -0.4416
 2352ntf    fn414219   6.799   6.026   1.956 -0.0825  0.2060  0.4351
 2352ntf    fn414220   6.985   6.069   2.044  0.4538 -0.0141  0.0398
 2353ntf    cn114221   2.366   1.910   1.598  0.2607 -0.5027 -0.0676
 2353ntf    sn214222   2.254   1.919   1.741 -0.0157  0.0005 -0.3146
 2353ntf    nn314223   2.330   2.023   1.831  0.0762 -0.3916  0.0597
 2353ntf    sn214224   2.337   2.180   1.823  0.4983 -0.4123 -0.0081
 2353ntf    cn114225   2.220   2.238   1.950  0.0085 -0.7038 -0.3241
 2353ntf    fn414226   2.317   1.830   1.505 -0.3987  0.4907 -0.5897
 2353ntf    fn414227   2.375   2.026   1.534  0.4498 -0.1959  0.4985
 2353ntf    fn414228   2.488   1.873   1.635  0.3504  0.3720  0.5346
 2353ntf    on514229   2.123   1.962   1.699 -0.1218  0.1505  0.1696
 2353ntf    on514230   2.267   1.782   1.782 -0.2732  0.0106 -0.1955
 2353ntf    on514231   2.293   2.234   1.697  0.4855 -0.3414  0.0271
 2353ntf    on514232   2.461   2.223   1.883  0.5554 -0.3874 -0.1437
 2353ntf    fn414233   2.121   2.154   1.976 -0.1376 -0.5012 -0.2244
 2353ntf    fn414234   2.275   2.258   2.069  0.4457 -0.3485 -0.5823
 2353ntf    fn414235   2.168   2.352   1.907  0.5710 -0.0385  0.7241
 2354ntf    cn114236   5.135   3.731   0.923  0.4556 -0.0629 -0.1024
 2354ntf    sn214237   5.167   3.908   0.947  0.1347  0.0185 -0.2788
 2354ntf    nn314238   5.311   3.913   1.009 -0.0420  0.1218  0.1298
 2354ntf    sn214239   5.440   3.917   0.919 -0.1364  0.0073 -0.0123
 2354ntf    cn114240   5.474   4.095   0.934  0.1691 -0.0600  0.1002
 2354ntf    fn414241   5.016   3.705   0.872  0.5747  0.0398 -0.4382
 2354ntf    fn414242   5.213   3.679   0.830  0.0008 -0.2071 -0.4062
 2354ntf    fn414243   5.146   3.653   1.030  0.5083 -0.8082 -0.6433
 2354ntf    on514244   5.145   3.959   0.814 -0.2276  0.0593 -0.2047
 2354ntf    on514245   5.070   3.947   1.047  0.3129  0.3319 -0.2255
 2354ntf    on514246   5.414   3.913   0.778  0.4751  0.1484 -0.1339
 2354ntf    on514247   5.558   3.849   0.969  0.1507  0.1024 -0.5514
 2354ntf    fn414248   5.513   4.134   1.055 -0.5373  0.3470  0.1964
 2354ntf    fn414249   5.574   4.130   0.855  0.4967 -0.1480  0.4712
 2354ntf    fn414250   5.369   4.170   0.909 -0.1490 -0.6784 -0.4292
 2355ntf    cn114251   5.877   6.002   1.170 -0.2828  0.0805  0.2747
 2355ntf    sn214252   5.814   6.169   1.134  0.3709  0.2176 -0.2433
 2355ntf    nn314253   5.919   6.272   1.190  0.0267  0.3385  0.1931
 2355ntf    sn214254   6.011   6.379   1.120  0.3451 -0.0407  0.0249
 2355ntf    cn114255   5.893   6.517   1.129 -0.0748 -0.4092  0.2340
 2355ntf    fn414256   5.902   6.001   1.300  0.1033  0.5280  0.2044
 2355ntf    fn414257   5.799   5.897   1.149  0.0685 -0.1241 -0.0089
 2355ntf    fn414258   5.995   5.980   1.117 -0.2154  0.3573  0.3076
 2355ntf    on514259   5.786   6.172   0.993  0.5412  0.3542 -0.2745
 2355ntf    on514260   5.697   6.181   1.217  0.4521 -0.1376 -0.0762
 2355ntf    on514261   6.037   6.360   0.979 -0.3083 -0.4628 -0.0424
 2355ntf    on514262   6.117   6.422   1.207  0.1455 -0.1254  0.3131
 2355ntf    fn414263   5.794   6.498   1.043 -0.0400 -0.1636  0.1393
 2355ntf    fn414264   5.843   6.525   1.251  0.3719  0.0386  0.3898
 2355ntf    fn414265   5.949   6.633   1.099  0.0383 -0.3364  0.7155
 2356ntf    cn114266   6.010   6.779   2.145 -0.2094  0.1907  0.4150
 2356ntf    sn214267   5.874   6.673   2.089 -0.0675  0.2655 -0.0757
 2356ntf    nn314268   5.840   6.744   1.953  0.4942  0.2148 -0.2433
 2356ntf    sn214269   5.714   6.818   1.896  0.1182 -0.2815 -0.0637
 2356ntf    cn114270   5.794   6.921   1.769 -0.1759 -0.1886 -0.1727
 2356ntf    fn414271   6.079   6.726   2.245  0.4627  0.1581 -0.0602
 2356ntf    fn414272   6.099   6.805   2.051 -0.3634 -0.4325  0.0977
 2356ntf    fn414273   5.976   6.899   2.191  0.0280  0.3307  0.2254
 2356ntf    on514274   5.927   6.540   2.075  0.2434  0.3220  0.5107
 2356ntf    on514275   5.771   6.688   2.190  0.2129  0.4742  0.1814
 2356ntf    on514276   5.657   6.916   1.986 -0.1252 -0.5838  0.1115
 2356ntf    on514277   5.629   6.727   1.824 -0.2300  0.2791 -0.3668
 2356ntf    fn414278   5.700   6.986   1.701 -0.1916 -0.3640 -0.3176
 2356ntf    fn414279   5.875   7.013   1.819 -0.5364 -0.1221  0.3029
 2356ntf    fn414280   5.869   6.844   1.693  0.6736  0.1299  0.3334
 2357ntf    cn114281   3.216   1.818   3.080  0.0817 -0.0138  0.2599
 2357ntf    sn214282   3.042   1.777   3.112  0.0950 -0.1866  0.1073
 2357ntf    nn314283   2.983   1.923   3.114  0.7486  0.0785  0.0639
 2357ntf    sn214284   2.905   2.004   3.224  0.0890  0.2998 -0.5642
 2357ntf    cn114285   2.994   2.161   3.201  0.4099  0.1783 -0.1613
 2357ntf    fn414286   3.239   1.887   2.970  0.0687 -0.0093  0.2600
 2357ntf    fn414287   3.263   1.887   3.183  0.5612  0.6621 -0.4038
 2357ntf    fn414288   3.287   1.706   3.084 -0.4967 -0.3782  0.4559
 2357ntf    on514289   2.992   1.704   2.997 -0.9442 -0.0910  0.4842
 2357ntf    on514290   3.044   1.711   3.240  0.0256  0.0597  0.2374
 2357ntf    on514291   2.943   1.961   3.356 -0.3590  0.4783 -0.3776
 2357ntf    on514292   2.769   2.044   3.197 -0.0898  0.1878  0.1587
 2357ntf    fn414293   3.007   2.203   3.076  0.1342  0.2821 -0.1570
 2357ntf    fn414294   2.933   2.259   3.267 -0.3566 -0.6004  0.3001
 2357ntf    fn414295   3.114   2.162   3.256  0.2256  0.2056  0.2446
 2358ntf    cn114296   6.626   1.380   0.491  0.4955 -0.1873  0.4933
 2358ntf    sn214297   6.484   1.316   0.397  0.3783  0.1937  0.4088
 2358ntf    nn314298   6.521   1.364   0.252 -0.0582 -0.3515  0.1158
 2358ntf    sn214299   6.541   1.266   0.132  0.2082 -0.0864 -0.0580
 2358ntf    cn114300   6.710   1.215   0.174  0.2188 -0.0729 -0.0860
 2358ntf    fn414301   6.731   1.322   0.434 -0.2240 -0.6438 -0.3988
 2358ntf    fn414302   6.645   1.509   0.465  0.5504 -0.3062 -0.0797
 2358ntf    fn414303   6.633   1.346   0.619  0.0718 -0.8034  0.3547
 2358ntf    on514304   6.487   1.174   0.420 -0.2165  0.2147  0.6399
 2358ntf    on514305   6.374   1.387   0.457 -0.1219  0.1976 -0.5001
 2358ntf    on514306   6.553   1.343   0.011  0.3982  0.2908  0.2021
 2358ntf    on514307   6.462   1.146   0.116 -0.3104  0.2539 -0.0922
 2358ntf    fn414308   6.728   1.126   0.271  0.4408 -0.3382 -0.3682
 2358ntf    fn414309   6.752   1.157   0.062 -0.0015  0.0589 -0.2364
 2358ntf    fn414310   6.794   1.314   0.199  0.3102 -0.2110  0.1561
 2359ntf    cn114311   0.375   3.106   5.855  0.1754 -0.0880  0.2811
 2359ntf    sn214312   0.393   3.236   5.729  0.1529 -0.3050  0.0525
 2359ntf    nn314313   0.536   3.289   5.768 -0.1311  0.2418  0.3698
 2359ntf    sn214314   0.618   3.385   5.675 -0.2356  0.2862  0.3239
 2359ntf    cn114315   0.766   3.286   5.640 -0.2943  0.3995 -0.2511
 2359ntf    fn414316   0.339   3.159   5.971 -0.3736  0.5108 -0.1544
 2359ntf    fn414317   0.274   3.025   5.826 -0.0714  0.3323 -0.0563
 2359ntf    fn414318   0.479   3.031   5.885  0.6702  0.2397 -0.5719
 2359ntf    on514319   0.389   3.159   5.607  0.5069 -0.4737  0.1471
 2359ntf    on514320   0.277   3.318   5.755 -0.1796 -0.6981 -0.1900
 2359ntf    on514321   0.676   3.495   5.748  0.1264  0.5213 -0.3101
 2359ntf    on514322   0.576   3.416   5.540  0.0305  1.1140  0.4238
 2359ntf    fn414323   0.844   3.348   5.553  0.7398 -0.7186 -0.1436
 2359ntf    fn414324   0.839   3.264   5.747  0.1761  0.1161 -0.6252
 2359ntf    fn414325   0.740   3.170   5.581  0.9922 -0.0444  0.0198
 2360ntf    cn114326   4.315   2.333   0.249  0.0258 -0.4824 -0.6065
 2360ntf    sn214327   4.471   2.426   0.255  0.1014 -0.6599  0.3383
 2360ntf    nn314328   4.489   2.413   0.410  0.4657 -0.8164  0.2840
 2360ntf    sn214329   4.571   2.510   0.502  0.0131 -0.1617  0.0072
 2360ntf    cn114330   4.445   2.629   0.555  0.3375  0.1188  0.1498
 2360ntf    fn414331   4.277   2.314   0.123  0.5139 -0.7950 -0.7092
 2360ntf    fn414332   4.328   2.215   0.307  0.5261 -0.3633 -0.4689
 2360ntf    fn414333   4.220   2.397   0.315  0.1733 -0.4586 -0.4158
 2360ntf    on514334   4.562   2.342   0.181  0.5579  0.4086 -0.3329
 2360ntf    on514335   4.432   2.553   0.199 -0.0132 -0.9557 -0.2681
 2360ntf    on514336   4.679   2.581   0.438  0.4721  0.0491  0.9903
 2360ntf    on514337   4.605   2.436   0.621 -0.1456  0.2839  0.3332
 2360ntf    fn414338   4.338   2.570   0.604 -0.0262  0.7159  0.0918
 2360ntf    fn414339   4.495   2.712   0.646  0.1175 -0.1539  0.5224
 2360ntf    fn414340   4.396   2.704   0.458 -0.8981  0.0403  0.6913
 2361ntf    cn114341   1.996   2.774   6.773 -0.0311  0.1712 -0.0555
 2361ntf    sn214342   2.071   2.609   6.776 -0.0896  0.1474  0.0884
 2361ntf    nn314343   2.191   2.654   6.866  0.4757 -0.5916 -0.2857
 2361ntf    sn214344   2.212   2.640   7.021 -0.2598  0.0520 -0.1237
 2361ntf    cn114345   2.175   2.804   7.089  0.0906  0.0183  0.1492
 2361ntf    fn414346   1.911   2.771   6.874 -0.6843  0.1077 -0.6024
 2361ntf    fn414347   2.079   2.877   6.786 -0.3100  0.3119  0.6540
 2361ntf    fn414348   1.928   2.794   6.661  0.1531  0.9220 -0.0384
 2361ntf    on514349   1.967   2.525   6.831  0.0345  0.0477  0.1699
 2361ntf    on514350   2.104   2.588   6.638 -0.4444  0.1052  0.0082
 2361ntf    on514351   2.353   2.636   7.047 -0.3333 -0.0340  0.2630
 2361ntf    on514352   2.133   2.543   7.095 -0.5398  0.3132 -0.0768
 2361ntf    fn414353   2.191   2.798   7.220  0.2117 -0.9550  0.0990
 2361ntf    fn414354   2.263   2.890   7.041  0.3664 -0.5002 -0.2782
 2361ntf    fn414355   2.054   2.853   7.063 -0.1399 -0.3081  0.5917
 2362ntf    cn114356   3.599   6.970   5.642  0.2878 -0.0956 -0.1621
 2362ntf    sn214357   3.521   6.971   5.478 -0.1328  0.1036  0.0363
 2362ntf    nn314358   3.576   7.105   5.418 -0.2571  0.3581  0.4854
 2362ntf    sn214359   3.525   7.253   5.401  0.1318  0.3679 -0.6775
 2362ntf    cn114360   3.634   7.338   5.517  0.0799  0.0366 -0.3834
 2362ntf    fn414361   3.563   7.077   5.710  0.9528 -0.0233  0.0820
 2362ntf    fn414362   3.575   6.868   5.724  0.1052 -0.1030 -0.2237
 2362ntf    fn414363   3.730   6.981   5.626  0.2286  0.4256 -0.2912
 2362ntf    on514364   3.602   6.869   5.416 -0.0419  0.3279 -0.2151
 2362ntf    on514365   3.379   6.948   5.484 -0.1368  0.1052 -0.0528
 2362ntf    on514366   3.398   7.289   5.458  0.3584 -0.5645  0.4472
 2362ntf    on514367   3.557   7.306   5.271  0.2591  0.6649 -0.5246
 2362ntf    fn414368   3.611   7.299   5.642  0.2558  0.1967 -0.3003
 2362ntf    fn414369   3.764   7.317   5.505  0.1607  0.2447  0.1041
 2362ntf    fn414370   3.613   7.469   5.528  0.1294 -0.0213  0.5128
 2363ntf    cn114371   4.254   0.575   3.397  0.1857  0.2273  0.6273
 2363ntf    sn214372   4.328   0.741   3.389  0.2328  0.1752 -0.0886
 2363ntf    nn314373   4.377   0.746   3.240 -0.0257  0.0283 -0.1796
 2363ntf    sn214374   4.516   0.711   3.177  0.0957  0.0794  0.0610
 2363ntf    cn114375   4.593   0.873   3.207  0.0588  0.1276 -0.1020
 2363ntf    fn414376   4.187   0.561   3.511  0.6530 -0.6838  0.7962
 2363ntf    fn414377   4.157   0.562   3.309 -0.0305  0.3582  0.8447
 2363ntf    fn414378   4.342   0.480   3.371  0.0218  0.2972 -0.2102
 2363ntf    on514379   4.215   0.827   3.416  0.3020  0.1640  0.2450
 2363ntf    on514380   4.435   0.747   3.485 -0.5516  0.1856  0.8077
 2363ntf    on514381   4.511   0.690   3.035  0.5432 -0.2118  0.0853
 2363ntf    on514382   4.603   0.620   3.248 -0.3708 -0.2761  0.1823
 2363ntf    fn414383   4.677   0.883   3.309 -0.1440  0.7842  0.0078
 2363ntf    fn414384   4.659   0.911   3.099  0.3059 -0.0345 -0.0080
 2363ntf    fn414385   4.496   0.959   3.237 -0.2860 -0.3197  0.0735
 2364ntf    cn114386   0.255   4.496   4.150 -0.1722  0.0559  0.0535
 2364ntf    sn214387   0.265   4.587   3.993 -0.0759  0.0023  0.0287
 2364ntf    nn314388   0.241   4.728   4.056 -0.7656  0.1319 -0.5073
 2364ntf    sn214389   0.342   4.848   4.072 -0.3081 -0.2976 -0.1277
 2364ntf    cn114390   0.302   4.931   3.916 -0.2641 -0.0214  0.0088
 2364ntf    fn414391   0.295   4.371   4.137 -0.1167  0.1268 -0.4586
 2364ntf    fn414392   0.327   4.543   4.251 -0.4414 -0.1763  0.3563
 2364ntf    fn414393   0.133   4.489   4.200 -0.3052 -0.0931 -0.2901
 2364ntf    on514394   0.393   4.549   3.937 -0.0613  0.6432 -0.3792
 2364ntf    on514395   0.146   4.541   3.926 -0.4340 -0.0107  0.6669
 2364ntf    on514396   0.480   4.817   4.044 -0.2342 -0.6274  0.5778
 2364ntf    on514397   0.309   4.945   4.173  0.5217  0.0912 -0.2283
 2364ntf    fn414398   0.359   5.050   3.906 -0.2252 -0.0086  0.3907
 2364ntf    fn414399   0.327   4.867   3.803 -0.2525  0.0466 -0.0279
 2364ntf    fn414400   0.175   4.968   3.912 -0.2801 -0.0467  0.2992
 2365ntf    cn114401   5.366   2.435   6.430  0.2089 -0.1343 -0.1168
 2365ntf    sn214402   5.289   2.428   6.266  0.0536  0.2868 -0.0618
 2365ntf    nn314403   5.271   2.274   6.243 -0.1470  0.2620  0.2557
 2365ntf    sn214404   5.185   2.177   6.331 -0.3758  0.1182 -0.1279
 2365ntf    cn114405   5.082   2.096   6.205 -0.2346 -0.6610  0.2507
 2365ntf    fn414406   5.357   2.558   6.477 -0.0130 -0.1615 -0.0844
 2365ntf    fn414407   5.312   2.348   6.515  0.3346  0.1755  0.2843
 2365ntf    fn414408   5.493   2.403   6.419  0.1463 -0.3519 -0.2129
 2365ntf    on514409   5.174   2.515   6.271 -0.2399 -0.1607  1.1601
 2365ntf    on514410   5.387   2.475   6.171  0.4808  0.5605  0.5117
 2365ntf    on514411   5.090   2.241   6.418 -0.4606 -0.4723  0.2233
 2365ntf    on514412   5.264   2.066   6.380 -0.7730 -0.0892  0.0485
 2365ntf    fn414413   4.983   2.175   6.169  0.4507  0.0002 -0.2245
 2365ntf    fn414414   5.151   2.071   6.094  0.5119  0.1020  0.5377
 2365ntf    fn414415   5.029   1.983   6.248 -0.3402 -0.8036 -0.2485
 2366ntf    cn114416   4.162   3.456   1.563 -0.2894 -0.0049 -0.1676
 2366ntf    sn214417   4.252   3.612   1.537  0.3397 -0.3239  0.0862
 2366ntf    nn314418   4.142   3.724   1.531  0.3502 -0.3505 -0.6556
 2366ntf    sn214419   4.051   3.765   1.410 -0.0722 -0.1412 -0.2673
 2366ntf    cn114420   3.937   3.867   1.509  0.0896 -0.1843 -0.0358
 2366ntf    fn414421   4.098   3.419   1.453 -0.1623  0.2214 -0.3189
 2366ntf    fn414422   4.245   3.357   1.593  0.2203  0.5135  0.1459
 2366ntf    fn414423   4.080   3.460   1.667  0.2814 -0.1739  0.2914
 2366ntf    on514424   4.334   3.626   1.655  0.2279  0.0121  0.1239
 2366ntf    on514425   4.322   3.595   1.412 -0.0798  0.2065 -0.2210
 2366ntf    on514426   3.970   3.660   1.354 -0.5273  0.3208 -0.4796
 2366ntf    on514427   4.106   3.860   1.317 -0.3527  0.4437  0.1575
 2366ntf    fn414428   3.844   3.918   1.430  0.3691 -0.0323 -0.2676
 2366ntf    fn414429   3.875   3.799   1.604  0.2836  0.3007  0.4393
 2366ntf    fn414430   3.998   3.971   1.563  0.2037 -0.0459 -0.4271
 2367ntf    cn114431   5.367   5.803   2.613  0.2022  0.1870 -0.1207
 2367ntf    sn214432   5.547   5.788   2.633  0.1618 -0.0367  0.0786
 2367ntf    nn314433   5.601   5.863   2.506  0.2785 -0.3900 -0.0818
 2367ntf    sn214434   5.640   5.800   2.368 -0.0815  0.4636 -0.5795
 2367ntf    cn114435   5.818   5.778   2.398 -0.2315  0.0563  0.0187
 2367ntf    fn414436   5.335   5.930   2.590  0.2355  0.1154 -0.5701
 2367ntf    fn414437   5.329   5.740   2.503  0.1004  0.1479 -0.0637
 2367ntf    fn414438   5.289   5.770   2.715  0.1579 -0.3182 -0.3196
 2367ntf    on514439   5.579   5.865   2.751  0.2992 -0.2358  0.1717
 2367ntf    on514440   5.581   5.648   2.646  0.3822  0.0662  0.6742
 2367ntf    on514441   5.623   5.906   2.271 -0.4368  0.2974 -0.7009
 2367ntf    on514442   5.598   5.665   2.342 -0.9877  0.5318  0.4700
 2367ntf    fn414443   5.887   5.744   2.291 -0.2958 -0.0831  0.0201
 2367ntf    fn414444   5.877   5.885   2.448 -0.0672 -0.0164 -0.0192
 2367ntf    fn414445   5.842   5.682   2.486 -0.1239  0.4377  0.4088
 2368ntf    cn114446   3.672   5.379   6.898  0.1498 -0.4078  0.2032
 2368ntf    sn214447   3.553   5.393   6.761 -0.0273 -0.1910  0.3790
 2368ntf    nn314448   3.531   5.549   6.759  0.1107 -0.1772 -0.2888
 2368ntf    sn214449   3.625   5.665   6.711  0.0727 -0.2531 -0.5473
 2368ntf    cn114450   3.512   5.807   6.719  0.2719 -0.1319  0.2352
 2368ntf    fn414451   3.718   5.255   6.908  0.1533 -0.4385 -0.1742
 2368ntf    fn414452   3.779   5.455   6.887  0.0729 -0.3020  0.1875
 2368ntf    fn414453   3.609   5.404   7.012  0.0709 -0.7215  0.2297
 2368ntf    on514454   3.626   5.348   6.645 -0.3341 -0.0598  0.1359
 2368ntf    on514455   3.432   5.329   6.807 -0.2639 -0.6999 -0.9257
 2368ntf    on514456   3.643   5.653   6.569 -0.1551 -0.1326 -0.5867
 2368ntf    on514457   3.727   5.698   6.808 -0.1886 -0.0882 -0.3274
 2368ntf    fn414458   3.548   5.914   6.650  0.3958 -0.2930  0.0510
 2368ntf    fn414459   3.390   5.776   6.678  0.0389  0.4492  0.4763
 2368ntf    fn414460   3.489   5.848   6.843 -0.3919  0.2398 -0.0073
 2369ntf    cn114461   4.130   0.429   5.653 -0.0267 -0.0470  0.3420
 2369ntf    sn214462   4.271   0.536   5.611 -0.2811  0.1202 -0.0983
 2369ntf    nn314463   4.270   0.506   5.457  0.3767 -0.0394 -0.0746
 2369ntf    sn214464   4.274   0.594   5.327 -0.1307  0.3467  0.1666
 2369ntf    cn114465   4.221   0.464   5.211 -0.2548  0.3490  0.2215
 2369ntf    fn414466   4.153   0.299   5.642 -0.0229 -0.0153 -0.0503
 2369ntf    fn414467   4.087   0.456   5.775 -0.6643  1.1296 -0.1168
 2369ntf    fn414468   4.028   0.449   5.570  0.1975  0.5969  0.2142
 2369ntf    on514469   4.240   0.673   5.642 -0.1490 -0.0104  0.6469
 2369ntf    on514470   4.381   0.469   5.677 -0.4389  0.1981  0.2472
 2369ntf    on514471   4.406   0.633   5.282  0.3910 -0.4529  0.9540
 2369ntf    on514472   4.177   0.698   5.305  0.2527  0.5786 -0.4759
 2369ntf    fn414473   4.305   0.362   5.209 -0.1522  0.4411 -0.1507
 2369ntf    fn414474   4.109   0.399   5.240 -0.1015 -0.0328 -0.0353
 2369ntf    fn414475   4.215   0.508   5.087  0.4981  0.2271  0.1381
 2370ntf    cn114476   1.217   5.814   4.767 -0.2341  0.2567 -0.1015
 2370ntf    sn214477   1.193   5.960   4.662 -0.0295  0.4043  0.0555
 2370ntf    nn314478   1.127   6.049   4.774 -0.3957 -0.3030  0.4026
 2370ntf    sn214479   1.182   6.182   4.834 -0.1290 -0.0841 -0.3104
 2370ntf    cn114480   1.024   6.238   4.907 -0.1045 -0.1984 -0.1698
 2370ntf    fn414481   1.300   5.840   4.867 -0.1541 -0.5476  0.0480
 2370ntf    fn414482   1.108   5.762   4.820 -0.1825 -0.1378 -0.3772
 2370ntf    fn414483   1.275   5.708   4.713 -0.3116  0.1930 -0.0593
 2370ntf    on514484   1.328   5.990   4.620  0.1832 -0.0389  0.4232
 2370ntf    on514485   1.096   5.912   4.566  0.0703  0.2838  0.0152
 2370ntf    on514486   1.220   6.292   4.749 -0.2219  0.3816  0.2418
 2370ntf    on514487   1.270   6.163   4.946 -0.2465 -0.9213 -0.3594
 2370ntf    fn414488   0.923   6.234   4.821 -0.2727 -0.2117  0.0282
 2370ntf    fn414489   0.989   6.188   5.024 -0.0587  0.0714 -0.0398
 2370ntf    fn414490   1.021   6.366   4.937 -0.9785 -0.2266 -0.1142
 2371ntf    cn114491   3.880   4.868   0.195  0.2199 -0.6007  0.2434
 2371ntf    sn214492   3.960   4.846   0.033  0.0359  0.0108  0.0701
 2371ntf    nn314493   4.103   4.805   0.082  0.2646 -0.0413 -0.6336
 2371ntf    sn214494   4.223   4.892   0.134 -0.1642 -0.0324  0.3692
 2371ntf    cn114495   4.325   4.915  -0.015  0.0923  0.0330  0.5550
 2371ntf    fn414496   3.748   4.858   0.188  0.2157 -0.0549 -0.6071
 2371ntf    fn414497   3.917   4.769   0.275  0.2321 -0.5374  0.3159
 2371ntf    fn414498   3.906   4.982   0.257 -0.5868 -0.0483 -0.4172
 2371ntf    on514499   3.890   4.739  -0.034 -0.2469 -0.0247  0.4164
 2371ntf    on514500   3.951   4.973  -0.036 -0.0213 -0.0481 -0.0310
 2371ntf    on514501   4.303   4.821   0.230 -0.7233  0.0707  0.9191
 2371ntf    on514502   4.183   5.024   0.177 -0.5282 -0.2527  0.7064
 2371ntf    fn414503   4.261   5.003  -0.090  0.5252 -0.2530 -0.1623
 2371ntf    fn414504   4.448   4.954   0.014  0.1953 -0.1838  0.4157
 2371ntf    fn414505   4.339   4.812  -0.098  0.4183  0.3223  0.2477
 2372ntf    cn114506   3.379   1.661   5.316  0.1292  0.0806  0.0107
 2372ntf    sn214507   3.281   1.768   5.425  0.4943 -0.0568  0.4776
 2372ntf    nn314508   3.233   1.656   5.524  0.0706 -0.4592 -0.1752
 2372ntf    sn214509   3.109   1.655   5.620  0.2004  0.0650  0.0025
 2372ntf    cn114510   3.191   1.612   5.776 -0.0495 -0.0626  0.0987
 2372ntf    fn414511   3.384   1.712   5.194  0.2159 -0.2391 -0.1213
 2372ntf    fn414512   3.506   1.641   5.345  0.2062  0.0785 -0.3234
 2372ntf    fn414513   3.323   1.542   5.300  0.1657  0.0899 -0.1973
 2372ntf    on514514   3.382   1.856   5.479  0.1944  0.1866  0.6456
 2372ntf    on514515   3.185   1.825   5.334  0.9334  0.0255  0.0632
 2372ntf    on514516   3.023   1.543   5.592  0.6998 -0.4450  0.4836
 2372ntf    on514517   3.049   1.784   5.644  0.7542  0.1953  0.7076
 2372ntf    fn414518   3.106   1.606   5.878 -0.3498  0.0582 -0.1428
 2372ntf    fn414519   3.252   1.494   5.775  0.3587  0.1310  1.0256
 2372ntf    fn414520   3.277   1.707   5.806  0.1229 -0.1207 -0.2056
 2373ntf    cn114521   5.964   4.992   4.634 -0.4337  0.6706  0.5194
 2373ntf    sn214522   5.948   5.108   4.773 -0.0468  0.4804  0.7240
 2373ntf    nn314523   5.792   5.100   4.793 -0.1591 -0.2045 -0.3548
 2373ntf    sn214524   5.716   5.169   4.912  0.0326 -0.1293 -0.2744
 2373ntf    cn114525   5.665   5.324   4.832 -0.4880 -0.3353 -0.3452
 2373ntf    fn414526   5.918   4.873   4.667  1.0726 -0.0217  0.2224
 2373ntf    fn414527   5.893   5.027   4.528 -0.0358  0.0295  0.0345
 2373ntf    fn414528   6.088   4.967   4.594 -0.5943 -0.1987  0.5667
 2373ntf    on514529   6.036   5.056   4.875  0.0310  0.6596  0.7486
 2373ntf    on514530   5.984   5.238   4.724  0.4298  0.1274  0.1218
 2373ntf    on514531   5.786   5.199   5.034 -0.1810 -0.0187 -0.1776
 2373ntf    on514532   5.584   5.112   4.918 -0.1492  0.2844 -0.3377
 2373ntf    fn414533   5.565   5.384   4.895 -0.1491  0.5408 -0.6234
 2373ntf    fn414534   5.762   5.414   4.828 -0.3217 -0.4947  0.0218
 2373ntf    fn414535   5.626   5.299   4.708 -0.2086 -0.7662 -0.3466
 2374ntf    cn114536   3.157   1.056   6.083  0.2316 -0.0078 -0.4184
 2374ntf    sn214537   3.243   0.903   6.035 -0.0328 -0.2347 -0.1722
 2374ntf    nn314538   3.167   0.879   5.899 -0.2098  0.0011 -0.1148
 2374ntf    sn214539   3.024   0.816   5.882 -0.2954  0.1750 -0.0505
 2374ntf    cn114540   3.073   0.675   5.778  0.0739  0.2083  0.0733
 2374ntf    fn414541   3.040   1.041   6.141  0.5199  0.0733  0.1912
 2374ntf    fn414542   3.229   1.126   6.170  0.0336 -0.0171 -0.2478
 2374ntf    fn414543   3.145   1.127   5.972 -0.1633  0.3510 -0.1448
 2374ntf    on514544   3.374   0.959   6.013 -0.1220  0.2600  0.5426
 2374ntf    on514545   3.226   0.816   6.148  0.1136 -0.0746 -0.0273
 2374ntf    on514546   2.934   0.892   5.800 -0.2677 -0.1400 -0.3741
 2374ntf    on514547   2.974   0.761   6.006  0.3505  0.1032  0.1822
 2374ntf    fn414548   3.142   0.714   5.672 -0.2244 -0.0091 -0.2028
 2374ntf    fn414549   3.148   0.590   5.845 -0.3703 -0.4435 -0.2353
 2374ntf    fn414550   2.971   0.603   5.732  0.2854  0.0001 -0.0714
 2375ntf    cn114551   5.067   4.829   0.065  0.1814 -0.2566  0.0950
 2375ntf    sn214552   5.061   4.966   0.184 -0.0041 -0.0893 -0.1063
 2375ntf    nn314553   5.205   4.971   0.245 -0.1174  0.4161  0.1271
 2375ntf    sn214554   5.260   4.963   0.392 -0.2612  0.1721  0.1675
 2375ntf    cn114555   5.169   5.103   0.463 -0.1192  0.2452  0.2055
 2375ntf    fn414556   5.134   4.862  -0.044 -0.0119 -0.3616 -0.0571
 2375ntf    fn414557   5.128   4.718   0.102  0.2787 -0.2841 -0.1504
 2375ntf    fn414558   4.949   4.792   0.018  0.2853 -0.3531 -0.0917
 2375ntf    on514559   5.027   5.077   0.098  0.4594 -0.0751 -0.2765
 2375ntf    on514560   4.961   4.917   0.275  0.6158 -0.7882  0.2042
 2375ntf    on514561   5.394   5.013   0.410 -0.1670  0.0350 -0.1428
 2375ntf    on514562   5.224   4.847   0.470  0.1645 -0.1248 -0.0725
 2375ntf    fn414563   5.224   5.137   0.578 -0.1704  0.3319  0.2050
 2375ntf    fn414564   5.181   5.211   0.387 -0.1163  0.2684  0.2381
 2375ntf    fn414565   5.040   5.085   0.486 -0.0390 -0.1429  0.3436
 2376ntf    cn114566   0.892   5.309   3.273 -0.3236  0.6387  0.0339
 2376ntf    sn214567   0.815   5.189   3.386  0.1977  0.0047 -0.2781
 2376ntf    nn314568   0.861   5.045   3.343  0.0093 -0.1019 -0.1256
 2376ntf    sn214569   0.798   4.936   3.250  0.0179  0.0376 -0.2968
 2376ntf    cn114570   0.734   4.815   3.371  0.2617  0.0559 -0.1481
 2376ntf    fn414571   0.872   5.274   3.147 -0.0913 -0.2593  0.2404
 2376ntf    fn414572   0.843   5.432   3.280 -0.2099  0.7022 -0.2804
 2376ntf    fn414573   1.023   5.320   3.281 -0.3290  0.4228  0.4065
 2376ntf    on514574   0.866   5.224   3.516  0.1963 -0.1557 -0.2341
 2376ntf    on514575   0.673   5.210   3.375  0.1253 -0.0266  0.5350
 2376ntf    on514576   0.907   4.865   3.188 -0.2097 -0.2735 -0.3458
 2376ntf    on514577   0.686   4.965   3.164  0.0966 -0.2835 -0.5114
 2376ntf    fn414578   0.822   4.737   3.431  0.0412 -0.2941 -0.2801
 2376ntf    fn414579   0.681   4.877   3.475  0.6835  0.5093 -0.1964
 2376ntf    fn414580   0.636   4.741   3.322  0.1536  0.0583  0.0656
 2377ntf    cn114581   3.108   1.349   0.479  0.5581  0.0192  0.0518
 2377ntf    sn214582   3.008   1.332   0.328  0.4239 -0.1429  0.1595
 2377ntf    nn314583   3.078   1.205   0.267  0.1550 -0.1066 -0.2245
 2377ntf    sn214584   3.106   1.147   0.124 -0.1420 -0.2134 -0.2413
 2377ntf    cn114585   3.001   1.000   0.116 -0.5477  0.0600  0.0397
 2377ntf    fn414586   3.234   1.380   0.450  0.5844  0.1922  0.3540
 2377ntf    fn414587   3.061   1.427   0.575  0.2797  0.0132 -0.0802
 2377ntf    fn414588   3.116   1.232   0.541 -0.4375 -0.1887 -0.2013
 2377ntf    on514589   2.873   1.315   0.378  0.3385 -0.0618 -0.0457
 2377ntf    on514590   3.043   1.447   0.249 -0.2163 -0.0261  0.0410
 2377ntf    on514591   3.240   1.095   0.109 -0.1840 -0.3886 -0.0088
 2377ntf    on514592   3.044   1.219   0.015 -0.3043 -0.1524 -0.1089
 2377ntf    fn414593   2.872   1.030   0.103 -0.4494  0.6320  0.3572
 2377ntf    fn414594   3.040   0.928   0.012 -0.0688  0.0308  0.2386
 2377ntf    fn414595   3.018   0.922   0.222  0.0397  0.0494 -0.0625
 2378ntf    cn114596   4.211   5.591   0.707 -0.0710  0.0735 -0.1710
 2378ntf    sn214597   4.371   5.588   0.622  0.0619  0.0702  0.0785
 2378ntf    nn314598   4.319   5.537   0.483 -0.3401  0.9338 -0.0951
 2378ntf    sn214599   4.397   5.541   0.347  0.2261 -0.2316  0.1857
 2378ntf    cn114600   4.339   5.377   0.292  0.4589 -0.1706 -0.2485
 2378ntf    fn414601   4.144   5.476   0.710 -0.6199  0.3972  0.4189
 2378ntf    fn414602   4.202   5.640   0.830 -1.0579  0.0388 -0.2229
 2378ntf    fn414603   4.143   5.678   0.635 -0.5383  0.0452  0.2273
 2378ntf    on514604   4.411   5.727   0.619  0.2743  0.0255  0.6667
 2378ntf    on514605   4.456   5.492   0.687  0.4531  0.1645 -0.2910
 2378ntf    on514606   4.539   5.519   0.343  0.3235  0.4327 -0.0362
 2378ntf    on514607   4.343   5.635   0.252 -0.1579 -0.3864  0.2492
 2378ntf    fn414608   4.324   5.362   0.162  0.7397 -0.1646 -0.2825
 2378ntf    fn414609   4.421   5.285   0.341 -0.2215 -0.6202  0.0691
 2378ntf    fn414610   4.224   5.359   0.355  0.6930  0.4811  0.3772
 2379ntf    cn114611   5.715   5.855   6.103 -0.0071 -0.0444 -0.5422
 2379ntf    sn214612   5.759   5.845   5.927  0.1385 -0.2131 -0.4964
 2379ntf    nn314613   5.669   5.722   5.889 -0.1989 -0.1440  0.0587
 2379ntf    sn214614   5.683   5.600   5.790 -0.4720 -0.2350  0.1323
 2379ntf    cn114615   5.704   5.462   5.907  0.1706 -0.0626  0.2211
 2379ntf    fn414616   5.587   5.873   6.134  0.1296  0.2649 -0.1365
 2379ntf    fn414617   5.732   5.733   6.150  0.6455 -0.0050 -0.6634
 2379ntf    fn414618   5.792   5.942   6.167 -0.1604 -0.0118 -0.4005
 2379ntf    on514619   5.711   5.971   5.877  0.2640  0.0657  0.0763
 2379ntf    on514620   5.902   5.831   5.927  0.2112  0.5092 -0.1106
 2379ntf    on514621   5.805   5.587   5.716 -0.2084 -0.4234  0.5913
 2379ntf    on514622   5.562   5.566   5.720 -0.4412  0.2126 -0.1405
 2379ntf    fn414623   5.800   5.483   5.996  0.3248 -0.0231  0.0456
 2379ntf    fn414624   5.603   5.448   5.992 -0.3515  1.0734 -0.1875
 2379ntf    fn414625   5.730   5.346   5.849  0.4472  0.4828 -0.7579
 2380ntf    cn114626   5.367   5.848   1.964 -0.2838  0.2427  0.0844
 2380ntf    sn214627   5.269   5.797   1.820 -0.2367  0.3227  0.0249
 2380ntf    nn314628   5.379   5.708   1.752 -0.5582 -0.1859  0.1644
 2380ntf    sn214629   5.359   5.597   1.643 -0.5118  0.0369 -0.0733
 2380ntf    cn114630   5.486   5.644   1.522 -0.2613  0.0067  0.1764
 2380ntf    fn414631   5.478   5.909   1.925  0.0529 -0.4343 -0.0373
 2380ntf    fn414632   5.312   5.924   2.057 -0.5911  0.0677  0.0467
 2380ntf    fn414633   5.408   5.738   2.025 -0.0385  0.2277 -0.1074
 2380ntf    on514634   5.156   5.724   1.870  0.3188 -0.6203 -0.0745
 2380ntf    on514635   5.247   5.922   1.751  0.4127  0.5993  0.3071
 2380ntf    on514636   5.230   5.610   1.581 -0.5956  0.6953  0.2302
 2380ntf    on514637   5.392   5.466   1.693 -0.2181  0.3297  0.5094
 2380ntf    fn414638   5.610   5.619   1.560  0.0670 -0.0141 -0.8783
 2380ntf    fn414639   5.468   5.580   1.407  0.4540  0.3888 -0.1545
 2380ntf    fn414640   5.485   5.773   1.495 -0.7226 -0.0623 -0.1611
 2381ntf    cn114641   6.624   3.090   1.206 -0.0127 -0.4379 -0.0735
 2381ntf    sn214642   6.501   3.159   1.320  0.1449 -0.0738 -0.1221
 2381ntf    nn314643   6.367   3.095   1.269  0.1203 -0.1606  0.0495
 2381ntf    sn214644   6.227   3.099   1.340  0.0496 -0.0637 -0.0948
 2381ntf    cn114645   6.267   3.116   1.516 -0.1119 -0.1429 -0.0499
 2381ntf    fn414646   6.636   2.960   1.223  0.1449 -0.4688 -0.4028
 2381ntf    fn414647   6.594   3.097   1.077  0.0595 -0.9531 -0.1195
 2381ntf    fn414648   6.739   3.151   1.231 -0.5012  0.3939  0.1972
 2381ntf    on514649   6.551   3.117   1.449  0.1219 -0.2162 -0.1588
 2381ntf    on514650   6.505   3.302   1.303  0.5485 -0.0370  0.2572
 2381ntf    on514651   6.149   2.979   1.320 -0.1603  0.1032 -0.2803
 2381ntf    on514652   6.152   3.217   1.305 -0.4568 -0.3811 -0.1017
 2381ntf    fn414653   6.329   3.011   1.568 -0.5096 -0.2387  0.2324
 2381ntf    fn414654   6.337   3.223   1.547 -0.4537  0.0488  0.0622
 2381ntf    fn414655   6.154   3.132   1.582 -0.1962 -0.5037 -0.1030
 2382ntf    cn114656   4.151   1.298   2.792  0.2756  0.5272  0.0321
 2382ntf    sn214657   3.985   1.320   2.722  0.2308 -0.1380 -0.0798
 2382ntf    nn314658   3.906   1.210   2.801  0.6475 -0.6235 -0.3324
 2382ntf    sn214659   3.758   1.163   2.776  0.3524  0.0380  0.1526
 2382ntf    cn114660   3.690   1.149   2.944  0.0482 -0.2915  0.0028
 2382ntf    fn414661   4.244   1.368   2.729  0.0447  0.6499 -0.1728
 2382ntf    fn414662   4.152   1.337   2.918 -0.1258  0.2845  0.1114
 2382ntf    fn414663   4.190   1.171   2.793 -0.1728  0.3962  0.6933
 2382ntf    on514664   3.949   1.453   2.765  0.4613 -0.0609 -0.1260
 2382ntf    on514665   4.009   1.298   2.582  0.4401  0.3762 -0.1239
 2382ntf    on514666   3.765   1.026   2.731 -0.3036 -0.0328  0.2485
 2382ntf    on514667   3.672   1.256   2.706  0.3082 -0.3544 -0.3194
 2382ntf    fn414668   3.682   1.273   2.991  0.0767 -0.1138 -0.4617
 2382ntf    fn414669   3.565   1.104   2.940 -0.0397  0.0164 -0.9853
 2382ntf    fn414670   3.759   1.076   3.030 -0.4241 -0.4469  0.2583
 2383ntf    cn114671   3.540   0.227   2.978  0.5937  0.5145  0.2501
 2383ntf    sn214672   3.477   0.356   3.090  0.1706  0.2152  0.3590
 2383ntf    nn314673   3.403   0.450   2.989  0.2322  0.0225  0.1327
 2383ntf    sn214674   3.466   0.569   2.908 -0.1386 -0.2212 -0.5235
 2383ntf    cn114675   3.368   0.704   2.980 -0.2248 -0.5431 -0.0286
 2383ntf    fn414676   3.616   0.135   3.034 -0.2153 -0.4209 -0.1622
 2383ntf    fn414677   3.441   0.157   2.925  0.4027  0.4584  0.6782
 2383ntf    fn414678   3.599   0.282   2.873  0.2640 -0.4276 -0.4416
 2383ntf    on514679   3.388   0.270   3.165  0.2307 -0.0907  0.0828
 2383ntf    on514680   3.593   0.407   3.158  0.1894 -0.0426  0.5226
 2383ntf    on514681   3.429   0.578   2.769 -0.3825  0.8547 -0.4021
 2383ntf    on514682   3.603   0.606   2.936 -0.3992  0.3124  0.0789
 2383ntf    fn414683   3.338   0.693   3.108  0.1042 -0.3734  0.0628
 2383ntf    fn414684   3.428   0.821   2.959 -0.4833 -0.4514 -0.2658
 2383ntf    fn414685   3.249   0.717   2.924 -0.0876  0.4234 -0.1167
 2384ntf    cn114686   3.920   3.743   3.787 -0.1478 -0.1681  0.4754
 2384ntf    sn214687   3.922   3.913   3.722  0.2768 -0.2687  0.2251
 2384ntf    nn314688   4.019   3.975   3.827 -0.1544  0.3784  0.2469
 2384ntf    sn214689   4.118   4.094   3.800  0.0061  0.2256  0.1603
 2384ntf    cn114690   4.264   3.997   3.750  0.1431  0.4953  0.0331
 2384ntf    fn414691   3.833   3.665   3.726  0.3568 -0.7619  0.5087
 2384ntf    fn414692   4.039   3.690   3.768 -0.3598 -0.4201 -0.1568
 2384ntf    fn414693   3.896   3.734   3.917  0.2881 -0.0772  0.5632
 2384ntf    on514694   3.959   3.899   3.583  0.0100 -0.3529  0.1612
 2384ntf    on514695   3.786   3.956   3.743  0.4070  0.2152  0.0790
 2384ntf    on514696   4.161   4.165   3.918 -1.1147 -0.2885  0.8993
 2384ntf    on514697   4.086   4.168   3.680 -0.2185  0.0315  0.1008
 2384ntf    fn414698   4.304   3.919   3.849 -0.4512 -0.1071 -0.1963
 2384ntf    fn414699   4.246   3.916   3.647 -0.0170  0.2990  0.2157
 2384ntf    fn414700   4.367   4.072   3.715  0.4744  0.0689  0.0902
 2385ntf    cn114701   2.190   6.456   1.351  0.0144  0.1521 -0.1357
 2385ntf    sn214702   2.118   6.564   1.223 -0.1850  0.0468 -0.1121
 2385ntf    nn314703   2.235   6.668   1.210  0.0362 -0.2110 -0.1913
 2385ntf    sn214704   2.326   6.697   1.086  0.1245  0.2779 -0.0165
 2385ntf    cn114705   2.246   6.851   1.031  0.1857  0.3386  0.0681
 2385ntf    fn414706   2.303   6.403   1.307 -0.1961  0.0522 -0.5615
 2385ntf    fn414707   2.228   6.523   1.458  0.5741 -0.2832 -0.0562
 2385ntf    fn414708   2.116   6.354   1.389  0.7915 -0.2127  0.4189
 2385ntf    on514709   2.082   6.472   1.118 -0.1123  0.0699 -0.1572
 2385ntf    on514710   2.004   6.629   1.284 -0.0659 -0.1671  0.3427
 2385ntf    on514711   2.315   6.612   0.969 -0.1520  0.1692  0.0869
 2385ntf    on514712   2.459   6.744   1.114 -0.0179  0.6158  0.0960
 2385ntf    fn414713   2.328   6.923   0.957 -0.1472 -0.1364 -0.7722
 2385ntf    fn414714   2.137   6.829   0.960  0.4175 -0.1201 -0.1514
 2385ntf    fn414715   2.207   6.929   1.130 -0.0510  0.2805  0.0208
 2386ntf    cn114716   0.555   3.300   0.379  0.0085 -0.3546 -0.2131
 2386ntf    sn214717   0.596   3.355   0.548 -0.5689 -0.0983 -0.1539
 2386ntf    nn314718   0.638   3.221   0.617 -0.1494  0.1855  0.1455
 2386ntf    sn214719   0.638   3.177   0.767 -0.1481 -0.0637  0.0736
 2386ntf    cn114720   0.812   3.218   0.803 -0.0693  0.2618 -0.6623
 2386ntf    fn414721   0.462   3.375   0.321 -0.0235  0.0092  0.2930
 2386ntf    fn414722   0.654   3.301   0.292 -0.1746  0.5249 -0.4278
 2386ntf    fn414723   0.496   3.182   0.371 -0.5465 -0.0873 -0.1751
 2386ntf    on514724   0.703   3.447   0.517 -0.1671 -0.3395  0.4988
 2386ntf    on514725   0.467   3.411   0.581 -0.6155 -0.3060  0.0125
 2386ntf    on514726   0.632   3.034   0.785 -0.4769 -0.0008  0.4760
 2386ntf    on514727   0.557   3.262   0.852  0.2832  0.4130  0.0156
 2386ntf    fn414728   0.894   3.170   0.712  0.6762 -0.2569  0.2630
 2386ntf    fn414729   0.835   3.348   0.806 -0.3489  0.3004  0.3620
 2386ntf    fn414730   0.851   3.166   0.918 -0.2213  0.5218 -0.4922
 2387ntf    cn114731   4.640   0.691   4.131  0.4809  0.0525 -0.2932
 2387ntf    sn214732   4.619   0.826   4.012  0.3645  0.1645 -0.1455
 2387ntf    nn314733   4.677   0.938   4.105 -0.4553  0.6711 -0.2298
 2387ntf    sn214734   4.619   1.020   4.226 -0.2456 -0.0025  0.3315
 2387ntf    cn114735   4.526   1.155   4.149 -0.0756 -0.0469  0.0461
 2387ntf    fn414736   4.553   0.702   4.230  0.7416 -0.3790 -0.0116
 2387ntf    fn414737   4.617   0.576   4.069  0.3748 -0.1264  0.0779
 2387ntf    fn414738   4.765   0.691   4.175  0.2584  0.5142  0.3455
 2387ntf    on514739   4.705   0.798   3.899  0.1817 -0.4137 -0.1405
 2387ntf    on514740   4.477   0.835   3.990  0.2640 -0.1749  0.3627
 2387ntf    on514741   4.722   1.090   4.299 -0.4014  0.4121  0.1543
 2387ntf    on514742   4.521   0.955   4.310 -0.2286  0.7112  0.9131
 2387ntf    fn414743   4.474   1.234   4.242 -0.0799 -0.3096  0.2694
 2387ntf    fn414744   4.608   1.217   4.066  0.0451 -0.4671 -0.1479
 2387ntf    fn414745   4.426   1.102   4.082 -0.2460 -0.2838  0.4824
 2388ntf    cn114746   5.847   2.893   5.029 -0.7981  0.4178  0.2211
 2388ntf    sn214747   5.820   2.773   4.894 -0.1351  0.3247  0.1649
 2388ntf    nn314748   5.671   2.808   4.860 -0.0070  0.3704 -0.3479
 2388ntf    sn214749   5.557   2.700   4.853 -0.0078  0.3503  0.0127
 2388ntf    cn114750   5.440   2.789   4.745  0.1134 -0.2384 -0.6074
 2388ntf    fn414751   5.755   2.884   5.123 -0.1732 -0.0818  0.8004
 2388ntf    fn414752   5.961   2.862   5.088 -0.6624 -0.3087 -0.4004
 2388ntf    fn414753   5.844   3.018   4.988 -0.6586  0.4415  0.2827
 2388ntf    on514754   5.914   2.807   4.790 -0.1154 -0.0157  0.0729
 2388ntf    on514755   5.848   2.647   4.958  0.0007  0.3890  0.2347
 2388ntf    on514756   5.494   2.689   4.983  0.3137  0.3423  0.1681
 2388ntf    on514757   5.600   2.581   4.784 -0.0625  0.4037 -0.1140
 2388ntf    fn414758   5.351   2.705   4.695 -0.0889 -0.5281  0.2164
 2388ntf    fn414759   5.373   2.879   4.816  0.4960 -0.4311  0.0099
 2388ntf    fn414760   5.490   2.858   4.644  0.7720 -0.0439 -0.1571
 2389ntf    cn114761   5.563   4.528   1.662 -0.1921 -0.5533  0.2815
 2389ntf    sn214762   5.518   4.538   1.838  0.0656  0.1601  0.3101
 2389ntf    nn314763   5.524   4.695   1.848 -0.5919  0.2460 -0.4550
 2389ntf    sn214764   5.470   4.778   1.970  0.5279  0.1441  0.1278
 2389ntf    cn114765   5.625   4.784   2.065  0.4502  0.0536  0.2607
 2389ntf    fn414766   5.555   4.401   1.625 -0.3624 -0.5886  0.4378
 2389ntf    fn414767   5.489   4.590   1.571  0.3135 -0.1686  0.1306
 2389ntf    fn414768   5.683   4.571   1.628 -0.2176 -0.4757  0.2885
 2389ntf    on514769   5.383   4.491   1.858  0.0161  0.3380  0.3964
 2389ntf    on514770   5.624   4.469   1.907 -0.7805 -0.5021  0.9672
 2389ntf    on514771   5.379   4.703   2.053  0.1698  0.1196 -0.2809
 2389ntf    on514772   5.440   4.917   1.945 -0.0087 -0.0382 -0.2601
 2389ntf    fn414773   5.614   4.879   2.156  0.0153 -0.2241  0.5033
 2389ntf    fn414774   5.652   4.670   2.127 -0.5586 -0.1689  0.3201
 2389ntf    fn414775   5.731   4.813   1.992  0.2404  0.0209 -0.0570
 2390ntf    cn114776   6.225   2.592   1.995 -0.1366  0.0820 -0.0564
 2390ntf    sn214777   6.329   2.610   2.143  0.1590  0.3044 -0.2886
 2390ntf    nn314778   6.359   2.457   2.162  0.0370  0.3118 -0.0246
 2390ntf    sn214779   6.452   2.363   2.077 -0.0878  0.1186  0.0518
 2390ntf    cn114780   6.588   2.339   2.194 -0.1792 -0.2441  0.0843
 2390ntf    fn414781   6.133   2.499   2.015  0.4058 -0.3734  0.3318
 2390ntf    fn414782   6.159   2.700   1.957 -0.1079  0.2230  0.2965
 2390ntf    fn414783   6.292   2.558   1.885 -0.1454  0.2459 -0.1130
 2390ntf    on514784   6.436   2.699   2.107  0.4640 -0.1976 -0.6383
 2390ntf    on514785   6.232   2.664   2.235  0.0629  0.0369 -0.2325
 2390ntf    on514786   6.521   2.415   1.962  0.4319 -0.2987  0.1717
 2390ntf    on514787   6.408   2.225   2.071  0.6589 -0.1086 -0.3041
 2390ntf    fn414788   6.643   2.456   2.221  0.6785 -0.5709 -0.2137
 2390ntf    fn414789   6.540   2.284   2.305 -0.2914 -0.1003  0.1070
 2390ntf    fn414790   6.685   2.259   2.152 -0.1129 -0.3049  0.3510
 2391ntf    cn114791   0.787   4.219   0.774 -0.6120 -0.3705 -0.2499
 2391ntf    sn214792   0.903   4.085   0.815 -0.2698  0.0040  0.0111
 2391ntf    nn314793   0.939   4.046   0.667 -0.1352 -0.0795  0.0665
 2391ntf    sn214794   0.886   3.918   0.592  0.1709 -0.0836 -0.1448
 2391ntf    cn114795   0.885   3.976   0.420  0.1852  0.1280 -0.0743
 2391ntf    fn414796   0.854   4.296   0.690  0.4852 -0.3159  0.6552
 2391ntf    fn414797   0.676   4.176   0.715 -0.4877 -0.2987 -0.5370
 2391ntf    fn414798   0.751   4.296   0.876  0.7157 -0.1635  0.0717
 2391ntf    on514799   1.005   4.152   0.891 -0.2410 -0.1570  0.1163
 2391ntf    on514800   0.824   3.986   0.885 -0.9049 -0.2506 -1.0452
 2391ntf    on514801   0.746   3.891   0.613  0.0628  0.5335 -0.0468
 2391ntf    on514802   0.978   3.808   0.598 -0.2544 -0.4125  0.5309
 2391ntf    fn414803   0.800   4.075   0.394 -0.1946 -0.1734 -0.0006
 2391ntf    fn414804   1.009   4.007   0.387  0.4404 -0.4342  0.3395
 2391ntf    fn414805   0.856   3.881   0.333 -0.2391  0.3628 -0.1968
 2392ntf    cn114806   1.826   4.645   6.137  0.1200 -0.0813 -0.0914
 2392ntf    sn214807   1.940   4.625   5.996  0.1151 -0.1238 -0.0893
 2392ntf    nn314808   2.062   4.602   6.093 -0.2444 -0.4340  0.2926
 2392ntf    sn214809   2.178   4.496   6.103  0.1452 -0.0189  0.1892
 2392ntf    cn114810   2.319   4.578   6.024 -0.1650  0.1154 -0.2316
 2392ntf    fn414811   1.851   4.745   6.220 -0.1329  0.4221 -0.6165
 2392ntf    fn414812   1.705   4.665   6.088 -0.0942 -0.0391  0.4552
 2392ntf    fn414813   1.819   4.541   6.219  0.1301  0.0047  0.0190
 2392ntf    on514814   1.899   4.512   5.917  0.4237 -0.0365 -0.3742
 2392ntf    on514815   1.948   4.758   5.941 -0.3045 -0.2338 -0.4199
 2392ntf    on514816   2.162   4.373   6.030  0.2499 -0.2587  0.5737
 2392ntf    on514817   2.216   4.467   6.239 -0.4390 -0.1495  0.3285
 2392ntf    fn414818   2.301   4.629   5.903 -0.1887  0.3596 -0.1242
 2392ntf    fn414819   2.361   4.680   6.097 -0.6670  0.1279  0.0398
 2392ntf    fn414820   2.426   4.501   6.010 -0.2247 -0.0258  0.0967
 2393ntf    cn114821   0.409   5.494   6.824 -0.0616 -0.4015  0.2237
 2393ntf    sn214822   0.241   5.424   6.813 -0.0947 -0.3690  0.4923
 2393ntf    nn314823   0.157   5.557   6.813  0.2981 -0.1128 -0.0362
 2393ntf    sn214824   0.104   5.645   6.694  0.3598 -0.2937 -0.1977
 2393ntf    cn114825  -0.049   5.556   6.654  0.1994 -0.1314  0.0533
 2393ntf    fn414826   0.415   5.607   6.756 -0.2408 -0.6522 -0.2118
 2393ntf    fn414827   0.438   5.523   6.950  0.3723  0.0940  0.0107
 2393ntf    fn414828   0.506   5.416   6.780 -0.1369 -0.2821 -0.1577
 2393ntf    on514829   0.236   5.343   6.694  0.0129  0.3127  0.0153
 2393ntf    on514830   0.230   5.357   6.939  0.3694 -0.1748  0.6370
 2393ntf    on514831   0.176   5.639   6.569  0.6545  0.4145 -0.0693
 2393ntf    on514832   0.064   5.776   6.738  0.3837 -0.3307 -0.0641
 2393ntf    fn414833  -0.139   5.567   6.750  0.1347  0.9107 -0.1174
 2393ntf    fn414834  -0.103   5.591   6.539 -0.1993  0.1262  0.3169
 2393ntf    fn414835  -0.021   5.427   6.644 -0.3659 -0.2906  0.4659
 2394ntf    cn114836   1.755   1.261   2.976  0.2276  0.0915 -0.5573
 2394ntf    sn214837   1.764   1.436   2.927  0.0491  0.2229 -0.1284
 2394ntf    nn314838   1.634   1.486   3.000 -0.3196 -0.8670 -0.0266
 2394ntf    sn214839   1.612   1.545   3.144 -0.0958  0.3579 -0.4825
 2394ntf    cn114840   1.585   1.717   3.091  0.0710  0.5596  0.0866
 2394ntf    fn414841   1.789   1.253   3.103 -0.3175 -0.1281 -0.4213
 2394ntf    fn414842   1.630   1.221   2.963  0.2528 -0.3510  0.5115
 2394ntf    fn414843   1.837   1.176   2.917  0.1626  0.0623 -0.6062
 2394ntf    on514844   1.890   1.481   2.980  0.1113  0.2506 -0.2992
 2394ntf    on514845   1.744   1.428   2.784 -0.1187  0.0697 -0.0968
 2394ntf    on514846   1.719   1.539   3.241 -0.0636 -0.1706 -0.5462
 2394ntf    on514847   1.485   1.502   3.197 -0.1136  0.3074 -0.5656
 2394ntf    fn414848   1.688   1.762   3.021  0.3352 -0.3000 -0.0971
 2394ntf    fn414849   1.478   1.730   3.015  0.0544  0.5577  0.1096
 2394ntf    fn414850   1.567   1.804   3.189 -0.4221  0.3632  0.1734
 2395ntf    cn114851   0.014   1.900   6.971 -0.0586  0.2756  0.7954
 2395ntf    sn214852   0.051   2.069   6.914  0.2130 -0.0816 -0.0965
 2395ntf    nn314853   0.138   2.046   6.785  0.1888 -0.2534 -0.0831
 2395ntf    sn214854   0.154   2.133   6.655  0.0577 -0.4334 -0.2180
 2395ntf    cn114855   0.325   2.093   6.610  0.3041  0.0386  0.2949
 2395ntf    fn414856  -0.053   1.911   7.085 -0.6474 -0.3841  0.5238
 2395ntf    fn414857  -0.068   1.835   6.890 -0.2283  0.6338  0.6739
 2395ntf    fn414858   0.125   1.833   6.993 -0.0811 -0.0963 -0.1781
 2395ntf    on514859  -0.077   2.129   6.888  0.4264  0.4872  0.1593
 2395ntf    on514860   0.130   2.124   7.021  0.4850  0.0783 -0.3777
 2395ntf    on514861   0.153   2.276   6.668  0.2263 -0.4090 -0.4614
 2395ntf    on514862   0.095   2.077   6.536  0.1102 -0.1127 -0.3958
 2395ntf    fn414863   0.381   2.202   6.561  0.3603 -0.0350  0.1951
 2395ntf    fn414864   0.394   2.053   6.717  0.1891 -0.2146  0.2764
 2395ntf    fn414865   0.330   1.998   6.518  0.1975  0.2239  0.0989
 2396ntf    cn114866   1.052   2.293   4.022 -0.3119 -0.2677  0.3880
 2396ntf    sn214867   1.102   2.362   4.182  0.1690 -0.0830  0.1607
 2396ntf    nn314868   1.053   2.511   4.170  0.0119 -0.1622 -0.1985
 2396ntf    sn214869   1.049   2.617   4.286  0.1659 -0.2559 -0.1074
 2396ntf    cn114870   1.210   2.699   4.260  0.2486 -0.3579  0.0790
 2396ntf    fn414871   1.124   2.351   3.927 -0.4083 -0.0676  0.4357
 2396ntf    fn414872   1.066   2.162   4.015  0.3170 -0.1811 -0.1490
 2396ntf    fn414873   0.926   2.324   3.993 -0.0518 -0.3803 -0.9439
 2396ntf    on514874   1.035   2.281   4.281 -0.1676  0.4848  0.4047
 2396ntf    on514875   1.244   2.342   4.172  0.0933 -0.1876 -0.7821
 2396ntf    on514876   1.055   2.560   4.418  0.7556 -0.7727 -0.3488
 2396ntf    on514877   0.959   2.725   4.255  0.2337 -0.3459 -0.6231
 2396ntf    fn414878   1.286   2.675   4.365  0.0247  0.2905  0.3910
 2396ntf    fn414879   1.276   2.656   4.154  0.0317 -0.6721  0.0685
 2396ntf    fn414880   1.200   2.830   4.242 -0.3682 -0.4262 -0.1147
 2397ntf    cn114881   6.686   2.267   0.625  0.3144 -0.3716 -0.0392
 2397ntf    sn214882   6.658   2.353   0.467 -0.0408 -0.1152  0.1615
 2397ntf    nn314883   6.741   2.484   0.489  0.0351 -0.1770  0.2462
 2397ntf    sn214884   6.700   2.623   0.549  0.1433 -0.0968  0.1347
 2397ntf    cn114885   6.713   2.719   0.395 -0.3481 -0.3208 -0.0504
 2397ntf    fn414886   6.656   2.345   0.727 -0.1101  0.0064 -0.4516
 2397ntf    fn414887   6.618   2.154   0.634 -0.1456 -0.0559  0.5313
 2397ntf    fn414888   6.814   2.238   0.644  0.4015  0.1486  0.1742
 2397ntf    on514889   6.720   2.261   0.375 -0.0343  0.1669 -0.1143
 2397ntf    on514890   6.515   2.372   0.464 -0.0104  0.0410 -0.2553
 2397ntf    on514891   6.799   2.672   0.641  0.5157 -0.1831 -0.2207
 2397ntf    on514892   6.559   2.638   0.580  0.0980 -0.2664  0.0107
 2397ntf    fn414893   6.631   2.685   0.297  0.0159 -0.2233 -0.3908
 2397ntf    fn414894   6.679   2.846   0.413  0.1310 -0.2350  0.2532
 2397ntf    fn414895   6.834   2.715   0.341 -0.0597 -0.3143  0.5807
 2398ntf    cn114896   6.089   0.360   4.488 -0.2666  0.3470 -0.2468
 2398ntf    sn214897   6.229   0.462   4.542 -0.0347 -0.1716  0.1417
 2398ntf    nn314898   6.156   0.551   4.649  0.1457  0.0984  0.0415
 2398ntf    sn214899   6.097   0.697   4.657 -0.0424  0.0197  0.0891
 2398ntf    cn114900   5.918   0.670   4.642  0.0584 -0.4109 -0.3858
 2398ntf    fn414901   6.032   0.300   4.591  0.8530 -0.0697  0.1426
 2398ntf    fn414902   6.000   0.439   4.429 -0.3512  0.0622 -0.5062
 2398ntf    fn414903   6.126   0.272   4.396 -0.7344 -0.0130 -0.0914
 2398ntf    on514904   6.319   0.364   4.597  0.1279 -0.2876 -0.3289
 2398ntf    on514905   6.269   0.528   4.420  0.6760 -0.4670  0.2086
 2398ntf    on514906   6.130   0.771   4.537 -0.1801  0.1072  0.1056
 2398ntf    on514907   6.115   0.764   4.783 -0.5109 -0.3405  0.3526
 2398ntf    fn414908   5.886   0.613   4.527  0.5677 -0.1026 -0.6863
 2398ntf    fn414909   5.866   0.597   4.739 -0.1422  0.0089 -0.1753
 2398ntf    fn414910   5.844   0.779   4.651  0.2204 -0.3346  0.0377
 2399ntf    cn114911   4.582   4.012   4.425  0.1672 -0.1216 -0.4776
 2399ntf    sn214912   4.556   4.190   4.400  0.0659 -0.0490  0.1386
 2399ntf    nn314913   4.698   4.232   4.348 -0.1170  0.5042  0.0794
 2399ntf    sn214914   4.729   4.266   4.198  0.0744 -0.0722 -0.0140
 2399ntf    cn114915   4.910   4.264   4.187  0.0600 -0.0939 -0.2549
 2399ntf    fn414916   4.488   3.963   4.504  0.1408  0.1845 -0.3190
 2399ntf    fn414917   4.584   3.940   4.314 -0.3808  0.1924 -0.6952
 2399ntf    fn414918   4.696   3.981   4.486  0.1268 -0.1011 -0.3905
 2399ntf    on514919   4.444   4.201   4.310 -0.0410  0.5907  0.3448
 2399ntf    on514920   4.528   4.229   4.536 -0.0633 -0.0772  0.1202
 2399ntf    on514921   4.686   4.398   4.158 -0.1103  0.0822  0.6920
 2399ntf    on514922   4.703   4.155   4.109  0.3874 -0.3012  0.1776
 2399ntf    fn414923   4.965   4.144   4.195 -0.1463 -0.2002 -0.4152
 2399ntf    fn414924   4.945   4.319   4.071  0.2369 -0.1953 -0.2488
 2399ntf    fn414925   4.968   4.344   4.275 -0.1238  0.1267 -0.3320
 2400ntf    cn114926   5.237   5.960   3.369 -0.0482  0.2510 -0.1095
 2400ntf    sn214927   5.095   5.850   3.399  0.1803 -0.0306 -0.0548
 2400ntf    nn314928   5.054   5.913   3.537  0.2847  0.7501 -0.3720
 2400ntf    sn214929   5.142   5.900   3.667  0.1515 -0.5900 -0.4021
 2400ntf    cn114930   5.070   5.751   3.742  0.0297 -0.3544 -0.0479
 2400ntf    fn414931   5.244   6.062   3.453  1.1402  0.0480  0.0484
 2400ntf    fn414932   5.351   5.895   3.382 -0.1829  0.0297 -0.0250
 2400ntf    fn414933   5.230   6.003   3.244 -0.2426 -0.2168 -0.2624
 2400ntf    on514934   5.011   5.868   3.283  0.7016 -0.1491 -0.4552
 2400ntf    on514935   5.154   5.720   3.411 -1.0013 -0.5895 -0.1428
 2400ntf    on514936   5.111   6.007   3.759 -0.9727 -0.6036 -0.7456
 2400ntf    on514937   5.279   5.865   3.641  0.1860 -0.6723 -0.1099
 2400ntf    fn414938   5.113   5.721   3.863  0.2860  0.1230 -0.0199
 2400ntf    fn414939   4.939   5.756   3.761  0.0999  0.4024  0.2426
 2400ntf    fn414940   5.099   5.637   3.681 -0.2130 -0.2190 -0.4268
 2401ntf    cn114941   2.472   6.837   0.197 -0.0846  0.1326  0.2676
 2401ntf    sn214942   2.433   6.952   0.061 -0.0852 -0.1665  0.0141
 2401ntf    nn314943   2.401   7.083   0.141  0.0251 -0.2056  0.1235
 2401ntf    sn214944   2.276   7.173   0.171  0.0397 -0.0703 -0.2155
 2401ntf    cn114945   2.345   7.317   0.083 -0.1207 -0.1349 -0.4484
 2401ntf    fn414946   2.449   6.714   0.156  0.0821 -0.0240  0.6431
 2401ntf    fn414947   2.598   6.833   0.235 -0.1020  0.2999  0.3447
 2401ntf    fn414948   2.397   6.860   0.304 -0.7347  0.0314 -0.1615
 2401ntf    on514949   2.549   6.961  -0.024  0.3984 -0.6877  0.6120
 2401ntf    on514950   2.326   6.875   0.002  0.0810 -0.7080  0.4079
 2401ntf    on514951   2.266   7.210   0.310  0.5359 -0.2487 -0.1304
 2401ntf    on514952   2.153   7.136   0.105 -0.3642  0.3132  0.3126
 2401ntf    fn414953   2.371   7.283  -0.042  0.7138 -0.4061 -0.2083
 2401ntf    fn414954   2.264   7.422   0.088  0.0790 -0.0015  0.0962
 2401ntf    fn414955   2.458   7.345   0.146 -0.2234 -0.1973 -0.2322
 2402ntf    cn114956   2.106   1.656   6.811  0.0416  0.0471  0.2493
 2402ntf    sn214957   2.265   1.629   6.727 -0.0363 -0.0796  0.1445
 2402ntf    nn314958   2.282   1.760   6.643  0.3703 -0.0433  0.2843
 2402ntf    sn214959   2.387   1.797   6.531  0.0411 -0.2672 -0.1002
 2402ntf    cn114960   2.451   1.952   6.602 -0.3588 -0.1196 -0.0557
 2402ntf    fn414961   2.102   1.745   6.909 -0.4652  0.1013  0.1811
 2402ntf    fn414962   2.017   1.696   6.722  0.3804  0.6428  0.1725
 2402ntf    fn414963   2.059   1.545   6.865 -0.9296  0.5838  0.5329
 2402ntf    on514964   2.358   1.628   6.837  0.1060  0.5952  0.0289
 2402ntf    on514965   2.243   1.509   6.649  0.3402 -0.1545  0.1508
 2402ntf    on514966   2.330   1.851   6.410  0.0044  0.4169  0.2117
 2402ntf    on514967   2.506   1.718   6.520  0.3040  0.1310 -0.1334
 2402ntf    fn414968   2.475   1.945   6.732  0.1829  0.1991 -0.1382
 2402ntf    fn414969   2.567   1.983   6.547  0.0834 -0.8136  0.4646
 2402ntf    fn414970   2.366   2.052   6.585  0.4438  0.5697 -0.0945
 2403ntf    cn114971   3.413   0.986   4.775 -0.1111  0.1541 -0.1105
 2403ntf    sn214972   3.268   0.907   4.698 -0.0405  0.1521 -0.2413
 2403ntf    nn314973   3.281   0.770   4.775  0.1034  0.4897  0.3399
 2403ntf    sn214974   3.200   0.713   4.897 -0.2969  0.5781  0.1207
 2403ntf    cn114975   3.090   0.597   4.810  0.2924 -0.0722  0.2258
 2403ntf    fn414976   3.398   1.035   4.897  0.1882  0.3407 -0.1482
 2403ntf    fn414977   3.509   0.897   4.795 -0.5432 -0.1978  0.4380
 2403ntf    fn414978   3.469   1.086   4.710  0.3519  0.0282  0.0940
 2403ntf    on514979   3.162   0.997   4.734 -0.0114  0.0614  0.0734
 2403ntf    on514980   3.321   0.899   4.564  0.1296  0.1140 -0.1725
 2403ntf    on514981   3.103   0.795   4.965 -0.8046 -0.0590  0.1739
 2403ntf    on514982   3.281   0.622   4.975  0.0768  0.3204 -0.5591
 2403ntf    fn414983   2.999   0.657   4.735  0.4738 -0.4689 -0.3135
 2403ntf    fn414984   3.153   0.508   4.736  0.0071  0.0118 -0.1192
 2403ntf    fn414985   3.023   0.524   4.898  0.1797  0.0832  0.2714
 2404ntf    cn114986   6.872   2.048   2.358 -0.0515 -0.0886 -0.3757
 2404ntf    sn214987   6.776   1.897   2.328 -0.1531 -0.0484 -0.2521
 2404ntf    nn314988   6.887   1.790   2.298  0.0263  0.1326 -0.2373
 2404ntf    sn214989   6.934   1.734   2.159  0.1079 -0.6633  0.1039
 2404ntf    cn114990   6.931   1.556   2.195  0.0398 -0.6913 -0.0386
 2404ntf    fn414991   6.964   2.026   2.451 -0.0204  0.8673 -0.1685
 2404ntf    fn414992   6.937   2.086   2.249 -0.2353  0.1709 -0.3966
 2404ntf    fn414993   6.799   2.144   2.414  0.2623 -0.0006 -0.1135
 2404ntf    on514994   6.717   1.871   2.457 -0.3485 -0.0422 -0.3405
 2404ntf    on514995   6.684   1.927   2.221 -0.4371  0.0999  0.0339
 2404ntf    on514996   7.075   1.754   2.133 -0.2346  0.4307 -0.9973
 2404ntf    on514997   6.845   1.745   2.046  0.6348  0.0258 -0.2556
 2404ntf    fn414998   7.021   1.523   2.286 -0.0075 -0.9150 -0.0739
 2404ntf    fn414999   6.814   1.515   2.238 -0.2791  0.0531 -0.1816
 2404ntf    fn415000   6.966   1.482   2.091 -0.2293 -0.4633 -0.2952
 2405ntf    cn115001   2.213   1.964   4.025  0.1415  0.1103 -0.1683
 2405ntf    sn215002   2.165   2.072   4.163  0.3571 -0.1134  0.0809
 2405ntf    nn315003   2.156   1.972   4.284 -0.0034 -0.2248 -0.0382
 2405ntf    sn215004   2.063   1.852   4.324 -0.3787  0.0603 -0.0420
 2405ntf    cn115005   2.041   1.892   4.500  0.2668  0.2729 -0.0067
 2405ntf    fn415006   2.145   1.853   4.003  0.4766 -0.1464  0.0814
 2405ntf    fn415007   2.222   2.021   3.906 -0.6049 -0.2560 -0.4050
 2405ntf    fn415008   2.337   1.926   4.050 -0.1261 -0.1789  0.7627
 2405ntf    on515009   2.271   2.170   4.171 -0.2831  0.5654  0.3579
 2405ntf    on515010   2.038   2.127   4.123  0.5187  0.0511 -0.2058
 2405ntf    on515011   2.135   1.727   4.327  0.2578  0.4197 -0.1502
 2405ntf    on515012   1.930   1.853   4.270 -0.5589  0.3311  0.4039
 2405ntf    fn415013   2.153   1.874   4.569 -0.2770 -0.8844  0.5958
 2405ntf    fn415014   1.996   2.015   4.522 -0.0322  0.2153 -0.2972
 2405ntf    fn415015   1.955   1.813   4.562 -0.1009  0.1477 -0.6736
 2406ntf    cn115016   1.026   1.942   3.503  0.1890 -0.0693  0.0684
 2406ntf    sn215017   0.986   2.039   3.354  0.0401 -0.0715  0.1065
 2406ntf    nn315018   0.972   2.181   3.420  0.1819 -0.0525  0.0962
 2406ntf    sn215019   1.084   2.291   3.414  0.0099  0.1062 -0.2705
 2406ntf    cn115020   1.134   2.271   3.588  0.0374 -0.0189 -0.2928
 2406ntf    fn415021   0.953   1.995   3.600  0.0883  0.1523 -0.1266
 2406ntf    fn415022   0.985   1.817   3.487  0.5355 -0.0798 -0.8318
 2406ntf    fn415023   1.153   1.944   3.536  0.1657  0.2557  0.1392
 2406ntf    on515024   1.098   2.017   3.266 -0.4259 -0.6030 -0.3618
 2406ntf    on515025   0.853   1.998   3.315  0.1344 -0.0713 -0.2155
 2406ntf    on515026   1.041   2.428   3.410  0.1641  0.2017  0.8730
 2406ntf    on515027   1.207   2.257   3.347  0.4361 -0.0395  0.5613
 2406ntf    fn415028   1.229   2.359   3.614 -0.0250  0.2039 -0.8175
 2406ntf    fn415029   1.035   2.297   3.672  0.1859  0.6302 -0.3134
 2406ntf    fn415030   1.186   2.152   3.615 -0.1739 -0.1092 -0.2837
 2407ntf    cn115031   3.691   0.528   0.421  0.3020 -0.0933  0.1461
 2407ntf    sn215032   3.727   0.351   0.441 -0.0479 -0.2031 -0.1997
 2407ntf    nn315033   3.586   0.287   0.415 -0.2665  0.3134 -0.2977
 2407ntf    sn215034   3.527   0.206   0.294 -0.5128  0.1801 -0.0908
 2407ntf    cn115035   3.581   0.034   0.313 -0.3627  0.2097 -0.2460
 2407ntf    fn415036   3.794   0.610   0.438  0.1536  0.0904  0.1586
 2407ntf    fn415037   3.641   0.557   0.302 -0.4126  0.0068  0.4668
 2407ntf    fn415038   3.601   0.560   0.513 -0.0108  0.3797 -0.3182
 2407ntf    on515039   3.821   0.334   0.333 -0.0637 -0.8332 -0.1203
 2407ntf    on515040   3.777   0.340   0.575  0.2421 -0.0970 -0.2989
 2407ntf    on515041   3.588   0.245   0.169 -0.0492  0.2060  0.1425
 2407ntf    on515042   3.383   0.212   0.292 -0.4925  0.6597 -0.4087
 2407ntf    fn415043   3.519  -0.043   0.225  0.2802 -0.5404 -0.0582
 2407ntf    fn415044   3.712   0.011   0.313 -0.3956  0.0125 -0.6210
 2407ntf    fn415045   3.536  -0.010   0.429 -0.4671 -0.1187 -0.4119
 2408ntf    cn115046   3.609   3.954   2.216  0.2983 -0.1830 -0.3572
 2408ntf    sn215047   3.586   4.133   2.239 -0.3409 -0.2828 -0.1811
 2408ntf    nn315048   3.703   4.171   2.141 -0.0899  0.7391  0.4984
 2408ntf    sn215049   3.727   4.310   2.073  0.3283  0.2698 -0.3263
 2408ntf    cn115050   3.791   4.393   2.221  0.0849 -0.0547 -0.0387
 2408ntf    fn415051   3.507   3.897   2.278  0.0049  0.5836 -0.1231
 2408ntf    fn415052   3.608   3.925   2.087 -0.1173 -0.6403 -0.2548
 2408ntf    fn415053   3.722   3.903   2.262  0.0631 -0.4324 -0.0532
 2408ntf    on515054   3.452   4.148   2.187 -0.4908  0.4335  0.4042
 2408ntf    on515055   3.621   4.166   2.374 -0.1801 -0.2189 -0.2379
 2408ntf    on515056   3.605   4.377   2.037  0.0149 -0.1832 -0.1109
 2408ntf    on515057   3.845   4.314   1.989  0.7303  0.2189  0.2293
 2408ntf    fn415058   3.812   4.522   2.201  0.0331 -0.0146  0.1610
 2408ntf    fn415059   3.718   4.384   2.331 -0.7051  0.3330 -0.5261
 2408ntf    fn415060   3.904   4.335   2.259  0.2511  0.5203  0.3634
 2409ntf    cn115061   2.909   4.623   3.168 -0.3611 -0.0264 -0.2190
 2409ntf    sn215062   2.897   4.798   3.119  0.2033  0.0839  0.0225
 2409ntf    nn315063   3.022   4.865   3.186  0.2628  0.3829 -0.3841
 2409ntf    sn215064   3.027   4.913   3.335 -0.1006 -0.3701 -0.1240
 2409ntf    cn115065   3.206   4.890   3.360 -0.0446  0.5461  0.3686
 2409ntf    fn415066   2.900   4.612   3.299 -0.4407 -0.2710 -0.2450
 2409ntf    fn415067   2.809   4.552   3.120 -0.2874 -0.5262  0.3590
 2409ntf    fn415068   3.019   4.566   3.122  0.0131  0.3264  0.2253
 2409ntf    on515069   2.907   4.788   2.975  0.8541  0.0808  0.0671
 2409ntf    on515070   2.770   4.833   3.179  0.1993 -0.1398  0.1442
 2409ntf    on515071   2.968   4.817   3.425  0.4286 -0.6567 -0.0806
 2409ntf    on515072   3.003   5.054   3.358 -0.0357 -0.3533 -0.1563
 2409ntf    fn415073   3.247   4.789   3.434  0.4594  0.2623 -0.2930
 2409ntf    fn415074   3.263   4.874   3.242 -0.4328 -0.3448  0.2936
 2409ntf    fn415075   3.266   4.995   3.413  0.4820  0.6624 -0.4500
 2410ntf    cn115076   3.372   6.648   3.744  0.2918 -0.0072  0.1052
 2410ntf    sn215077   3.445   6.603   3.904 -0.0366 -0.0368  0.2471
 2410ntf    nn315078   3.468   6.449   3.882  0.1462  0.0355 -0.0785
 2410ntf    sn215079   3.489   6.326   3.977  0.1868  0.0244 -0.1022
 2410ntf    cn115080   3.615   6.220   3.898 -0.1055 -0.4073  0.0072
 2410ntf    fn415081   3.464   6.670   3.652  0.2815 -0.3431  0.0113
 2410ntf    fn415082   3.297   6.553   3.689 -0.1563  0.2900  0.1945
 2410ntf    fn415083   3.307   6.760   3.769 -0.3926 -0.3973  0.1172
 2410ntf    on515084   3.562   6.686   3.887 -0.4188  0.4907  0.1770
 2410ntf    on515085   3.347   6.650   3.999 -0.4733 -0.3543 -0.0422
 2410ntf    on515086   3.374   6.239   3.982  0.3768 -0.2264 -0.0454
 2410ntf    on515087   3.556   6.359   4.101 -0.2932 -0.1421  0.2037
 2410ntf    fn415088   3.711   6.297   3.850 -0.3206  0.0766  0.3434
 2410ntf    fn415089   3.667   6.135   3.985 -0.8110 -0.5514  0.2956
 2410ntf    fn415090   3.564   6.150   3.798 -0.4406  0.2763 -0.3118
 2411ntf    cn115091   3.120   4.792   6.985 -0.2266 -0.2581 -0.5016
 2411ntf    sn215092   2.992   4.919   7.012 -0.1764 -0.3009 -0.0555
 2411ntf    nn315093   2.983   4.910   7.169  0.6419  0.3747  0.0432
 2411ntf    sn215094   2.948   5.009   7.286 -0.0160  0.2794 -0.0644
 2411ntf    cn115095   2.920   4.892   7.422  0.3625  0.0781 -0.1579
 2411ntf    fn415096   3.239   4.840   7.015 -0.6081 -0.0212  0.6933
 2411ntf    fn415097   3.084   4.688   7.058 -0.1638  0.1543  0.1231
 2411ntf    fn415098   3.117   4.749   6.860 -0.1916 -0.0500 -0.5747
 2411ntf    on515099   3.048   5.042   6.961  0.3805 -0.3482  0.4231
 2411ntf    on515100   2.882   4.862   6.939 -0.2927  0.3861 -0.4318
 2411ntf    on515101   2.822   5.078   7.275  0.1250  0.4843 -0.4102
 2411ntf    on515102   3.063   5.079   7.338  0.7615 -1.1328  0.1898
 2411ntf    fn415103   2.911   4.941   7.545  0.2911  0.1005 -0.1723
 2411ntf    fn415104   2.809   4.822   7.405  0.4125 -0.0345 -0.0273
 2411ntf    fn415105   3.018   4.803   7.428  0.3430  0.0526 -0.2200
 2412ntf    cn115106   1.380   3.672   6.848 -0.4004  0.0909 -0.1560
 2412ntf    sn215107   1.300   3.513   6.884  0.0226 -0.0410  0.2172
 2412ntf    nn315108   1.354   3.432   6.761 -1.1199 -0.5541  0.0376
 2412ntf    sn215109   1.474   3.330   6.763 -0.3488  0.3495  0.3779
 2412ntf    cn115110   1.406   3.177   6.833 -0.3654  0.0616 -0.2639
 2412ntf    fn415111   1.400   3.704   6.722 -0.2231 -0.3702 -0.2474
 2412ntf    fn415112   1.318   3.770   6.911  0.0314  0.1451  0.1985
 2412ntf    fn415113   1.504   3.676   6.895 -0.5650  0.1830  0.2737
 2412ntf    on515114   1.356   3.473   7.011 -0.1257 -0.4985  0.1416
 2412ntf    on515115   1.158   3.537   6.885  0.0711  0.2625 -0.0361
 2412ntf    on515116   1.587   3.370   6.844  0.0603 -0.4238  0.1919
 2412ntf    on515117   1.520   3.291   6.632 -0.4734 -0.6186  0.6181
 2412ntf    fn415118   1.490   3.075   6.829 -0.1884  0.2108 -0.3281
 2412ntf    fn415119   1.367   3.199   6.957  0.3032 -0.3509  0.0235
 2412ntf    fn415120   1.301   3.138   6.763 -0.6019  0.4899 -0.1513
 2413ntf    cn115121   1.799   2.154   5.571  0.0357  0.4771 -0.3414
 2413ntf    sn215122   1.740   2.325   5.589  0.0100  0.4655 -0.3170
 2413ntf    nn315123   1.615   2.298   5.680  0.0725 -0.4650 -0.4998
 2413ntf    sn215124   1.465   2.278   5.637 -0.0313 -0.1951 -0.2622
 2413ntf    cn115125   1.431   2.455   5.615 -0.0940 -0.1733  0.0072
 2413ntf    fn415126   1.713   2.087   5.497  0.5189 -0.0529 -0.4301
 2413ntf    fn415127   1.914   2.126   5.512  0.1130  0.7180 -0.3060
 2413ntf    fn415128   1.797   2.092   5.688  0.5854  0.6502 -0.2385
 2413ntf    on515129   1.849   2.377   5.668 -0.5353  0.5012  0.4217
 2413ntf    on515130   1.716   2.369   5.454  0.3343 -0.3093 -0.6320
 2413ntf    on515131   1.379   2.245   5.748  0.0213 -0.2677 -0.2423
 2413ntf    on515132   1.448   2.211   5.511  0.1504 -0.4372 -0.1595
 2413ntf    fn415133   1.433   2.531   5.724  0.5965  0.2563 -0.2997
 2413ntf    fn415134   1.515   2.515   5.533  0.4680 -0.2102  0.5537
 2413ntf    fn415135   1.311   2.479   5.564 -0.3423 -0.1155  0.6115
 2414ntf    cn115136   6.477   4.860   0.024 -0.1560 -0.1237  0.0565
 2414ntf    sn215137   6.620   4.957  -0.034 -0.1101 -0.1560  0.1159
 2414ntf    nn315138   6.569   5.105  -0.027 -0.1520 -0.1731  0.1747
 2414ntf    sn215139   6.471   5.179  -0.125  0.3599  0.0891 -0.1455
 2414ntf    cn115140   6.582   5.285  -0.223  0.2711  0.2073 -0.1186
 2414ntf    fn415141   6.465   4.839   0.154  0.1791 -0.2203  0.0731
 2414ntf    fn415142   6.362   4.918  -0.009 -0.1530 -0.1959 -0.0847
 2414ntf    fn415143   6.474   4.744  -0.039  0.1637  0.0560 -0.2970
 2414ntf    on515144   6.716   4.922   0.067  0.3641  0.8069  0.0024
 2414ntf    on515145   6.650   4.905  -0.165 -0.1182  0.0099  0.0482
 2414ntf    on515146   6.395   5.276  -0.050 -0.6416 -0.5407 -0.3360
 2414ntf    on515147   6.410   5.096  -0.225 -0.1858  0.0322  0.2345
 2414ntf    fn415148   6.689   5.222  -0.268 -0.2717 -0.7132 -0.1570
 2414ntf    fn415149   6.520   5.331  -0.331  0.5314 -0.3096 -0.4946
 2414ntf    fn415150   6.632   5.391  -0.162  0.1401  0.0421  0.2836
 2415ntf    cn115151   1.918   1.306   3.864  0.0911 -0.1462 -0.2352
 2415ntf    sn215152   1.887   1.180   3.737 -0.1195 -0.1083 -0.2212
 2415ntf    nn315153   2.005   1.078   3.753 -0.2992 -0.3168 -0.2169
 2415ntf    sn215154   2.128   1.045   3.661 -0.0162 -0.1949  0.1204
 2415ntf    cn115155   2.067   0.886   3.597  0.2282 -0.3173  0.1878
 2415ntf    fn415156   1.822   1.397   3.855 -0.2536 -0.4546  0.2709
 2415ntf    fn415157   1.913   1.273   3.992  0.7383 -0.1750 -0.2166
 2415ntf    fn415158   2.036   1.365   3.855 -0.1030  0.4362  0.8913
 2415ntf    on515159   1.763   1.115   3.772 -0.0519 -0.4870 -0.6734
 2415ntf    on515160   1.871   1.251   3.612  0.5310  0.1373 -0.1686
 2415ntf    on515161   2.248   0.998   3.726 -0.0281 -0.1919  0.1443
 2415ntf    on515162   2.146   1.126   3.544  0.1550 -0.3290  0.0524
 2415ntf    fn415163   1.966   0.902   3.512  0.2272 -0.1210  0.2255
 2415ntf    fn415164   2.153   0.813   3.528  0.0472 -0.1864 -0.1844
 2415ntf    fn415165   2.022   0.810   3.695  0.4988  0.0700  0.6174
 2416ntf    cn115166   3.954   6.222   4.895  0.1001  0.2861 -0.1631
 2416ntf    sn215167   3.820   6.296   4.797  0.0264  0.2842 -0.0633
 2416ntf    nn315168   3.803   6.425   4.884 -0.4594 -0.2946  0.7179
 2416ntf    sn215169   3.685   6.527   4.897 -0.3304 -0.0587  0.0797
 2416ntf    cn115170   3.691   6.562   5.076  0.3914  0.4078 -0.0339
 2416ntf    fn415171   4.004   6.119   4.827  0.0620 -0.0463  0.3040
 2416ntf    fn415172   4.045   6.312   4.927 -0.1600  0.4927 -0.0036
 2416ntf    fn415173   3.907   6.158   5.001  0.0051  0.6987  0.0454
 2416ntf    on515174   3.861   6.312   4.660  0.3968  0.2329  0.0389
 2416ntf    on515175   3.722   6.192   4.818 -0.1074  0.3914 -0.1645
 2416ntf    on515176   3.556   6.464   4.885 -0.3379 -0.0338  0.0310
 2416ntf    on515177   3.709   6.655   4.835  0.0208 -0.0245  0.2831
 2416ntf    fn415178   3.767   6.664   5.113  0.0959  0.6762 -0.1611
 2416ntf    fn415179   3.573   6.600   5.121  0.1040 -0.1600 -0.2937
 2416ntf    fn415180   3.725   6.456   5.147 -0.7244  0.3028  0.3506
 2417ntf    cn115181   0.843   0.507   2.298  0.0830 -0.2173  0.4530
 2417ntf    sn215182   0.961   0.394   2.379  0.3298 -0.1150  0.2392
 2417ntf    nn315183   0.877   0.262   2.365  0.2475 -0.1145  0.7203
 2417ntf    sn215184   0.912   0.109   2.364  0.1902 -0.1244 -0.1528
 2417ntf    cn115185   0.862   0.065   2.533 -0.2044  0.0691 -0.2159
 2417ntf    fn415186   0.858   0.497   2.167  0.3555  0.5621  0.4176
 2417ntf    fn415187   0.719   0.471   2.325 -0.0389 -0.1214  0.0204
 2417ntf    fn415188   0.852   0.637   2.318 -0.1546 -0.1019 -0.1658
 2417ntf    on515189   1.075   0.414   2.293  0.3863  0.5892  0.4687
 2417ntf    on515190   0.956   0.445   2.514 -0.3051 -0.6882  0.4364
 2417ntf    on515191   1.054   0.091   2.355  0.2082  0.0977 -0.3221
 2417ntf    on515192   0.830   0.032   2.274 -0.2960  0.8655 -0.5843
 2417ntf    fn415193   0.962   0.094   2.615 -0.2968  0.0197 -0.0863
 2417ntf    fn415194   0.759   0.137   2.572 -0.2393  0.0325 -0.2411
 2417ntf    fn415195   0.831  -0.062   2.554 -0.4951  0.2631  0.5607
 2418ntf    cn115196   0.524   4.081   0.153  0.1623  0.2799  0.4470
 2418ntf    sn215197   0.403   4.134   0.028  0.1836 -0.2055  0.2169
 2418ntf    nn315198   0.474   4.258  -0.037 -0.2395 -0.1466 -0.1350
 2418ntf    sn215199   0.458   4.409   0.001  0.0727 -0.1408 -0.0234
 2418ntf    cn115200   0.562   4.488  -0.125  0.2285  0.1702  0.2972
 2418ntf    fn415201   0.516   4.164   0.255 -0.0720  1.0609 -0.1957
 2418ntf    fn415202   0.507   3.958   0.199  0.0958 -0.1360 -0.6611
 2418ntf    fn415203   0.648   4.091   0.108  0.0750  0.2112  0.1911
 2418ntf    on515204   0.383   4.020  -0.058 -0.9239 -0.2628  0.5403
 2418ntf    on515205   0.290   4.177   0.107  0.1935  0.8918 -0.3512
 2418ntf    on515206   0.509   4.457   0.127 -0.0532 -0.1817  0.0435
 2418ntf    on515207   0.335   4.472  -0.041  0.3520  0.6881  0.3736
 2418ntf    fn415208   0.518   4.464  -0.248  0.6761 -0.2601  0.2219
 2418ntf    fn415209   0.567   4.620  -0.113  0.2530  0.1840  0.1387
 2418ntf    fn415210   0.683   4.436  -0.131  0.2528  0.2152  0.3926
 2419ntf    cn115211   3.894   2.187   0.306  0.0723 -0.1080  0.0281
 2419ntf    sn215212   3.727   2.126   0.343  0.0614  0.0480  0.2344
 2419ntf    nn315213   3.743   1.990   0.420  0.7766  0.0645  0.1174
 2419ntf    sn215214   3.719   1.845   0.364 -0.0017  0.2400 -0.0123
 2419ntf    cn115215   3.670   1.771   0.523  0.2779  0.2276  0.0694
 2419ntf    fn415216   3.989   2.157   0.392  0.1464 -0.1594 -0.0710
 2419ntf    fn415217   3.922   2.153   0.181  0.5293 -0.1077  0.1300
 2419ntf    fn415218   3.883   2.319   0.306  0.2429 -0.0929 -0.2617
 2419ntf    on515219   3.688   2.226   0.440  0.1850 -0.0446  0.3811
 2419ntf    on515220   3.649   2.128   0.222 -0.8965  0.0003  0.8411
 2419ntf    on515221   3.843   1.779   0.328  0.1922  0.0543  0.9659
 2419ntf    on515222   3.600   1.831   0.284  0.3243  0.2348 -0.5022
 2419ntf    fn415223   3.765   1.762   0.615 -0.3682 -0.0938  0.7187
 2419ntf    fn415224   3.575   1.843   0.582  0.2340  0.0774  0.1813
 2419ntf    fn415225   3.622   1.648   0.511  0.4032  0.1504  0.3413
 2420ntf    cn115226   1.847   3.767   2.648 -0.0009  0.2512  0.1335
 2420ntf    sn215227   1.983   3.789   2.766 -0.1284 -0.0317  0.3341
 2420ntf    nn315228   2.099   3.731   2.677  0.2495  0.2864  0.6116
 2420ntf    sn215229   2.208   3.796   2.585 -0.2041 -0.3083 -0.3678
 2420ntf    cn115230   2.353   3.772   2.692 -0.2992 -0.0120 -0.1698
 2420ntf    fn415231   1.872   3.831   2.535  0.1878 -0.3704 -0.1843
 2420ntf    fn415232   1.830   3.638   2.623 -0.4754  0.3064  0.1565
 2420ntf    fn415233   1.726   3.807   2.683  0.1515  0.5478  0.3201
 2420ntf    on515234   1.996   3.932   2.781 -0.1491 -0.0322  0.3562
 2420ntf    on515235   1.960   3.706   2.882  0.0475 -0.1100  0.3142
 2420ntf    on515236   2.201   3.940   2.577  0.2171 -0.2748 -0.1700
 2420ntf    on515237   2.247   3.720   2.469 -0.1215  0.6558 -0.9837
 2420ntf    fn415238   2.459   3.762   2.612 -0.5315  0.3836 -0.5314
 2420ntf    fn415239   2.376   3.866   2.781  0.9700 -0.8634  0.4349
 2420ntf    fn415240   2.346   3.659   2.761  0.6411  0.1502  0.2018
 2421ntf    cn115241   2.751   2.263   5.122 -0.2106  0.1153  0.0352
 2421ntf    sn215242   2.707   2.387   5.248 -0.3256  0.1434 -0.0322
 2421ntf    nn315243   2.772   2.311   5.369  0.3604 -0.3280 -0.6808
 2421ntf    sn215244   2.900   2.361   5.444 -0.1908  0.0173  0.0476
 2421ntf    cn115245   2.818   2.462   5.571 -0.5163  0.0666 -0.2032
 2421ntf    fn415246   2.697   2.151   5.167  0.7382 -0.4606 -0.2257
 2421ntf    fn415247   2.708   2.304   5.004  0.2005  0.3258 -0.0407
 2421ntf    fn415248   2.881   2.240   5.115 -0.2750 -0.3306  0.2313
 2421ntf    on515249   2.771   2.508   5.202 -0.3772 -0.0341 -0.5777
 2421ntf    on515250   2.564   2.388   5.258 -0.2989 -0.4472  0.4364
 2421ntf    on515251   2.997   2.448   5.381 -0.4147  0.1704 -0.0871
 2421ntf    on515252   2.962   2.252   5.515 -0.5408 -0.0279  0.2850
 2421ntf    fn415253   2.905   2.487   5.667 -0.5747 -0.7710  0.0758
 2421ntf    fn415254   2.766   2.572   5.518 -0.3928  0.1264 -0.1990
 2421ntf    fn415255   2.715   2.403   5.629 -0.1331 -0.6986 -0.2937
 2422ntf    cn115256   5.666   5.817   0.078  0.0317  0.1260 -0.1147
 2422ntf    sn215257   5.740   5.653   0.099 -0.2514 -0.0172 -0.2207
 2422ntf    nn315258   5.665   5.594   0.224  0.4265  0.0150  0.2103
 2422ntf    sn215259   5.724   5.553   0.363  0.1072 -0.0527  0.3249
 2422ntf    cn115260   5.573   5.474   0.428  0.1289 -0.2087  0.1895
 2422ntf    fn415261   5.737   5.906   0.010  0.0082  0.0437 -0.2468
 2422ntf    fn415262   5.550   5.805   0.015 -0.3849  0.6188  0.5522
 2422ntf    fn415263   5.624   5.869   0.192 -0.6060 -0.4456 -0.0821
 2422ntf    on515264   5.720   5.578  -0.022  0.7545 -0.1620 -0.3122
 2422ntf    on515265   5.874   5.697   0.131 -0.1235 -0.1315 -0.5953
 2422ntf    on515266   5.741   5.658   0.460 -0.8728 -0.0036  0.4618
 2422ntf    on515267   5.831   5.456   0.363  0.1124 -0.0510 -0.8564
 2422ntf    fn415268   5.587   5.421   0.549  0.0969  0.1903  0.3699
 2422ntf    fn415269   5.479   5.566   0.443  0.2927  0.0010 -0.0584
 2422ntf    fn415270   5.523   5.383   0.347  0.2893 -0.0712 -0.0666
 2423ntf    cn115271   6.850   2.907   2.856  0.0189  0.2719 -0.4483
 2423ntf    sn215272   6.834   3.086   2.881 -0.2768  0.1912 -0.0431
 2423ntf    nn315273   6.966   3.133   2.810 -0.2456  0.3040  0.0906
 2423ntf    sn215274   7.011   3.265   2.738 -0.0499  0.1220 -0.1205
 2423ntf    cn115275   7.131   3.316   2.864 -0.2389 -0.1056  0.1534
 2423ntf    fn415276   6.764   2.837   2.929 -0.1575  0.8247 -0.1228
 2423ntf    fn415277   6.829   2.876   2.729 -0.1372 -0.6950 -0.2016
 2423ntf    fn415278   6.971   2.864   2.890 -0.3282 -0.1615  0.2911
 2423ntf    on515279   6.706   3.113   2.820  0.2644  0.9001 -0.8822
 2423ntf    on515280   6.845   3.105   3.024 -0.4291  0.3491 -0.0527
 2423ntf    on515281   6.929   3.384   2.729 -0.1578  0.0795  0.2771
 2423ntf    on515282   7.089   3.245   2.619 -0.1160  0.4045 -0.2127
 2423ntf    fn415283   7.192   3.428   2.830 -0.3332 -0.0417  0.1964
 2423ntf    fn415284   7.085   3.332   2.987 -0.4125 -0.0021  0.0739
 2423ntf    fn415285   7.231   3.230   2.874  0.2525  0.5293  0.7796
 2424ntf    cn115286   1.053   0.745   4.075  0.2859  0.3331  0.4988
 2424ntf    sn215287   1.203   0.834   4.024  0.2928  0.0290 -0.0249
 2424ntf    nn315288   1.209   0.807   3.869  0.0946 -0.1588 -0.0007
 2424ntf    sn215289   1.135   0.878   3.750  0.2455  0.3268  0.1908
 2424ntf    cn115290   1.067   0.731   3.667  0.0141  0.5054  0.0655
 2424ntf    fn415291   1.065   0.615   4.053 -0.0758  0.2545  0.7596
 2424ntf    fn415292   1.024   0.745   4.204 -0.1970 -0.7009  0.4052
 2424ntf    fn415293   0.945   0.785   4.011 -0.0487 -0.4767  0.5419
 2424ntf    on515294   1.187   0.974   4.056 -0.0778 -0.0703  0.2333
 2424ntf    on515295   1.309   0.775   4.101  0.3034  0.0656 -0.0111
 2424ntf    on515296   1.225   0.924   3.648 -0.1218  0.3150 -0.1389
 2424ntf    on515297   1.020   0.957   3.786  0.1690  0.2556  0.1028
 2424ntf    fn415298   1.011   0.645   3.750 -0.0337  0.6077  0.1404
 2424ntf    fn415299   0.970   0.764   3.583  0.0355  0.5248  0.0486
 2424ntf    fn415300   1.151   0.660   3.594 -0.1790 -0.0468  0.3746
 2425ntf    cn115301   2.267   4.266   3.497  0.7839  0.0796  0.2115
 2425ntf    sn215302   2.355   4.257   3.656  0.1618 -0.3490  0.5335
 2425ntf    nn315303   2.436   4.124   3.635  0.6787 -0.0013  0.3083
 2425ntf    sn215304   2.403   3.984   3.699 -0.4432 -0.0022 -0.2324
 2425ntf    cn115305   2.554   3.963   3.798 -0.4626 -0.1078 -0.2258
 2425ntf    fn415306   2.190   4.161   3.473 -0.2194  0.8522 -0.0178
 2425ntf    fn415307   2.186   4.370   3.498  0.0893 -0.4470 -0.0664
 2425ntf    fn415308   2.351   4.269   3.394  0.0924 -0.0433 -0.3628
 2425ntf    on515309   2.445   4.369   3.666  0.0042 -0.1955  0.2421
 2425ntf    on515310   2.245   4.259   3.749  0.2912  0.3852  0.6750
 2425ntf    on515311   2.406   3.881   3.599 -0.8207 -0.1034 -0.1381
 2425ntf    on515312   2.296   3.982   3.795 -0.2482  0.1234 -0.0092
 2425ntf    fn415313   2.563   3.836   3.835 -0.0671  0.1293  0.5245
 2425ntf    fn415314   2.657   3.995   3.721 -0.3149 -0.6554 -0.2639
 2425ntf    fn415315   2.564   4.039   3.906  0.5830  0.3235 -0.6120
 2426ntf    cn115316   5.361   4.127   5.290 -0.0673  0.1724 -0.1114
 2426ntf    sn215317   5.521   4.212   5.301 -0.0603  0.1764 -0.2550
 2426ntf    nn315318   5.604   4.129   5.197 -0.3676 -0.4060 -0.0403
 2426ntf    sn215319   5.599   4.133   5.040  0.2881 -0.0488 -0.0551
 2426ntf    cn115320   5.693   3.985   4.991  0.2202 -0.2278  0.3556
 2426ntf    fn415321   5.369   3.995   5.278 -0.0667  0.0995  0.6228
 2426ntf    fn415322   5.289   4.147   5.399 -0.0956  0.6559 -0.2174
 2426ntf    fn415323   5.285   4.171   5.192 -0.0290  0.4590 -0.0116
 2426ntf    on515324   5.488   4.349   5.268 -0.5520  0.0736 -0.1995
 2426ntf    on515325   5.561   4.186   5.436 -0.4153  0.3916 -0.1059
 2426ntf    on515326   5.667   4.243   4.975 -0.1766  0.1657 -0.1834
 2426ntf    on515327   5.465   4.108   4.995  0.1144  0.1740  0.3376
 2426ntf    fn415328   5.699   3.965   4.861 -0.1138  0.0456  0.2974
 2426ntf    fn415329   5.818   3.978   5.035  0.3649  0.0523 -0.0073
 2426ntf    fn415330   5.629   3.884   5.048 -0.5068 -0.2862 -0.5571
 2427ntf    cn115331   4.371   6.269   7.007 -0.1819  0.2779 -0.3440
 2427ntf    sn215332   4.452   6.382   6.889  0.5324  0.1481  0.0141
 2427ntf    nn315333   4.334   6.459   6.819  0.6189  0.4876  0.2418
 2427ntf    sn215334   4.248   6.584   6.861 -0.4169 -0.2665  0.3912
 2427ntf    cn115335   4.088   6.500   6.881 -0.5003 -0.2439 -0.1644
 2427ntf    fn415336   4.452   6.185   7.068 -0.5203  0.4357  0.3344
 2427ntf    fn415337   4.311   6.335   7.105  0.1967  0.1728 -0.0418
 2427ntf    fn415338   4.276   6.189   6.964  0.0195 -0.1585  0.0184
 2427ntf    on515339   4.545   6.461   6.965  0.1593  0.4593  0.1538
 2427ntf    on515340   4.501   6.290   6.790  0.2133 -0.0227  0.0131
 2427ntf    on515341   4.221   6.668   6.747 -0.4659  0.1591  0.7154
 2427ntf    on515342   4.272   6.655   6.984  0.4735 -0.4084  0.3045
 2427ntf    fn415343   4.073   6.446   7.000  0.4062 -0.1943 -0.0211
 2427ntf    fn415344   3.985   6.582   6.869 -0.2834  0.0695  0.1027
 2427ntf    fn415345   4.067   6.397   6.800 -0.1988 -0.4656  0.0379
 2428ntf    cn115346   2.495   2.163   1.065  0.1635 -0.2455  0.0337
 2428ntf    sn215347   2.504   2.178   0.884  0.1130  0.0913  0.0584
 2428ntf    nn315348   2.658   2.206   0.876  0.2074 -0.3428  0.2733
 2428ntf    sn215349   2.783   2.115   0.850  0.3053 -0.1022 -0.1129
 2428ntf    cn115350   2.795   2.118   0.669 -0.0542 -0.0212 -0.1355
 2428ntf    fn415351   2.572   2.066   1.112 -0.4145 -0.7595 -0.0719
 2428ntf    fn415352   2.539   2.269   1.131 -0.0551  0.1735 -0.4902
 2428ntf    fn415353   2.370   2.145   1.107 -0.0842  0.8696 -0.1925
 2428ntf    on515354   2.458   2.050   0.837 -0.2514  0.1413  0.2735
 2428ntf    on515355   2.421   2.293   0.861  0.4532  0.2912 -0.1748
 2428ntf    on515356   2.762   1.975   0.878 -0.8640  0.0886 -0.0002
 2428ntf    on515357   2.907   2.176   0.892  0.3023 -0.5804  0.6092
 2428ntf    fn415358   2.675   2.085   0.623 -0.2283  0.6896 -0.1943
 2428ntf    fn415359   2.818   2.239   0.622 -0.2820  0.1765  0.2630
 2428ntf    fn415360   2.893   2.045   0.619 -0.2022 -0.6700  0.5051
 2429ntf    cn115361   5.231   1.423   1.155  0.2830  0.1138 -0.3484
 2429ntf    sn215362   5.102   1.503   1.055 -0.1358  0.1717  0.2296
 2429ntf    nn315363   5.139   1.460   0.908  0.3446 -0.1266  0.4353
 2429ntf    sn215364   5.238   1.542   0.819  0.1745  0.0629  0.4209
 2429ntf    cn115365   5.135   1.643   0.708  0.0791 -0.2032  0.2657
 2429ntf    fn415366   5.229   1.292   1.133 -0.1302 -0.0287  0.4975
 2429ntf    fn415367   5.356   1.458   1.129  0.3513 -0.2897 -0.5651
 2429ntf    fn415368   5.216   1.436   1.286 -0.2227  0.1412 -0.4087
 2429ntf    on515369   4.986   1.432   1.103 -0.5743  0.3813 -0.5075
 2429ntf    on515370   5.111   1.639   1.100 -0.5648  0.6206 -0.9964
 2429ntf    on515371   5.294   1.450   0.723 -0.3353  0.4974 -0.3048
 2429ntf    on515372   5.324   1.641   0.878  0.0999  0.0830  0.4957
 2429ntf    fn415373   5.066   1.742   0.763 -0.0124  0.1387 -0.4578
 2429ntf    fn415374   5.219   1.706   0.628  0.3228 -0.4127  0.3530
 2429ntf    fn415375   5.055   1.574   0.628 -0.6159 -0.1827  0.9231
 2430ntf    cn115376   5.240   1.034   5.703 -0.1036 -0.0204  0.1668
 2430ntf    sn215377   5.196   0.877   5.623  0.0436 -0.0717  0.1863
 2430ntf    nn315378   5.262   0.775   5.722 -0.0485 -0.2283  0.0869
 2430ntf    sn215379   5.343   0.644   5.690 -0.1132 -0.2436 -0.0121
 2430ntf    cn115380   5.227   0.504   5.687 -0.1369 -0.2270  0.1540
 2430ntf    fn415381   5.372   1.048   5.706 -0.0458 -0.5063 -0.0042
 2430ntf    fn415382   5.196   1.146   5.647  0.2491  0.3246  0.5757
 2430ntf    fn415383   5.217   1.045   5.832  0.2305  0.0674  0.2215
 2430ntf    on515384   5.052   0.880   5.629  0.0035 -0.8268 -0.2279
 2430ntf    on515385   5.262   0.901   5.497 -0.4549  0.1212 -0.0380
 2430ntf    on515386   5.422   0.614   5.807  0.1774 -0.0373 -0.1525
 2430ntf    on515387   5.407   0.638   5.561  0.2547 -0.9606  0.2010
 2430ntf    fn415388   5.283   0.386   5.670 -0.6002 -0.4343  0.0550
 2430ntf    fn415389   5.164   0.495   5.803 -0.6971 -0.0772 -0.1317
 2430ntf    fn415390   5.134   0.531   5.596 -0.2010  0.0905  0.3099
 2431ntf    cn115391   3.675   4.215   3.266  0.2863 -0.0942 -0.2308
 2431ntf    sn215392   3.570   4.293   3.392  0.1576 -0.2540 -0.2386
 2431ntf    nn315393   3.554   4.440   3.339 -0.3434 -0.1115  0.2930
 2431ntf    sn215394   3.424   4.480   3.261 -0.0905  0.3139  0.0809
 2431ntf    cn115395   3.477   4.642   3.200 -0.2787  0.3729  0.0753
 2431ntf    fn415396   3.649   4.260   3.145  0.0209 -0.2178 -0.2198
 2431ntf    fn415397   3.801   4.247   3.289  0.2566  0.0817 -0.3113
 2431ntf    fn415398   3.657   4.084   3.260  0.1671 -0.1099  0.3737
 2431ntf    on515399   3.445   4.221   3.394 -0.0336  0.0659 -0.4523
 2431ntf    on515400   3.651   4.303   3.511 -0.7536  0.6370  0.3246
 2431ntf    on515401   3.311   4.507   3.347 -0.1424 -0.3178  0.2186
 2431ntf    on515402   3.401   4.402   3.142 -0.2924 -0.3092  0.5185
 2431ntf    fn415403   3.506   4.725   3.299 -0.5066 -0.4806  0.8674
 2431ntf    fn415404   3.580   4.639   3.117 -0.0705  0.5745  0.3241
 2431ntf    fn415405   3.382   4.700   3.128  0.1466  0.4555 -0.4220
 2432ntf    cn115406   5.455   5.736   6.418 -0.3962 -0.0574 -0.0465
 2432ntf    sn215407   5.517   5.653   6.568 -0.4889  0.1584  0.1112
 2432ntf    nn315408   5.382   5.589   6.615 -0.1814 -0.3953  0.2410
 2432ntf    sn215409   5.347   5.440   6.652 -0.1544 -0.3934  0.2759
 2432ntf    cn115410   5.264   5.393   6.497 -0.3653 -0.0188  0.2749
 2432ntf    fn415411   5.369   5.660   6.353  0.1151 -0.4664 -0.2564
 2432ntf    fn415412   5.391   5.847   6.451 -0.2712 -0.0518  0.1807
 2432ntf    fn415413   5.548   5.770   6.330 -0.4753 -0.2502 -0.2045
 2432ntf    on515414   5.616   5.564   6.514 -0.2631  0.3579  0.1912
 2432ntf    on515415   5.561   5.757   6.658  0.2183  0.1446 -0.2131
 2432ntf    on515416   5.246   5.421   6.753 -0.5914 -0.3522 -0.1482
 2432ntf    on515417   5.453   5.343   6.668  0.8155  0.5881 -0.0541
 2432ntf    fn415418   5.149   5.458   6.492 -0.3844 -0.1184 -0.8687
 2432ntf    fn415419   5.337   5.431   6.393 -0.0510 -0.1487  0.4457
 2432ntf    fn415420   5.242   5.264   6.480 -0.4088  0.0104  0.1088
 2433ntf    cn115421   0.117   2.091   2.714  0.0247 -0.1832 -0.4195
 2433ntf    sn215422   0.237   2.119   2.848 -0.1752  0.1395 -0.3064
 2433ntf    nn315423   0.167   2.046   2.967  0.1376  0.4266  0.0557
 2433ntf    sn215424   0.221   2.004   3.109 -0.0388  0.1362  0.0383
 2433ntf    cn115425   0.115   2.114   3.208 -0.3493 -0.2520  0.1412
 2433ntf    fn415426   0.065   1.970   2.705 -0.0523 -0.2277  0.5577
 2433ntf    fn415427   0.018   2.178   2.725  0.6249  0.4228  0.3677
 2433ntf    fn415428   0.168   2.117   2.595 -0.3103  0.0208 -0.5193
 2433ntf    on515429   0.355   2.060   2.788  0.3848  0.4815  0.4455
 2433ntf    on515430   0.236   2.263   2.858  0.2391  0.1290 -0.1226
 2433ntf    on515431   0.356   2.040   3.144  0.1356 -0.5384  0.0783
 2433ntf    on515432   0.188   1.866   3.136 -0.5995  0.1259 -0.6582
 2433ntf    fn415433   0.129   2.233   3.151  0.3620 -0.2836  0.2397
 2433ntf    fn415434  -0.013   2.083   3.209 -0.2913 -0.5196 -0.3042
 2433ntf    fn415435   0.150   2.124   3.335 -0.0142 -0.0877  0.0373
 2434ntf    cn115436   2.520   3.524   6.143  0.3935  0.1901 -0.2352
 2434ntf    sn215437   2.536   3.343   6.137  0.1450  0.1544  0.1392
 2434ntf    nn315438   2.457   3.297   6.265  0.1557  0.7149  0.3490
 2434ntf    sn215439   2.473   3.159   6.338  0.0631  0.3620 -0.2923
 2434ntf    cn115440   2.582   3.209   6.474 -0.2290 -0.3557  0.2095
 2434ntf    fn415441   2.393   3.559   6.133  0.1941 -0.2872  0.5193
 2434ntf    fn415442   2.576   3.569   6.254  0.0470 -0.1176  0.0645
 2434ntf    fn415443   2.582   3.583   6.042  0.2992 -0.0364 -0.4270
 2434ntf    on515444   2.466   3.305   6.016 -0.2583 -0.0776  0.4407
 2434ntf    on515445   2.678   3.332   6.153  0.1218 -0.4132 -0.0166
 2434ntf    on515446   2.544   3.053   6.269  0.0167 -0.1686  0.4597
 2434ntf    on515447   2.351   3.125   6.406  0.2099  0.5563  0.0707
 2434ntf    fn415448   2.670   3.112   6.496  0.6355  0.3881  0.0904
 2434ntf    fn415449   2.655   3.316   6.446 -0.0411 -0.5041  0.1264
 2434ntf    fn415450   2.526   3.223   6.593 -0.2707 -0.2560  0.1781
 2435ntf    cn115451   1.383   3.408   4.248 -0.1572  0.1574 -0.2325
 2435ntf    sn215452   1.503   3.478   4.366 -0.0618 -0.0868 -0.1860
 2435ntf    nn315453   1.637   3.431   4.298 -0.1274  0.2452 -0.5466
 2435ntf    sn215454   1.733   3.310   4.324 -0.1548  0.2482 -0.4320
 2435ntf    cn115455   1.847   3.391   4.441 -0.3174  0.1540 -0.2072
 2435ntf    fn415456   1.263   3.404   4.303 -0.3436 -0.7999 -0.6953
 2435ntf    fn415457   1.381   3.470   4.131 -0.6929  0.5334 -0.0252
 2435ntf    fn415458   1.412   3.281   4.228  0.2866  0.2472 -0.1690
 2435ntf    on515459   1.474   3.619   4.358 -0.2620 -0.0951  0.3815
 2435ntf    on515460   1.478   3.407   4.489  0.1358  0.6421  0.2793
 2435ntf    on515461   1.812   3.289   4.205  0.0765  0.2221 -0.2753
 2435ntf    on515462   1.678   3.195   4.393 -0.1168  0.6047  0.2027
 2435ntf    fn415463   1.974   3.365   4.419 -0.3728 -0.4343  0.1636
 2435ntf    fn415464   1.826   3.522   4.432  0.1860  0.2400 -0.1434
 2435ntf    fn415465   1.820   3.365   4.568  0.1922 -0.2481 -0.1776
 2436ntf    cn115466   5.456   0.009   0.588 -0.0578 -0.2543 -0.0898
 2436ntf    sn215467   5.360  -0.061   0.725  0.1030  0.1677  0.2405
 2436ntf    nn315468   5.476  -0.136   0.801  0.3294  0.1727 -0.1013
 2436ntf    sn215469   5.563  -0.083   0.920  0.0558 -0.1026  0.2195
 2436ntf    cn115470   5.577  -0.231   1.026  0.2607 -0.1934  0.0679
 2436ntf    fn415471   5.515  -0.087   0.519  0.0059 -0.4227  0.1975
 2436ntf    fn415472   5.384   0.087   0.508  0.1895  0.0670 -0.0045
 2436ntf    fn415473   5.558   0.080   0.633 -0.1756  0.0076 -0.2306
 2436ntf    on515474   5.303   0.060   0.778 -0.0881 -0.1461  0.7615
 2436ntf    on515475   5.270  -0.153   0.661 -0.4339  0.7490  0.1538
 2436ntf    on515476   5.509   0.013   1.013 -0.0041  0.2403 -0.1725
 2436ntf    on515477   5.700  -0.064   0.878  0.1434  0.1966  0.6315
 2436ntf    fn415478   5.650  -0.200   1.131 -0.0717 -0.6229  0.4308
 2436ntf    fn415479   5.454  -0.255   1.070 -0.0056  0.2974 -0.4013
 2436ntf    fn415480   5.630  -0.337   0.968  0.1842 -0.1082 -0.1582
 2437ntf    cn115481   2.930   4.692   2.279 -0.3583  0.0642  0.1316
 2437ntf    sn215482   3.100   4.693   2.342 -0.3475 -0.3855  0.1165
 2437ntf    nn315483   3.175   4.689   2.204 -0.0648 -0.2918  0.2672
 2437ntf    sn215484   3.292   4.772   2.141 -0.4619  0.0006 -0.0883
 2437ntf    cn115485   3.443   4.692   2.204 -0.3040  0.2766 -0.1139
 2437ntf    fn415486   2.913   4.789   2.191 -0.3656 -0.3763 -0.3602
 2437ntf    fn415487   2.901   4.585   2.205 -0.2158  0.2690 -0.2243
 2437ntf    fn415488   2.842   4.710   2.376 -0.7667  0.2388 -0.2667
 2437ntf    on515489   3.113   4.813   2.421  0.4308 -0.4460  0.0889
 2437ntf    on515490   3.110   4.568   2.412 -0.4218 -0.3432  0.2030
 2437ntf    on515491   3.296   4.908   2.188 -0.0416  0.1040 -0.4071
 2437ntf    on515492   3.302   4.750   1.998 -0.0241  0.1443 -0.0819
 2437ntf    fn415493   3.552   4.721   2.135  0.0956 -0.2529  0.2807
 2437ntf    fn415494   3.467   4.742   2.324  0.2981 -0.2642 -0.0014
 2437ntf    fn415495   3.439   4.560   2.213  0.5075  0.2776  0.3542
 2438ntf    cn115496   2.945   1.514   1.913 -0.3504  0.3001 -0.4148
 2438ntf    sn215497   2.849   1.665   1.879 -0.4842  0.3369  0.1225
 2438ntf    nn315498   2.841   1.674   1.723  0.3765 -0.1586  0.0435
 2438ntf    sn215499   2.936   1.747   1.621  0.0276  0.0447 -0.1376
 2438ntf    cn115500   2.929   1.630   1.482  0.0059  0.0283 -0.1226
 2438ntf    fn415501   2.943   1.484   2.042 -0.0814  0.0984 -0.4568
 2438ntf    fn415502   2.903   1.400   1.859  0.1073  0.1742 -0.5057
 2438ntf    fn415503   3.069   1.527   1.870 -0.2285 -0.1858 -0.2197
 2438ntf    on515504   2.728   1.617   1.940 -0.2917 -0.4844 -0.1299
 2438ntf    on515505   2.920   1.771   1.947 -0.5565  0.1816  0.4468
 2438ntf    on515506   3.075   1.741   1.660 -0.0060  0.1775  0.0056
 2438ntf    on515507   2.882   1.871   1.571 -0.9880 -0.3209  0.0249
 2438ntf    fn415508   3.018   1.655   1.388  0.0663  0.1121 -0.0426
 2438ntf    fn415509   2.955   1.508   1.527  0.3235  0.0685 -0.1942
 2438ntf    fn415510   2.813   1.639   1.418 -0.0711 -0.1158 -0.0053
 2439ntf    cn115511   4.183   1.935   3.602  0.3571 -0.3096  0.1523
 2439ntf    sn215512   4.220   2.033   3.751 -0.0496  0.1195 -0.0229
 2439ntf    nn315513   4.202   2.173   3.682 -0.2725  0.3575  0.5154
 2439ntf    sn215514   4.315   2.280   3.665  0.0843 -0.0997 -0.0260
 2439ntf    cn115515   4.331   2.342   3.835 -0.0065 -0.0715 -0.0273
 2439ntf    fn415516   4.269   1.947   3.502  0.1416 -0.5881 -0.0687
 2439ntf    fn415517   4.173   1.809   3.638 -0.0669 -0.2740  0.1688
 2439ntf    fn415518   4.064   1.966   3.552  0.5215  0.0496 -0.0195
 2439ntf    on515519   4.108   1.997   3.834  0.3804 -0.0337  0.4946
 2439ntf    on515520   4.352   1.990   3.792 -0.1661 -0.3595 -0.1390
 2439ntf    on515521   4.268   2.405   3.609  0.6168 -0.0404 -0.3486
 2439ntf    on515522   4.444   2.232   3.621  0.2698  0.2313  0.1544
 2439ntf    fn415523   4.418   2.441   3.849 -0.4505  0.3208 -0.0342
 2439ntf    fn415524   4.211   2.384   3.872  0.2470  0.6051  0.0454
 2439ntf    fn415525   4.372   2.247   3.917  0.1875  0.0058 -0.0324
 2440ntf    cn115526   0.373   1.201   0.020  0.0608 -0.4525 -0.4640
 2440ntf    sn215527   0.407   1.060  -0.090 -0.2266 -0.7341 -0.1948
 2440ntf    nn315528   0.290   0.959  -0.064 -0.6453 -0.1472  0.2455
 2440ntf    sn215529   0.291   0.831   0.027  0.1034 -0.2533  0.0948
 2440ntf    cn115530   0.159   0.736  -0.055 -0.0598 -0.1254  0.2093
 2440ntf    fn415531   0.390   1.181   0.150  0.1221 -0.0806 -0.4131
 2440ntf    fn415532   0.459   1.298  -0.006  0.0805 -0.2870  0.1971
 2440ntf    fn415533   0.248   1.246   0.012 -0.0996 -0.8289 -0.0961
 2440ntf    on515534   0.388   1.123  -0.218  0.3683 -0.4226 -0.1317
 2440ntf    on515535   0.538   1.013  -0.051  0.0510  0.2564  0.0971
 2440ntf    on515536   0.223   0.850   0.153  0.2815  0.0514  0.1452
 2440ntf    on515537   0.410   0.750   0.025  0.3998  0.1808  0.0526
 2440ntf    fn415538   0.036   0.783  -0.053  0.0567  0.1810  0.1986
 2440ntf    fn415539   0.197   0.703  -0.177  0.5302 -0.0803  0.3778
 2440ntf    fn415540   0.156   0.619   0.007  0.8913 -0.1789  0.1666
 2441ntf    cn115541   1.251   2.336   1.939 -0.0915  0.0374 -0.1820
 2441ntf    sn215542   1.424   2.305   1.893 -0.0568 -0.2770  0.1581
 2441ntf    nn315543   1.404   2.213   1.768 -0.4139 -0.1682  0.1337
 2441ntf    sn215544   1.375   2.264   1.623  0.0973 -0.0927  0.0574
 2441ntf    cn115545   1.325   2.110   1.540 -0.3092 -0.0342  0.1938
 2441ntf    fn415546   1.189   2.413   1.851  0.3107  0.2587 -0.2754
 2441ntf    fn415547   1.183   2.223   1.938 -0.3920  0.2105  0.2303
 2441ntf    fn415548   1.230   2.390   2.058 -0.1963 -0.1375 -0.1204
 2441ntf    on515549   1.476   2.436   1.863 -0.2576 -0.4170 -0.8085
 2441ntf    on515550   1.472   2.236   2.010 -0.8328 -0.2489  0.5011
 2441ntf    on515551   1.493   2.309   1.553 -0.1589  0.7656  0.1579
 2441ntf    on515552   1.257   2.346   1.615  0.2950  0.2009  0.1253
 2441ntf    fn415553   1.314   2.120   1.409 -0.2100 -0.1027  0.1805
 2441ntf    fn415554   1.406   2.006   1.548 -0.4161 -0.1936 -0.7559
 2441ntf    fn415555   1.206   2.073   1.584 -0.1662 -0.0518  0.5706
 2442ntf    cn115556   4.672   3.581   4.419 -0.0175  0.1043 -0.1009
 2442ntf    sn215557   4.822   3.514   4.341 -0.2047 -0.2045 -0.1962
 2442ntf    nn315558   4.883   3.434   4.462  0.0781  0.3156  0.0061
 2442ntf    sn215559   4.978   3.491   4.573  0.7156 -0.0026 -0.3672
 2442ntf    cn115560   5.131   3.398   4.541  0.5909 -0.1067 -0.6625
 2442ntf    fn415561   4.615   3.485   4.490  0.1465  0.5028  0.5785
 2442ntf    fn415562   4.703   3.672   4.510 -0.4290  0.7095 -0.5622
 2442ntf    fn415563   4.583   3.617   4.328 -0.0606 -0.5756 -0.3371
 2442ntf    on515564   4.779   3.426   4.235 -0.3660 -0.3970  0.0289
 2442ntf    on515565   4.892   3.635   4.306  0.3490 -0.5575 -0.3199
 2442ntf    on515566   4.938   3.437   4.701 -0.2616 -0.0012 -0.6678
 2442ntf    on515567   5.018   3.629   4.563  0.1259  0.2278  0.4058
 2442ntf    fn415568   5.123   3.276   4.593  0.3868  0.1806 -0.0064
 2442ntf    fn415569   5.155   3.403   4.411  0.0743  0.0142 -0.7577
 2442ntf    fn415570   5.237   3.449   4.601 -0.2013  0.2802  0.4518
 2443ntf    cn115571   5.526   2.900   5.626  0.4920 -0.3568 -0.3116
 2443ntf    sn215572   5.450   2.736   5.615 -0.2873 -0.0237 -0.0184
 2443ntf    nn315573   5.540   2.671   5.726  0.0461  0.2931 -0.1005
 2443ntf    sn215574   5.652   2.562   5.706 -0.1421  0.0084  0.3816
 2443ntf    cn115575   5.565   2.408   5.748  0.0827 -0.1701  0.1903
 2443ntf    fn415576   5.654   2.895   5.593  0.4868  0.5372 -0.5030
 2443ntf    fn415577   5.466   2.985   5.544 -0.0403 -0.2516  0.1787
 2443ntf    fn415578   5.523   2.953   5.748 -0.2120  0.0943 -0.5181
 2443ntf    on515579   5.313   2.755   5.656 -0.3380  0.1388 -0.2619
 2443ntf    on515580   5.472   2.696   5.478 -0.3218 -0.4894  0.1096
 2443ntf    on515581   5.758   2.577   5.803  0.3473  0.3111 -0.1917
 2443ntf    on515582   5.687   2.545   5.568 -0.3316  0.1308  0.3170
 2443ntf    fn415583   5.534   2.416   5.876 -0.3968  0.5088  0.0398
 2443ntf    fn415584   5.452   2.381   5.683 -0.1681  0.3582  0.3978
 2443ntf    fn415585   5.643   2.302   5.743  0.1785 -0.0840 -0.1934
 2444ntf    cn115586   0.331   5.554   1.346  0.2596  0.2285 -0.7210
 2444ntf    sn215587   0.402   5.436   1.227  0.2736 -0.3252 -0.1663
 2444ntf    nn315588   0.361   5.302   1.297  0.0063  0.0500  0.4109
 2444ntf    sn215589   0.444   5.189   1.369  0.1372 -0.2157 -0.1475
 2444ntf    cn115590   0.304   5.091   1.430  0.0506  0.1640  0.2733
 2444ntf    fn415591   0.348   5.679   1.306  0.1032  0.6365  0.4545
 2444ntf    fn415592   0.202   5.537   1.369  0.4213  0.3121  0.2779
 2444ntf    fn415593   0.383   5.546   1.467 -0.4973  0.2266 -0.3910
 2444ntf    on515594   0.328   5.459   1.105 -0.1955 -0.4008  0.0985
 2444ntf    on515595   0.543   5.463   1.234  0.2697 -0.2361 -0.4365
 2444ntf    on515596   0.523   5.219   1.486  0.1362 -0.5974 -0.0496
 2444ntf    on515597   0.502   5.105   1.267  0.0874 -0.1872 -0.1995
 2444ntf    fn415598   0.346   4.976   1.480 -0.4237  0.0012  0.3068
 2444ntf    fn415599   0.246   5.152   1.532 -0.0366 -0.1067  0.3881
 2444ntf    fn415600   0.213   5.071   1.335  0.1394  0.1963  0.1813
 2445ntf    cn115601   2.233   0.272   3.212  0.2136 -0.1755 -0.1240
 2445ntf    sn215602   2.320   0.314   3.365  0.0031 -0.0347 -0.0425
 2445ntf    nn315603   2.354   0.172   3.424 -0.3571 -0.0298  0.1806
 2445ntf    sn215604   2.473   0.080   3.380 -0.0278  0.5580 -0.1793
 2445ntf    cn115605   2.364  -0.046   3.309  0.2064  0.4096 -0.2781
 2445ntf    fn415606   2.205   0.385   3.149 -0.2438 -0.0752  0.2556
 2445ntf    fn415607   2.309   0.196   3.135  0.3499 -0.2249  0.0608
 2445ntf    fn415608   2.125   0.199   3.235  0.3994 -0.3183  0.2979
 2445ntf    on515609   2.428   0.391   3.307 -0.5443  0.4959 -0.3659
 2445ntf    on515610   2.217   0.380   3.443  0.5120 -0.4518  1.0086
 2445ntf    on515611   2.538   0.019   3.494  0.3412  0.2081 -0.5743
 2445ntf    on515612   2.558   0.113   3.268  0.2003 -0.5787 -0.3524
 2445ntf    fn415613   2.432  -0.149   3.262  0.3344  0.3827 -0.0365
 2445ntf    fn415614   2.271  -0.096   3.389  0.3465 -0.2162 -0.4982
 2445ntf    fn415615   2.294  -0.000   3.206  0.0626  0.2314 -0.2619
 2446ntf    cn115616   6.036   5.222   5.883 -0.1306  0.1886 -0.1156
 2446ntf    sn215617   6.121   5.111   5.767  0.0428 -0.2223  0.4035
 2446ntf    nn315618   6.273   5.135   5.800  0.0575  0.2834 -0.0291
 2446ntf    sn215619   6.374   5.069   5.899 -0.2614 -0.3750 -0.1329
 2446ntf    cn115620   6.532   5.145   5.849 -0.1330 -0.2980  0.3752
 2446ntf    fn415621   6.085   5.345   5.875 -0.1397  0.1989 -0.0196
 2446ntf    fn415622   5.906   5.222   5.857 -0.0691 -0.1490 -0.4298
 2446ntf    fn415623   6.048   5.177   6.007 -0.2138 -0.1018 -0.2113
 2446ntf    on515624   6.070   4.978   5.792 -0.0036 -0.1954  0.4549
 2446ntf    on515625   6.092   5.164   5.636  0.0821  0.0736  0.5154
 2446ntf    on515626   6.394   4.929   5.869 -0.5871 -0.2661 -0.8678
 2446ntf    on515627   6.351   5.113   6.035  0.1255  0.6332 -0.3883
 2446ntf    fn415628   6.635   5.088   5.909  0.1296  0.1539  0.3546
 2446ntf    fn415629   6.547   5.133   5.718  0.5640 -0.0827  0.4313
 2446ntf    fn415630   6.533   5.276   5.866 -0.1515 -0.2537  0.0498
 2447ntf    cn115631   4.812   6.548   5.604  0.3993  0.0513  0.1789
 2447ntf    sn215632   4.729   6.386   5.594 -0.2089  0.3564  0.2558
 2447ntf    nn315633   4.590   6.435   5.537  0.1128  0.2046 -0.6796
 2447ntf    sn215634   4.467   6.473   5.626  0.2267 -0.4553 -0.2287
 2447ntf    cn115635   4.393   6.592   5.510  0.3183 -0.1371  0.0366
 2447ntf    fn415636   4.846   6.595   5.485 -0.0945 -0.4578 -0.1725
 2447ntf    fn415637   4.733   6.636   5.664  0.1339  0.1111 -0.2497
 2447ntf    fn415638   4.922   6.538   5.675  0.3776 -0.4900  0.1396
 2447ntf    on515639   4.807   6.309   5.501 -0.7345  0.1929 -0.0576
 2447ntf    on515640   4.732   6.339   5.730 -0.2372  0.0107  0.1371
 2447ntf    on515641   4.493   6.550   5.746 -0.6930 -0.4201 -0.0394
 2447ntf    on515642   4.365   6.372   5.639  0.0212 -0.2431 -0.1776
 2447ntf    fn415643   4.293   6.662   5.562  0.7383 -0.0343  0.7195
 2447ntf    fn415644   4.474   6.689   5.471 -0.3763  0.5507  0.2800
 2447ntf    fn415645   4.360   6.528   5.399  0.3280 -0.3809  0.1727
 2448ntf    cn115646   0.124   5.110   0.739 -0.0468 -0.1734  0.0480
 2448ntf    sn215647   0.148   4.930   0.736 -0.2985 -0.2101  0.1357
 2448ntf    nn315648   0.257   4.905   0.626  0.1435  0.1274  0.4920
 2448ntf    sn215649   0.395   4.830   0.635  0.0998 -0.0470 -0.2324
 2448ntf    cn115650   0.514   4.961   0.593  0.1024 -0.1967 -0.6996
 2448ntf    fn415651   0.043   5.157   0.833 -0.3849  0.3228 -0.4790
 2448ntf    fn415652   0.237   5.177   0.750 -0.4781  0.5804 -0.0368
 2448ntf    fn415653   0.060   5.166   0.638 -0.4860 -0.8284 -0.0451
 2448ntf    on515654   0.204   4.918   0.869 -0.3310  0.4624  0.2131
 2448ntf    on515655   0.016   4.885   0.700 -0.3508  0.0520  0.0016
 2448ntf    on515656   0.419   4.734   0.530  0.1759  0.2256 -0.4685
 2448ntf    on515657   0.442   4.790   0.765 -0.4631 -0.2139 -0.0799
 2448ntf    fn415658   0.507   5.061   0.680  0.3735 -0.3418 -0.5069
 2448ntf    fn415659   0.634   4.906   0.605  0.0253 -0.3290 -0.5282
 2448ntf    fn415660   0.507   4.999   0.466  0.9108  0.6839 -0.4924
 2449ntf    cn115661   6.703   0.077   4.840  0.1114  0.3094 -0.2617
 2449ntf    sn215662   6.528   0.103   4.801  0.0339 -0.1988 -0.2657
 2449ntf    nn315663   6.486  -0.047   4.786  0.1084 -0.1846 -0.6436
 2449ntf    sn215664   6.367  -0.121   4.858  0.0429  0.2019 -0.3515
 2449ntf    cn115665   6.452  -0.177   5.009 -0.0798  0.1216 -0.3115
 2449ntf    fn415666   6.766   0.004   4.748  0.0165  0.0521 -0.1229
 2449ntf    fn415667   6.774   0.187   4.860 -0.5543  0.7018 -0.0379
 2449ntf    fn415668   6.712   0.009   4.953  0.4250  0.1158 -0.4015
 2449ntf    on515669   6.484   0.181   4.914 -0.0181 -0.0553 -0.3841
 2449ntf    on515670   6.544   0.178   4.679 -0.0569  0.6884  0.2556
 2449ntf    on515671   6.335  -0.247   4.796  0.2898  0.0056 -0.0819
 2449ntf    on515672   6.261  -0.044   4.919  0.2262  0.0468  0.1707
 2449ntf    fn415673   6.557  -0.252   4.980  0.2596  0.3892  0.2129
 2449ntf    fn415674   6.492  -0.076   5.084  0.4533 -0.2722 -0.0569
 2449ntf    fn415675   6.377  -0.251   5.089 -0.1515  0.5971  0.0641
 2450ntf    cn115676   3.897   2.775   1.279 -0.2426 -0.2752  0.1442
 2450ntf    sn215677   3.892   2.937   1.198 -0.4687 -0.2800  0.1479
 2450ntf    nn315678   3.950   3.033   1.308  0.3789 -0.5645 -0.0443
 2450ntf    sn215679   4.098   3.080   1.332  0.1358  0.1035  0.1609
 2450ntf    cn115680   4.125   3.214   1.212  0.1283  0.1740  0.2376
 2450ntf    fn415681   3.876   2.679   1.191  0.7647  0.0109 -0.4118
 2450ntf    fn415682   4.013   2.750   1.337 -0.0967  0.0178 -0.0230
 2450ntf    fn415683   3.814   2.762   1.382 -0.0279  0.1761  0.3787
 2450ntf    on515684   3.985   2.929   1.088 -0.6406  0.0683 -0.0260
 2450ntf    on515685   3.754   2.961   1.161 -0.7586 -0.4875  1.0844
 2450ntf    on515686   4.198   2.985   1.290  0.0894  0.2243 -0.2308
 2450ntf    on515687   4.115   3.136   1.463  0.1989 -0.3249  0.3359
 2450ntf    fn415688   4.119   3.174   1.086  0.0737  0.2516  0.2154
 2450ntf    fn415689   4.039   3.313   1.229  0.2827  0.3884 -0.2074
 2450ntf    fn415690   4.245   3.263   1.237  0.1127  0.3606 -0.0515
 2451ntf    cn115691   2.422   0.821   1.730 -0.3229  0.1997  0.2944
 2451ntf    sn215692   2.284   0.900   1.644 -0.0799  0.0701 -0.2177
 2451ntf    nn315693   2.367   1.010   1.569  0.5232  0.2799  0.7480
 2451ntf    sn215694   2.314   1.090   1.445 -0.0170 -0.0113  0.7842
 2451ntf    cn115695   2.406   1.014   1.307 -0.2916 -0.1735  0.6898
 2451ntf    fn415696   2.477   0.896   1.824  0.2295  0.0414  0.1015
 2451ntf    fn415697   2.377   0.710   1.787 -0.2481 -0.2167 -0.4451
 2451ntf    fn415698   2.526   0.784   1.657 -0.5149 -0.0158  0.1300
 2451ntf    on515699   2.221   0.796   1.565  0.0958 -0.0589 -0.1878
 2451ntf    on515700   2.196   0.962   1.740 -0.1618 -0.3873  0.0048
 2451ntf    on515701   2.363   1.226   1.453 -0.1884  0.0751  0.4147
 2451ntf    on515702   2.175   1.078   1.411  0.2701 -0.7278 -0.1771
 2451ntf    fn415703   2.378   1.080   1.196  0.0200 -0.3120  0.5282
 2451ntf    fn415704   2.538   1.018   1.322 -0.2187 -0.2525  0.0738
 2451ntf    fn415705   2.379   0.885   1.296  0.2601 -0.2527  0.2224
 2452ntf    cn115706   5.967   0.937   2.032  0.6642  0.1443  0.3033
 2452ntf    sn215707   5.885   1.095   1.994  0.4039 -0.0339  0.1232
 2452ntf    nn315708   5.994   1.168   1.908  0.3675 -0.2602 -0.1183
 2452ntf    sn215709   6.068   1.305   1.931 -0.5550  0.2011  0.1325
 2452ntf    cn115710   6.238   1.259   1.888 -0.4478  0.2260  0.5342
 2452ntf    fn415711   5.983   0.926   2.163 -0.5856  0.2336  0.4756
 2452ntf    fn415712   5.888   0.838   1.994  0.2743  0.4444  0.3235
 2452ntf    fn415713   6.082   0.918   1.970  0.4517  0.1021 -0.0763
 2452ntf    on515714   5.769   1.055   1.918  0.2941  0.2000  0.1703
 2452ntf    on515715   5.858   1.146   2.125  0.1310 -0.4394  0.2264
 2452ntf    on515716   6.074   1.359   2.065 -0.3931  0.2487  0.1062
 2452ntf    on515717   6.039   1.400   1.826 -0.0154  0.3581  0.1221
 2452ntf    fn415718   6.314   1.364   1.913 -0.2122  0.1945 -0.0375
 2452ntf    fn415719   6.289   1.163   1.963  0.0230 -0.1215 -0.2212
 2452ntf    fn415720   6.265   1.225   1.763 -0.2155  0.3956  0.5374
 2453ntf    cn115721   6.399   5.325   0.903  0.3976  0.1345  0.0849
 2453ntf    sn215722   6.355   5.303   1.078 -0.1669 -0.0991 -0.0822
 2453ntf    nn315723   6.207   5.250   1.081 -0.2179  0.0521  0.0627
 2453ntf    sn215724   6.065   5.304   1.117 -0.2199  0.0547  0.0520
 2453ntf    cn115725   5.976   5.298   0.959  0.3257  0.0823 -0.2542
 2453ntf    fn415726   6.526   5.360   0.896  0.7143 -0.9043  0.3405
 2453ntf    fn415727   6.380   5.209   0.841  0.4284  0.2132 -0.0735
 2453ntf    fn415728   6.324   5.414   0.839 -0.1394 -0.6550 -0.4187
 2453ntf    on515729   6.446   5.196   1.110  0.0337  0.0011 -0.3159
 2453ntf    on515730   6.382   5.435   1.128  0.0705 -0.0758 -0.2709
 2453ntf    on515731   6.063   5.444   1.155  0.1155  0.2217 -0.5333
 2453ntf    on515732   5.994   5.207   1.197 -0.1080 -0.5468 -0.5769
 2453ntf    fn415733   5.847   5.318   0.976  0.3078 -0.1154 -0.1504
 2453ntf    fn415734   6.020   5.393   0.877  0.0603  0.3658 -0.0684
 2453ntf    fn415735   5.989   5.181   0.899  0.0463 -0.0245 -0.1071
 2454ntf    cn115736   5.696   1.776   4.847 -0.0139  0.3969  0.0414
 2454ntf    sn215737   5.805   1.892   4.934  0.0406  0.4228 -0.0619
 2454ntf    nn315738   5.863   1.806   5.052  0.0393  0.4517 -0.0399
 2454ntf    sn215739   5.998   1.726   5.055 -0.1367  0.1478 -0.1240
 2454ntf    cn115740   5.955   1.605   5.183  0.4775 -0.2173 -0.2572
 2454ntf    fn415741   5.604   1.747   4.938  0.0159 -0.3495 -0.1587
 2454ntf    fn415742   5.630   1.820   4.741 -0.0446 -0.1918 -0.1890
 2454ntf    fn415743   5.761   1.664   4.819 -1.0236 -0.3616  0.6898
 2454ntf    on515744   5.902   1.938   4.838  0.1058 -0.1129 -0.2561
 2454ntf    on515745   5.724   1.994   4.995 -0.0995  0.2247  0.0838
 2454ntf    on515746   6.106   1.791   5.126  0.0958 -0.1468 -0.2068
 2454ntf    on515747   6.031   1.651   4.937 -0.0358 -0.3847  0.2391
 2454ntf    fn415748   5.922   1.660   5.299 -0.1271  0.0133 -0.5317
 2454ntf    fn415749   5.846   1.536   5.151  0.5317 -0.2575 -0.3559
 2454ntf    fn415750   6.054   1.524   5.216  0.1607 -0.5347 -0.0712
 2455ntf    cn115751   6.973   4.831   1.798 -0.1309  0.0203  0.1786
 2455ntf    sn215752   6.837   4.897   1.697 -0.1719 -0.2347  0.0686
 2455ntf    nn315753   6.811   5.034   1.768 -0.6332 -0.2971  0.0260
 2455ntf    sn215754   6.831   5.184   1.727  0.1766 -0.3350  0.2684
 2455ntf    cn115755   6.813   5.272   1.885  0.0057  0.1745 -0.0318
 2455ntf    fn415756   7.029   4.733   1.730 -0.5297 -0.2876  0.2940
 2455ntf    fn415757   7.063   4.923   1.827 -0.4014  0.3483 -0.0103
 2455ntf    fn415758   6.931   4.790   1.917 -0.3090 -0.5371 -0.0772
 2455ntf    on515759   6.895   4.911   1.565 -0.5977 -0.2663 -0.1246
 2455ntf    on515760   6.724   4.808   1.713 -0.8485  0.5142 -0.4501
 2455ntf    on515761   6.714   5.226   1.655  0.2071  0.4513  0.6636
 2455ntf    on515762   6.967   5.219   1.691  0.0521  0.1526  0.2621
 2455ntf    fn415763   6.858   5.396   1.882 -0.1434  0.2380  0.2777
 2455ntf    fn415764   6.690   5.281   1.934  0.1567  0.1128  0.3627
 2455ntf    fn415765   6.882   5.213   1.981 -0.2020  0.5294  0.3398
 2456ntf    cn115766   5.496   5.038   4.010  0.1108 -0.5181 -0.2939
 2456ntf    sn215767   5.416   4.894   3.934 -0.0861 -0.7479  0.3377
 2456ntf    nn315768   5.545   4.825   3.876  0.2750  0.0895  0.1274
 2456ntf    sn215769   5.595   4.808   3.728 -0.1638  0.1897 -0.0318
 2456ntf    cn115770   5.482   4.684   3.657 -0.0815  0.1736 -0.1366
 2456ntf    fn415771   5.554   5.113   3.918  0.3036 -0.1007  0.1637
 2456ntf    fn415772   5.415   5.125   4.069  0.2473 -0.3572 -0.3424
 2456ntf    fn415773   5.590   5.002   4.096  0.1278 -0.0769 -0.1252
 2456ntf    on515774   5.346   4.828   4.041 -1.0681 -0.2776 -0.0134
 2456ntf    on515775   5.327   4.952   3.837  0.0723  0.2571  0.7844
 2456ntf    on515776   5.720   4.736   3.720 -0.5278 -0.5562  0.7994
 2456ntf    on515777   5.586   4.921   3.639  0.7859 -0.1210 -0.5387
 2456ntf    fn415778   5.465   4.592   3.751 -0.3132  0.7747  0.4264
 2456ntf    fn415779   5.361   4.723   3.619 -0.2371 -0.2944 -0.1204
 2456ntf    fn415780   5.539   4.625   3.554  0.7381  0.3743  0.1982
 2457ntf    cn115781   4.917   1.536   1.866 -0.0209 -0.1993 -0.1581
 2457ntf    sn215782   5.056   1.443   1.794  0.2183  0.0720 -0.0482
 2457ntf    nn315783   5.076   1.321   1.892 -0.2277  0.2231  0.2359
 2457ntf    sn215784   5.202   1.276   1.974 -0.1906  0.2599  0.1998
 2457ntf    cn115785   5.151   1.105   2.008  0.0946  0.1343  0.0026
 2457ntf    fn415786   4.943   1.578   1.988 -0.0039  0.3334 -0.3446
 2457ntf    fn415787   4.879   1.639   1.793  0.7597  0.1351 -0.1043
 2457ntf    fn415788   4.809   1.460   1.877 -0.0809 -0.1938 -0.6743
 2457ntf    on515789   5.015   1.404   1.661  0.4016  0.1881 -0.1398
 2457ntf    on515790   5.166   1.534   1.809 -0.1804  0.5616 -0.0826
 2457ntf    on515791   5.219   1.341   2.102  0.3162  0.4705  0.0280
 2457ntf    on515792   5.324   1.258   1.899 -0.5363  0.0069 -0.3105
 2457ntf    fn415793   5.037   1.085   2.073 -0.0737  0.1324 -0.2893
 2457ntf    fn415794   5.133   1.047   1.890 -0.2214  0.4219 -0.0917
 2457ntf    fn415795   5.242   1.032   2.070  0.3029  0.2063 -0.2180
 2458ntf    cn115796   6.832   1.825   3.492 -0.0030 -0.4806 -0.0926
 2458ntf    sn215797   6.667   1.856   3.561  0.2300  0.0996  0.2103
 2458ntf    nn315798   6.628   1.707   3.591  0.4008 -0.0860 -0.4669
 2458ntf    sn215799   6.557   1.587   3.520 -0.2400  0.0801 -0.1088
 2458ntf    cn115800   6.451   1.525   3.655  0.1172 -0.2652  0.0149
 2458ntf    fn415801   6.894   1.938   3.464 -0.8366 -0.1284 -0.5549
 2458ntf    fn415802   6.910   1.757   3.575  0.0213 -0.1226  0.1781
 2458ntf    fn415803   6.822   1.763   3.375 -0.7944 -0.0333 -0.2652
 2458ntf    on515804   6.693   1.938   3.676 -0.4022  0.1821  0.2952
 2458ntf    on515805   6.590   1.920   3.457  0.4456  0.5824  0.3457
 2458ntf    on515806   6.653   1.483   3.491  0.0775  0.2283  0.3994
 2458ntf    on515807   6.462   1.617   3.416 -0.2349  0.6228  0.0435
 2458ntf    fn415808   6.342   1.597   3.672  0.4200  0.2960 -0.3731
 2458ntf    fn415809   6.402   1.403   3.645 -0.0438 -0.1852 -0.1880
 2458ntf    fn415810   6.509   1.535   3.774  0.4501  0.3830 -0.1964
 2459ntf    cn115811   6.926   5.108   3.180 -0.3832  0.0123  0.0747
 2459ntf    sn215812   6.960   5.149   3.007  0.2530  0.1829  0.2383
 2459ntf    nn315813   7.081   5.249   3.013  0.1787  0.2659  0.3306
 2459ntf    sn215814   7.207   5.253   2.920 -0.2064 -0.2863 -0.2179
 2459ntf    cn115815   7.145   5.226   2.751 -0.1755 -0.1483 -0.2520
 2459ntf    fn415816   7.037   5.068   3.241 -0.4812 -0.0749  0.1972
 2459ntf    fn415817   6.871   5.208   3.247 -0.5939 -0.0270 -0.0385
 2459ntf    fn415818   6.844   5.005   3.189  0.1630 -0.4128  0.2671
 2459ntf    on515819   6.992   5.024   2.942  0.1095 -0.1460  0.7909
 2459ntf    on515820   6.838   5.213   2.967  0.4057  0.0900 -0.3884
 2459ntf    on515821   7.302   5.147   2.936  0.6208  0.4323 -0.2709
 2459ntf    on515822   7.263   5.386   2.912 -0.5249 -0.1808 -0.7841
 2459ntf    fn415823   7.104   5.102   2.728 -0.4333 -0.1486  0.1995
 2459ntf    fn415824   7.034   5.294   2.729  0.1187  0.5231  0.3334
 2459ntf    fn415825   7.229   5.264   2.656 -0.2474  0.3597 -0.1116
 2460ntf    cn115826   4.300   5.186   2.953 -0.1271  0.0924 -0.2365
 2460ntf    sn215827   4.272   5.300   3.091  0.1112 -0.0894 -0.0338
 2460ntf    nn315828   4.384   5.262   3.193  0.3140  0.3350 -0.0972
 2460ntf    sn215829   4.385   5.299   3.346  0.1274  0.0686 -0.0322
 2460ntf    cn115830   4.499   5.174   3.411  0.0865 -0.0655 -0.2186
 2460ntf    fn415831   4.208   5.192   2.859  0.2772 -0.2877 -0.6653
 2460ntf    fn415832   4.415   5.220   2.896  0.0924 -0.3979 -0.0956
 2460ntf    fn415833   4.312   5.060   2.993  0.1451  0.1143 -0.2463
 2460ntf    on515834   4.308   5.427   3.033 -0.1453 -0.3020 -0.6739
 2460ntf    on515835   4.133   5.276   3.123  0.1340 -0.1464  0.0232
 2460ntf    on515836   4.259   5.273   3.412 -0.3522  0.1898 -0.8917
 2460ntf    on515837   4.453   5.421   3.381  0.2314 -0.1249  0.4544
 2460ntf    fn415838   4.611   5.161   3.340  0.1819  0.0496 -0.0896
 2460ntf    fn415839   4.544   5.215   3.528 -0.2803  0.1113 -0.1386
 2460ntf    fn415840   4.442   5.055   3.417  0.3839 -0.2059 -0.1281
 2461ntf    cn115841   4.022   1.002   6.629 -0.4781 -0.4758  0.0284
 2461ntf    sn215842   4.185   0.936   6.583 -0.0780 -0.0012  0.7499
 2461ntf    nn315843   4.169   0.933   6.427  0.0070 -0.1035  0.7418
 2461ntf    sn215844   4.274   0.878   6.325 -0.2995 -0.0234  0.3803
 2461ntf    cn115845   4.192   0.717   6.304 -0.3026  0.0421 -0.1169
 2461ntf    fn415846   4.015   1.127   6.586 -0.5094 -0.5302 -0.1267
 2461ntf    fn415847   3.919   0.925   6.596 -0.5086 -0.6074  0.4290
 2461ntf    fn415848   4.013   1.027   6.759  0.0313  0.9533 -0.1941
 2461ntf    on515849   4.273   1.036   6.638  0.3803  0.0697 -0.1075
 2461ntf    on515850   4.195   0.807   6.648 -0.1273 -0.3497  0.0748
 2461ntf    on515851   4.398   0.832   6.384  0.0662  0.0541 -0.3155
 2461ntf    on515852   4.268   0.934   6.192  0.1415 -0.2477  0.2655
 2461ntf    fn415853   4.217   0.678   6.180 -0.2154 -0.0422 -0.0725
 2461ntf    fn415854   4.236   0.617   6.378 -0.4709  0.1202  0.0885
 2461ntf    fn415855   4.060   0.720   6.313 -0.3046  0.4262 -0.2473
 2462ntf    cn115856   0.113   4.193   1.200  0.0362 -0.1840  0.1509
 2462ntf    sn215857   0.189   4.028   1.207 -0.1329 -0.2693 -0.0211
 2462ntf    nn315858   0.324   4.050   1.284 -0.0270  0.3984 -0.3889
 2462ntf    sn215859   0.472   4.060   1.231 -0.0591  0.3533 -0.4860
 2462ntf    cn115860   0.513   4.237   1.234 -0.0038  0.3277  0.2647
 2462ntf    fn415861   0.192   4.292   1.161 -0.0616 -0.3202 -0.4033
 2462ntf    fn415862   0.010   4.192   1.118  0.0496  0.1215  0.1308
 2462ntf    fn415863   0.064   4.224   1.319  0.7190 -0.4505  0.5126
 2462ntf    on515864   0.104   3.946   1.289 -0.3250 -0.5448 -0.4935
 2462ntf    on515865   0.197   3.989   1.068 -0.4477 -1.0116  0.1652
 2462ntf    on515866   0.507   4.012   1.099  0.7622  0.4171 -0.2956
 2462ntf    on515867   0.559   4.015   1.337 -0.0645  0.0625 -0.6031
 2462ntf    fn415868   0.444   4.314   1.153 -0.0162 -0.1668 -0.1985
 2462ntf    fn415869   0.501   4.286   1.357 -0.1894 -0.0533  0.3999
 2462ntf    fn415870   0.638   4.258   1.196  0.0452 -0.0937  0.1844
 2463ntf    cn115871   4.764   3.043   6.840  0.1672  0.6958  0.2256
 2463ntf    sn215872   4.643   2.907   6.850  0.4319  0.4192 -0.2979
 2463ntf    nn315873   4.508   2.979   6.817 -0.0036 -0.1017  0.3124
 2463ntf    sn215874   4.429   2.993   6.682  0.4108  0.0920  0.0859
 2463ntf    cn115875   4.478   3.163   6.644 -0.0062  0.1588 -0.1664
 2463ntf    fn415876   4.879   2.992   6.880 -0.4086 -0.6674  0.1984
 2463ntf    fn415877   4.786   3.090   6.718  0.3659 -0.2744 -0.1222
 2463ntf    fn415878   4.735   3.147   6.917  0.4841  0.0602  1.2115
 2463ntf    on515879   4.694   2.811   6.756 -0.3441 -0.1901 -0.1009
 2463ntf    on515880   4.657   2.874   6.990 -0.1635  0.5650 -0.2025
 2463ntf    on515881   4.287   2.987   6.707  0.3540  0.8456 -0.0490
 2463ntf    on515882   4.473   2.910   6.573  0.5462  0.0950  0.1386
 2463ntf    fn415883   4.421   3.209   6.534 -0.1071  0.1684 -0.1094
 2463ntf    fn415884   4.445   3.249   6.739  0.0911  0.2970 -0.2555
 2463ntf    fn415885   4.609   3.179   6.629  0.0171  0.1015 -0.0194
 2464ntf    cn115886   4.003   6.115   2.608 -0.2293 -0.2457  0.1682
 2464ntf    sn215887   3.842   6.180   2.662  0.1646  0.7386  0.1888
 2464ntf    nn315888   3.757   6.058   2.611  0.2870  0.6977  0.0834
 2464ntf    sn215889   3.729   5.918   2.677  0.3064  0.5276 -0.2670
 2464ntf    cn115890   3.557   5.912   2.735  0.2909  0.2345 -0.3409
 2464ntf    fn415891   3.989   6.063   2.487 -0.1203  0.0478  0.0280
 2464ntf    fn415892   4.093   6.213   2.606 -0.3605 -0.1283 -0.1450
 2464ntf    fn415893   4.039   6.012   2.683 -0.6401 -0.5374 -0.0339
 2464ntf    on515894   3.850   6.206   2.803  0.1296 -0.1333  0.3577
 2464ntf    on515895   3.810   6.288   2.572  0.4057  0.6216 -0.0382
 2464ntf    on515896   3.808   5.895   2.795 -0.1320  0.4377  0.0104
 2464ntf    on515897   3.734   5.813   2.578 -0.4853  0.0831  0.1571
 2464ntf    fn415898   3.526   6.024   2.798 -0.6188  0.1110 -0.5439
 2464ntf    fn415899   3.472   5.902   2.634 -0.1663 -0.4771  0.1023
 2464ntf    fn415900   3.536   5.819   2.827 -0.0862  0.7349  0.0859
 2465ntf    cn115901   6.353   5.726   2.721 -0.4359  0.5415  0.2396
 2465ntf    sn215902   6.478   5.646   2.827 -0.0583  0.6475 -0.1234
 2465ntf    nn315903   6.599   5.634   2.728 -0.0039  0.0855  0.0117
 2465ntf    sn215904   6.742   5.694   2.752 -0.0527  0.1620  0.1090
 2465ntf    cn115905   6.816   5.580   2.874 -0.2143  0.1020  0.1515
 2465ntf    fn415906   6.251   5.780   2.785 -0.8202  0.0624  0.0378
 2465ntf    fn415907   6.400   5.830   2.654  0.0601 -0.3435 -0.8268
 2465ntf    fn415908   6.302   5.643   2.631 -0.2784  0.0308  0.6140
 2465ntf    on515909   6.495   5.738   2.937  0.1755  0.4457  0.0090
 2465ntf    on515910   6.427   5.515   2.859  0.4439  0.4857  0.0307
 2465ntf    on515911   6.737   5.822   2.818  0.3438  0.0717  0.3171
 2465ntf    on515912   6.819   5.677   2.631 -0.7246  0.0317 -0.3046
 2465ntf    fn415913   6.939   5.624   2.897 -0.2686  0.1772  0.2966
 2465ntf    fn415914   6.757   5.575   2.992  0.7939  0.0286  0.6672
 2465ntf    fn415915   6.828   5.455   2.832  0.0958  0.0409  0.4270
 2466ntf    cn115916   1.949   0.640   6.741 -0.0260  0.0756 -0.2256
 2466ntf    sn215917   2.006   0.546   6.886 -0.3970  0.2364  0.0278
 2466ntf    nn315918   1.897   0.582   6.993 -0.8118 -0.7371 -0.0638
 2466ntf    sn215919   1.902   0.570   7.150 -0.2645  0.0263 -0.0177
 2466ntf    cn115920   1.748   0.477   7.177 -0.0792 -0.2910 -0.0450
 2466ntf    fn415921   1.818   0.635   6.724 -0.0732 -0.7112  0.3178
 2466ntf    fn415922   1.974   0.770   6.751  0.2225  0.0381 -0.3513
 2466ntf    fn415923   2.000   0.594   6.628 -0.4457 -0.0134 -0.3809
 2466ntf    on515924   1.982   0.407   6.859 -0.4597  0.3139 -0.3235
 2466ntf    on515925   2.140   0.592   6.912 -0.2682 -0.2039  0.1532
 2466ntf    on515926   1.883   0.699   7.212  0.0387  0.4929 -0.8772
 2466ntf    on515927   2.006   0.485   7.203 -0.2468  0.0242 -0.0556
 2466ntf    fn415928   1.759   0.350   7.142  0.4442 -0.1598 -0.3633
 2466ntf    fn415929   1.708   0.491   7.303  0.0486 -0.5941  0.0300
 2466ntf    fn415930   1.648   0.524   7.104  0.0880  0.2433  0.0684
 2467ntf    cn115931   4.992   4.246   3.208 -0.2766 -0.4351  0.1105
 2467ntf    sn215932   4.993   4.249   3.027  0.3561 -0.1273  0.1166
 2467ntf    nn315933   4.847   4.299   3.003  0.5107  0.2723 -0.0077
 2467ntf    sn215934   4.721   4.220   2.949  0.5836  0.3105 -0.2350
 2467ntf    cn115935   4.765   4.194   2.774 -0.1273  0.1038 -0.3830
 2467ntf    fn415936   4.904   4.156   3.250 -0.4894 -0.2429  0.0806
 2467ntf    fn415937   5.108   4.216   3.265 -0.1635  0.4082  0.3354
 2467ntf    fn415938   4.963   4.363   3.263 -0.0123 -0.4942  0.3803
 2467ntf    on515939   5.089   4.347   2.983  0.3691 -0.2207 -0.0661
 2467ntf    on515940   5.029   4.114   2.988 -0.2622 -0.4540  0.6717
 2467ntf    on515941   4.600   4.297   2.958  0.1748 -0.3622  0.0460
 2467ntf    on515942   4.713   4.084   2.995  0.6329  0.1249 -0.7746
 2467ntf    fn415943   4.804   4.313   2.732 -0.0553  0.2373  0.0498
 2467ntf    fn415944   4.867   4.112   2.757  0.0582  0.2839 -0.1476
 2467ntf    fn415945   4.669   4.150   2.694 -0.3727  0.1503 -0.1198
 2468ntf    cn115946   2.442   3.676   5.480  0.1355  0.1118  0.0830
 2468ntf    sn215947   2.529   3.630   5.327 -0.1706  0.2810 -0.1433
 2468ntf    nn315948   2.633   3.521   5.371 -0.3879  0.1198 -0.0299
 2468ntf    sn215949   2.767   3.545   5.447 -0.2379  0.1169 -0.2916
 2468ntf    cn115950   2.740   3.445   5.597 -0.0388  0.2692 -0.1529
 2468ntf    fn415951   2.515   3.762   5.548 -0.4703 -0.0249  0.9204
 2468ntf    fn415952   2.327   3.739   5.463 -0.0230 -0.1819  0.0690
 2468ntf    fn415953   2.423   3.567   5.551 -0.0803 -0.1644 -0.3931
 2468ntf    on515954   2.415   3.581   5.253  0.1247 -0.1219 -0.3358
 2468ntf    on515955   2.589   3.755   5.288  0.4601  0.0576  0.0999
 2468ntf    on515956   2.789   3.679   5.497 -0.3464  0.1442 -0.3188
 2468ntf    on515957   2.878   3.475   5.387 -0.4156  0.3391 -0.8843
 2468ntf    fn415958   2.617   3.467   5.642 -0.1029 -0.5434  0.0907
 2468ntf    fn415959   2.758   3.314   5.588 -0.4589  0.1905  0.0905
 2468ntf    fn415960   2.814   3.485   5.698 -0.0336  0.2469 -0.1480
 2469ntf    cn115961   3.856   5.579   0.819 -0.5316 -0.3237  0.1754
 2469ntf    sn215962   3.774   5.741   0.819  0.1596  0.0333  0.0548
 2469ntf    nn315963   3.625   5.716   0.862  0.0450  0.5675 -0.0263
 2469ntf    sn215964   3.504   5.658   0.780  0.1647 -0.0671  0.2397
 2469ntf    cn115965   3.406   5.810   0.764  0.5649  0.1648 -0.0415
 2469ntf    fn415966   3.816   5.493   0.726  0.5223 -0.2718 -0.3534
 2469ntf    fn415967   3.988   5.581   0.809 -0.4798  0.1751  0.9564
 2469ntf    fn415968   3.835   5.519   0.935  0.2388 -0.2772  0.3455
 2469ntf    on515969   3.840   5.824   0.917 -0.1676  0.4773 -0.0989
 2469ntf    on515970   3.781   5.782   0.681  0.1330  0.9525  0.3236
 2469ntf    on515971   3.421   5.569   0.858  0.3767 -0.2889  0.2151
 2469ntf    on515972   3.525   5.623   0.641 -0.7505 -1.2065  0.3679
 2469ntf    fn415973   3.283   5.791   0.718  0.4245  0.1201  0.3402
 2469ntf    fn415974   3.394   5.883   0.874  0.5001 -0.3201  0.2789
 2469ntf    fn415975   3.464   5.896   0.682  0.0369 -0.2156 -0.8246
 2470ntf    cn115976   3.253   3.985   3.243 -0.3211 -0.1574  0.0918
 2470ntf    sn215977   3.110   3.899   3.315 -0.4288 -0.1442 -0.1074
 2470ntf    nn315978   2.993   3.941   3.218 -0.1438  0.0687 -0.3608
 2470ntf    sn215979   2.944   3.881   3.082 -0.1713  0.2136 -0.4140
 2470ntf    cn115980   2.763   3.895   3.092 -0.1664 -0.2398  0.3617
 2470ntf    fn415981   3.358   3.966   3.321 -0.3054  0.1832  0.1583
 2470ntf    fn415982   3.279   3.929   3.126 -0.3693 -0.6826  0.3295
 2470ntf    fn415983   3.240   4.116   3.232 -0.0523 -0.1239  0.1779
 2470ntf    on515984   3.146   3.760   3.327  0.6660  0.1791  0.4358
 2470ntf    on515985   3.098   3.971   3.439 -0.1954  0.2748 -0.3238
 2470ntf    on515986   2.961   3.739   3.071 -0.0371  0.2334 -0.4682
 2470ntf    on515987   2.981   3.960   2.967 -0.5954 -0.0252 -0.7178
 2470ntf    fn415988   2.699   3.887   2.976 -0.1423  0.3249  0.3060
 2470ntf    fn415989   2.705   3.805   3.170 -0.2709 -0.2697  0.2506
 2470ntf    fn415990   2.736   4.011   3.149 -0.5934 -0.1746  0.0369
 2471ntf    cn115991   1.861   2.570   3.723 -0.1291  0.3936 -0.3763
 2471ntf    sn215992   1.943   2.731   3.701  0.2431  0.2799  0.1660
 2471ntf    nn315993   1.841   2.803   3.606  0.5235  0.4322 -0.0180
 2471ntf    sn215994   1.838   2.802   3.449  0.0140  0.0181 -0.0054
 2471ntf    cn115995   1.945   2.937   3.392 -0.2042  0.0609 -0.3219
 2471ntf    fn415996   1.903   2.473   3.644 -0.4815  0.3563 -0.5208
 2471ntf    fn415997   1.881   2.524   3.845 -0.0148  0.3481 -0.4118
 2471ntf    fn415998   1.729   2.581   3.713 -0.2209 -0.1314  0.2032
 2471ntf    on515999   1.939   2.773   3.839  0.2209 -0.1880  0.3087
 2471ntf    on516000   2.071   2.697   3.645  0.0956 -0.3199  0.1814
 2471ntf    on516001   1.705   2.842   3.408 -0.1965  0.1883  0.8320
 2471ntf    on516002   1.882   2.677   3.391  0.3636  0.0171  0.2621
 2471ntf    fn416003   1.901   3.058   3.423 -0.4535 -0.1455  0.1413
 2471ntf    fn416004   2.072   2.936   3.430 -0.1995  0.4945 -0.3148
 2471ntf    fn416005   1.948   2.946   3.260 -0.1283  0.1176 -0.3169
 2472ntf    cn116006   1.275   6.063   0.957  0.0493 -0.5613 -0.0927
 2472ntf    sn216007   1.123   6.163   0.963  0.3398 -0.1426  0.3336
 2472ntf    nn316008   1.139   6.243   0.829  0.4949  0.0061  0.4404
 2472ntf    sn216009   1.232   6.364   0.789  0.0147  0.2089 -0.0911
 2472ntf    cn116010   1.128   6.510   0.815 -0.3890 -0.0719 -0.1166
 2472ntf    fn416011   1.374   6.135   0.908 -0.0808  0.3377  0.9301
 2472ntf    fn416012   1.322   6.033   1.077  0.0495  0.4627  0.1709
 2472ntf    fn416013   1.249   5.955   0.885 -0.3298 -0.3834 -0.2268
 2472ntf    on516014   1.023   6.060   0.961  0.6725 -0.4689  0.4782
 2472ntf    on516015   1.126   6.243   1.082  0.0765  0.0409  0.2172
 2472ntf    on516016   1.259   6.371   0.648  0.5001 -0.3578 -0.0329
 2472ntf    on516017   1.342   6.389   0.879  0.6336 -0.4975 -0.6373
 2472ntf    fn416018   1.094   6.521   0.942  0.3057  0.2261  0.0471
 2472ntf    fn416019   1.194   6.619   0.779  0.1391 -0.5581 -0.6399
 2472ntf    fn416020   1.018   6.501   0.741 -0.0667  0.3642 -0.6607
 2473ntf    cn116021   2.184   1.271   4.892 -0.1096 -0.1053 -0.2274
 2473ntf    sn216022   2.110   1.433   4.928  0.3127  0.0746 -0.1619
 2473ntf    nn316023   2.230   1.515   4.987 -0.2077  0.5655  0.2222
 2473ntf    sn216024   2.311   1.637   4.929 -0.0860  0.2635 -0.2473
 2473ntf    cn116025   2.477   1.612   4.999 -0.1224  0.2345 -0.1724
 2473ntf    fn416026   2.097   1.196   4.825 -0.1979 -0.3145  0.1174
 2473ntf    fn416027   2.293   1.271   4.816 -0.0654 -0.0565 -0.1637
 2473ntf    fn416028   2.212   1.204   5.002  0.2727  0.8011  0.2367
 2473ntf    on516029   2.052   1.493   4.811  0.0251  0.2602  0.0740
 2473ntf    on516030   2.020   1.395   5.034  0.2241 -0.2525 -0.3531
 2473ntf    on516031   2.276   1.765   4.985  0.0795  0.0528  0.3418
 2473ntf    on516032   2.348   1.630   4.790  0.5570 -0.0423 -0.0647
 2473ntf    fn416033   2.566   1.690   4.939 -0.2882  0.2327 -0.4209
 2473ntf    fn416034   2.481   1.656   5.124  0.2308  0.2233 -0.1781
 2473ntf    fn416035   2.520   1.488   5.010  0.1966  0.3549 -0.0388
 2474ntf    cn116036   2.431   4.655   3.958  0.0702  0.0875  0.2759
 2474ntf    sn216037   2.568   4.772   3.932 -0.2587  0.3661 -0.2310
 2474ntf    nn316038   2.489   4.906   3.954 -0.5804  0.1719 -0.1904
 2474ntf    sn216039   2.499   5.040   3.873  0.1655 -0.0032 -0.3976
 2474ntf    cn116040   2.507   5.160   4.009 -0.7384 -0.0249 -0.3200
 2474ntf    fn416041   2.469   4.529   3.948 -1.0075 -0.2102 -0.1909
 2474ntf    fn416042   2.350   4.664   4.062  0.2306  0.0521  0.4033
 2474ntf    fn416043   2.341   4.656   3.861  0.3140 -0.0869  0.0479
 2474ntf    on516044   2.663   4.746   4.037 -0.1701 -0.0449 -0.4122
 2474ntf    on516045   2.604   4.737   3.797  0.0896  0.2304 -0.1038
 2474ntf    on516046   2.367   5.069   3.823  0.1138 -0.0775 -0.3032
 2474ntf    on516047   2.608   5.060   3.781 -0.0559  0.5770 -0.5383
 2474ntf    fn416048   2.610   5.133   4.087 -0.3088 -0.0342 -0.8821
 2474ntf    fn416049   2.530   5.279   3.957 -0.7854  0.4370  0.6857
 2474ntf    fn416050   2.393   5.168   4.075 -0.6621 -0.1274 -0.1762
 2475ntf    cn116051   0.658   6.409   6.577  0.0682 -0.3650 -0.5258
 2475ntf    sn216052   0.652   6.276   6.700 -0.3560  0.2069  0.0797
 2475ntf    nn316053   0.705   6.353   6.826 -0.1610  0.2929 -0.0548
 2475ntf    sn216054   0.857   6.353   6.866 -0.1666 -0.0249 -0.0315
 2475ntf    cn116055   0.881   6.530   6.901  0.1321 -0.0773  0.0352
 2475ntf    fn416056   0.638   6.361   6.455 -0.1974  0.1719 -0.6981
 2475ntf    fn416057   0.576   6.511   6.597  0.2796 -0.2697 -0.1386
 2475ntf    fn416058   0.777   6.465   6.579 -0.3313  0.5053 -0.7051
 2475ntf    on516059   0.511   6.246   6.704 -0.3842  0.3465  0.1059
 2475ntf    on516060   0.740   6.174   6.648  0.2339  0.6344  0.2387
 2475ntf    on516061   0.950   6.326   6.760 -0.3646 -0.2816 -0.1405
 2475ntf    on516062   0.893   6.289   6.991  0.3279 -0.1260 -0.2215
 2475ntf    fn416063   1.002   6.549   6.951  0.3217  0.1838 -0.5206
 2475ntf    fn416064   0.877   6.598   6.788  0.4495 -0.1130  0.0033
 2475ntf    fn416065   0.790   6.577   6.985  0.5069  0.3900  0.1807
 2476ntf    cn116066   6.730   6.103   3.717  0.0478 -0.3935 -0.1119
 2476ntf    sn216067   6.703   5.938   3.788  0.0359 -0.4770 -0.3077
 2476ntf    nn316068   6.563   5.968   3.853  0.4247  0.1804  0.2494
 2476ntf    sn216069   6.532   5.999   4.004  0.0207  0.1517  0.1734
 2476ntf    cn116070   6.355   6.033   3.977  0.2406  0.5461 -0.8444
 2476ntf    fn416071   6.844   6.112   3.649 -0.1850  0.3150 -0.4200
 2476ntf    fn416072   6.638   6.131   3.626  0.0323 -0.4349 -0.1092
 2476ntf    fn416073   6.731   6.203   3.803 -0.3224 -0.4391 -0.0572
 2476ntf    on516074   6.698   5.847   3.677 -0.0603 -0.3133 -0.4382
 2476ntf    on516075   6.815   5.926   3.879  0.0277 -0.5847 -0.3127
 2476ntf    on516076   6.576   6.123   4.063  0.2738  0.1828 -0.0775
 2476ntf    on516077   6.537   5.887   4.094  0.1683 -0.3918 -0.5101
 2476ntf    fn416078   6.294   5.940   3.905  0.4032 -0.2676  0.0475
 2476ntf    fn416079   6.290   6.042   4.092  0.6373 -0.0592 -0.5650
 2476ntf    fn416080   6.326   6.144   3.912 -0.0875  0.6261 -0.5651
 2477ntf    cn116081   5.454   1.958   2.519  0.3476  0.4063  0.6162
 2477ntf    sn216082   5.581   1.836   2.564  0.1475 -0.0336  0.0149
 2477ntf    nn316083   5.522   1.779   2.698  0.2311 -0.2376 -0.0352
 2477ntf    sn216084   5.413   1.666   2.713  0.0452 -0.0268  0.2034
 2477ntf    cn116085   5.529   1.527   2.706  0.0110 -0.0635  0.3629
 2477ntf    fn416086   5.484   2.037   2.417 -0.5848 -0.4266 -0.3324
 2477ntf    fn416087   5.333   1.907   2.502  0.6925 -0.1456 -0.2498
 2477ntf    fn416088   5.438   2.034   2.625  0.1942  0.0099  0.8799
 2477ntf    on516089   5.580   1.744   2.453  0.1135 -0.3959  0.3116
 2477ntf    on516090   5.695   1.921   2.590  0.1277 -0.0785  0.2583
 2477ntf    on516091   5.328   1.650   2.598 -0.2127  0.1516  0.3674
 2477ntf    on516092   5.351   1.670   2.843  0.2680 -0.1140  0.3142
 2477ntf    fn416093   5.589   1.513   2.588  0.0402  0.4326  0.3180
 2477ntf    fn416094   5.631   1.539   2.790  0.1212 -0.3909  0.2820
 2477ntf    fn416095   5.463   1.416   2.736 -0.6309  0.2868  0.2657
 2478ntf    cn116096   5.231   5.954   0.062  0.3354 -0.6176  0.1557
 2478ntf    sn216097   5.151   5.955   0.225  0.0735  0.2255  0.0288
 2478ntf    nn316098   5.180   6.101   0.274 -0.1505  0.4059 -0.3726
 2478ntf    sn216099   5.194   6.158   0.420  0.0966 -0.0111 -0.2311
 2478ntf    cn116100   5.372   6.194   0.416  0.1598 -0.2692  0.1957
 2478ntf    fn416101   5.235   5.838  -0.001  0.5073 -0.2265 -0.5673
 2478ntf    fn416102   5.176   6.046  -0.015  0.2095 -0.6470  0.2099
 2478ntf    fn416103   5.357   5.990   0.082  0.0813  0.2211  0.2934
 2478ntf    on516104   5.013   5.930   0.194  0.2862  0.1235 -0.8628
 2478ntf    on516105   5.222   5.852   0.297 -0.0957  0.1058  0.0245
 2478ntf    on516106   5.171   6.060   0.523  0.3064 -0.1521 -0.3180
 2478ntf    on516107   5.134   6.289   0.434 -0.8093 -0.4407 -0.0126
 2478ntf    fn416108   5.419   6.236   0.533 -0.1808  0.2748  0.1439
 2478ntf    fn416109   5.436   6.089   0.367  0.0211 -0.2411 -0.0460
 2478ntf    fn416110   5.394   6.298   0.337 -0.5481 -0.0724  0.2525
 2479ntf    cn116111   4.627   0.363   6.869  0.2180  0.3116 -0.1429
 2479ntf    sn216112   4.716   0.505   6.798  0.2190  0.3977  0.0302
 2479ntf    nn316113   4.866   0.461   6.811  0.0846  0.1167  0.6582
 2479ntf    sn216114   4.979   0.467   6.702 -0.2773  0.0791  0.2793
 2479ntf    cn116115   5.072   0.602   6.781 -0.2589  0.0398  0.3259
 2479ntf    fn416116   4.659   0.254   6.802  0.1326 -0.0407  0.3901
 2479ntf    fn416117   4.645   0.333   6.996  0.3947  0.2186 -0.1893
 2479ntf    fn416118   4.496   0.378   6.858  0.1453  0.5908  0.9772
 2479ntf    on516119   4.672   0.488   6.662  0.5701  0.5445 -0.1057
 2479ntf    on516120   4.684   0.623   6.875 -0.0268  0.0234  0.5027
 2479ntf    on516121   4.946   0.505   6.567 -0.7283  0.1829  0.4170
 2479ntf    on516122   5.065   0.351   6.710 -0.5607 -0.1363  0.1825
 2479ntf    fn416123   5.100   0.589   6.909  0.9293 -0.5649  0.0267
 2479ntf    fn416124   5.193   0.616   6.729 -0.3217 -0.3080  0.0846
 2479ntf    fn416125   5.004   0.715   6.767  0.4532  0.5010  0.4997
 2480ntf    cn116126   6.866   1.479   6.247 -0.3904  0.1200  0.0442
 2480ntf    sn216127   7.010   1.388   6.182 -0.4064  0.1347 -0.0118
 2480ntf    nn316128   6.926   1.271   6.121 -0.0734 -0.2106  0.1868
 2480ntf    sn216129   6.961   1.174   6.003 -0.0204 -0.0440  0.0662
 2480ntf    cn116130   6.952   1.010   6.080  0.2241 -0.0530  0.0774
 2480ntf    fn416131   6.816   1.407   6.346 -0.1823 -0.0240  0.0454
 2480ntf    fn416132   6.902   1.598   6.291  0.1898 -0.1062  0.1959
 2480ntf    fn416133   6.776   1.500   6.153 -0.2019  0.3988 -0.0746
 2480ntf    on516134   7.062   1.486   6.091  0.7122  0.2473  0.7258
 2480ntf    on516135   7.090   1.360   6.299 -0.0514  0.3328 -0.2038
 2480ntf    on516136   7.097   1.190   5.956 -0.2330  0.5794 -0.3482
 2480ntf    on516137   6.863   1.166   5.898 -0.0168  0.4608  0.0204
 2480ntf    fn416138   6.970   0.912   5.993  0.4201 -0.0258  0.0862
 2480ntf    fn416139   7.053   0.999   6.166  0.2030 -0.8568  0.0095
 2480ntf    fn416140   6.837   0.982   6.138  0.1652  0.2033  0.0819
 2481ntf    cn116141   3.204   6.062   6.907 -0.0028 -0.0525 -0.3850
 2481ntf    sn216142   3.132   6.207   6.824 -0.1549 -0.0532 -0.2546
 2481ntf    nn316143   3.266   6.271   6.773 -0.2819  0.2462 -0.2126
 2481ntf    sn216144   3.367   6.364   6.850  0.1059 -0.1743 -0.2158
 2481ntf    cn116145   3.330   6.512   6.751 -0.1787  0.0108  0.1676
 2481ntf    fn416146   3.246   5.974   6.817  0.2707 -0.1709 -0.1399
 2481ntf    fn416147   3.301   6.096   6.990  0.2756  0.3002 -0.8513
 2481ntf    fn416148   3.114   5.996   6.978 -0.1593  0.6540  0.0821
 2481ntf    on516149   3.055   6.154   6.714  0.2357 -0.5450 -0.2928
 2481ntf    on516150   3.056   6.277   6.924 -0.0202  0.1272 -0.2783
 2481ntf    on516151   3.501   6.315   6.825  0.2397  0.0395  0.0872
 2481ntf    on516152   3.333   6.404   6.984  1.1403  0.2667 -0.0716
 2481ntf    fn416153   3.405   6.616   6.784  0.3815 -0.3081 -0.0881
 2481ntf    fn416154   3.338   6.497   6.620 -0.1783  0.3903  0.1223
 2481ntf    fn416155   3.207   6.546   6.786 -0.2164 -0.4696  0.5182
 2482ntf    cn116156   6.678   4.145   5.984  0.0657  0.0930  0.1595
 2482ntf    sn216157   6.818   4.110   5.873  0.0733  0.0725  0.1762
 2482ntf    nn316158   6.946   4.114   5.964 -0.1314  0.1952  0.4591
 2482ntf    sn216159   7.077   4.030   5.946 -0.4100 -0.1433 -0.0170
 2482ntf    cn116160   7.097   4.015   5.766  0.6909  0.1506  0.0730
 2482ntf    fn416161   6.562   4.124   5.924 -0.0556  0.5877  0.2155
 2482ntf    fn416162   6.687   4.068   6.091  0.1299 -0.3462 -0.1577
 2482ntf    fn416163   6.675   4.271   6.024  0.2239 -0.1000  0.7908
 2482ntf    on516164   6.779   3.981   5.821  0.6676 -0.1037  0.1526
 2482ntf    on516165   6.810   4.218   5.778 -0.3104  0.0011  0.1255
 2482ntf    on516166   7.063   3.890   5.979  0.1441 -0.2607 -0.2670
 2482ntf    on516167   7.204   4.086   5.985 -0.5929  0.4740 -0.2936
 2482ntf    fn416168   7.218   3.995   5.716  0.4058  0.8325 -0.9209
 2482ntf    fn416169   7.018   3.919   5.722  0.5830  0.0866  0.4050
 2482ntf    fn416170   7.058   4.127   5.706  0.3034  0.0119  0.0676
 2483ntf    cn116171   4.316   1.427   3.255  0.3579 -0.1377 -0.1103
 2483ntf    sn216172   4.409   1.557   3.169  0.3326  0.0420  0.1345
 2483ntf    nn316173   4.558   1.516   3.198  0.2835 -0.1147  0.1644
 2483ntf    sn216174   4.648   1.413   3.121  0.1220  0.0751 -0.2831
 2483ntf    cn116175   4.649   1.267   3.229 -0.2919  0.1727 -0.1468
 2483ntf    fn416176   4.343   1.305   3.209  0.4393  0.0380 -0.5326
 2483ntf    fn416177   4.357   1.422   3.380  0.5447 -0.0890 -0.1685
 2483ntf    fn416178   4.186   1.444   3.242  0.3251 -0.1972  0.1344
 2483ntf    on516179   4.350   1.556   3.037 -0.2396  0.0650  0.3865
 2483ntf    on516180   4.376   1.676   3.243  0.0189  0.2592 -0.3487
 2483ntf    on516181   4.786   1.457   3.120  0.2878 -0.4224  0.2519
 2483ntf    on516182   4.606   1.362   2.992  0.0063 -0.3129 -0.0928
 2483ntf    fn416183   4.772   1.239   3.269 -0.1833  0.6616 -0.1236
 2483ntf    fn416184   4.580   1.300   3.337 -0.1365 -0.0604  0.0244
 2483ntf    fn416185   4.594   1.161   3.173  0.4363 -0.3328  0.0837
 2484ntf    cn116186   0.352   2.805   4.594  0.0775 -0.2160  0.0687
 2484ntf    sn216187   0.291   2.640   4.549  0.2993 -0.1994 -0.2988
 2484ntf    nn316188   0.219   2.595   4.681 -0.0302 -0.2175 -0.4822
 2484ntf    sn216189   0.257   2.492   4.793 -0.0849 -0.2959 -0.5358
 2484ntf    cn116190   0.179   2.558   4.943 -0.3156 -0.4468 -0.5897
 2484ntf    fn416191   0.255   2.892   4.616  0.2454 -0.0099  0.0075
 2484ntf    fn416192   0.436   2.805   4.696  0.1096  0.0751  0.0431
 2484ntf    fn416193   0.418   2.861   4.493 -0.2527  0.0261 -0.0155
 2484ntf    on516194   0.189   2.685   4.457  0.0923 -0.3964 -0.1666
 2484ntf    on516195   0.401   2.563   4.497  0.3691  0.1785 -0.7241
 2484ntf    on516196   0.396   2.488   4.830 -0.4769 -0.1678  1.0147
 2484ntf    on516197   0.188   2.369   4.764 -0.2983 -0.2308 -0.3051
 2484ntf    fn416198   0.198   2.472   5.042 -0.0213  0.1483 -0.1244
 2484ntf    fn416199   0.213   2.680   4.980 -0.6512 -0.5380  0.0479
 2484ntf    fn416200   0.048   2.565   4.926 -0.4482  0.6587  0.7132
 2485ntf    cn116201   0.028   4.747   3.215 -0.4487  0.4208 -0.4139
 2485ntf    sn216202   0.010   4.575   3.160  0.1864  0.2507 -0.0995
 2485ntf    nn316203  -0.108   4.591   3.058  0.1736 -0.2274 -0.1588
 2485ntf    sn216204  -0.261   4.563   3.080  0.1226  0.1847  0.0045
 2485ntf    cn116205  -0.336   4.711   3.006  0.1187  0.2604  0.1578
 2485ntf    fn416206   0.029   4.822   3.106  0.4610 -0.0576 -0.7477
 2485ntf    fn416207  -0.071   4.772   3.300  0.1739  0.5337  0.2914
 2485ntf    fn416208   0.143   4.772   3.276 -0.3909  0.0011 -0.3521
 2485ntf    on516209   0.133   4.539   3.093  0.0082  0.1318 -0.3633
 2485ntf    on516210  -0.018   4.491   3.274 -0.2398  0.4873 -0.0273
 2485ntf    on516211  -0.314   4.566   3.214  0.5915  0.2451  0.1936
 2485ntf    on516212  -0.315   4.462   2.993  0.0472  0.2648 -0.0421
 2485ntf    fn416213  -0.306   4.818   3.078  0.4066  0.7867 -0.7273
 2485ntf    fn416214  -0.286   4.726   2.884  0.6393  0.3361  0.3818
 2485ntf    fn416215  -0.467   4.707   2.983  0.2160 -0.1326 -0.3490
 2486ntf    cn116216   5.425   2.102   6.772 -0.0659  0.4410 -0.1547
 2486ntf    sn216217   5.363   2.232   6.882 -0.2124  0.3255 -0.1000
 2486ntf    nn316218   5.275   2.151   6.983  0.1345  0.6604  0.4802
 2486ntf    sn216219   5.131   2.189   7.035 -0.2183  0.0552 -0.0398
 2486ntf    cn116220   5.174   2.240   7.204  0.1569  0.5842 -0.2908
 2486ntf    fn416221   5.505   2.140   6.674 -0.4851 -0.0014 -0.6707
 2486ntf    fn416222   5.504   2.018   6.838 -0.4078  0.1638 -0.0942
 2486ntf    fn416223   5.327   2.038   6.709 -0.4979  0.8078  0.1411
 2486ntf    on516224   5.477   2.289   6.950  0.2060  0.1191 -0.6272
 2486ntf    on516225   5.293   2.314   6.787 -0.2297  0.6384  0.1814
 2486ntf    on516226   5.032   2.085   7.053  0.2910 -0.4762 -0.2601
 2486ntf    on516227   5.090   2.318   6.986 -0.5265  0.2143  0.6330
 2486ntf    fn416228   5.227   2.136   7.267 -0.0791  0.5609 -0.1289
 2486ntf    fn416229   5.263   2.334   7.231  0.2788  0.2371  0.5591
 2486ntf    fn416230   5.066   2.280   7.270  0.0212 -0.1996 -0.0213
 2487ntf    cn116231   5.463   2.134   4.374 -0.3281  0.4891  0.1367
 2487ntf    sn216232   5.283   2.160   4.372 -0.3982  0.0158 -0.0024
 2487ntf    nn316233   5.246   2.105   4.230  0.0714 -0.0422 -0.1058
 2487ntf    sn216234   5.262   2.177   4.091 -0.4633  0.0607 -0.1182
 2487ntf    cn116235   5.102   2.130   4.018 -0.3038 -0.4131 -0.1674
 2487ntf    fn416236   5.492   2.010   4.337 -0.2863  0.2454  0.9578
 2487ntf    fn416237   5.529   2.219   4.297  0.3408 -0.3229 -0.2035
 2487ntf    fn416238   5.511   2.154   4.495  0.3430  0.2090 -0.0765
 2487ntf    on516239   5.237   2.067   4.471 -0.9624 -0.1226 -0.3910
 2487ntf    on516240   5.260   2.300   4.396  0.2279  0.2163 -0.5222
 2487ntf    on516241   5.358   2.114   4.004  0.3867  0.7279  0.3222
 2487ntf    on516242   5.259   2.320   4.101 -0.5282  0.0363  0.2162
 2487ntf    fn416243   5.094   1.998   4.004  0.1515 -0.4909  0.2400
 2487ntf    fn416244   5.004   2.165   4.100 -0.1947  0.2064 -0.2973
 2487ntf    fn416245   5.070   2.187   3.903 -0.7954 -0.4711 -0.0611
 2488ntf    cn116246   6.804   2.746   6.039 -0.0268 -0.1163  0.3407
 2488ntf    sn216247   6.640   2.779   6.111 -0.0705 -0.2001  0.2805
 2488ntf    nn316248   6.563   2.841   5.989  0.1481  0.0213  0.2530
 2488ntf    sn216249   6.531   2.990   5.955  0.2739 -0.0081 -0.0028
 2488ntf    cn116250   6.368   3.004   6.034  0.2687 -0.1692  0.0159
 2488ntf    fn416251   6.869   2.856   6.004 -0.1281 -0.0025  0.5036
 2488ntf    fn416252   6.876   2.678   6.127  0.4997  0.2364  0.1870
 2488ntf    fn416253   6.791   2.674   5.929  0.8002  0.6158 -0.2574
 2488ntf    on516254   6.591   2.646   6.137 -0.3594 -0.1539 -0.0318
 2488ntf    on516255   6.667   2.870   6.220  0.8356 -0.0494 -0.0605
 2488ntf    on516256   6.493   2.996   5.816 -0.6420  0.2319  0.2490
 2488ntf    on516257   6.609   3.093   6.019 -0.0151  0.2338 -0.0363
 2488ntf    fn416258   6.371   2.990   6.166  0.9006 -0.1003  0.0109
 2488ntf    fn416259   6.319   3.123   6.001  0.1491 -0.0910  0.4678
 2488ntf    fn416260   6.282   2.912   5.993  0.0659  0.0839 -0.1344
 2489ntf    cn116261   1.033   3.499   4.691 -0.0943 -0.3811 -0.0427
 2489ntf    sn216262   0.870   3.419   4.709 -0.2333 -0.1111 -0.0841
 2489ntf    nn316263   0.846   3.461   4.859 -0.1320 -0.6412  0.0848
 2489ntf    sn216264   0.719   3.520   4.930  0.1458  0.2389 -0.1332
 2489ntf    cn116265   0.683   3.384   5.044 -0.3764  0.1826 -0.3638
 2489ntf    fn416266   1.016   3.626   4.724 -0.2721 -0.4985  0.3289
 2489ntf    fn416267   1.125   3.456   4.775 -0.3682 -0.4016  0.2507
 2489ntf    fn416268   1.077   3.493   4.567 -0.2222 -0.0681 -0.1059
 2489ntf    on516269   0.790   3.491   4.614 -0.1604 -0.0421 -0.0944
 2489ntf    on516270   0.902   3.279   4.692  0.7123  0.1165 -0.2438
 2489ntf    on516271   0.599   3.524   4.851  0.0804 -1.0263 -0.1160
 2489ntf    on516272   0.749   3.632   5.016 -0.0246  0.0018  0.2369
 2489ntf    fn416273   0.621   3.418   5.156  0.0555 -0.0931 -0.0348
 2489ntf    fn416274   0.623   3.276   4.997  0.1471 -0.1208 -0.3400
 2489ntf    fn416275   0.804   3.345   5.083 -0.0085  0.4261 -1.2552
 2490ntf    cn116276   3.678   3.341   1.328  0.2901  0.2749 -0.0836
 2490ntf    sn216277   3.549   3.390   1.210  0.1279  0.0496 -0.0016
 2490ntf    nn316278   3.481   3.496   1.304 -0.3385 -0.3135  0.0777
 2490ntf    sn216279   3.354   3.488   1.396 -0.4088 -0.4556 -0.0318
 2490ntf    cn116280   3.406   3.587   1.539 -0.4127  0.0280 -0.3621
 2490ntf    fn416281   3.761   3.439   1.360  0.5222  0.1789 -0.3931
 2490ntf    fn416282   3.624   3.289   1.437 -0.1077  0.2991 -0.2659
 2490ntf    fn416283   3.757   3.252   1.270 -0.4844 -0.3255 -0.2382
 2490ntf    on516284   3.628   3.447   1.104  0.3241 -0.1947  0.0129
 2490ntf    on516285   3.473   3.269   1.190  0.0944  0.0187  0.2988
 2490ntf    on516286   3.336   3.357   1.453  0.1081 -0.4441  0.1607
 2490ntf    on516287   3.235   3.555   1.351 -0.0526  0.0507 -0.2348
 2490ntf    fn416288   3.325   3.572   1.643  0.1876  0.2530  0.1473
 2490ntf    fn416289   3.524   3.552   1.587 -0.5253  0.5275  0.3043
 2490ntf    fn416290   3.404   3.717   1.514  0.4601  0.1092 -0.0590
 2491ntf    cn116291   6.554   2.062   5.150  0.0662 -0.0526 -0.2325
 2491ntf    sn216292   6.644   2.211   5.201 -0.0758 -0.0027 -0.1243
 2491ntf    nn316293   6.766   2.180   5.106 -0.0964  0.2584 -0.2363
 2491ntf    sn216294   6.921   2.173   5.127 -0.1492 -0.0414  0.0579
 2491ntf    cn116295   6.994   2.245   4.977  0.1585  0.0470  0.2498
 2491ntf    fn416296   6.615   1.947   5.173 -0.0573 -0.2347 -0.7985
 2491ntf    fn416297   6.444   2.047   5.223  0.0494  0.0789 -0.2310
 2491ntf    fn416298   6.506   2.070   5.027 -0.1265  0.1850 -0.1422
 2491ntf    on516299   6.562   2.321   5.157  0.5179  0.3640 -0.3235
 2491ntf    on516300   6.675   2.202   5.341 -0.3853 -0.1292 -0.0656
 2491ntf    on516301   6.977   2.042   5.103 -0.3789 -0.1981  0.3756
 2491ntf    on516302   6.975   2.256   5.232 -0.5292  0.2455  0.0261
 2491ntf    fn416303   6.932   2.357   4.945 -0.3087 -0.2412  0.1322
 2491ntf    fn416304   7.124   2.266   4.987  0.3483 -0.8642 -0.1606
 2491ntf    fn416305   6.978   2.164   4.873 -0.0710  0.4005  0.0104
 2492ntf    cn116306   3.710   1.821   1.385 -0.4813  0.2440  0.2943
 2492ntf    sn216307   3.643   1.988   1.358 -0.5101  0.2027  0.1100
 2492ntf    nn316308   3.598   2.025   1.504 -0.0309  0.1180  0.2818
 2492ntf    sn216309   3.692   2.074   1.619  0.3661  0.2026 -0.0760
 2492ntf    cn116310   3.682   2.254   1.598  0.0597  0.2049  0.0829
 2492ntf    fn416311   3.841   1.829   1.407 -0.2647 -0.2726 -0.7233
 2492ntf    fn416312   3.668   1.776   1.501 -0.0773 -0.5790  0.1317
 2492ntf    fn416313   3.685   1.737   1.286  0.2553  0.0174  0.2920
 2492ntf    on516314   3.750   2.067   1.302 -0.5143  0.2082  0.1097
 2492ntf    on516315   3.528   1.950   1.279  0.3084 -0.3202 -0.8515
 2492ntf    on516316   3.832   2.039   1.615  0.3922  0.2714  0.2103
 2492ntf    on516317   3.637   2.055   1.751  1.0786 -0.5778  0.1197
 2492ntf    fn416318   3.712   2.285   1.473 -0.6345 -0.1996 -0.1861
 2492ntf    fn416319   3.558   2.298   1.613 -0.1078 -0.1987 -0.1228
 2492ntf    fn416320   3.755   2.326   1.683 -0.1362 -0.0620  0.4830
 2493ntf    cn116321   1.583   6.776   0.534  0.2863  0.5108 -0.1429
 2493ntf    sn216322   1.685   6.628   0.507  0.1506  0.3561  0.1841
 2493ntf    nn316323   1.816   6.683   0.440 -0.0393 -0.0791 -0.5551
 2493ntf    sn216324   1.958   6.694   0.506 -0.2253  0.0006 -0.1665
 2493ntf    cn116325   2.064   6.660   0.362 -0.3121 -0.0769 -0.2120
 2493ntf    fn416326   1.549   6.845   0.426  0.0983  0.1873 -0.2914
 2493ntf    fn416327   1.466   6.744   0.587  0.4830  0.5746  0.3357
 2493ntf    fn416328   1.633   6.869   0.614  0.0446  0.7877 -0.3113
 2493ntf    on516329   1.692   6.572   0.639 -0.2692 -0.0482  0.0366
 2493ntf    on516330   1.606   6.555   0.411 -0.4897  1.1047  0.1299
 2493ntf    on516331   1.996   6.591   0.600  0.5081  0.0192 -0.4390
 2493ntf    on516332   1.990   6.832   0.531  0.2453 -0.1065 -0.1756
 2493ntf    fn416333   2.188   6.697   0.387 -0.2239 -0.3398 -0.2620
 2493ntf    fn416334   2.064   6.535   0.318  0.4123  0.0142 -0.4869
 2493ntf    fn416335   2.037   6.733   0.255  0.3271  0.3164 -0.1112
 2494ntf    cn116336   0.089   6.348   5.054  0.4551 -0.4013  0.2812
 2494ntf    sn216337   0.166   6.406   5.208  0.3288 -0.2405  0.2828
 2494ntf    nn316338   0.159   6.562   5.188  0.2483 -0.3248 -0.3608
 2494ntf    sn216339   0.208   6.657   5.074  0.2391  0.1612  0.0371
 2494ntf    cn116340   0.333   6.751   5.166 -0.0609  0.2652  0.3398
 2494ntf    fn416341   0.159   6.379   4.946 -0.4817  0.0997 -0.1911
 2494ntf    fn416342   0.067   6.217   5.050  0.1725 -0.3408 -0.1230
 2494ntf    fn416343  -0.031   6.402   5.040  0.4417 -0.2824  0.8109
 2494ntf    on516344   0.077   6.353   5.308  0.3391 -0.7600  0.0207
 2494ntf    on516345   0.296   6.344   5.209  0.4505  0.0090  0.0035
 2494ntf    on516346   0.109   6.757   5.042  0.2044  0.1882  0.2305
 2494ntf    on516347   0.279   6.596   4.964 -0.7784  0.3104 -0.7201
 2494ntf    fn416348   0.302   6.768   5.293 -0.0758  0.2107  0.3435
 2494ntf    fn416349   0.449   6.688   5.173 -0.2442 -0.0782  0.2978
 2494ntf    fn416350   0.355   6.874   5.121 -0.1681  0.1449 -0.0470
 2495ntf    cn116351   6.980   0.615   1.341 -0.2325 -0.3038 -0.1446
 2495ntf    sn216352   6.908   0.688   1.191 -0.0523 -0.0086 -0.0890
 2495ntf    nn316353   6.773   0.607   1.194  0.0021 -0.0911  0.1106
 2495ntf    sn216354   6.735   0.460   1.154  0.2673 -0.3095  0.6519
 2495ntf    cn116355   6.685   0.475   0.980 -0.0270  0.1536  0.7729
 2495ntf    fn416356   7.077   0.694   1.386 -0.2274 -0.1651 -0.3947
 2495ntf    fn416357   6.892   0.595   1.437 -0.3494  0.1416 -0.1525
 2495ntf    fn416358   7.033   0.496   1.318  0.0871 -0.0774 -0.6005
 2495ntf    on516359   6.893   0.827   1.228 -0.2355  0.0469 -0.3640
 2495ntf    on516360   7.001   0.661   1.084  0.1904 -0.5205  0.2501
 2495ntf    on516361   6.614   0.416   1.220 -0.4636  0.3454 -0.2266
 2495ntf    on516362   6.845   0.367   1.150  0.6294  0.1491 -0.3172
 2495ntf    fn416363   6.596   0.565   0.943  0.4548  0.1859 -0.3475
 2495ntf    fn416364   6.797   0.507   0.918 -0.2953 -0.3529  0.0046
 2495ntf    fn416365   6.654   0.354   0.936  0.0613  0.4164 -0.0308
 2496ntf    cn116366   3.029   4.673   1.062 -0.0544  0.2778  0.0906
 2496ntf    sn216367   2.922   4.800   1.137 -0.2018  0.0456  0.2714
 2496ntf    nn316368   2.874   4.886   1.015  0.0838  0.2639  0.3121
 2496ntf    sn216369   2.740   4.965   1.000 -0.1638 -0.1943  0.0760
 2496ntf    cn116370   2.786   5.124   0.925 -0.2163 -0.2625 -0.1023
 2496ntf    fn416371   3.072   4.583   1.148  0.0723 -0.1566 -0.4253
 2496ntf    fn416372   2.952   4.605   0.978  0.1234 -0.4999  0.5461
 2496ntf    fn416373   3.135   4.712   0.993  0.1022  0.0698  0.2133
 2496ntf    on516374   2.816   4.730   1.205 -0.1525  0.1325  0.4384
 2496ntf    on516375   3.007   4.875   1.226  0.4366 -0.4535  0.0917
 2496ntf    on516376   2.672   5.010   1.119 -0.4647  0.4204 -0.3195
 2496ntf    on516377   2.665   4.908   0.891 -0.3094  0.7506 -0.3276
 2496ntf    fn416378   2.677   5.175   0.872  0.1913 -0.1489 -0.8383
 2496ntf    fn416379   2.827   5.210   1.017 -1.0123  0.0716 -0.0489
 2496ntf    fn416380   2.877   5.122   0.829 -0.2179 -0.9179 -0.0939
 2497ntf    cn116381   3.271   4.459   6.889 -0.1486  0.4939 -0.1916
 2497ntf    sn216382   3.118   4.390   6.960  0.1292  0.4156  0.3318
 2497ntf    nn316383   3.115   4.248   6.893  0.3506  0.6285 -0.1296
 2497ntf    sn216384   3.060   4.194   6.756  0.4797  0.1138  0.0184
 2497ntf    cn116385   2.897   4.131   6.806  0.2746  0.4532 -0.2147
 2497ntf    fn416386   3.315   4.566   6.953 -0.1246  0.2587  0.1866
 2497ntf    fn416387   3.368   4.370   6.893  0.1092  0.7657 -0.3593
 2497ntf    fn416388   3.254   4.486   6.761 -0.2694  0.0388 -0.2736
 2497ntf    on516389   3.141   4.390   7.103 -0.1124  0.7009  0.3703
 2497ntf    on516390   3.012   4.478   6.918 -0.1331 -0.3564 -0.6553
 2497ntf    on516391   3.131   4.078   6.710 -0.3247 -0.5641  0.4581
 2497ntf    on516392   3.047   4.297   6.656  0.1388 -0.0107 -0.0656
 2497ntf    fn416393   2.873   4.166   6.931 -0.2024 -0.3994 -0.0565
 2497ntf    fn416394   2.797   4.189   6.741  0.2369  0.4672 -0.1442
 2497ntf    fn416395   2.889   3.999   6.793 -0.5144  0.5209 -0.4634
 2498ntf    cn116396   2.510   0.600   4.372  0.2468  0.2414  0.1393
 2498ntf    sn216397   2.507   0.768   4.442 -0.1808  0.1743  0.2836
 2498ntf    nn316398   2.353   0.787   4.466 -0.2190 -0.3848  0.4986
 2498ntf    sn216399   2.283   0.925   4.493  0.2007  0.0526 -0.5828
 2498ntf    cn116400   2.248   0.927   4.672  0.4091  0.0914 -0.5423
 2498ntf    fn416401   2.420   0.592   4.275  0.0653 -0.6216  0.3669
 2498ntf    fn416402   2.629   0.573   4.320  0.0877  0.0673 -0.1384
 2498ntf    fn416403   2.481   0.510   4.464 -0.4356 -0.4616 -0.7438
 2498ntf    on516404   2.587   0.751   4.561  0.0499 -0.3924  0.0530
 2498ntf    on516405   2.556   0.847   4.332 -0.3813 -0.1913 -0.0733
 2498ntf    on516406   2.147   0.932   4.445 -0.2004 -0.3327  0.4499
 2498ntf    on516407   2.366   1.043   4.487  0.3114  0.0494  0.5392
 2498ntf    fn416408   2.162   1.019   4.712  0.2009  0.0717 -0.9438
 2498ntf    fn416409   2.207   0.808   4.712  0.1173  0.5596  0.5694
 2498ntf    fn416410   2.352   0.966   4.744  0.4085 -0.4800 -0.2238
 2499ntf    cn116411   3.020   6.612   3.434  0.0109 -0.2362  0.1719
 2499ntf    sn216412   2.856   6.605   3.357  0.0545  0.1186  0.0469
 2499ntf    nn316413   2.887   6.607   3.203 -0.3730  0.2470 -0.0396
 2499ntf    sn216414   2.832   6.527   3.080 -0.1354  0.2081 -0.1208
 2499ntf    cn116415   2.953   6.391   3.083 -0.3614  0.0073 -0.0333
 2499ntf    fn416416   3.092   6.517   3.375 -0.5543 -0.1346 -0.6995
 2499ntf    fn416417   3.079   6.727   3.406  0.3269 -0.4704 -0.1368
 2499ntf    fn416418   3.017   6.591   3.564  0.0661  0.3163  0.2631
 2499ntf    on516419   2.808   6.480   3.409  0.5703  0.1954  0.7145
 2499ntf    on516420   2.792   6.722   3.413  0.2537  0.2933 -0.0866
 2499ntf    on516421   2.865   6.590   2.955 -0.1239 -0.1256 -0.2892
 2499ntf    on516422   2.703   6.463   3.089 -0.0876  0.0531 -0.5339
 2499ntf    fn416423   3.075   6.422   3.040 -0.5262  0.0596 -0.4692
 2499ntf    fn416424   2.960   6.353   3.209  0.0595 -0.2205 -0.1245
 2499ntf    fn416425   2.906   6.294   3.006 -0.0702  0.0521 -0.2714
 2500ntf    cn116426   1.946   6.532   5.474 -0.1119  0.0863  0.3949
 2500ntf    sn216427   1.969   6.712   5.489 -0.0585  0.1094  0.0565
 2500ntf    nn316428   1.897   6.756   5.357  0.0301 -0.3270 -0.1378
 2500ntf    sn216429   1.922   6.869   5.250 -0.0608  0.1082  0.2956
 2500ntf    cn116430   2.059   6.786   5.165 -0.1726 -0.0110  0.2300
 2500ntf    fn416431   2.016   6.454   5.554  0.0677  0.0287  0.1847
 2500ntf    fn416432   1.820   6.494   5.474  0.1145 -0.6786  0.1951
 2500ntf    fn416433   1.978   6.496   5.351  0.3719 -0.5425  0.6967
 2500ntf    on516434   1.902   6.737   5.615 -0.6866 -0.1968 -0.2115
 2500ntf    on516435   2.113   6.717   5.481 -0.0622 -0.2680 -0.2617
 2500ntf    on516436   1.991   6.984   5.302  0.1859  0.1211 -0.0629
 2500ntf    on516437   1.819   6.882   5.150  0.4499  0.6189 -0.1639
 2500ntf    fn416438   2.164   6.775   5.244  0.5860 -0.0975 -0.7658
 2500ntf    fn416439   2.023   6.669   5.115  0.0343 -0.0968  0.2806
 2500ntf    fn416440   2.102   6.856   5.061 -0.1115 -0.3918 -0.0032
 2501ntf    cn116441   1.540   3.440   1.233 -0.0546  0.2276 -0.2751
 2501ntf    sn216442   1.699   3.482   1.156  0.2920 -0.1301  0.2403
 2501ntf    nn316443   1.669   3.608   1.068  0.3689 -0.4622 -0.2664
 2501ntf    sn216444   1.752   3.688   0.961  0.2112  0.0406 -0.0175
 2501ntf    cn116445   1.838   3.809   1.067  0.3129 -0.1844  0.1590
 2501ntf    fn416446   1.440   3.428   1.147 -0.4917  0.4560  0.1974
 2501ntf    fn416447   1.550   3.327   1.301 -0.3362  0.2185 -0.2442
 2501ntf    fn416448   1.505   3.531   1.322  0.0946  0.5456 -0.5389
 2501ntf    on516449   1.773   3.525   1.272  0.2782  0.3882  0.0616
 2501ntf    on516450   1.735   3.361   1.087 -0.0261 -0.0125 -0.1406
 2501ntf    on516451   1.671   3.766   0.871  0.0464 -0.0753  0.0309
 2501ntf    on516452   1.863   3.612   0.908  0.5170  0.0054  0.6519
 2501ntf    fn416453   1.965   3.781   1.091  0.3003 -0.2722  0.1244
 2501ntf    fn416454   1.850   3.929   1.012  0.1704 -0.2095  0.0709
 2501ntf    fn416455   1.781   3.826   1.185  0.2607 -0.7111  0.2100
 2502ntf    cn116456   5.474   6.301   5.232  0.0686  0.0237 -0.0221
 2502ntf    sn216457   5.372   6.172   5.309  0.0587 -0.0699 -0.1905
 2502ntf    nn316458   5.462   6.044   5.305 -0.2943 -0.3416  0.3987
 2502ntf    sn216459   5.459   5.928   5.199  0.0045 -0.0580  0.0769
 2502ntf    cn116460   5.545   5.798   5.293  0.2449 -0.0646 -0.1520
 2502ntf    fn416461   5.431   6.425   5.230  1.2309  0.4440  0.0152
 2502ntf    fn416462   5.588   6.317   5.298  0.3083 -0.4399 -0.3128
 2502ntf    fn416463   5.501   6.261   5.109 -0.0165  0.2563 -0.1162
 2502ntf    on516464   5.350   6.218   5.444 -0.0124  0.7617 -0.4836
 2502ntf    on516465   5.257   6.168   5.221 -0.0598 -0.0118 -0.0400
 2502ntf    on516466   5.548   5.945   5.087 -0.0980  0.0979  0.0189
 2502ntf    on516467   5.336   5.863   5.159  0.0340 -0.1426  0.1245
 2502ntf    fn416468   5.463   5.741   5.380  0.3553 -0.2165 -0.1491
 2502ntf    fn416469   5.589   5.703   5.212 -0.3371  0.0974 -0.6680
 2502ntf    fn416470   5.650   5.829   5.366 -0.1106  0.2216  0.2385
 2503ntf    cn116471   6.035   1.309   6.087  0.0006  0.1072 -0.4071
 2503ntf    sn216472   5.942   1.431   5.989  0.0395  0.3111 -0.1930
 2503ntf    nn316473   5.997   1.395   5.846  0.2417  0.2569 -0.1006
 2503ntf    sn216474   5.972   1.268   5.757  0.0265  0.2603 -0.0455
 2503ntf    cn116475   5.835   1.337   5.658  0.2532  0.1047 -0.4714
 2503ntf    fn416476   5.970   1.196   6.105 -0.0924  0.2048 -0.1350
 2503ntf    fn416477   6.155   1.280   6.037  0.0557 -0.8959  0.2979
 2503ntf    fn416478   6.063   1.344   6.211 -0.7211 -0.1375 -0.1761
 2503ntf    on516479   5.800   1.413   6.007  0.1484 -0.0105  0.3449
 2503ntf    on516480   5.992   1.559   6.029  0.3474  0.2163 -0.2729
 2503ntf    on516481   5.914   1.153   5.821 -0.5281  0.1681 -0.7015
 2503ntf    on516482   6.083   1.253   5.667  0.3577  0.0447  0.3973
 2503ntf    fn416483   5.735   1.372   5.737  0.2100 -0.4630 -0.2656
 2503ntf    fn416484   5.853   1.446   5.585  0.3496  0.4784  0.1023
 2503ntf    fn416485   5.793   1.245   5.573  0.5518 -0.1556 -0.3401
 2504ntf    cn116486   5.865   3.092   2.539 -0.4850  0.0951 -0.1142
 2504ntf    sn216487   5.781   3.061   2.697 -0.0962  0.1073  0.0937
 2504ntf    nn316488   5.909   3.102   2.778  0.2691 -0.1793 -0.3294
 2504ntf    sn216489   5.946   3.226   2.867 -0.4065 -0.1102 -0.1399
 2504ntf    cn116490   5.894   3.181   3.035  0.0345  0.3871  0.1331
 2504ntf    fn416491   5.793   3.092   2.427 -0.6517  0.4783 -0.0104
 2504ntf    fn416492   5.937   3.203   2.536 -0.0389 -0.1861  0.1116
 2504ntf    fn416493   5.959   3.000   2.525 -0.3871  0.1562  0.1507
 2504ntf    on516494   5.668   3.150   2.691 -0.0600  0.1257 -0.3614
 2504ntf    on516495   5.757   2.919   2.688  0.2074  0.0620 -0.0384
 2504ntf    on516496   5.872   3.347   2.838  0.2634  0.3170 -0.1060
 2504ntf    on516497   6.088   3.230   2.891 -0.4620 -0.7382  0.3138
 2504ntf    fn416498   5.764   3.162   3.049  0.0786 -0.0961 -0.0839
 2504ntf    fn416499   5.951   3.071   3.082 -0.6334 -0.0669 -0.1043
 2504ntf    fn416500   5.916   3.273   3.128  0.2974  0.0542  0.4042
 2505ntf    cn116501   0.673   1.793   5.492  0.6483  0.0751  0.2884
 2505ntf    sn216502   0.732   1.960   5.532  0.0118  0.3610  0.0542
 2505ntf    nn316503   0.801   2.006   5.399  0.1905 -0.4438 -0.1332
 2505ntf    sn216504   0.946   1.986   5.340  0.2506  0.1203 -0.1784
 2505ntf    cn116505   1.012   2.154   5.366  0.1567  0.1378 -0.0468
 2505ntf    fn416506   0.766   1.701   5.506 -0.7009 -1.4332 -0.2964
 2505ntf    fn416507   0.571   1.756   5.569  0.0913  0.3565 -0.3041
 2505ntf    fn416508   0.623   1.791   5.370  0.4124 -0.5522  0.3952
 2505ntf    on516509   0.615   2.041   5.556 -0.2581 -0.2211  0.7449
 2505ntf    on516510   0.825   1.938   5.640  0.0399  0.3221  0.0219
 2505ntf    on516511   0.950   1.964   5.198  0.1275 -0.5239 -0.0847
 2505ntf    on516512   1.041   1.906   5.413  0.0500  0.3681  0.3593
 2505ntf    fn416513   0.933   2.234   5.436 -0.5359 -0.2025 -0.4216
 2505ntf    fn416514   1.126   2.161   5.432  0.3867 -0.5056 -0.3660
 2505ntf    fn416515   1.035   2.218   5.252 -0.4269 -0.4304 -0.4956
 2506ntf    cn116516   6.724   3.998   2.057 -0.0508  0.1454 -0.4797
 2506ntf    sn216517   6.766   4.133   2.171 -0.0051  0.0015 -0.3261
 2506ntf    nn316518   6.873   4.206   2.082  0.3231  0.1349  0.1760
 2506ntf    sn216519   7.030   4.207   2.098  0.3493  0.5247 -0.0833
 2506ntf    cn116520   7.069   4.380   2.058  0.2304  0.4857 -0.3714
 2506ntf    fn416521   6.633   3.920   2.112 -0.1430  0.5100 -0.1117
 2506ntf    fn416522   6.672   4.048   1.946 -0.0770 -0.2551 -0.6486
 2506ntf    fn416523   6.824   3.921   2.017  0.2735  0.1300  0.3520
 2506ntf    on516524   6.648   4.215   2.174 -0.4660 -0.6463 -0.4850
 2506ntf    on516525   6.811   4.064   2.290  0.7577  0.5404 -0.2901
 2506ntf    on516526   7.102   4.140   1.993  0.1597 -0.1146  0.1840
 2506ntf    on516527   7.088   4.185   2.228 -0.0650  0.5049  0.1024
 2506ntf    fn416528   6.986   4.463   2.118  0.0751 -0.2555  0.4703
 2506ntf    fn416529   7.190   4.417   2.098  0.2434  0.3830 -0.3129
 2506ntf    fn416530   7.065   4.400   1.928  0.0292  0.2966 -0.3962
 2507ntf    cn116531   1.735   1.764   3.916  0.1954 -0.0501  0.1843
 2507ntf    sn216532   1.574   1.844   3.890  0.1327 -0.2925 -0.1848
 2507ntf    nn316533   1.505   1.769   3.771 -0.2843  0.1953 -0.2528
 2507ntf    sn216534   1.385   1.673   3.800 -0.2200  0.2500  0.1966
 2507ntf    cn116535   1.253   1.797   3.817 -0.1605  0.3376  0.0208
 2507ntf    fn416536   1.820   1.853   3.965 -0.5792  0.6266  0.3170
 2507ntf    fn416537   1.730   1.671   4.010  0.5870 -0.0812  0.1787
 2507ntf    fn416538   1.788   1.712   3.806 -0.7454 -0.6595  0.0069
 2507ntf    on516539   1.521   1.819   4.021 -0.1262  0.1649 -0.1982
 2507ntf    on516540   1.608   1.982   3.864  0.3321 -0.2726  0.1736
 2507ntf    on516541   1.385   1.590   3.919  0.0472  0.0556  0.0625
 2507ntf    on516542   1.346   1.614   3.674 -0.1939  0.1930  0.2150
 2507ntf    fn416543   1.132   1.745   3.805 -0.0505  0.2445 -0.7396
 2507ntf    fn416544   1.259   1.854   3.936  0.4383  0.8366 -0.2411
 2507ntf    fn416545   1.257   1.897   3.731  0.2114 -0.2414 -0.6551
 2508ntf    cn116546   2.304   0.115   1.363  0.2671 -0.1178 -0.1829
 2508ntf    sn216547   2.209   0.089   1.516  0.4836 -0.1427 -0.0519
 2508ntf    nn316548   2.127   0.222   1.534  0.7891 -0.0112  0.3829
 2508ntf    sn216549   2.157   0.376   1.540  0.1040  0.1427 -0.0970
 2508ntf    cn116550   2.034   0.422   1.665 -0.0628 -0.4285 -0.0469
 2508ntf    fn416551   2.217   0.154   1.271 -0.3546 -0.4745  0.2502
 2508ntf    fn416552   2.390   0.214   1.385  0.1032  0.1576 -0.7653
 2508ntf    fn416553   2.369   0.007   1.323 -0.3056 -0.4566 -0.2011
 2508ntf    on516554   2.131  -0.026   1.476  0.2534 -0.1437  0.4002
 2508ntf    on516555   2.304   0.058   1.619 -0.2068 -0.8894  0.3721
 2508ntf    on516556   2.115   0.442   1.419  0.2132  0.3010 -0.0477
 2508ntf    on516557   2.279   0.415   1.605 -0.0327 -0.2305  0.3911
 2508ntf    fn416558   2.056   0.537   1.727 -0.1703 -0.4288 -0.0074
 2508ntf    fn416559   1.921   0.421   1.597 -0.1090  0.5398  0.0073
 2508ntf    fn416560   2.018   0.326   1.755 -0.3712 -0.1166  0.2327
 2509ntf    cn116561   5.954   3.572   5.094 -0.1324  0.0983 -0.0146
 2509ntf    sn216562   5.965   3.571   5.276 -0.0358 -0.4849 -0.0228
 2509ntf    nn316563   6.109   3.627   5.300 -0.3506  0.1102  0.4887
 2509ntf    sn216564   6.152   3.763   5.366 -0.0546  0.2668 -0.0291
 2509ntf    cn116565   6.165   3.711   5.540 -0.1734 -0.3021 -0.1870
 2509ntf    fn416566   5.926   3.695   5.054  0.2234 -0.0507 -0.7494
 2509ntf    fn416567   6.065   3.538   5.030 -0.0327  0.1156  0.1487
 2509ntf    fn416568   5.851   3.499   5.056 -0.3293  0.3415  0.0501
 2509ntf    on516569   5.856   3.658   5.314  0.0694  0.0980 -1.0070
 2509ntf    on516570   5.957   3.429   5.303  0.7171 -0.4120  0.6015
 2509ntf    on516571   6.051   3.866   5.365 -0.4266 -0.0976  0.0300
 2509ntf    on516572   6.285   3.802   5.325  0.0713  0.0672  0.1888
 2509ntf    fn416573   6.199   3.815   5.614  0.2138 -0.4763 -0.1225
 2509ntf    fn416574   6.059   3.652   5.592 -0.3188  0.0435 -0.0889
 2509ntf    fn416575   6.262   3.624   5.557 -0.0875 -0.1855 -0.0836
 2510ntf    cn116576   2.239   1.004   5.777  0.0987 -0.0409 -0.4147
 2510ntf    sn216577   2.305   1.171   5.803  0.1246 -0.0827 -0.2154
 2510ntf    nn316578   2.406   1.186   5.684  0.0755  0.3156 -0.2088
 2510ntf    sn216579   2.403   1.268   5.551  0.1116  0.1210 -0.3294
 2510ntf    cn116580   2.278   1.173   5.459 -0.1379  0.1425 -0.0144
 2510ntf    fn416581   2.174   1.008   5.662 -0.5513 -0.1371 -0.0539
 2510ntf    fn416582   2.327   0.906   5.772  0.3132  0.1092  0.3393
 2510ntf    fn416583   2.147   0.971   5.866  1.0099 -0.3771  0.4212
 2510ntf    on516584   2.190   1.257   5.810  0.0983 -0.1810  0.7391
 2510ntf    on516585   2.372   1.149   5.929 -0.3879 -1.2487 -0.1360
 2510ntf    on516586   2.529   1.259   5.481  0.2608  0.8867 -0.1762
 2510ntf    on516587   2.349   1.402   5.554  0.8735  0.4215  0.1313
 2510ntf    fn416588   2.317   1.047   5.450  0.0477  0.2458 -0.7071
 2510ntf    fn416589   2.158   1.178   5.515 -0.0284  0.2627  0.2088
 2510ntf    fn416590   2.272   1.220   5.336  0.0925  0.4796  0.1030
 2511ntf    cn116591   1.272   5.993   2.903 -0.1845  0.3874  0.0165
 2511ntf    sn216592   1.348   5.828   2.898 -0.3558  0.3032  0.1926
 2511ntf    nn316593   1.245   5.742   2.980 -0.1486 -0.3234 -0.1899
 2511ntf    sn216594   1.239   5.692   3.129  0.0988  0.1308 -0.0260
 2511ntf    cn116595   1.260   5.513   3.107 -0.0545  0.1804 -0.5901
 2511ntf    fn416596   1.355   6.075   2.841  0.1352  0.2896  0.3120
 2511ntf    fn416597   1.154   6.006   2.846 -0.3771 -0.0420  0.3133
 2511ntf    fn416598   1.256   6.038   3.027 -0.2473 -0.7815  0.4438
 2511ntf    on516599   1.356   5.795   2.758  0.0799 -0.6054  0.4241
 2511ntf    on516600   1.474   5.850   2.964 -0.2593 -0.1450  0.1660
 2511ntf    on516601   1.114   5.696   3.201  0.4088 -0.4353  0.5548
 2511ntf    on516602   1.357   5.719   3.208 -0.3538  0.6820  0.4788
 2511ntf    fn416603   1.160   5.441   3.059 -0.4292  0.6174 -0.4759
 2511ntf    fn416604   1.361   5.480   3.029  0.2256  0.6627 -0.4392
 2511ntf    fn416605   1.291   5.458   3.224  0.0635  0.8266 -0.3119
 2512ntf    cn116606   0.509   6.848   1.245 -0.4018  0.1439  0.4332
 2512ntf    sn216607   0.415   6.702   1.300  0.2350 -0.3368  0.2506
 2512ntf    nn316608   0.447   6.710   1.454  0.3981  0.4416  0.1803
 2512ntf    sn216609   0.361   6.769   1.571 -0.0816 -0.0478  0.0778
 2512ntf    cn116610   0.278   6.611   1.608 -0.1333 -0.0626 -0.0954
 2512ntf    fn416611   0.465   6.956   1.306  0.0336  0.6561 -0.1492
 2512ntf    fn416612   0.637   6.852   1.275 -0.3433  0.1947  0.1777
 2512ntf    fn416613   0.507   6.861   1.113  0.1131 -0.7787  0.3253
 2512ntf    on516614   0.278   6.711   1.256  0.4534  0.7835 -0.2201
 2512ntf    on516615   0.489   6.599   1.230  0.0941 -0.1753 -0.1392
 2512ntf    on516616   0.251   6.851   1.525 -0.2455  0.0817  0.6949
 2512ntf    on516617   0.431   6.795   1.694 -0.0403 -0.2562  0.0993
 2512ntf    fn416618   0.212   6.573   1.500 -0.5903  0.5501 -0.0301
 2512ntf    fn416619   0.361   6.510   1.631  0.0144  0.1025  0.0954
 2512ntf    fn416620   0.201   6.618   1.715  0.0687 -0.5094  0.0801
 2513ntf    cn116621   6.375   5.107   2.003 -0.4737 -0.0166  0.3455
 2513ntf    sn216622   6.243   4.982   2.004 -0.2140 -0.2928  0.0594
 2513ntf    nn316623   6.268   4.935   2.152  0.0768 -0.0256  0.0955
 2513ntf    sn216624   6.182   4.971   2.277 -0.0288  0.5629 -0.1454
 2513ntf    cn116625   6.087   4.821   2.316 -0.1396  0.5969 -0.2843
 2513ntf    fn416626   6.491   5.046   2.020 -0.4757 -0.2150 -0.3362
 2513ntf    fn416627   6.386   5.175   1.890 -0.3473 -0.0597  0.3318
 2513ntf    fn416628   6.361   5.193   2.103  0.1299  0.0459  0.3810
 2513ntf    on516629   6.120   5.045   1.964  0.1671  0.3441 -0.1252
 2513ntf    on516630   6.294   4.876   1.921  0.6111  0.3183 -0.2254
 2513ntf    on516631   6.082   5.074   2.260 -0.4833  0.2621  0.6282
 2513ntf    on516632   6.261   4.993   2.396  0.0069  0.0483 -0.0707
 2513ntf    fn416633   6.049   4.754   2.209  0.4964  0.2682 -0.3117
 2513ntf    fn416634   6.169   4.746   2.388 -0.0209  0.7105 -0.3003
 2513ntf    fn416635   5.975   4.853   2.380 -0.3239 -0.4313 -0.0768
 2514ntf    cn116636   2.016   2.449   2.547 -0.3255  0.0804  0.1715
 2514ntf    sn216637   1.865   2.496   2.636 -0.2697  0.1823  0.2131
 2514ntf    nn316638   1.924   2.565   2.764  0.0674  0.2390  0.0291
 2514ntf    sn216639   1.942   2.716   2.803  0.0306  0.2298  0.0836
 2514ntf    cn116640   1.794   2.746   2.904  0.0790  0.0480  0.2108
 2514ntf    fn416641   2.099   2.376   2.621 -0.0664 -0.7365 -0.9036
 2514ntf    fn416642   1.988   2.366   2.449  0.5518  0.6081 -0.5385
 2514ntf    fn416643   2.094   2.548   2.506 -0.0210  0.1157  0.8183
 2514ntf    on516644   1.797   2.580   2.540 -0.3109 -0.0923 -0.0003
 2514ntf    on516645   1.813   2.364   2.663  0.2356  0.0116  0.3575
 2514ntf    on516646   1.938   2.804   2.689  0.0098 -0.0776 -0.1532
 2514ntf    on516647   2.053   2.742   2.892  0.1073  0.2043 -0.0034
 2514ntf    fn416648   1.806   2.840   2.996  0.5102 -0.2971  0.5113
 2514ntf    fn416649   1.691   2.784   2.830  0.1843 -0.2208 -0.0754
 2514ntf    fn416650   1.756   2.634   2.962 -0.7616  0.0295 -0.3473
 2515ntf    cn116651   5.679   6.629   5.177 -0.2671  0.4968 -0.2493
 2515ntf    sn216652   5.806   6.758   5.189  0.0692  0.1556 -0.1050
 2515ntf    nn316653   5.842   6.737   5.340  0.9659  0.1389 -0.3179
 2515ntf    sn216654   5.968   6.674   5.411  0.4402 -0.3092  0.2246
 2515ntf    cn116655   5.896   6.599   5.561 -0.3948 -0.3657 -0.1973
 2515ntf    fn416656   5.585   6.632   5.271  0.2263  0.5690  0.2480
 2515ntf    fn416657   5.617   6.626   5.060  0.2405 -0.2472 -0.5107
 2515ntf    fn416658   5.735   6.511   5.197 -0.3563  0.5426  0.2987
 2515ntf    on516659   5.904   6.715   5.093  0.2679 -0.8042  0.5166
 2515ntf    on516660   5.743   6.886   5.168 -0.3138  0.0127  0.1550
 2515ntf    on516661   6.058   6.776   5.456 -0.0264  0.1687  0.0902
 2515ntf    on516662   6.019   6.559   5.340  0.3148  0.1286 -0.5819
 2515ntf    fn416663   5.787   6.532   5.527 -0.2315 -0.7814  0.1052
 2515ntf    fn416664   5.989   6.517   5.606  0.2840  0.3550 -0.2470
 2515ntf    fn416665   5.860   6.682   5.658 -0.5315  0.3790 -0.8651
 2516ntf    cn116666   4.799   6.224   1.114 -0.4194  0.2264 -0.0582
 2516ntf    sn216667   4.684   6.195   0.976 -0.2027  0.2287 -0.2389
 2516ntf    nn316668   4.567   6.293   1.014 -0.4501 -0.2854  0.3281
 2516ntf    sn216669   4.472   6.389   0.934  0.1041  0.0622  0.0886
 2516ntf    cn116670   4.566   6.543   0.958  0.3526 -0.0983  0.1606
 2516ntf    fn416671   4.812   6.352   1.143  0.0478  0.2394 -0.3365
 2516ntf    fn416672   4.774   6.168   1.232 -0.1619  0.0003 -0.1083
 2516ntf    fn416673   4.923   6.190   1.087 -0.4594  0.0031  0.0338
 2516ntf    on516674   4.754   6.246   0.860 -0.4110 -0.0683 -0.4957
 2516ntf    on516675   4.653   6.055   0.980 -0.1659  0.2072 -0.6443
 2516ntf    on516676   4.351   6.397   1.012  0.2935 -0.4381  0.4372
 2516ntf    on516677   4.465   6.361   0.793 -0.7032 -0.0453  0.1472
 2516ntf    fn416678   4.544   6.589   1.081  0.0966  0.1832  0.0126
 2516ntf    fn416679   4.695   6.537   0.934  0.2780 -0.4525 -0.1499
 2516ntf    fn416680   4.520   6.643   0.883  0.0221 -0.4090 -0.0552
 2517ntf    cn116681   3.041   5.817   5.666 -0.0329 -0.0286  0.0567
 2517ntf    sn216682   2.997   5.929   5.530 -0.3366 -0.0081  0.1698
 2517ntf    nn316683   2.894   5.831   5.463  0.3411 -0.2928 -0.4747
 2517ntf    sn216684   2.748   5.850   5.408  0.0392 -0.0796  0.3963
 2517ntf    cn116685   2.744   5.717   5.285 -0.1362  0.3552 -0.0711
 2517ntf    fn416686   2.931   5.803   5.738 -0.2477 -0.0011 -0.2682
 2517ntf    fn416687   3.081   5.698   5.624 -0.4316 -0.1521  0.0293
 2517ntf    fn416688   3.137   5.865   5.744  0.1055  0.2859 -0.3061
 2517ntf    on516689   2.937   6.043   5.593 -0.4538  0.3681 -0.6050
 2517ntf    on516690   3.126   5.950   5.468 -0.0084 -0.4219  0.6934
 2517ntf    on516691   2.730   5.969   5.328  0.4167 -0.5127 -0.3364
 2517ntf    on516692   2.638   5.811   5.493 -0.2708  0.6883  0.3623
 2517ntf    fn416693   2.623   5.709   5.232 -0.3435  0.3514  0.3934
 2517ntf    fn416694   2.823   5.751   5.184  0.1854 -0.0227  0.0504
 2517ntf    fn416695   2.779   5.602   5.340 -0.6276  0.0757 -0.3390
 2518ntf    cn116696   2.563   2.537   5.849  0.1847 -0.4236  0.0716
 2518ntf    sn216697   2.502   2.670   5.957 -0.1155  0.0304 -0.6442
 2518ntf    nn316698   2.519   2.601   6.097 -0.1583  0.3060 -0.5030
 2518ntf    sn216699   2.416   2.512   6.176  0.2119  0.3688  0.0543
 2518ntf    cn116700   2.522   2.370   6.218 -0.1206  0.0435 -0.2076
 2518ntf    fn416701   2.693   2.527   5.866  0.0572 -0.8036  0.8828
 2518ntf    fn416702   2.514   2.420   5.888 -0.0444 -0.3361  0.0522
 2518ntf    fn416703   2.543   2.553   5.719  0.3151 -0.2210  0.0764
 2518ntf    on516704   2.602   2.773   5.945  0.1262 -0.1760 -0.4005
 2518ntf    on516705   2.370   2.703   5.911  0.0034  0.8909 -0.3772
 2518ntf    on516706   2.305   2.462   6.099  0.0389  0.6483  0.1202
 2518ntf    on516707   2.388   2.575   6.303  0.6867 -0.1898  0.4448
 2518ntf    fn416708   2.457   2.272   6.280  0.7393 -0.4245 -0.0350
 2518ntf    fn416709   2.579   2.315   6.112 -0.0509  0.0220 -0.1594
 2518ntf    fn416710   2.621   2.408   6.296 -0.4336  0.9116 -0.2190
 2519ntf    cn116711   0.452   5.863   5.708 -0.5014 -0.3023  0.3937
 2519ntf    sn216712   0.564   5.926   5.580 -0.1134 -0.4901  0.6396
 2519ntf    nn316713   0.667   5.807   5.578  0.0488 -0.3462  0.4566
 2519ntf    sn216714   0.813   5.812   5.635  0.2561 -0.0156 -0.0893
 2519ntf    cn116715   0.892   5.883   5.487  0.3778 -0.2150 -0.1206
 2519ntf    fn416716   0.522   5.839   5.817  0.1800  0.1574  0.0602
 2519ntf    fn416717   0.361   5.957   5.727 -0.6006 -0.2359 -0.3894
 2519ntf    fn416718   0.387   5.754   5.668  0.2230 -0.4474 -0.4015
 2519ntf    on516719   0.479   5.931   5.463  0.4425  0.0531  0.2524
 2519ntf    on516720   0.604   6.054   5.631 -0.0394 -0.4007  0.3564
 2519ntf    on516721   0.871   5.680   5.646 -0.9792 -0.5489  0.1485
 2519ntf    on516722   0.843   5.903   5.743 -0.2650  0.1274 -0.0631
 2519ntf    fn416723   0.898   5.793   5.390  0.4138  0.0429 -0.3581
 2519ntf    fn416724   0.827   5.988   5.441 -0.2443 -0.2759  0.5889
 2519ntf    fn416725   1.016   5.920   5.512  0.1258  0.5067  0.0736
 2520ntf    cn116726   5.093   4.617   3.273 -0.2232  0.0445  0.0685
 2520ntf    sn216727   5.095   4.783   3.199 -0.1650  0.0946  0.1818
 2520ntf    nn316728   5.223   4.765   3.108 -0.1520 -0.1007  0.2380
 2520ntf    sn216729   5.257   4.818   2.964 -0.0876 -0.0618  0.2674
 2520ntf    cn116730   5.435   4.847   2.990 -0.0314 -0.0696 -0.1087
 2520ntf    fn416731   5.115   4.530   3.176 -0.2171  0.2584 -0.1210
 2520ntf    fn416732   5.186   4.604   3.367 -0.5744 -0.2288  0.3818
 2520ntf    fn416733   4.980   4.585   3.335 -0.0477 -0.4171  0.1535
 2520ntf    on516734   4.971   4.782   3.126  0.4625 -0.0103 -0.9269
 2520ntf    on516735   5.105   4.873   3.311 -0.5923  0.0287  0.2724
 2520ntf    on516736   5.200   4.946   2.931  0.1072 -0.1634 -0.4792
 2520ntf    on516737   5.258   4.708   2.871  0.1595 -0.1445  0.3648
 2520ntf    fn416738   5.504   4.735   2.990 -0.2818 -0.2250 -0.3955
 2520ntf    fn416739   5.479   4.911   2.883 -0.0119  0.0037 -0.0582
 2520ntf    fn416740   5.471   4.906   3.103 -0.2927  0.1184 -0.1221
 2521ntf    cn116741   1.841   3.930   3.723 -0.0685 -0.2241  0.0477
 2521ntf    sn216742   1.846   3.748   3.711 -0.1294 -0.2537  0.4451
 2521ntf    nn316743   1.693   3.716   3.723 -0.1152 -0.2464  0.6447
 2521ntf    sn216744   1.626   3.639   3.843 -0.2474 -0.3416  0.5101
 2521ntf    cn116745   1.491   3.564   3.747 -0.3164  0.1655  0.2045
 2521ntf    fn416746   1.954   3.968   3.779 -0.3319  0.5876  0.0319
 2521ntf    fn416747   1.841   3.992   3.606 -0.3497 -0.4498 -0.0738
 2521ntf    fn416748   1.743   3.985   3.793 -0.1441 -0.6650  0.2977
 2521ntf    on516749   1.900   3.733   3.578  0.1818  0.2807  0.5068
 2521ntf    on516750   1.931   3.721   3.824  0.5380  0.0329  0.0207
 2521ntf    on516751   1.563   3.728   3.937  0.0133  0.0214  0.3472
 2521ntf    on516752   1.698   3.524   3.890  0.5863  0.0304  0.1593
 2521ntf    fn416753   1.444   3.642   3.652  0.2165  0.3699  0.1065
 2521ntf    fn416754   1.528   3.448   3.694  0.1380  0.3858  0.0320
 2521ntf    fn416755   1.387   3.534   3.823 -0.2030  0.1141  0.3400
 2522ntf    cn116756   0.498   4.875   5.849  0.1382 -0.0290  0.0764
 2522ntf    sn216757   0.627   4.847   5.724  0.0865  0.1023 -0.0070
 2522ntf    nn316758   0.596   4.699   5.681  0.2492  0.2038 -0.4792
 2522ntf    sn216759   0.670   4.563   5.708  0.0770  0.2683  0.3236
 2522ntf    cn116760   0.637   4.490   5.545 -0.1659  0.6728  0.1906
 2522ntf    fn416761   0.519   4.803   5.958  0.1855  0.0638  0.1290
 2522ntf    fn416762   0.493   4.999   5.897 -0.4326  0.0587 -0.2065
 2522ntf    fn416763   0.377   4.862   5.799  0.2088  0.1900 -0.1557
 2522ntf    on516764   0.587   4.940   5.621 -0.3638  0.0621  0.1308
 2522ntf    on516765   0.752   4.872   5.790  0.4346 -0.3109 -0.4982
 2522ntf    on516766   0.612   4.481   5.812  0.8494 -0.1724  0.4172
 2522ntf    on516767   0.814   4.563   5.709  0.0849 -0.8226  1.1674
 2522ntf    fn416768   0.506   4.481   5.527 -0.0855  0.2898 -0.2041
 2522ntf    fn416769   0.694   4.569   5.456  0.1463  0.4243  0.1666
 2522ntf    fn416770   0.691   4.371   5.528 -0.7720  0.3248  0.6515
 2523ntf    cn116771   3.314   1.051   1.382  0.2421 -0.0113  0.2026
 2523ntf    sn216772   3.160   1.084   1.472  0.0666  0.3873 -0.2442
 2523ntf    nn316773   3.130   0.951   1.549 -0.2458 -0.0246 -1.0701
 2523ntf    sn216774   3.014   0.848   1.523 -0.0615 -0.5098 -0.0135
 2523ntf    cn116775   2.874   0.938   1.596  0.3677  0.3938 -0.2845
 2523ntf    fn416776   3.302   0.933   1.324  0.3170  0.1955 -0.2315
 2523ntf    fn416777   3.347   1.137   1.288  0.3881 -0.1051  0.1661
 2523ntf    fn416778   3.417   1.044   1.465  0.6500 -0.8863 -0.3636
 2523ntf    on516779   3.203   1.187   1.564  0.4848 -0.6183  0.7064
 2523ntf    on516780   3.067   1.114   1.366 -0.0348  0.2875 -0.1842
 2523ntf    on516781   3.033   0.734   1.609 -0.3084 -0.0411  0.6781
 2523ntf    on516782   2.972   0.828   1.387 -0.2506  0.5794 -0.1262
 2523ntf    fn416783   2.770   0.858   1.616  0.4489  0.4168  0.2350
 2523ntf    fn416784   2.903   0.986   1.715  0.8896 -0.0636 -0.2222
 2523ntf    fn416785   2.828   1.034   1.517 -0.6846  0.0562 -0.1001
 2524ntf    cn116786   6.313   3.423   0.711  0.1635  0.0776 -0.1367
 2524ntf    sn216787   6.478   3.495   0.686  0.2247 -0.0305 -0.0419
 2524ntf    nn316788   6.577   3.380   0.727 -0.1425 -0.3986 -0.1826
 2524ntf    sn216789   6.702   3.314   0.659 -0.0102 -0.1938 -0.1416
 2524ntf    cn116790   6.648   3.141   0.679  0.1906 -0.2124  0.2375
 2524ntf    fn416791   6.285   3.326   0.625  0.6659 -0.1091 -0.0931
 2524ntf    fn416792   6.299   3.372   0.832 -0.3522 -0.3053 -0.3553
 2524ntf    fn416793   6.217   3.513   0.696  0.4769  0.4862  0.2624
 2524ntf    on516794   6.481   3.539   0.549  0.1884 -0.0014 -0.0335
 2524ntf    on516795   6.481   3.602   0.784  0.4172  1.0629 -1.2106
 2524ntf    on516796   6.825   3.337   0.730 -0.0481  0.3560 -0.2533
 2524ntf    on516797   6.703   3.331   0.516 -0.8433  0.5089 -0.0724
 2524ntf    fn416798   6.729   3.066   0.606  0.4932 -0.1175  0.4737
 2524ntf    fn416799   6.654   3.092   0.802  0.0879  0.2639  0.4368
 2524ntf    fn416800   6.525   3.119   0.636  0.0593  0.5327  0.2115
 2525ntf    cn116801   5.024   5.368   5.593  0.0819 -0.1719  0.2258
 2525ntf    sn216802   4.873   5.437   5.667  0.1371  0.1999 -0.0086
 2525ntf    nn316803   4.852   5.348   5.794  0.4943  0.1880  0.0421
 2525ntf    sn216804   4.785   5.385   5.931  0.0370  0.2697 -0.2000
 2525ntf    cn116805   4.694   5.236   5.980  0.1646  0.1491 -0.3292
 2525ntf    fn416806   5.003   5.242   5.556 -0.4104 -0.1937  0.5654
 2525ntf    fn416807   5.064   5.427   5.482  0.2833 -0.7469 -0.0110
 2525ntf    fn416808   5.129   5.373   5.674  0.1593  0.7889  0.0736
 2525ntf    on516809   4.908   5.575   5.689  0.2054  0.1653  0.0968
 2525ntf    on516810   4.773   5.410   5.566 -0.2155  0.0443  0.3788
 2525ntf    on516811   4.685   5.489   5.922 -0.0514  0.2135  0.1001
 2525ntf    on516812   4.881   5.399   6.038  0.3765  0.0572 -0.4766
 2525ntf    fn416813   4.619   5.254   6.088  0.2620 -0.2322 -0.1977
 2525ntf    fn416814   4.622   5.191   5.879 -0.0741  0.2333 -0.1974
 2525ntf    fn416815   4.784   5.141   5.998 -0.1995 -0.0677  0.3863
 2526ntf    cn116816   3.426   1.092   0.988  0.4487  0.0114 -0.1735
 2526ntf    sn216817   3.481   1.195   0.849 -0.0676  0.1936 -0.2469
 2526ntf    nn316818   3.556   1.305   0.932 -0.0073 -0.6096  0.7806
 2526ntf    sn216819   3.708   1.339   0.908 -0.1800 -0.1806  0.2891
 2526ntf    cn116820   3.698   1.429   0.750  0.0250 -0.1247  0.3086
 2526ntf    fn416821   3.497   1.100   1.099  0.1664 -0.1800  0.0238
 2526ntf    fn416822   3.308   1.131   1.035  0.3602  0.1215 -0.4829
 2526ntf    fn416823   3.412   0.964   0.958 -0.4908  0.0879 -0.1101
 2526ntf    on516824   3.554   1.110   0.759 -0.2788 -0.1093 -0.1336
 2526ntf    on516825   3.356   1.250   0.802  0.0285  0.3214 -0.3544
 2526ntf    on516826   3.799   1.228   0.896 -0.2057 -0.2138  0.3984
 2526ntf    on516827   3.749   1.439   1.003 -0.3215 -0.4674  0.6585
 2526ntf    fn416828   3.624   1.374   0.655  0.3948 -0.7394  0.3667
 2526ntf    fn416829   3.654   1.550   0.779 -0.2847 -0.1305 -0.1321
 2526ntf    fn416830   3.813   1.450   0.688 -0.0015  0.2343  0.3824
 2527ntf    cn116831   6.266   0.761   6.328  0.2063 -0.0820  0.2923
 2527ntf    sn216832   6.420   0.813   6.410  0.2404  0.5508 -0.1677
 2527ntf    nn316833   6.401   0.964   6.369 -0.2371  0.5324 -0.0157
 2527ntf    sn216834   6.475   1.042   6.255  0.2337  0.2059  0.0624
 2527ntf    cn116835   6.629   1.095   6.337  0.4857 -0.4917  0.0459
 2527ntf    fn416836   6.264   0.631   6.304 -0.4801 -0.3454  1.6609
 2527ntf    fn416837   6.160   0.803   6.395  0.0834 -0.2695  0.2161
 2527ntf    fn416838   6.255   0.818   6.209 -0.5454  0.5779  0.6661
 2527ntf    on516839   6.396   0.798   6.551  0.1155 -0.6568 -0.3053
 2527ntf    on516840   6.530   0.740   6.351  0.4019  0.7350 -0.0992
 2527ntf    on516841   6.406   1.165   6.225 -0.1269 -0.0651 -0.2133
 2527ntf    on516842   6.519   0.962   6.144 -0.2587 -0.4152  0.3150
 2527ntf    fn416843   6.595   1.179   6.434  0.4902  0.3073 -0.6305
 2527ntf    fn416844   6.692   0.991   6.390  0.3755 -0.5256  0.1107
 2527ntf    fn416845   6.709   1.162   6.256  0.1188 -0.6638 -0.4651
 2528ntf    cn116846   5.950   3.318   0.688 -0.0472  0.1286 -0.2208
 2528ntf    sn216847   5.776   3.266   0.687 -0.0430  0.1108 -0.0557
 2528ntf    nn316848   5.721   3.360   0.800  0.1006  0.0155  0.0927
 2528ntf    sn216849   5.722   3.350   0.957  0.2917  0.2043  0.1058
 2528ntf    cn116850   5.544   3.356   0.994  0.2331 -0.0189 -0.1348
 2528ntf    fn416851   5.987   3.319   0.815  0.2614 -0.0438 -0.3092
 2528ntf    fn416852   6.034   3.247   0.614 -0.4779 -0.6856  0.0501
 2528ntf    fn416853   5.964   3.442   0.646 -0.1575  0.2253  0.0267
 2528ntf    on516854   5.723   3.301   0.557  0.0716  0.0595 -0.1161
 2528ntf    on516855   5.776   3.125   0.715 -0.7664  0.0835 -0.1533
 2528ntf    on516856   5.780   3.465   1.021 -0.1112 -0.0360  0.9154
 2528ntf    on516857   5.765   3.219   0.999 -0.1866 -0.0930 -0.3115
 2528ntf    fn416858   5.473   3.267   0.926  0.5134 -0.4508  0.1349
 2528ntf    fn416859   5.517   3.343   1.123 -0.4213  0.5782 -0.2059
 2528ntf    fn416860   5.496   3.471   0.952  0.0137 -0.2294 -0.4633
 2529ntf    cn116861   0.830   2.797   4.952 -0.2322  0.0927 -0.2669
 2529ntf    sn216862   0.946   2.667   5.005  0.0772  0.3577 -0.2884
 2529ntf    nn316863   0.877   2.628   5.140 -0.0913  0.2181 -0.4146
 2529ntf    sn216864   0.905   2.699   5.277  0.0557 -0.1761 -0.2387
 2529ntf    cn116865   1.032   2.583   5.336  0.2227 -0.0347 -0.3187
 2529ntf    fn416866   0.882   2.856   4.846 -0.3190  0.3561 -0.1655
 2529ntf    fn416867   0.711   2.747   4.924 -0.2887  0.4165 -0.6178
 2529ntf    fn416868   0.811   2.895   5.039 -0.2817 -0.4520  0.3446
 2529ntf    on516869   0.925   2.556   4.916 -0.1966  0.2071 -0.0386
 2529ntf    on516870   1.079   2.722   5.012  0.4673 -0.5688 -0.3378
 2529ntf    on516871   0.795   2.678   5.367 -0.5376 -0.1970 -0.9659
 2529ntf    on516872   0.964   2.830   5.279  0.2522 -0.2665 -0.0721
 2529ntf    fn416873   1.100   2.642   5.433 -0.2248  0.1024 -0.0910
 2529ntf    fn416874   0.979   2.470   5.379  0.7957 -0.0763  0.2862
 2529ntf    fn416875   1.116   2.534   5.245  0.3767 -0.1254 -0.1291
 2530ntf    cn116876   3.946   1.512   6.338  0.1221  0.2642 -0.1245
 2530ntf    sn216877   3.768   1.531   6.370  0.0884  0.2697 -0.3142
 2530ntf    nn316878   3.715   1.383   6.373 -0.1236  0.3594  0.4761
 2530ntf    sn216879   3.590   1.324   6.446 -0.3672 -0.1472 -0.3466
 2530ntf    cn116880   3.656   1.289   6.612 -0.4283 -0.0222 -0.2961
 2530ntf    fn416881   4.001   1.419   6.414  0.2701  0.6110  0.1968
 2530ntf    fn416882   3.974   1.479   6.213 -0.5021  0.1468 -0.2353
 2530ntf    fn416883   4.007   1.625   6.370  0.1215  0.2436 -0.0519
 2530ntf    on516884   3.770   1.591   6.501  0.1413  0.2526 -0.3067
 2530ntf    on516885   3.715   1.608   6.260  0.1078  0.3960 -0.2343
 2530ntf    on516886   3.560   1.193   6.391 -0.2061 -0.1147 -0.5135
 2530ntf    on516887   3.482   1.415   6.474 -0.2165 -0.0613 -0.0435
 2530ntf    fn416888   3.779   1.240   6.615 -0.2106  0.5166 -0.3040
 2530ntf    fn416889   3.658   1.397   6.688  0.0528 -0.1776 -0.0902
 2530ntf    fn416890   3.580   1.203   6.678  0.4549 -0.2000  0.4992
 2531ntf    cn116891   3.959   3.073   5.672  0.1108 -0.1320  0.1653
 2531ntf    sn216892   4.008   2.927   5.767  0.1050  0.0157  0.3945
 2531ntf    nn316893   3.870   2.889   5.831 -0.3170 -0.1732 -0.6141
 2531ntf    sn216894   3.779   2.765   5.801  0.0063 -0.6027  0.1375
 2531ntf    cn116895   3.615   2.842   5.811  0.3402  0.2401 -0.7604
 2531ntf    fn416896   3.843   3.062   5.609  0.2756 -0.5846 -0.0579
 2531ntf    fn416897   3.949   3.180   5.749 -0.0553 -0.1357  0.1496
 2531ntf    fn416898   4.040   3.098   5.570 -0.0804 -0.0824  0.0252
 2531ntf    on516899   4.076   2.838   5.676  0.1088 -0.0439  0.4549
 2531ntf    on516900   4.094   2.994   5.862  0.6413  0.1646 -0.1906
 2531ntf    on516901   3.766   2.667   5.906 -0.1219 -0.7430 -0.0091
 2531ntf    on516902   3.777   2.711   5.667 -0.1731 -0.5075  0.1018
 2531ntf    fn416903   3.626   2.969   5.773 -0.1387  0.5271  0.0252
 2531ntf    fn416904   3.538   2.784   5.721  0.1403 -0.6322 -0.0359
 2531ntf    fn416905   3.554   2.848   5.928  0.5428 -0.4066 -0.6197
 2532ntf    cn116906   5.209   0.356   0.657  0.4452 -0.1655  0.0470
 2532ntf    sn216907   5.032   0.394   0.680  0.4875  0.2151 -0.2414
 2532ntf    nn316908   4.983   0.276   0.771 -0.1565  0.3361 -0.4268
 2532ntf    sn216909   4.913   0.137   0.749 -0.0080  0.1800  0.0774
 2532ntf    cn116910   4.736   0.176   0.760  0.0010  0.1755  0.2483
 2532ntf    fn416911   5.268   0.316   0.769 -0.1404  0.0575  0.4403
 2532ntf    fn416912   5.224   0.255   0.573  0.4210  0.1972 -0.3982
 2532ntf    fn416913   5.273   0.459   0.605  0.1272 -0.0488 -0.1126
 2532ntf    on516914   5.044   0.521   0.747  0.4157  0.0093  0.1629
 2532ntf    on516915   4.978   0.395   0.546  0.1129 -0.3802 -0.0952
 2532ntf    on516916   4.929   0.048   0.862  0.1788  0.4502  0.2667
 2532ntf    on516917   4.909   0.066   0.624  0.0519  0.0469  0.1506
 2532ntf    fn416918   4.704   0.249   0.865 -0.5302 -0.0061  0.2154
 2532ntf    fn416919   4.691   0.247   0.657  0.0511  0.0365  0.1298
 2532ntf    fn416920   4.664   0.065   0.757 -0.1026  0.2474  0.0663
 2533ntf    cn116921   2.772   0.932   0.440  0.2807 -0.2625 -0.7794
 2533ntf    sn216922   2.604   0.870   0.410  0.1180 -0.1906 -0.0347
 2533ntf    nn316923   2.562   0.850   0.560 -0.0664 -0.0178 -0.0642
 2533ntf    sn216924   2.491   0.943   0.665  0.0030  0.1499 -0.1644
 2533ntf    cn116925   2.313   0.920   0.633 -0.1207  0.2271  0.4451
 2533ntf    fn416926   2.792   1.017   0.539 -0.0010 -0.2805 -0.7079
 2533ntf    fn416927   2.852   0.828   0.460  0.0833 -0.1286  0.8560
 2533ntf    fn416928   2.824   0.986   0.331  0.4866  0.0066 -0.5511
 2533ntf    on516929   2.538   0.976   0.338  0.5111  0.1818  0.1505
 2533ntf    on516930   2.620   0.741   0.346 -0.2723 -0.1142 -0.2853
 2533ntf    on516931   2.511   1.085   0.654 -0.2838  0.2354  0.3783
 2533ntf    on516932   2.505   0.889   0.798 -0.0707 -0.1021 -0.2578
 2533ntf    fn416933   2.279   0.977   0.518  0.3837  0.0745  0.2133
 2533ntf    fn416934   2.268   0.795   0.633  0.1509  0.1155 -0.3912
 2533ntf    fn416935   2.240   0.980   0.725 -0.2237  0.1892  0.3880
 2534ntf    cn116936   1.003   0.726   5.132  0.1262  0.1666  0.2354
 2534ntf    sn216937   0.828   0.677   5.138  0.0487  0.4079 -0.0415
 2534ntf    nn316938   0.777   0.722   4.996 -0.1422 -0.1612 -0.1564
 2534ntf    sn216939   0.651   0.807   4.954 -0.0080 -0.0847 -0.4089
 2534ntf    cn116940   0.595   0.719   4.806 -0.7165 -0.2696 -0.0371
 2534ntf    fn416941   1.070   0.681   5.027  0.0970  0.3745  0.1251
 2534ntf    fn416942   1.012   0.857   5.114 -0.1997  0.1688  0.0651
 2534ntf    fn416943   1.068   0.692   5.241 -0.2508 -0.0422  0.3963
 2534ntf    on516944   0.826   0.534   5.153  0.4931  0.3524 -0.5108
 2534ntf    on516945   0.779   0.754   5.250  0.1324  0.0125  0.2654
 2534ntf    on516946   0.682   0.937   4.900  0.4347 -0.1399 -0.2923
 2534ntf    on516947   0.541   0.794   5.047 -0.0799 -0.0335 -0.4879
 2534ntf    fn416948   0.482   0.768   4.756 -0.7516 -0.6042 -0.2864
 2534ntf    fn416949   0.688   0.717   4.712  0.3645  0.5199  0.9970
 2534ntf    fn416950   0.569   0.591   4.824  0.3638 -0.5263 -0.2758
 2535ntf    cn116951   3.635   6.629   2.949 -0.1763 -0.1453  0.0571
 2535ntf    sn216952   3.719   6.603   3.109 -0.0658  0.1518  0.0465
 2535ntf    nn316953   3.855   6.677   3.082 -0.2855  0.4685 -0.2154
 2535ntf    sn216954   3.939   6.782   3.163 -0.0447 -0.2353  0.4689
 2535ntf    cn116955   3.846   6.934   3.128 -0.0306 -0.2767  0.2495
 2535ntf    fn416956   3.617   6.759   2.931 -0.2157 -0.0854  0.5163
 2535ntf    fn416957   3.713   6.582   2.853 -0.2776  0.7893 -0.4895
 2535ntf    fn416958   3.522   6.564   2.931 -0.0520 -0.2697 -0.2831
 2535ntf    on516959   3.633   6.672   3.202  0.4489  0.1233  0.5477
 2535ntf    on516960   3.739   6.461   3.112 -0.4768  0.0890 -0.1358
 2535ntf    on516961   4.061   6.815   3.095 -0.5797 -0.1133 -0.4502
 2535ntf    on516962   3.925   6.772   3.306  0.0448 -0.8219  0.4367
 2535ntf    fn416963   3.717   6.927   3.159 -0.2193  0.1636 -0.4129
 2535ntf    fn416964   3.895   7.045   3.181  0.4931 -0.2110 -0.3638
 2535ntf    fn416965   3.851   6.955   2.998  0.1767  0.3437  0.3524
 2536ntf    cn116966   6.634   3.129   2.213 -0.0717  0.3272 -0.3755
 2536ntf    sn216967   6.815   3.118   2.207 -0.0971 -0.1357 -0.2634
 2536ntf    nn316968   6.830   2.995   2.303  0.1648 -0.1130 -0.2737
 2536ntf    sn216969   6.919   2.866   2.293 -0.1921 -0.3973  0.1240
 2536ntf    cn116970   6.802   2.755   2.208 -0.4672  0.0609 -0.1002
 2536ntf    fn416971   6.590   3.152   2.336 -0.0454  0.3564 -0.3715
 2536ntf    fn416972   6.570   3.219   2.139  0.0624  0.3694 -0.4404
 2536ntf    fn416973   6.578   3.017   2.173  0.1570  0.0480  0.0840
 2536ntf    on516974   6.832   3.106   2.064  0.2233  0.5534 -0.2859
 2536ntf    on516975   6.855   3.240   2.272 -0.2215 -0.1231 -0.2104
 2536ntf    on516976   6.942   2.797   2.417  0.1083 -0.2680  0.1416
 2536ntf    on516977   7.029   2.877   2.200 -0.2390 -0.4690  0.0597
 2536ntf    fn416978   6.696   2.738   2.286 -0.0285 -0.2583  0.4358
 2536ntf    fn416979   6.766   2.804   2.091 -0.2463 -0.2336 -0.2928
 2536ntf    fn416980   6.849   2.632   2.198  0.2555  0.3017  0.2402
 2537ntf    cn116981   1.465   0.649   4.846 -0.1948 -0.0290  0.0332
 2537ntf    sn216982   1.584   0.511   4.850 -0.1241  0.0345  0.1290
 2537ntf    nn316983   1.488   0.395   4.802  0.2183 -0.1181 -0.1896
 2537ntf    sn216984   1.468   0.317   4.668  0.2194 -0.4510  0.0021
 2537ntf    cn116985   1.583   0.179   4.693  0.4748 -0.2217  0.1024
 2537ntf    fn416986   1.514   0.768   4.875  0.6108 -0.3281 -0.0583
 2537ntf    fn416987   1.411   0.668   4.727 -0.2367 -0.0419  0.0496
 2537ntf    fn416988   1.357   0.633   4.921 -0.0740  0.0368  0.2213
 2537ntf    on516989   1.682   0.557   4.756 -0.0734  0.2634  0.2932
 2537ntf    on516990   1.625   0.491   4.987 -0.5442 -0.1551  0.2305
 2537ntf    on516991   1.501   0.383   4.543  0.5703 -0.1417  0.2564
 2537ntf    on516992   1.338   0.255   4.668 -0.0025  0.0017  0.3720
 2537ntf    fn416993   1.574   0.097   4.589 -0.3193 -0.0997  0.0673
 2537ntf    fn416994   1.705   0.226   4.711  0.1655  0.6116  0.0896
 2537ntf    fn416995   1.561   0.117   4.807  0.1650  0.1413  0.2433
 2538ntf    cn116996   4.881   3.532   5.062  0.4686 -0.1227 -0.1663
 2538ntf    sn216997   4.816   3.586   5.223  0.1957  0.1008 -0.3515
 2538ntf    nn316998   4.828   3.442   5.284  0.4724  0.3787  0.2570
 2538ntf    sn216999   4.881   3.407   5.428  0.0905 -0.1896  0.2608
 2538ntf    cn117000   4.797   3.246   5.447  0.1607 -0.2937 -0.2676
 2538ntf    fn417001   4.926   3.633   4.990  0.2835  0.1716  0.1311
 2538ntf    fn417002   4.986   3.452   5.076  0.1634 -0.5449 -0.2468
 2538ntf    fn417003   4.804   3.468   4.975  0.1627 -0.0169  0.0238
 2538ntf    on517004   4.907   3.689   5.266 -0.0511  0.0461  0.3191
 2538ntf    on517005   4.681   3.632   5.197  0.2014  0.1508 -0.2919
 2538ntf    on517006   4.838   3.478   5.546  0.1975 -0.1025  0.2471
 2538ntf    on517007   5.021   3.374   5.421  0.0154 -0.4659  0.0096
 2538ntf    fn417008   4.835   3.163   5.352  0.2866 -0.0840 -0.4001
 2538ntf    fn417009   4.817   3.196   5.568 -0.6272  0.3465  0.1383
 2538ntf    fn417010   4.666   3.252   5.435  0.1505 -0.1749 -0.0971
 2539ntf    cn117011   3.831   6.369   0.487 -0.0456 -0.2762 -0.2836
 2539ntf    sn217012   3.722   6.472   0.386 -0.2499  0.0960  0.3122
 2539ntf    nn317013   3.825   6.559   0.306  0.2137 -0.6125  0.1306
 2539ntf    sn217014   3.807   6.648   0.178 -0.2572 -0.1915  0.4844
 2539ntf    cn117015   3.735   6.533   0.056 -0.3191  0.4406 -0.0814
 2539ntf    fn417016   3.907   6.445   0.564 -0.0410 -0.2582 -0.3061
 2539ntf    fn417017   3.767   6.288   0.570 -0.4119  0.2960 -0.0060
 2539ntf    fn417018   3.917   6.296   0.417  0.0551 -0.2221 -0.2176
 2539ntf    on517019   3.647   6.373   0.314 -0.2727 -0.0503  0.5379
 2539ntf    on517020   3.658   6.550   0.490 -0.1945  0.2308  0.2454
 2539ntf    on517021   3.937   6.675   0.121 -0.1156 -0.2388  0.7866
 2539ntf    on517022   3.708   6.752   0.167 -0.2891 -0.2109  0.5864
 2539ntf    fn417023   3.726   6.597  -0.059 -0.3117  0.1952 -0.2181
 2539ntf    fn417024   3.828   6.441   0.037 -0.3296  0.4184 -0.0262
 2539ntf    fn417025   3.616   6.477   0.067  0.2743 -0.8684 -0.1778
 2540ntf    cn117026   4.890   2.434   5.088  0.3605 -0.2125  0.0998
 2540ntf    sn217027   4.799   2.586   5.048 -0.1069 -0.3506  0.6250
 2540ntf    nn317028   4.863   2.624   4.910 -0.0692  0.5841  0.8923
 2540ntf    sn217029   4.989   2.710   4.873 -0.0182  0.1228 -0.0445
 2540ntf    cn117030   4.921   2.837   4.762 -0.0136  0.1234 -0.0472
 2540ntf    fn417031   4.848   2.401   5.209  0.3326  0.4714  0.2803
 2540ntf    fn417032   4.874   2.331   5.005  0.3164 -0.3206  0.2428
 2540ntf    fn417033   5.021   2.447   5.102  0.2951  0.0427  0.4794
 2540ntf    on517034   4.662   2.542   5.036 -0.1986  0.0190  0.3066
 2540ntf    on517035   4.836   2.680   5.150 -0.0498  0.2868  0.0279
 2540ntf    on517036   5.084   2.644   4.786  0.2085  0.2832  0.0801
 2540ntf    on517037   5.050   2.784   4.981  0.0868  0.4005 -0.2929
 2540ntf    fn417038   5.008   2.917   4.703  0.0814  0.3154  0.3539
 2540ntf    fn417039   4.846   2.783   4.667 -0.0845  0.5885 -0.2559
 2540ntf    fn417040   4.836   2.919   4.821 -0.1170 -0.0678  0.0685
 2541ntf    cn117041   6.412   5.894   1.829 -0.1919  0.4090  0.0694
 2541ntf    sn217042   6.406   5.831   1.659 -0.2526  0.1832  0.1555
 2541ntf    nn317043   6.325   5.943   1.586  0.0474  0.4171  0.1800
 2541ntf    sn217044   6.174   5.942   1.543 -0.0052  0.3782  0.3664
 2541ntf    cn117045   6.166   5.830   1.400  0.3794  0.2529  0.4413
 2541ntf    fn417046   6.291   5.904   1.883 -0.1755  0.0529  0.1723
 2541ntf    fn417047   6.484   5.813   1.904 -0.2430  0.1363 -0.1750
 2541ntf    fn417048   6.460   6.017   1.844  0.0455  0.3159  0.0603
 2541ntf    on517049   6.548   5.828   1.632 -0.1617 -0.2695  0.6687
 2541ntf    on517050   6.344   5.701   1.674  0.4865 -0.2217 -0.2214
 2541ntf    on517051   6.141   6.071   1.488  0.3915  0.1175 -0.4927
 2541ntf    on517052   6.087   5.879   1.640 -0.2059  0.2228  0.0849
 2541ntf    fn417053   6.236   5.888   1.304  0.0045 -0.3605 -0.2083
 2541ntf    fn417054   6.217   5.714   1.438  0.3825  0.4077  0.9105
 2541ntf    fn417055   6.041   5.824   1.356  0.3605  0.7558  0.4118
 2542ntf    cn117056   5.397   2.943   1.304  0.1375 -0.0729  0.3291
 2542ntf    sn217057   5.469   2.778   1.332  0.0904 -0.1785 -0.1614
 2542ntf    nn317058   5.587   2.820   1.427 -0.2681  0.1299  0.1526
 2542ntf    sn217059   5.740   2.851   1.406 -0.1986 -0.3088 -0.0152
 2542ntf    cn117060   5.740   3.033   1.418  0.2372 -0.3036 -0.0786
 2542ntf    fn417061   5.332   2.981   1.413 -0.4618  0.3144 -0.1617
 2542ntf    fn417062   5.472   3.042   1.256 -0.1817 -0.1809 -0.4024
 2542ntf    fn417063   5.307   2.933   1.209  0.2990  0.4785  0.1119
 2542ntf    on517064   5.373   2.704   1.410  0.0434  0.3880  0.3309
 2542ntf    on517065   5.498   2.735   1.198 -0.1390  0.4044 -0.4022
 2542ntf    on517066   5.785   2.818   1.273  0.3992  0.4170 -0.0009
 2542ntf    on517067   5.817   2.803   1.518 -0.0804 -0.5350 -0.1938
 2542ntf    fn417068   5.690   3.086   1.529  0.1612 -0.0224 -0.2474
 2542ntf    fn417069   5.864   3.073   1.400  0.0580  0.2816 -0.0515
 2542ntf    fn417070   5.674   3.084   1.315 -0.0935  0.3025  0.4254
 2543ntf    cn117071   3.288   3.054   4.428  0.0342 -0.1592 -0.3749
 2543ntf    sn217072   3.223   3.056   4.259  0.0364 -0.2228 -0.3759
 2543ntf    nn317073   3.276   3.197   4.215  0.4787 -0.0255  0.7530
 2543ntf    sn217074   3.190   3.328   4.209  0.0898 -0.2984  0.2275
 2543ntf    cn117075   3.318   3.452   4.175  0.0912 -0.4176 -0.2069
 2543ntf    fn417076   3.420   3.046   4.435  0.0314  0.3707  0.5040
 2543ntf    fn417077   3.249   3.159   4.499  0.2488 -0.2592 -0.1038
 2543ntf    fn417078   3.242   2.950   4.495  0.0809  0.1106  0.0850
 2543ntf    on517079   3.282   2.938   4.201  0.2008 -0.1473 -0.3628
 2543ntf    on517080   3.080   3.043   4.275  0.1663 -0.4047  0.7057
 2543ntf    on517081   3.142   3.357   4.342 -0.6204 -0.1526 -0.0564
 2543ntf    on517082   3.090   3.345   4.107 -0.2868 -0.8744  0.4935
 2543ntf    fn417083   3.361   3.442   4.050  0.1971  0.1136 -0.2149
 2543ntf    fn417084   3.271   3.575   4.189 -0.1717 -0.5790  0.3680
 2543ntf    fn417085   3.427   3.442   4.249  0.2759 -0.2581 -0.4534
 2544ntf    cn117086   5.661   1.307   6.523  0.5361 -0.0004  0.1989
 2544ntf    sn217087   5.484   1.329   6.560  0.4267 -0.0576 -0.2859
 2544ntf    nn317088   5.420   1.194   6.511 -0.5146  0.1961  0.2143
 2544ntf    sn217089   5.372   1.153   6.367 -0.0295  0.0082  0.1003
 2544ntf    cn117090   5.201   1.216   6.380 -0.2008 -0.3644 -0.3132
 2544ntf    fn417091   5.719   1.209   6.590  0.1698 -0.2411  0.1649
 2544ntf    fn417092   5.681   1.286   6.394 -0.1153  0.0304  0.0881
 2544ntf    fn417093   5.729   1.416   6.555 -0.1114  0.6549 -0.5888
 2544ntf    on517094   5.482   1.329   6.704 -0.5633 -0.7044 -0.2852
 2544ntf    on517095   5.445   1.443   6.481  0.1162 -0.1559 -0.2757
 2544ntf    on517096   5.369   1.012   6.341 -0.5675  0.0956 -0.3320
 2544ntf    on517097   5.436   1.237   6.269  0.0290 -0.1064  0.0420
 2544ntf    fn417098   5.130   1.181   6.275 -0.0804 -0.0439 -0.5020
 2544ntf    fn417099   5.138   1.172   6.488 -0.1951 -0.1638 -0.2279
 2544ntf    fn417100   5.200   1.348   6.375  0.1846 -0.3892 -1.1928
 2545ntf    cn117101   6.782   0.857   2.647 -0.3844  0.4630  0.4700
 2545ntf    sn217102   6.708   0.833   2.482  0.3355  0.0460  0.2034
 2545ntf    nn317103   6.807   0.914   2.392  0.0462  0.5968  0.3776
 2545ntf    sn217104   6.787   1.051   2.317 -0.5097  0.2927 -0.0334
 2545ntf    cn117105   6.929   1.129   2.399 -0.3503  0.0470 -0.0749
 2545ntf    fn417106   6.909   0.820   2.654 -0.5224 -0.1222  0.0098
 2545ntf    fn417107   6.785   0.985   2.681 -0.1224  0.5905 -0.0206
 2545ntf    fn417108   6.714   0.798   2.743 -0.5557 -0.3361 -0.1301
 2545ntf    on517109   6.738   0.695   2.455  0.3235  0.2212 -0.7277
 2545ntf    on517110   6.570   0.873   2.491  0.1265 -0.8056  0.9138
 2545ntf    on517111   6.675   1.138   2.344 -0.4544  0.4233 -0.2224
 2545ntf    on517112   6.832   1.051   2.180 -0.3892  0.5041  0.0056
 2545ntf    fn417113   6.932   1.102   2.529 -0.6916 -0.6500 -0.2108
 2545ntf    fn417114   7.040   1.081   2.346  0.0078  0.1473  0.5638
 2545ntf    fn417115   6.914   1.261   2.395  0.3828  0.1525  0.4206
 2546ntf    cn117116   5.051   6.985   3.861 -0.0282  0.0761  0.1505
 2546ntf    sn217117   5.186   7.042   3.754 -0.0978  0.1466  0.0989
 2546ntf    nn317118   5.172   6.939   3.637 -0.1358  0.2101  0.0481
 2546ntf    sn217119   5.229   6.949   3.490  0.1461 -0.0444  0.1398
 2546ntf    cn117120   5.307   6.786   3.470  0.2854  0.0475 -0.0691
 2546ntf    fn417121   4.937   7.036   3.818 -0.2011 -0.1592  0.3258
 2546ntf    fn417122   5.031   6.854   3.865  0.2725  0.0122 -0.3270
 2546ntf    fn417123   5.075   7.023   3.985 -0.0511 -0.1843  0.2347
 2546ntf    on517124   5.150   7.179   3.727  0.5580  0.3486  0.2213
 2546ntf    on517125   5.303   7.026   3.837 -0.1273  0.0323  0.1182
 2546ntf    on517126   5.333   7.047   3.475 -0.0203  0.0869 -0.1404
 2546ntf    on517127   5.127   6.952   3.388  0.5199 -0.0541 -0.2338
 2546ntf    fn417128   5.223   6.688   3.443  0.3045  0.0755 -0.2253
 2546ntf    fn417129   5.387   6.777   3.366  0.1881  0.0001 -0.1397
 2546ntf    fn417130   5.385   6.742   3.568  0.3700  0.0226 -0.1479
 2547ntf    cn117131   4.539   2.923   4.949 -0.3158 -0.2363  0.5487
 2547ntf    sn217132   4.375   2.997   4.923 -0.0203  0.2220 -0.0240
 2547ntf    nn317133   4.391   3.027   4.769 -0.1991  0.2245 -0.0414
 2547ntf    sn217134   4.326   2.961   4.642 -0.0017 -0.1117  0.0310
 2547ntf    cn117135   4.224   3.096   4.577  0.2289 -0.0035 -0.1056
 2547ntf    fn417136   4.559   2.871   5.069  0.2011  0.2837  0.6925
 2547ntf    fn417137   4.561   2.828   4.860 -0.2506  0.0595  0.2458
 2547ntf    fn417138   4.631   3.018   4.941 -0.3466 -0.1984  0.6393
 2547ntf    on517139   4.280   2.902   4.974  0.5710 -0.5197 -0.2924
 2547ntf    on517140   4.380   3.129   4.982  1.3116  0.5939 -0.9139
 2547ntf    on517141   4.225   2.862   4.670 -0.0661 -0.0808 -0.0934
 2547ntf    on517142   4.415   2.932   4.532  0.0444 -0.0602  0.0535
 2547ntf    fn417143   4.143   3.140   4.672  0.3156  0.3067 -0.1717
 2547ntf    fn417144   4.296   3.199   4.535 -0.3462  0.4113 -0.0845
 2547ntf    fn417145   4.145   3.062   4.476 -0.0750 -0.7573  0.3864
 2548ntf    cn117146   1.181   0.319   1.161 -0.0053 -0.1529 -0.2665
 2548ntf    sn217147   1.214   0.185   1.280 -0.0848  0.0340 -0.0338
 2548ntf    nn317148   1.149   0.066   1.201 -0.1875 -0.1439  0.3145
 2548ntf    sn217149   1.006   0.002   1.192 -0.4384  0.4174  0.2012
 2548ntf    cn117150   1.012  -0.135   1.312  0.2224  0.1226 -0.1589
 2548ntf    fn417151   1.267   0.328   1.060 -0.4247  0.7059 -0.5572
 2548ntf    fn417152   1.064   0.307   1.100 -0.0492  0.1980 -0.2508
 2548ntf    fn417153   1.181   0.439   1.216 -0.1791 -0.0007 -0.5950
 2548ntf    on517154   1.357   0.165   1.282 -0.0037  0.5241 -0.6237
 2548ntf    on517155   1.153   0.213   1.407  0.8683  0.2982  0.3723
 2548ntf    on517156   0.987  -0.066   1.066 -0.2508  0.1554  0.3107
 2548ntf    on517157   0.899   0.088   1.234  0.0544  1.1373  0.0061
 2548ntf    fn417158   1.090  -0.232   1.268 -0.1379  0.0828 -0.7100
 2548ntf    fn417159   1.052  -0.096   1.433 -0.0467 -0.2510  0.0535
 2548ntf    fn417160   0.891  -0.186   1.327  0.3672 -0.2248 -0.1592
 2549ntf    cn117161   2.976   2.454   1.443  0.0903 -0.3438  0.1223
 2549ntf    sn217162   3.126   2.556   1.449 -0.1675  0.0526 -0.1859
 2549ntf    nn317163   3.222   2.482   1.349 -0.1961  0.0617 -0.2201
 2549ntf    sn217164   3.305   2.541   1.230  0.0674 -0.0368 -0.0867
 2549ntf    cn117165   3.472   2.496   1.284 -0.2063 -0.8538  0.1079
 2549ntf    fn417166   2.866   2.516   1.480  0.5512  0.0438  0.8744
 2549ntf    fn417167   2.953   2.417   1.318 -0.2397  0.6717 -0.1265
 2549ntf    fn417168   2.986   2.342   1.514 -0.5189 -0.1491  0.5205
 2549ntf    on517169   3.070   2.682   1.407  0.4530  0.4156  0.0577
 2549ntf    on517170   3.162   2.548   1.588 -0.0133 -0.0674 -0.2330
 2549ntf    on517171   3.311   2.684   1.218 -0.1849  0.0102  0.3270
 2549ntf    on517172   3.284   2.459   1.113  0.1751  0.1205 -0.2159
 2549ntf    fn417173   3.505   2.550   1.401  0.0212  0.0598 -0.3651
 2549ntf    fn417174   3.483   2.366   1.303 -0.5096 -0.8640  0.2047
 2549ntf    fn417175   3.566   2.544   1.203  0.0159 -0.5911  0.5131
 2550ntf    cn117176   3.219   5.342   3.774 -0.1457 -0.3218 -0.0865
 2550ntf    sn217177   3.152   5.222   3.893 -0.0770 -0.3864 -0.1131
 2550ntf    nn317178   3.285   5.179   3.963  0.1496  0.3385 -0.0934
 2550ntf    sn217179   3.312   5.060   4.063 -0.1507 -0.1283 -0.5646
 2550ntf    cn117180   3.420   4.947   3.971  0.2684  0.2585 -0.5527
 2550ntf    fn417181   3.316   5.305   3.691 -0.3310 -0.0281 -0.4366
 2550ntf    fn417182   3.127   5.385   3.689 -0.2827 -0.2601  0.0935
 2550ntf    fn417183   3.250   5.458   3.829  0.2213 -0.4475 -0.0198
 2550ntf    on517184   3.063   5.303   3.972 -0.0509 -0.2780 -0.1944
 2550ntf    on517185   3.092   5.127   3.803 -0.2412 -0.0299 -0.3801
 2550ntf    on517186   3.187   4.990   4.084 -0.1378 -0.1140 -0.4395
 2550ntf    on517187   3.380   5.101   4.183 -0.5218  0.4368 -0.5402
 2550ntf    fn417188   3.541   4.998   3.955  0.3072  0.2755 -0.2183
 2550ntf    fn417189   3.437   4.830   4.032  0.2979  0.5933  0.0853
 2550ntf    fn417190   3.377   4.931   3.847 -0.3195 -0.3371 -0.2807
 2551ntf    cn117191   2.448   6.561   2.153  0.3570  0.0084 -0.0640
 2551ntf    sn217192   2.618   6.599   2.100  0.2206  0.5598 -0.1127
 2551ntf    nn317193   2.610   6.755   2.112  0.0259  0.4954  0.6742
 2551ntf    sn217194   2.686   6.871   2.039  0.3142 -0.1875 -0.1182
 2551ntf    cn117195   2.554   6.914   1.922  0.1433  0.0819  0.1746
 2551ntf    fn417196   2.432   6.573   2.283 -0.0383  0.3818 -0.1448
 2551ntf    fn417197   2.368   6.640   2.083  0.2269 -0.5178 -0.5218
 2551ntf    fn417198   2.399   6.444   2.115 -0.1063  0.0146  0.4992
 2551ntf    on517199   2.707   6.549   2.202  0.5029  0.0705 -0.5974
 2551ntf    on517200   2.633   6.546   1.967  0.1590  0.2900 -0.0152
 2551ntf    on517201   2.806   6.841   1.964  0.1699 -0.1259 -0.3758
 2551ntf    on517202   2.682   6.987   2.124  0.1810 -0.5444  0.3684
 2551ntf    fn417203   2.454   6.961   1.995  0.0221  0.3899 -0.1852
 2551ntf    fn417204   2.586   7.001   1.828 -0.2367  0.5210  0.4491
 2551ntf    fn417205   2.514   6.802   1.865 -0.0649  0.3252 -0.1630
 2552ntf    cn117206   0.413   3.421   1.635 -0.0965 -0.2374 -0.0389
 2552ntf    sn217207   0.385   3.478   1.465  0.0996  0.3481  0.1201
 2552ntf    nn317208   0.325   3.349   1.397  0.2158  0.1509  0.3896
 2552ntf    sn217209   0.314   3.307   1.246  0.4567  0.1223  0.3796
 2552ntf    cn117210   0.457   3.194   1.242  0.1998 -0.1922 -0.0093
 2552ntf    fn417211   0.486   3.312   1.651  0.0175 -0.1510  0.0391
 2552ntf    fn417212   0.469   3.521   1.702 -0.1203 -0.5013  0.3766
 2552ntf    fn417213   0.299   3.390   1.695  0.1864 -0.7178  0.2587
 2552ntf    on517214   0.290   3.586   1.465 -0.1895  0.1003 -0.2875
 2552ntf    on517215   0.518   3.516   1.424  0.2765 -0.1412  0.2288
 2552ntf    on517216   0.334   3.406   1.144 -0.0061 -0.3581 -0.1837
 2552ntf    on517217   0.200   3.220   1.231  0.8422 -0.3428  0.0995
 2552ntf    fn417218   0.480   3.126   1.353 -0.3204 -0.0401  0.1953
 2552ntf    fn417219   0.455   3.109   1.141 -0.1914 -0.3288  0.1132
 2552ntf    fn417220   0.568   3.265   1.224  0.0055  0.3250  0.7918
 2553ntf    cn117221   1.910   4.837   0.449 -0.1809  0.1224  0.6606
 2553ntf    sn217222   2.033   4.965   0.490  0.3719 -0.2953  0.3230
 2553ntf    nn317223   2.136   4.894   0.586  0.2839 -0.3789  0.3568
 2553ntf    sn217224   2.265   4.810   0.557  0.1788 -0.3472 -0.2285
 2553ntf    cn117225   2.384   4.947   0.546  0.0283 -0.2606 -0.7790
 2553ntf    fn417226   1.832   4.814   0.553 -0.4036  0.2703  0.5276
 2553ntf    fn417227   1.828   4.861   0.347  0.4086 -0.2876  0.0820
 2553ntf    fn417228   1.968   4.721   0.422 -0.2479  0.2083  0.1273
 2553ntf    on517229   2.084   5.025   0.370 -0.6805 -0.0953 -0.0307
 2553ntf    on517230   1.948   5.049   0.571  0.1776 -0.0328 -0.1540
 2553ntf    on517231   2.271   4.752   0.425  0.1300 -0.1072 -0.3368
 2553ntf    on517232   2.302   4.726   0.669 -0.2231  0.0801  0.2291
 2553ntf    fn417233   2.363   5.029   0.445 -0.4925  0.3578 -0.1727
 2553ntf    fn417234   2.378   5.027   0.651 -0.0006  0.0859 -1.0439
 2553ntf    fn417235   2.510   4.906   0.544  0.1712  0.1405 -0.1672
 2554ntf    cn117236   5.983   5.510   3.168 -0.2263 -0.1832  0.0982
 2554ntf    sn217237   5.941   5.540   3.343  0.2775  0.0422  0.1831
 2554ntf    nn317238   5.907   5.693   3.332 -0.2976 -0.1080 -0.1894
 2554ntf    sn217239   5.790   5.781   3.390 -0.3202 -0.1201 -0.2146
 2554ntf    cn117240   5.882   5.840   3.536 -0.4955  0.0157 -0.1597
 2554ntf    fn417241   5.880   5.514   3.086 -0.2550  0.3193  0.1569
 2554ntf    fn417242   6.074   5.594   3.121  0.2832 -0.7920 -0.0294
 2554ntf    fn417243   6.038   5.389   3.165  0.0369 -0.0537 -0.3330
 2554ntf    on517244   5.829   5.451   3.361  0.1050  0.2783  0.2792
 2554ntf    on517245   6.060   5.519   3.422  0.0437  0.3574  0.6236
 2554ntf    on517246   5.682   5.707   3.450  0.2291 -0.4746  0.3559
 2554ntf    on517247   5.767   5.906   3.322 -0.2326 -0.1384 -0.2776
 2554ntf    fn417248   6.001   5.891   3.507 -0.4407  0.3441  0.6349
 2554ntf    fn417249   5.819   5.935   3.603  0.0748  0.1487  0.1837
 2554ntf    fn417250   5.902   5.741   3.620 -0.1797  0.2025 -0.0127
 2555ntf    cn117251   3.495   4.247   6.499 -0.4133 -0.5985  0.2249
 2555ntf    sn217252   3.534   4.114   6.381 -0.0201 -0.0400 -0.2773
 2555ntf    nn317253   3.435   4.155   6.267 -0.1272  0.8994  0.1422
 2555ntf    sn217254   3.461   4.207   6.121 -0.5961  0.0728 -0.2403
 2555ntf    cn117255   3.291   4.220   6.056 -0.4817  0.2704 -0.4997
 2555ntf    fn417256   3.373   4.239   6.550 -0.5503 -0.2009 -0.0416
 2555ntf    fn417257   3.592   4.258   6.589  0.4526 -0.0454 -0.7603
 2555ntf    fn417258   3.502   4.364   6.439  0.2390 -0.5644  0.3626
 2555ntf    on517259   3.673   4.121   6.341  0.0085  0.1277 -0.1489
 2555ntf    on517260   3.488   3.990   6.438 -0.3677  0.0939 -0.2677
 2555ntf    on517261   3.526   4.106   6.042 -0.0578 -0.0281  0.3287
 2555ntf    on517262   3.511   4.341   6.109 -0.2186 -0.0259  0.2182
 2555ntf    fn417263   3.283   4.253   5.928  0.2745 -0.2111 -0.6844
 2555ntf    fn417264   3.229   4.104   6.064 -0.0326  0.0794  0.3273
 2555ntf    fn417265   3.219   4.309   6.122  0.0807  0.5254 -0.2247
 2556ntf    cn117266   5.155   3.646   1.529 -0.3708  0.3459  0.2611
 2556ntf    sn217267   5.123   3.478   1.591  0.2310  0.1216 -0.0308
 2556ntf    nn317268   5.047   3.431   1.461  0.9643  0.3571 -0.5491
 2556ntf    sn217269   5.075   3.310   1.366 -0.1258 -0.0649 -0.3460
 2556ntf    cn117270   5.187   3.400   1.254  0.1621  0.0332  0.0178
 2556ntf    fn417271   5.081   3.679   1.424  0.3494 -0.0557 -0.3801
 2556ntf    fn417272   5.146   3.746   1.617  0.0324  0.0120  0.6840
 2556ntf    fn417273   5.280   3.654   1.487 -0.3966 -0.2251  0.0677
 2556ntf    on517274   5.257   3.429   1.607  0.3506  0.3955 -0.1847
 2556ntf    on517275   5.037   3.490   1.706 -0.0898 -0.2708 -0.2249
 2556ntf    on517276   4.957   3.286   1.286  0.3086 -0.4036 -0.8978
 2556ntf    on517277   5.151   3.198   1.417  0.6716 -0.0188 -1.3925
 2556ntf    fn417278   5.119   3.496   1.193 -0.3850 -0.2952  0.1030
 2556ntf    fn417279   5.292   3.459   1.308  0.7533 -0.9145 -0.0851
 2556ntf    fn417280   5.235   3.327   1.155  0.3403 -0.0298  0.1511
 2557ntf    cn117281   0.728   5.297   4.870 -0.1017  0.4827 -0.7048
 2557ntf    sn217282   0.773   5.121   4.883 -0.1107  0.5280 -0.0057
 2557ntf    nn317283   0.716   5.069   4.747 -0.1575 -0.2855  0.3171
 2557ntf    sn217284   0.660   4.932   4.694 -0.6298  0.0553 -0.0777
 2557ntf    cn117285   0.512   4.999   4.612 -0.6231  0.3294  0.1316
 2557ntf    fn417286   0.778   5.363   4.767  0.2956  0.9748 -0.2016
 2557ntf    fn417287   0.596   5.307   4.865 -0.1814 -0.0966 -0.0280
 2557ntf    fn417288   0.761   5.356   4.984 -0.0802 -0.5699 -0.1512
 2557ntf    on517289   0.917   5.131   4.885 -0.0820  0.0896  0.3563
 2557ntf    on517290   0.704   5.080   5.003 -0.5377 -0.0939 -0.4632
 2557ntf    on517291   0.612   4.837   4.791 -0.4030 -0.0492 -0.0679
 2557ntf    on517292   0.744   4.878   4.591 -0.4783 -0.6839  0.4247
 2557ntf    fn417293   0.442   5.069   4.700  0.4599  0.7448  0.6788
 2557ntf    fn417294   0.534   5.072   4.504  0.3971 -0.0661  0.0675
 2557ntf    fn417295   0.426   4.905   4.576 -0.1211 -0.1053  0.0718
 2558ntf    cn117296   0.090   2.658   5.636  0.2277 -0.0314  0.2073
 2558ntf    sn217297   0.182   2.501   5.635  0.1078 -0.1019  0.1754
 2558ntf    nn317298   0.226   2.499   5.786  0.4324  0.5703  0.0930
 2558ntf    sn217299   0.238   2.375   5.881 -0.2250  0.2931 -0.1812
 2558ntf    cn117300   0.122   2.437   6.006 -0.3921  0.0312 -0.2055
 2558ntf    fn417301   0.171   2.755   5.676 -0.2893  0.2667  0.5471
 2558ntf    fn417302   0.033   2.685   5.520 -0.0804 -0.5230  0.2399
 2558ntf    fn417303  -0.005   2.656   5.729  0.5458  0.2185  0.5429
 2558ntf    on517304   0.075   2.409   5.606 -0.4732  0.6038  0.0578
 2558ntf    on517305   0.291   2.522   5.542  0.1874 -0.2263  0.2403
 2558ntf    on517306   0.356   2.361   5.963 -0.5627  0.2181  0.2948
 2558ntf    on517307   0.175   2.249   5.849  0.6241 -0.2753  0.3254
 2558ntf    fn417308   0.163   2.552   6.056  0.0822 -0.1870 -0.0821
 2558ntf    fn417309   0.002   2.450   5.953 -0.1909  0.1871 -0.6295
 2558ntf    fn417310   0.109   2.357   6.111 -0.3957  0.0774 -0.1711
 2559ntf    cn117311   3.587   5.602   4.013 -0.0394  0.0431  0.2432
 2559ntf    sn217312   3.533   5.772   3.980  0.6004  0.2297  0.1534
 2559ntf    nn317313   3.667   5.830   3.922  0.4082  0.7366  0.2130
 2559ntf    sn217314   3.756   5.771   3.807  0.0809  0.3166  0.1718
 2559ntf    cn117315   3.738   5.910   3.691  0.5718  0.4033  0.1952
 2559ntf    fn417316   3.679   5.606   4.108  0.4355  0.0730 -0.2200
 2559ntf    fn417317   3.487   5.527   4.058  0.5715 -0.5166  0.6959
 2559ntf    fn417318   3.640   5.529   3.917 -0.1845  0.9592 -0.5473
 2559ntf    on517319   3.426   5.759   3.885  0.1291  0.2435  0.6793
 2559ntf    on517320   3.502   5.824   4.111 -0.2377  0.0584  0.0242
 2559ntf    on517321   3.703   5.667   3.723  0.0538  0.3613  0.1338
 2559ntf    on517322   3.896   5.769   3.843  0.0946  0.1008  0.1060
 2559ntf    fn417323   3.607   5.926   3.676  0.5726 -0.0581 -0.3132
 2559ntf    fn417324   3.779   6.024   3.744  0.1500  0.4746  0.3703
 2559ntf    fn417325   3.794   5.902   3.572 -0.4093  0.6830 -0.3010
 2560ntf    cn117326   5.325   0.531   4.217 -0.1712 -0.4682 -0.2882
 2560ntf    sn217327   5.492   0.577   4.162 -0.1691 -0.1804 -0.0418
 2560ntf    nn317328   5.553   0.436   4.130  0.3863  0.0856 -0.1776
 2560ntf    sn217329   5.597   0.388   3.987 -0.2642  0.1724 -0.4086
 2560ntf    cn117330   5.763   0.460   4.000 -0.3037  0.2835 -0.5201
 2560ntf    fn417331   5.327   0.419   4.288  0.1140 -0.2684  0.0214
 2560ntf    fn417332   5.269   0.622   4.294 -0.0532 -0.2242 -0.4914
 2560ntf    fn417333   5.248   0.510   4.112 -0.4314 -0.3002 -0.1323
 2560ntf    on517334   5.470   0.667   4.052  0.5054  0.2270  0.1484
 2560ntf    on517335   5.552   0.636   4.280  0.3142  0.2025 -0.4764
 2560ntf    on517336   5.535   0.450   3.873 -0.2677  0.5339 -0.2130
 2560ntf    on517337   5.609   0.245   3.971 -0.6211  0.1392 -0.4029
 2560ntf    fn417338   5.841   0.453   3.894 -0.2417  0.7012 -0.5030
 2560ntf    fn417339   5.754   0.588   4.033  0.0322  0.2777 -0.4065
 2560ntf    fn417340   5.835   0.414   4.101  0.0772  0.2456 -0.8043
 2561ntf    cn117341   4.910   3.397   3.553  0.1594 -0.1017  0.0155
 2561ntf    sn217342   4.823   3.528   3.644  0.2973  0.0776 -0.1113
 2561ntf    nn317343   4.808   3.623   3.520  0.0944 -0.1934 -0.2981
 2561ntf    sn217344   4.908   3.736   3.476  0.0553  0.1101  0.3749
 2561ntf    cn117345   4.826   3.881   3.548  0.0989  0.2981  0.0447
 2561ntf    fn417346   4.840   3.338   3.457 -0.1048 -0.3051  0.3299
 2561ntf    fn417347   5.023   3.438   3.499 -0.0588 -0.1952 -0.5183
 2561ntf    fn417348   4.940   3.289   3.625 -0.1149  0.0213  0.3184
 2561ntf    on517349   4.698   3.464   3.680  0.4841 -0.8461 -1.0684
 2561ntf    on517350   4.913   3.574   3.747  0.4926  0.8028 -0.6058
 2561ntf    on517351   4.889   3.757   3.335 -1.0605 -0.2448  0.4609
 2561ntf    on517352   5.045   3.738   3.522  0.0948  0.0053  0.2638
 2561ntf    fn417353   4.911   3.982   3.530  0.2878  0.1399  0.0509
 2561ntf    fn417354   4.708   3.905   3.493  0.0529  0.0087  0.0151
 2561ntf    fn417355   4.793   3.870   3.675 -0.1872  0.5759 -0.0035
 2562ntf    cn117356   5.949   4.252   4.747 -0.2123 -0.0605  0.3536
 2562ntf    sn217357   6.126   4.220   4.723 -0.1719  0.2540  0.2240
 2562ntf    nn317358   6.167   4.364   4.678  0.4202  0.0317  0.0378
 2562ntf    sn217359   6.169   4.419   4.531 -0.1198  0.2842  0.1223
 2562ntf    cn117360   6.129   4.596   4.546  0.1481  0.3231  0.3948
 2562ntf    fn417361   5.880   4.314   4.653 -0.0803  0.0441  0.3251
 2562ntf    fn417362   5.881   4.141   4.772 -0.2333 -0.1478 -0.0819
 2562ntf    fn417363   5.940   4.334   4.850 -0.1925 -0.1726  0.4453
 2562ntf    on517364   6.177   4.188   4.854  0.8005  0.2431 -0.1463
 2562ntf    on517365   6.143   4.118   4.622 -0.4271  0.3220  0.1114
 2562ntf    on517366   6.059   4.373   4.451  0.3032 -0.0356 -0.2793
 2562ntf    on517367   6.300   4.420   4.471 -0.0717  0.3281  0.2264
 2562ntf    fn417368   6.015   4.598   4.613  0.1154  0.2709  0.3402
 2562ntf    fn417369   6.217   4.667   4.615  0.0348  0.0015  0.8812
 2562ntf    fn417370   6.118   4.658   4.430 -0.0574  0.3285  0.4168
 2563ntf    cn117371   2.118   6.244   6.071 -0.1715 -0.2970 -0.0187
 2563ntf    sn217372   2.290   6.189   6.095  0.0503  0.5186  0.2848
 2563ntf    nn317373   2.355   6.219   5.956  0.0313 -0.2773  0.0984
 2563ntf    sn217374   2.501   6.183   5.911  0.0682  0.2910 -0.2481
 2563ntf    cn117375   2.582   6.345   5.931  0.1126  0.2471 -0.0704
 2563ntf    fn417376   2.065   6.181   5.968 -0.2487  0.1779 -0.2742
 2563ntf    fn417377   2.039   6.226   6.175 -0.3449  0.1466 -0.0715
 2563ntf    fn417378   2.121   6.373   6.041 -0.3044 -0.4368 -0.6454
 2563ntf    on517379   2.328   6.266   6.211  0.0704  1.0243 -0.0532
 2563ntf    on517380   2.276   6.048   6.119 -0.3566  0.4919 -0.1061
 2563ntf    on517381   2.526   6.150   5.773  0.7062 -0.5230  0.0567
 2563ntf    on517382   2.577   6.100   6.001 -0.4644  0.2921  0.2056
 2563ntf    fn417383   2.637   6.368   6.049 -0.2184 -0.2327  0.1828
 2563ntf    fn417384   2.679   6.376   5.847  0.3834 -0.0221  0.1424
 2563ntf    fn417385   2.487   6.436   5.919 -0.1334 -0.0542 -0.4494
 2564ntf    cn117386   4.345   3.312   2.341  0.0923  0.1988  0.3389
 2564ntf    sn217387   4.518   3.324   2.398  0.0676 -0.2739  0.5128
 2564ntf    nn317388   4.548   3.173   2.428  0.0708 -0.3604  0.0865
 2564ntf    sn217389   4.680   3.092   2.401  0.3254  0.1620 -0.2408
 2564ntf    cn117390   4.707   3.035   2.571  0.1498 -0.0300 -0.2764
 2564ntf    fn417391   4.322   3.223   2.246 -0.0974  0.5161  0.0856
 2564ntf    fn417392   4.267   3.278   2.442  0.1053  0.2300  0.3598
 2564ntf    fn417393   4.297   3.429   2.301  0.0048  0.0528  0.0109
 2564ntf    on517394   4.579   3.379   2.280 -0.2414 -0.8393  0.0803
 2564ntf    on517395   4.512   3.410   2.513 -0.2801  0.2928  0.0773
 2564ntf    on517396   4.801   3.160   2.364  0.3456  0.1193 -0.2523
 2564ntf    on517397   4.645   2.975   2.324  0.0638  0.3486 -0.4079
 2564ntf    fn417398   4.746   3.138   2.645  0.3628 -0.1449 -0.2271
 2564ntf    fn417399   4.592   3.002   2.627  0.1333  0.4306 -0.0365
 2564ntf    fn417400   4.794   2.936   2.590  0.1135 -0.0372 -0.1436
 2565ntf    cn117401   3.346   4.473   4.992  0.4733 -0.0351 -0.0856
 2565ntf    sn217402   3.172   4.523   5.013  0.4210 -0.1077 -0.3502
 2565ntf    nn317403   3.176   4.569   5.163  0.0619  0.1779 -0.4277
 2565ntf    sn217404   3.174   4.476   5.290  0.2161  0.5965 -0.1193
 2565ntf    cn117405   3.317   4.551   5.373 -0.0620  0.1436  0.7784
 2565ntf    fn417406   3.357   4.423   4.871 -0.2305  0.1792 -0.2410
 2565ntf    fn417407   3.435   4.571   5.003 -0.0756  0.5633 -0.8701
 2565ntf    fn417408   3.385   4.383   5.080 -0.2662  0.1276  0.4215
 2565ntf    on517409   3.147   4.634   4.925 -0.2108 -0.4135 -0.5675
 2565ntf    on517410   3.094   4.405   4.983  0.0187  0.1574 -0.3563
 2565ntf    on517411   3.217   4.339   5.276 -0.5029  0.4335 -0.8238
 2565ntf    on517412   3.061   4.509   5.373  0.5744 -0.2061  0.7050
 2565ntf    fn417413   3.305   4.683   5.362 -0.1262  0.0987  0.3274
 2565ntf    fn417414   3.330   4.519   5.501  0.1657 -0.1045  0.6925
 2565ntf    fn417415   3.433   4.525   5.316 -0.4339  0.0831  0.0356
 2566ntf    cn117416   1.367   4.254   1.658 -0.0503  0.2052  0.2328
 2566ntf    sn217417   1.242   4.123   1.654 -0.0526  0.2276 -0.4765
 2566ntf    nn317418   1.184   4.129   1.508 -0.0829  0.1730 -0.4668
 2566ntf    sn217419   1.039   4.145   1.450 -0.4682 -0.1307  0.3932
 2566ntf    cn117420   1.011   4.322   1.479 -0.6007 -0.0173 -0.3938
 2566ntf    fn417421   1.310   4.367   1.618 -0.1686  0.1285  0.1878
 2566ntf    fn417422   1.427   4.278   1.774 -0.0433 -0.0832  0.2879
 2566ntf    fn417423   1.458   4.238   1.563  0.3007 -0.0856  0.6154
 2566ntf    on517424   1.317   4.005   1.688  0.7868  0.9235  0.1262
 2566ntf    on517425   1.144   4.167   1.750 -0.1676  0.0573 -0.5154
 2566ntf    on517426   0.936   4.082   1.528 -1.0226  0.1340 -0.1150
 2566ntf    on517427   1.036   4.120   1.308  0.2004 -0.7040  0.4768
 2566ntf    fn417428   0.913   4.373   1.406  0.0901  0.6756 -0.8615
 2566ntf    fn417429   0.981   4.353   1.604  0.1875 -0.0818 -0.1833
 2566ntf    fn417430   1.114   4.398   1.445 -0.4782 -0.0102 -0.0097
 2567ntf    cn117431   5.121   1.794   5.730 -0.3069 -0.0239 -0.5512
 2567ntf    sn217432   5.252   1.777   5.605 -0.1832  0.1156 -0.4410
 2567ntf    nn317433   5.185   1.855   5.486  0.1120  0.9977 -0.0384
 2567ntf    sn217434   5.195   1.819   5.334  0.0652  0.1024  0.1662
 2567ntf    cn117435   5.082   1.679   5.306  0.3367 -0.0771 -0.0373
 2567ntf    fn417436   5.159   1.780   5.857 -0.4200  0.5310 -0.4562
 2567ntf    fn417437   5.069   1.915   5.723 -0.4786 -0.0864 -0.3765
 2567ntf    fn417438   5.027   1.704   5.704 -0.0076 -0.3142 -0.6415
 2567ntf    on517439   5.349   1.865   5.665 -0.4823  0.5623 -0.6078
 2567ntf    on517440   5.281   1.637   5.590 -0.6546 -0.0988  0.5599
 2567ntf    on517441   5.324   1.767   5.294  0.2760  0.6294  0.1620
 2567ntf    on517442   5.132   1.910   5.242  0.8560  0.4437 -0.0427
 2567ntf    fn417443   5.103   1.635   5.183 -0.2662  0.2797 -0.2705
 2567ntf    fn417444   5.109   1.572   5.379 -0.4773 -0.6693 -0.5764
 2567ntf    fn417445   4.955   1.714   5.318  0.2344 -0.4486 -0.0087
 2568ntf    cn117446   4.318   0.098   4.236 -0.0008 -0.0740 -0.1220
 2568ntf    sn217447   4.257   0.265   4.270 -0.2305 -0.1660 -0.0765
 2568ntf    nn317448   4.119   0.238   4.340  0.0837  0.1517  0.6863
 2568ntf    sn217449   3.993   0.328   4.362 -0.2181 -0.0472 -0.1716
 2568ntf    cn117450   4.009   0.377   4.537  0.2516  0.1751 -0.2766
 2568ntf    fn417451   4.413   0.088   4.144 -0.3291  0.1966 -0.4975
 2568ntf    fn417452   4.363   0.036   4.344  0.0987 -0.1611 -0.2130
 2568ntf    fn417453   4.217   0.022   4.194 -0.2632 -0.0627  0.4912
 2568ntf    on517454   4.362   0.314   4.356 -0.2215  0.3366 -0.3684
 2568ntf    on517455   4.255   0.320   4.137  0.2251 -0.1871 -0.0950
 2568ntf    on517456   3.878   0.241   4.367  0.2675 -0.6727  0.1784
 2568ntf    on517457   3.993   0.455   4.293  0.5556  0.3884  0.6036
 2568ntf    fn417458   3.998   0.273   4.618  0.3684  0.4445  0.0877
 2568ntf    fn417459   4.128   0.429   4.565  0.0686  0.3230  0.2316
 2568ntf    fn417460   3.920   0.467   4.574  0.2088 -0.1997  0.5539
 2569ntf    cn117461   3.315   4.933   6.204 -0.2129 -0.3071 -0.2506
 2569ntf    sn217462   3.297   5.081   6.100  0.3098 -0.0873 -0.0344
 2569ntf    nn317463   3.145   5.117   6.121  0.0595 -1.2598  0.2561
 2569ntf    sn217464   3.021   5.075   6.035  0.0112 -0.2533 -0.1838
 2569ntf    cn117465   2.888   5.161   6.123  0.0396 -0.1048 -0.2857
 2569ntf    fn417466   3.307   4.964   6.333 -0.1203 -0.7604 -0.1358
 2569ntf    fn417467   3.228   4.837   6.178 -0.3138 -0.2320 -0.1948
 2569ntf    fn417468   3.436   4.883   6.188 -0.5130 -1.0418 -0.2412
 2569ntf    on517469   3.372   5.188   6.161 -0.2060  0.3109 -0.0858
 2569ntf    on517470   3.330   5.033   5.968  0.2359 -0.5276  0.1047
 2569ntf    on517471   2.982   4.937   6.051  0.6652 -0.5267 -0.9047
 2569ntf    on517472   3.006   5.140   5.907 -0.3201  0.2717  0.1188
 2569ntf    fn417473   2.876   5.292   6.104 -0.3304 -0.1342 -0.2641
 2569ntf    fn417474   2.766   5.114   6.103 -0.3182  0.3122  0.7997
 2569ntf    fn417475   2.893   5.148   6.255  0.0927  1.1703 -0.1482
 2570ntf    cn117476   3.476   2.896   0.510  0.1345 -0.0257  0.0261
 2570ntf    sn217477   3.567   2.990   0.637 -0.3026  0.1970  0.1773
 2570ntf    nn317478   3.656   3.071   0.535 -0.1157 -0.3553 -0.1058
 2570ntf    sn217479   3.713   3.217   0.546 -0.8510 -0.0937  0.3376
 2570ntf    cn117480   3.600   3.304   0.433 -0.2806  0.1589 -0.0426
 2570ntf    fn417481   3.376   2.829   0.564  0.2952 -0.3804 -0.1150
 2570ntf    fn417482   3.427   2.976   0.417 -0.4297 -0.4798 -0.0675
 2570ntf    fn417483   3.551   2.810   0.443 -0.1555 -0.2495 -0.0099
 2570ntf    on517484   3.465   3.062   0.709  0.1257  0.1905  0.7966
 2570ntf    on517485   3.647   2.888   0.701 -1.0263 -0.5829 -0.1510
 2570ntf    on517486   3.835   3.238   0.472 -0.8160  0.0283  0.4291
 2570ntf    on517487   3.684   3.288   0.668  0.4757 -0.0814  0.6568
 2570ntf    fn417488   3.593   3.268   0.306  0.3682  0.0521 -0.0530
 2570ntf    fn417489   3.476   3.294   0.477 -0.1599 -0.2942  0.2007
 2570ntf    fn417490   3.629   3.433   0.441 -0.7626  0.3146 -0.6658
 2571ntf    cn117491   3.288   0.484   6.749 -0.3110  0.3250  0.1899
 2571ntf    sn217492   3.407   0.551   6.629 -0.1160 -0.6392 -0.1645
 2571ntf    nn317493   3.483   0.655   6.718 -0.5244 -0.6216  0.1673
 2571ntf    sn217494   3.619   0.628   6.791 -0.1982 -0.1147 -0.2457
 2571ntf    cn117495   3.729   0.728   6.687  0.2152  0.2705  0.5492
 2571ntf    fn417496   3.217   0.575   6.814 -0.5190 -0.1092  0.5807
 2571ntf    fn417497   3.208   0.406   6.679  0.0089  0.3160 -0.1694
 2571ntf    fn417498   3.349   0.410   6.841 -0.2333 -0.2284 -0.3029
 2571ntf    on517499   3.484   0.438   6.582  0.1348 -0.5567  0.0464
 2571ntf    on517500   3.331   0.621   6.528 -0.2222  0.5232  0.7055
 2571ntf    on517501   3.668   0.492   6.786 -0.8740 -0.3380 -1.0004
 2571ntf    on517502   3.624   0.699   6.917 -0.2150 -0.5081 -0.0205
 2571ntf    fn417503   3.703   0.857   6.700 -0.1698  0.2887 -0.2988
 2571ntf    fn417504   3.854   0.703   6.721  0.2401  0.2612  0.4494
 2571ntf    fn417505   3.705   0.690   6.562 -0.7956  0.0602  0.8016
 2572ntf    cn117506   4.237   4.067   5.106  0.2536 -0.1550 -0.0161
 2572ntf    sn217507   4.216   3.986   4.945 -0.0037 -0.5593  0.2182
 2572ntf    nn317508   4.110   4.082   4.881 -0.0338 -0.4900  0.3741
 2572ntf    sn217509   3.953   4.075   4.895 -0.1294  0.0258 -0.4058
 2572ntf    cn117510   3.915   4.252   4.883  0.0739  0.1054  0.0943
 2572ntf    fn417511   4.354   4.044   5.164  0.1870 -0.3484  0.0462
 2572ntf    fn417512   4.216   4.197   5.094  0.2688 -0.1120  0.3903
 2572ntf    fn417513   4.144   4.027   5.192  0.2461 -0.3446 -0.1116
 2572ntf    on517514   4.341   4.009   4.877 -0.4819  0.7761 -0.2446
 2572ntf    on517515   4.176   3.851   4.976  0.2506 -0.6652  0.0914
 2572ntf    on517516   3.904   4.028   5.022  0.5587 -0.3779 -0.2838
 2572ntf    on517517   3.893   4.022   4.775 -0.1234  0.2116 -0.4913
 2572ntf    fn417518   3.986   4.297   4.780  0.1463 -0.2631 -0.0176
 2572ntf    fn417519   3.786   4.267   4.861  0.1040  0.1460 -0.0562
 2572ntf    fn417520   3.940   4.318   4.995 -0.0364  0.1906  0.0694
 2573ntf    cn117521   3.620   4.147   0.304  0.3337 -0.4032 -0.1836
 2573ntf    sn217522   3.619   4.150   0.486 -0.3773 -0.2504 -0.1875
 2573ntf    nn317523   3.494   4.243   0.508  0.1971  0.2052  1.2902
 2573ntf    sn217524   3.344   4.200   0.518  0.0706  0.3669  0.2660
 2573ntf    cn117525   3.357   4.161   0.695 -0.0903  0.0795  0.2161
 2573ntf    fn417526   3.710   4.057   0.269  0.6199 -0.2594  0.1709
 2573ntf    fn417527   3.504   4.111   0.252  0.0225  0.2014  0.0778
 2573ntf    fn417528   3.648   4.262   0.246  0.0728  0.0425  0.5580
 2573ntf    on517529   3.622   4.012   0.527  0.1257 -0.2269 -0.1495
 2573ntf    on517530   3.742   4.221   0.512  0.0161 -0.9145 -0.2198
 2573ntf    on517531   3.319   4.070   0.461  0.4484  0.2259  0.4213
 2573ntf    on517532   3.243   4.302   0.505  0.2987  0.5137 -0.3942
 2573ntf    fn417533   3.390   4.271   0.761 -0.2620 -0.1814  0.7407
 2573ntf    fn417534   3.239   4.121   0.740  0.0159 -0.0767  0.3583
 2573ntf    fn417535   3.449   4.072   0.728  0.1991  0.2176 -0.2128
 2574ntf    cn117536   5.269   4.308   4.152 -0.3471 -0.1298 -0.0489
 2574ntf    sn217537   5.421   4.295   4.052 -0.3304 -0.4718  0.0202
 2574ntf    nn317538   5.500   4.200   4.149  0.9721  0.1367 -0.4171
 2574ntf    sn217539   5.535   4.049   4.125 -0.5246 -0.2882 -0.0646
 2574ntf    cn117540   5.715   4.043   4.147 -0.5626 -0.1611  0.2810
 2574ntf    fn417541   5.285   4.368   4.269  0.1932  0.0777 -0.2262
 2574ntf    fn417542   5.169   4.366   4.088 -0.0563  0.4948  0.0605
 2574ntf    fn417543   5.227   4.185   4.178  0.5551 -0.4462 -0.0393
 2574ntf    on517544   5.372   4.228   3.934  0.0133  0.4880 -0.6776
 2574ntf    on517545   5.471   4.430   4.050 -0.2826 -0.4978 -0.4854
 2574ntf    on517546   5.512   3.992   3.994 -0.7290 -0.2048 -0.0654
 2574ntf    on517547   5.482   3.970   4.234  0.7872  0.0810  0.8627
 2574ntf    fn417548   5.783   4.135   4.080  0.0602 -0.3190  0.6845
 2574ntf    fn417549   5.762   4.049   4.271  0.0074  0.1239  0.0538
 2574ntf    fn417550   5.767   3.928   4.107  0.1806  0.3890 -0.3670
 2575ntf    cn117551   2.705   0.525   4.849 -0.1740 -0.0450  0.1103
 2575ntf    sn217552   2.750   0.375   4.942  0.1279 -0.0139  0.0148
 2575ntf    nn317553   2.622   0.288   4.917 -0.3973  0.5718  0.6121
 2575ntf    sn217554   2.584   0.163   5.004 -0.0570 -0.1901 -0.3068
 2575ntf    cn117555   2.551   0.050   4.866  0.0304 -0.7098  0.0960
 2575ntf    fn417556   2.596   0.588   4.889  0.1220  0.4473  0.1609
 2575ntf    fn417557   2.796   0.620   4.867 -0.1260 -0.0619 -0.0506
 2575ntf    fn417558   2.704   0.526   4.717  0.7237 -0.0015  0.0960
 2575ntf    on517559   2.876   0.321   4.898 -0.2846 -0.5529 -0.5185
 2575ntf    on517560   2.753   0.438   5.072 -0.7742 -0.0605  0.0605
 2575ntf    on517561   2.459   0.167   5.076  0.5644  0.6122  0.7723
 2575ntf    on517562   2.696   0.104   5.074  0.1715  0.0551 -0.4623
 2575ntf    fn417563   2.449   0.101   4.799  0.1755 -0.6491 -0.0780
 2575ntf    fn417564   2.647   0.030   4.778  0.1231 -0.3225  0.1096
 2575ntf    fn417565   2.506  -0.069   4.904 -0.5333 -0.5326 -0.0109
 2576ntf    cn117566   2.513   3.028   3.616 -0.0649  0.1353  0.1606
 2576ntf    sn217567   2.625   3.109   3.734 -0.1685  0.1545  0.2452
 2576ntf    nn317568   2.763   3.061   3.678 -0.2478  0.2566 -0.0392
 2576ntf    sn217569   2.869   2.963   3.740 -0.4405  0.2902  0.3474
 2576ntf    cn117570   3.002   3.076   3.792  0.1042 -0.1319 -0.1176
 2576ntf    fn417571   2.383   3.033   3.640 -0.2255 -0.5598 -0.5384
 2576ntf    fn417572   2.526   3.077   3.493 -0.7674  0.1024  0.0703
 2576ntf    fn417573   2.552   2.902   3.604  0.0930  0.1362  0.6667
 2576ntf    on517574   2.595   3.247   3.705  0.4451  0.5622  1.4588
 2576ntf    on517575   2.572   3.061   3.859 -0.0771  0.1088  0.2664
 2576ntf    on517576   2.936   2.889   3.636 -0.5523  0.3139  0.2583
 2576ntf    on517577   2.857   2.895   3.866 -0.2810 -0.2005  0.1036
 2576ntf    fn417578   3.092   3.015   3.867  0.2799  0.4648  0.1599
 2576ntf    fn417579   3.069   3.128   3.690  0.2393 -0.7709 -0.3661
 2576ntf    fn417580   2.951   3.175   3.863  0.1850 -0.0850 -0.1254
 2577ntf    cn117581   3.332   1.349   2.498  0.2649 -0.2218 -0.5347
 2577ntf    sn217582   3.209   1.250   2.587  0.0812  0.2580 -0.2498
 2577ntf    nn317583   3.084   1.249   2.492 -0.1628  0.2008  0.0685
 2577ntf    sn217584   3.049   1.135   2.391  0.0674  0.2117 -0.0253
 2577ntf    cn117585   2.957   1.025   2.503 -0.3765  0.7059  0.0978
 2577ntf    fn417586   3.353   1.298   2.378  0.0541  0.0648 -0.6949
 2577ntf    fn417587   3.282   1.467   2.466  0.0020 -0.0724  0.3910
 2577ntf    fn417588   3.441   1.378   2.567 -0.2959  0.2625  0.1619
 2577ntf    on517589   3.270   1.122   2.614  0.0116  0.1101 -0.8005
 2577ntf    on517590   3.181   1.325   2.707 -0.0067 -0.3432  0.1115
 2577ntf    on517591   3.156   1.046   2.355  0.3775  0.4075  0.4141
 2577ntf    on517592   2.956   1.176   2.288 -0.5151  0.0139  0.4124
 2577ntf    fn417593   3.033   0.982   2.602 -0.1475 -0.1193 -0.4259
 2577ntf    fn417594   2.865   1.100   2.562 -0.1092  0.9673  0.1805
 2577ntf    fn417595   2.890   0.930   2.440  0.0567 -0.1753  0.9439
 2578ntf    cn117596   4.924   1.605   0.078  0.2070  0.2251  0.1943
 2578ntf    sn217597   4.976   1.431   0.083  0.2066  0.2171 -0.0516
 2578ntf    nn317598   4.915   1.391   0.223  0.7242 -0.6739 -0.0705
 2578ntf    sn217599   4.783   1.318   0.267  0.3160  0.1117  0.0414
 2578ntf    cn117600   4.808   1.348   0.444 -0.0354 -0.2920  0.1604
 2578ntf    fn417601   4.794   1.622   0.100  0.1211 -0.0779 -0.0677
 2578ntf    fn417602   4.976   1.663   0.184  0.0234  0.2771  0.2574
 2578ntf    fn417603   4.961   1.669  -0.031  0.4195  0.0858  0.1849
 2578ntf    on517604   4.913   1.362  -0.027  0.1085  0.1185  0.0654
 2578ntf    on517605   5.119   1.439   0.090  0.2296  0.3059 -0.6078
 2578ntf    on517606   4.797   1.176   0.242 -0.0242  0.0680  0.1048
 2578ntf    on517607   4.657   1.382   0.244  0.2012 -0.3745 -0.7164
 2578ntf    fn417608   4.806   1.479   0.464 -0.4196 -0.2172 -0.3702
 2578ntf    fn417609   4.715   1.297   0.523 -0.1198  0.2369  0.4060
 2578ntf    fn417610   4.924   1.304   0.491  0.1090 -0.2594 -0.1676
 2579ntf    cn117611   1.718   1.515   5.694  0.3383  0.1178  0.4333
 2579ntf    sn217612   1.733   1.577   5.865  0.1502  0.3876  0.3533
 2579ntf    nn317613   1.655   1.465   5.943  0.1023  0.1577 -0.0206
 2579ntf    sn217614   1.500   1.446   5.943  0.1608 -0.3417 -0.0416
 2579ntf    cn117615   1.447   1.550   6.083 -0.1570 -0.5764  0.0126
 2579ntf    fn417616   1.596   1.529   5.644  0.3549  0.3370  0.4524
 2579ntf    fn417617   1.803   1.576   5.613 -0.1105 -0.0810 -0.1932
 2579ntf    fn417618   1.743   1.386   5.682 -0.3731 -0.0046  0.2460
 2579ntf    on517619   1.875   1.579   5.892  0.3000 -0.2734 -0.3416
 2579ntf    on517620   1.665   1.704   5.872 -0.4586  0.0737  0.1876
 2579ntf    on517621   1.462   1.315   5.990 -0.0824 -0.1763  0.2273
 2579ntf    on517622   1.421   1.490   5.830  0.1064  0.1130  0.1722
 2579ntf    fn417623   1.467   1.680   6.073 -0.4140 -0.5570 -0.2765
 2579ntf    fn417624   1.315   1.545   6.092 -0.2344  0.7056 -0.2198
 2579ntf    fn417625   1.504   1.515   6.197  0.6491  0.6467  0.0025
 2580ntf    cn117626   6.901   3.745   4.796  0.2229  0.1828  0.0718
 2580ntf    sn217627   6.736   3.670   4.781  0.5543 -0.5544  0.0544
 2580ntf    nn317628   6.701   3.735   4.642  0.2241 -0.5540  0.1370
 2580ntf    sn217629   6.687   3.663   4.503 -0.2519 -0.0063 -0.1032
 2580ntf    cn117630   6.831   3.719   4.409 -0.1426 -0.4342 -0.1952
 2580ntf    fn417631   6.907   3.877   4.783  0.0330  0.1863  0.0184
 2580ntf    fn417632   6.964   3.711   4.907 -0.4500  0.2524  0.4813
 2580ntf    fn417633   6.977   3.705   4.696 -0.3465 -0.1003 -0.2552
 2580ntf    on517634   6.762   3.529   4.770  0.3155 -0.5892 -0.0718
 2580ntf    on517635   6.658   3.713   4.895  0.2373 -0.8100 -0.0642
 2580ntf    on517636   6.571   3.715   4.435 -0.0693 -0.4531 -0.7697
 2580ntf    on517637   6.700   3.519   4.493 -0.3415 -0.0300  0.0986
 2580ntf    fn417638   6.937   3.658   4.459 -0.0246  0.2517  0.4224
 2580ntf    fn417639   6.823   3.688   4.281  0.0742  0.0728 -0.3338
 2580ntf    fn417640   6.852   3.849   4.425 -0.4890 -0.3313 -0.5800
 2581ntf    cn117641   2.427   5.159   1.745  0.0967 -0.0700  0.1098
 2581ntf    sn217642   2.589   5.194   1.820  0.1376 -0.3836  0.1694
 2581ntf    nn317643   2.516   5.236   1.953  0.2071 -0.5616  0.2647
 2581ntf    sn217644   2.582   5.265   2.092  0.0332 -0.1187  0.2593
 2581ntf    cn117645   2.613   5.444   2.085 -0.0686 -0.1096  0.0296
 2581ntf    fn417646   2.330   5.245   1.775  0.1250  0.1116 -0.3063
 2581ntf    fn417647   2.434   5.148   1.613  0.1008  0.6092  0.0499
 2581ntf    fn417648   2.375   5.044   1.784  0.4364 -0.4341 -0.5038
 2581ntf    on517649   2.665   5.072   1.818  0.0395 -0.4374 -0.9210
 2581ntf    on517650   2.639   5.301   1.737 -0.6699 -0.1632 -0.0500
 2581ntf    on517651   2.707   5.194   2.100 -0.3102 -0.7411  0.1859
 2581ntf    on517652   2.494   5.246   2.205 -0.1356  0.1575  0.1745
 2581ntf    fn417653   2.500   5.511   2.074  0.1667  0.2675 -0.1059
 2581ntf    fn417654   2.668   5.483   2.199  0.5800 -0.2243 -0.2369
 2581ntf    fn417655   2.686   5.483   1.981 -0.6139  0.3088 -0.2007
 2582ntf    cn117656   1.427   5.131   6.084  0.0279 -0.0939 -0.3172
 2582ntf    sn217657   1.412   4.950   6.079 -0.1303 -0.0872 -0.1072
 2582ntf    nn317658   1.310   4.919   6.194 -0.0110 -0.8364 -0.2013
 2582ntf    sn217659   1.160   4.876   6.184 -0.2780  0.0917 -0.2414
 2582ntf    cn117660   1.078   5.019   6.259  0.3931  0.2990  0.1013
 2582ntf    fn417661   1.512   5.188   6.000  0.1102  0.6313  0.2525
 2582ntf    fn417662   1.312   5.197   6.077  0.2289  0.2841 -0.1260
 2582ntf    fn417663   1.481   5.161   6.201 -0.3785  0.3608 -0.2448
 2582ntf    on517664   1.380   4.913   5.943  0.3118  0.0618 -0.2528
 2582ntf    on517665   1.546   4.913   6.118 -0.1840 -0.1917 -0.0213
 2582ntf    on517666   1.122   4.769   6.273  0.0657  0.6025  0.5232
 2582ntf    on517667   1.119   4.859   6.046  0.4263  0.1432 -0.4568
 2582ntf    fn417668   1.077   5.119   6.172  0.2174  0.5143  0.3465
 2582ntf    fn417669   0.949   4.998   6.284  0.5164  0.0800  0.5780
 2582ntf    fn417670   1.137   5.065   6.368  0.8740  0.1828 -0.1118
 2583ntf    cn117671   2.914   2.388   4.002 -0.0381  0.2713 -0.0445
 2583ntf    sn217672   2.804   2.282   4.100  0.1304  0.0440 -0.1024
 2583ntf    nn317673   2.799   2.155   4.007 -0.3104 -0.0998  0.1127
 2583ntf    sn217674   2.700   2.105   3.896 -0.0311  0.1480 -0.2501
 2583ntf    cn117675   2.614   1.967   3.976  0.0753  0.2294  0.0055
 2583ntf    fn417676   2.889   2.515   4.033  0.1620  0.2895  0.0426
 2583ntf    fn417677   3.041   2.356   4.018 -0.1394 -0.0764  0.0605
 2583ntf    fn417678   2.884   2.377   3.874 -0.0668 -0.6673  0.0392
 2583ntf    on517679   2.877   2.257   4.221 -0.0433 -0.6383 -0.1320
 2583ntf    on517680   2.676   2.346   4.119 -0.3169 -0.7623 -0.3020
 2583ntf    on517681   2.765   2.042   3.784 -0.2752  0.3504 -0.5072
 2583ntf    on517682   2.590   2.194   3.866  0.1607  0.5271  0.1646
 2583ntf    fn417683   2.695   1.866   4.005 -0.7478 -0.4088  0.1296
 2583ntf    fn417684   2.565   2.002   4.094 -0.0142 -0.4182  0.1671
 2583ntf    fn417685   2.504   1.926   3.915  0.3716  0.1092 -0.4497
 2584ntf    cn117686   4.446   0.115   5.088 -0.1536 -0.4723 -0.2623
 2584ntf    sn217687   4.389   0.020   4.944 -0.1214  0.0650 -0.6340
 2584ntf    nn317688   4.478  -0.108   4.963  0.0522  0.2989  0.1897
 2584ntf    sn217689   4.454  -0.237   5.048 -0.1671  0.2220  0.0120
 2584ntf    cn117690   4.382  -0.326   4.907  0.0731  0.1742 -0.0806
 2584ntf    fn417691   4.404   0.068   5.204  0.3816  0.4903  0.3352
 2584ntf    fn417692   4.577   0.113   5.104 -0.1572 -0.1396 -0.1857
 2584ntf    fn417693   4.414   0.244   5.088 -0.3343 -0.5165 -0.0477
 2584ntf    on517694   4.248   0.000   4.971 -0.0174 -0.0337 -0.1541
 2584ntf    on517695   4.419   0.098   4.827  0.8035 -0.3007 -0.6423
 2584ntf    on517696   4.346  -0.237   5.144  0.0567  0.1691  0.2620
 2584ntf    on517697   4.578  -0.306   5.072  0.0350  0.7809  0.5874
 2584ntf    fn417698   4.267  -0.272   4.870 -0.2131 -0.2039  0.2578
 2584ntf    fn417699   4.455  -0.329   4.796  0.6990  0.0741  0.3278
 2584ntf    fn417700   4.366  -0.454   4.934  0.2725  0.1585 -0.0412
 2585ntf    cn117701   2.222   4.040   6.719 -0.3218 -0.2605  0.1700
 2585ntf    sn217702   2.389   3.978   6.757 -0.2479 -0.2902 -0.1971
 2585ntf    nn317703   2.366   3.935   6.906  0.3779  0.1249  0.0199
 2585ntf    sn217704   2.338   3.792   6.965  0.1089  0.1709  0.0029
 2585ntf    cn117705   2.483   3.769   7.071 -0.1361 -0.1205  0.2767
 2585ntf    fn417706   2.140   3.943   6.756 -0.4702 -0.2592 -0.1499
 2585ntf    fn417707   2.188   4.145   6.792 -0.0351 -0.1575  0.1584
 2585ntf    fn417708   2.207   4.057   6.589  1.1623  0.3246  0.0484
 2585ntf    on517709   2.416   3.874   6.661  0.1123 -0.2613 -0.1296
 2585ntf    on517710   2.468   4.098   6.749 -0.0353 -0.3897  0.3352
 2585ntf    on517711   2.347   3.679   6.875  0.1058  0.1081  0.0813
 2585ntf    on517712   2.224   3.783   7.052  0.0123 -0.2364 -0.1590
 2585ntf    fn417713   2.594   3.760   7.000 -0.0476  0.1008  0.3841
 2585ntf    fn417714   2.500   3.879   7.144 -0.2108  0.0891 -0.0221
 2585ntf    fn417715   2.477   3.666   7.154 -0.2746 -0.3091  0.0340
 2586ntf    cn117716   3.971   1.454   3.654 -0.1689  0.2279 -0.0976
 2586ntf    sn217717   3.849   1.320   3.641  0.2159 -0.1086 -0.2584
 2586ntf    nn317718   3.761   1.376   3.759  0.7265 -0.3522  0.2388
 2586ntf    sn217719   3.777   1.366   3.914 -0.5742  0.3645  0.4311
 2586ntf    cn117720   3.717   1.526   3.975 -0.4657  0.5316  0.1001
 2586ntf    fn417721   3.916   1.574   3.664 -0.4842  0.0536  0.3220
 2586ntf    fn417722   4.036   1.429   3.767  0.1041  0.1521 -0.2726
 2586ntf    fn417723   4.059   1.454   3.555  0.0218  0.3733  0.0706
 2586ntf    on517724   3.789   1.346   3.512 -0.3614 -0.1309 -0.0001
 2586ntf    on517725   3.918   1.196   3.662 -0.5257 -0.4029  0.5000
 2586ntf    on517726   3.908   1.356   3.973 -0.0690 -0.1004 -0.7469
 2586ntf    on517727   3.677   1.276   3.967  0.3569 -1.1523 -0.3052
 2586ntf    fn417728   3.802   1.625   3.951 -0.0428 -0.0281 -0.7265
 2586ntf    fn417729   3.598   1.555   3.926 -0.3696  0.6889 -0.0413
 2586ntf    fn417730   3.702   1.518   4.106 -0.2209  0.0841  0.1008
 2587ntf    cn117731   5.854   2.530   3.854 -0.0075 -0.1493 -0.1148
 2587ntf    sn217732   5.967   2.669   3.825  0.0506 -0.0920  0.3664
 2587ntf    nn317733   6.107   2.600   3.833 -0.0840 -0.4226 -0.0849
 2587ntf    sn217734   6.188   2.572   3.964  0.3333 -0.1733 -0.2863
 2587ntf    cn117735   6.288   2.720   3.999  0.0384 -0.0368 -0.0195
 2587ntf    fn417736   5.728   2.549   3.816 -0.0688  0.8295  0.5279
 2587ntf    fn417737   5.893   2.417   3.798 -0.0281 -0.1444 -0.1393
 2587ntf    fn417738   5.844   2.507   3.984  0.0322 -0.0723 -0.0979
 2587ntf    on517739   5.944   2.710   3.688  0.6284  0.4241  0.4171
 2587ntf    on517740   5.928   2.762   3.927 -0.2877 -0.4060  0.5245
 2587ntf    on517741   6.293   2.475   3.939 -0.1046 -0.8868  0.5835
 2587ntf    on517742   6.102   2.553   4.078  0.1641 -0.2484 -0.4264
 2587ntf    fn417743   6.199   2.818   3.989  0.1189  0.0765  0.3570
 2587ntf    fn417744   6.336   2.729   4.122  0.4882  0.4227 -0.2296
 2587ntf    fn417745   6.386   2.735   3.911 -0.2825 -0.2634 -0.4187
 2588ntf    cn117746   2.990   2.916   4.853  0.1404  0.3350 -0.2828
 2588ntf    sn217747   3.115   3.046   4.874  0.2034  0.2706 -0.2570
 2588ntf    nn317748   3.250   2.968   4.853 -0.0367 -0.3142  0.3416
 2588ntf    sn217749   3.360   2.919   4.954  0.2020 -0.0823  0.1945
 2588ntf    cn117750   3.500   2.931   4.840  0.1584 -0.3906  0.1098
 2588ntf    fn417751   2.875   2.974   4.824  0.1245  0.4322 -0.0195
 2588ntf    fn417752   3.023   2.838   4.751  0.5742  0.4207 -0.2106
 2588ntf    fn417753   2.979   2.840   4.960 -0.0773  0.0659 -0.4934
 2588ntf    on517754   3.085   3.139   4.768 -0.3274  0.0894 -0.2655
 2588ntf    on517755   3.084   3.079   5.011  0.1012  0.1024 -0.2393
 2588ntf    on517756   3.357   2.778   4.982  0.2527 -0.0931  0.1448
 2588ntf    on517757   3.393   3.005   5.065 -0.5408 -0.1688  0.4928
 2588ntf    fn417758   3.489   2.832   4.752  0.0425  0.1650 -0.5053
 2588ntf    fn417759   3.506   3.037   4.762  0.5256 -0.3804  0.1505
 2588ntf    fn417760   3.613   2.927   4.909  0.1897  0.1813  0.0884
 2589ntf    cn117761   5.922   1.749   3.502  0.1888  0.1701 -0.2036
 2589ntf    sn217762   5.791   1.767   3.377  0.1960 -0.4868 -0.3067
 2589ntf    nn317763   5.804   1.920   3.344  0.2643 -0.4433 -0.0774
 2589ntf    sn217764   5.737   2.048   3.406 -0.1158 -0.4174 -0.5378
 2589ntf    cn117765   5.899   2.130   3.422 -0.1109 -0.5476  0.1139
 2589ntf    fn417766   5.895   1.786   3.626  0.2762  0.1378 -0.1749
 2589ntf    fn417767   5.955   1.623   3.525 -0.5338  0.0479  0.1832
 2589ntf    fn417768   6.031   1.810   3.457  0.3005  0.4004  0.3785
 2589ntf    on517769   5.841   1.686   3.268  0.5951 -0.1902 -0.3439
 2589ntf    on517770   5.671   1.725   3.446 -0.1395  0.2617 -0.4294
 2589ntf    on517771   5.690   2.035   3.541  0.0336  0.1496 -0.4315
 2589ntf    on517772   5.659   2.129   3.316 -0.3229 -0.0599 -0.0366
 2589ntf    fn417773   5.959   2.094   3.534 -0.6467  0.0167  0.5846
 2589ntf    fn417774   5.981   2.087   3.327  0.3280  0.0220  0.2344
 2589ntf    fn417775   5.901   2.262   3.427  0.6914 -0.5641  0.4493
 2590ntf    cn117776   3.075   5.852   4.570  0.5565 -0.0572 -0.2980
 2590ntf    sn217777   3.057   6.032   4.544 -0.2744 -0.0902 -0.0024
 2590ntf    nn317778   2.915   6.019   4.478 -0.3285  0.2082  0.0587
 2590ntf    sn217779   2.870   6.038   4.329  0.2484 -0.3457 -0.1886
 2590ntf    cn117780   2.796   6.203   4.350  0.4441 -0.1982 -0.6262
 2590ntf    fn417781   2.979   5.779   4.515  0.1143 -0.1650  0.6036
 2590ntf    fn417782   3.182   5.791   4.522 -0.0375 -1.1673 -0.2340
 2590ntf    fn417783   3.079   5.823   4.699  0.0961  0.2047 -0.2218
 2590ntf    on517784   3.061   6.084   4.678  0.1680 -0.6064  0.1895
 2590ntf    on517785   3.170   6.070   4.463 -0.5928  0.3164 -0.2526
 2590ntf    on517786   2.751   5.965   4.294 -0.3240  0.3030  0.3897
 2590ntf    on517787   2.973   6.058   4.230  0.1697  0.0411 -0.1939
 2590ntf    fn417788   2.875   6.289   4.412 -0.1671  0.0283 -0.1455
 2590ntf    fn417789   2.741   6.263   4.247 -0.7298  0.2894  0.2605
 2590ntf    fn417790   2.702   6.190   4.443  0.7653 -0.5418 -0.3439
 2591ntf    cn117791   2.340   5.405   6.959  0.6946 -0.2725 -0.1756
 2591ntf    sn217792   2.234   5.353   6.822 -0.2250  0.1182  0.3796
 2591ntf    nn317793   2.336   5.273   6.733 -0.0728  0.4434  0.2625
 2591ntf    sn217794   2.383   5.302   6.586 -0.2181 -0.0398  0.1205
 2591ntf    cn117795   2.439   5.139   6.528 -0.0257 -0.0505  0.3380
 2591ntf    fn417796   2.443   5.485   6.933  0.1146  0.3277 -0.6796
 2591ntf    fn417797   2.284   5.482   7.050  0.0419 -0.6977 -0.2141
 2591ntf    fn417798   2.386   5.304   7.031 -0.1591  0.0546  0.8575
 2591ntf    on517799   2.139   5.264   6.884 -0.1606 -0.3211 -0.1470
 2591ntf    on517800   2.179   5.479   6.777 -0.0510  0.1569  0.2757
 2591ntf    on517801   2.505   5.379   6.580 -0.0796 -0.2846 -0.2808
 2591ntf    on517802   2.282   5.334   6.488  0.0135 -0.4949 -0.2759
 2591ntf    fn417803   2.337   5.073   6.476  0.1697  0.2410 -0.4260
 2591ntf    fn417804   2.535   5.144   6.438 -0.1641 -0.1282  0.1863
 2591ntf    fn417805   2.474   5.067   6.634  0.1372  0.3350  0.5470
 2592ntf    cn117806   2.446   6.623   6.129 -0.0083  0.1677  0.2876
 2592ntf    sn217807   2.497   6.797   6.116 -0.1304  0.1686 -0.1963
 2592ntf    nn317808   2.558   6.795   5.971  0.1529  0.2058 -0.0774
 2592ntf    sn217809   2.487   6.821   5.833  0.1857  0.2150 -0.0931
 2592ntf    cn117810   2.605   6.724   5.734 -0.0602 -0.3333  0.1486
 2592ntf    fn417811   2.357   6.590   6.037  0.2361  0.2793  0.0083
 2592ntf    fn417812   2.558   6.553   6.120  0.4122  0.8634 -0.0100
 2592ntf    fn417813   2.400   6.592   6.249 -0.4468  0.2821  0.1518
 2592ntf    on517814   2.377   6.876   6.130 -0.1529  0.2397 -0.7676
 2592ntf    on517815   2.590   6.819   6.224 -0.4284  0.4731  0.0016
 2592ntf    on517816   2.483   6.951   5.771 -0.2144  0.0492 -0.4118
 2592ntf    on517817   2.369   6.741   5.815 -0.1276  0.4154  0.9802
 2592ntf    fn417818   2.614   6.598   5.775 -0.1508 -0.5155 -0.3881
 2592ntf    fn417819   2.557   6.725   5.611  0.7956  0.2483 -0.1851
 2592ntf    fn417820   2.728   6.771   5.723 -0.0712 -0.4018 -0.2807
 2593ntf    cn117821   1.293   7.004   1.630  0.4430  0.4273  0.1868
 2593ntf    sn217822   1.364   6.870   1.730 -0.1002 -0.1667 -0.2155
 2593ntf    nn317823   1.319   6.926   1.870 -0.1306 -0.1002 -0.2520
 2593ntf    sn217824   1.402   6.918   2.002 -0.0320 -0.1181 -0.3147
 2593ntf    cn117825   1.275   6.835   2.103  0.3695 -0.3526  0.0026
 2593ntf    fn417826   1.335   7.007   1.504  0.4453  0.0595  0.1761
 2593ntf    fn417827   1.164   6.987   1.608  0.5040 -0.5189  0.5043
 2593ntf    fn417828   1.311   7.123   1.685  0.9432  0.8371 -0.8314
 2593ntf    on517829   1.294   6.749   1.696  0.1215 -0.4245  0.2298
 2593ntf    on517830   1.501   6.885   1.688 -0.2630 -0.1324 -0.7435
 2593ntf    on517831   1.429   7.047   2.063  0.1242 -0.4537  0.3404
 2593ntf    on517832   1.512   6.825   2.005  0.0059 -0.0602  0.8596
 2593ntf    fn417833   1.161   6.901   2.111  0.3592 -0.3636 -0.0536
 2593ntf    fn417834   1.239   6.716   2.058 -0.5959 -0.0567 -0.0122
 2593ntf    fn417835   1.304   6.812   2.230  0.3652 -0.2412  0.0243
 2594ntf    cn117836   4.921   3.057   0.978 -0.2715  0.2536 -0.0893
 2594ntf    sn217837   4.961   3.061   0.801 -0.1588  0.4685 -0.0594
 2594ntf    nn317838   4.892   3.195   0.757 -0.1099  0.5476  0.1052
 2594ntf    sn217839   4.738   3.221   0.741 -0.2609 -0.5446 -0.2951
 2594ntf    cn117840   4.718   3.172   0.568 -0.9211 -0.2498 -0.3041
 2594ntf    fn417841   4.995   2.971   1.047 -0.2214  0.9116  0.6935
 2594ntf    fn417842   4.954   3.173   1.034 -0.3775  0.0959  0.3069
 2594ntf    fn417843   4.794   3.031   1.003 -0.2908  0.2845 -0.1575
 2594ntf    on517844   5.104   3.077   0.814 -0.1388 -0.3095  0.7686
 2594ntf    on517845   4.911   2.932   0.762  0.5982  0.1450  0.0278
 2594ntf    on517846   4.702   3.361   0.750 -0.1684 -0.5495  0.1992
 2594ntf    on517847   4.650   3.137   0.818 -0.5740 -0.0814 -0.1412
 2594ntf    fn417848   4.590   3.144   0.552 -1.0227 -0.3321  0.6049
 2594ntf    fn417849   4.750   3.274   0.488  0.2132 -0.1944  0.2025
 2594ntf    fn417850   4.795   3.071   0.531  0.2025  0.5962 -0.3341
 2595ntf    cn117851   4.103   2.953   2.088 -0.1116  0.0462 -0.1845
 2595ntf    sn217852   4.171   2.785   2.101 -0.0782  0.0896  0.2254
 2595ntf    nn317853   4.091   2.705   1.992 -0.0907 -0.1080  0.3789
 2595ntf    sn217854   4.057   2.751   1.846  0.3212  0.1064  0.3505
 2595ntf    cn117855   4.075   2.594   1.756  0.0241  0.1479  0.2172
 2595ntf    fn417856   4.173   3.030   2.007 -0.0585 -0.2313 -0.4057
 2595ntf    fn417857   3.982   2.951   2.035 -0.0303  0.6127 -0.3931
 2595ntf    fn417858   4.101   3.020   2.202  0.8538 -0.2845  0.0385
 2595ntf    on517859   4.311   2.799   2.068 -0.0673 -0.0751  0.1988
 2595ntf    on517860   4.140   2.751   2.238 -0.2686  0.0871  0.1812
 2595ntf    on517861   4.149   2.840   1.779  0.0863 -0.0925 -0.2395
 2595ntf    on517862   3.915   2.765   1.824  0.3843  0.1453 -0.0365
 2595ntf    fn417863   4.038   2.487   1.824  0.3094 -0.3322 -0.3724
 2595ntf    fn417864   4.006   2.597   1.643 -0.2498  0.4240  0.3904
 2595ntf    fn417865   4.196   2.562   1.714 -0.1215 -0.2235  0.0738
 2596ntf    cn117866   4.024   5.940   5.246 -0.1225 -0.1540  0.4632
 2596ntf    sn217867   4.139   5.832   5.336  0.4592  0.0857  0.0150
 2596ntf    nn317868   4.279   5.893   5.302  0.2941 -0.0751 -0.9961
 2596ntf    sn217869   4.367   5.984   5.395 -0.4059 -0.2283 -0.1704
 2596ntf    cn117870   4.492   5.858   5.433 -0.2481 -0.0279 -0.0225
 2596ntf    fn417871   3.896   5.919   5.271 -0.0887 -0.4245  0.4165
 2596ntf    fn417872   4.051   6.068   5.266  0.3170 -0.1810  0.0523
 2596ntf    fn417873   4.038   5.916   5.117 -0.7041 -0.3052  0.4223
 2596ntf    on517874   4.087   5.836   5.470 -0.1388  1.0597 -0.2401
 2596ntf    on517875   4.123   5.705   5.269 -0.3539 -0.2534  0.8285
 2596ntf    on517876   4.300   6.014   5.519  0.2501 -0.1771  0.1764
 2596ntf    on517877   4.421   6.099   5.326 -0.4929  0.1225  0.3371
 2596ntf    fn417878   4.545   5.816   5.319  0.1670  0.3244  0.0406
 2596ntf    fn417879   4.587   5.892   5.518  0.2898 -0.2627 -0.5216
 2596ntf    fn417880   4.446   5.751   5.497  0.2608 -0.1647  0.1196
 2597ntf    cn117881   6.362   2.599   0.134  0.0205  0.2204  0.0649
 2597ntf    sn217882   6.341   2.428   0.076  0.3212  0.2962 -0.2714
 2597ntf    nn317883   6.246   2.437  -0.049 -0.0824 -0.0424  0.0039
 2597ntf    sn217884   6.150   2.333  -0.116 -0.0796  0.1251 -0.2585
 2597ntf    cn117885   6.256   2.253  -0.240 -0.1608  0.0860 -0.3033
 2597ntf    fn417886   6.242   2.653   0.152  0.0630  0.2224  0.3478
 2597ntf    fn417887   6.426   2.611   0.249  0.5419 -0.1988 -0.1768
 2597ntf    fn417888   6.431   2.665   0.043 -0.0318 -0.0297 -0.1580
 2597ntf    on517889   6.475   2.387   0.044  0.2773 -0.0610 -0.0123
 2597ntf    on517890   6.277   2.365   0.190  0.0030 -0.0239 -0.6259
 2597ntf    on517891   6.044   2.396  -0.191 -0.4051  0.2530  0.3100
 2597ntf    on517892   6.113   2.219  -0.037  0.2947  0.0212 -0.2314
 2597ntf    fn417893   6.342   2.170  -0.183 -0.1049  0.4336  0.1266
 2597ntf    fn417894   6.195   2.195  -0.342  0.6444  0.0469 -0.7733
 2597ntf    fn417895   6.338   2.345  -0.289  0.2547 -0.2178 -0.1888
 2598ntf    cn117896   3.744   2.330   6.391  0.2801  0.4042 -0.0719
 2598ntf    sn217897   3.669   2.168   6.357  0.1809  0.3426  0.4308
 2598ntf    nn317898   3.520   2.202   6.323  0.4681  0.3250 -0.9152
 2598ntf    sn217899   3.416   2.139   6.225  0.0137 -0.3354 -0.0217
 2598ntf    cn117900   3.347   2.284   6.139 -0.1418 -0.3668  0.0481
 2598ntf    fn417901   3.875   2.323   6.405  0.2811 -0.0989 -0.2993
 2598ntf    fn417902   3.707   2.424   6.306 -0.5703  0.1330 -0.0197
 2598ntf    fn417903   3.711   2.373   6.512 -0.2680  0.4897 -0.2486
 2598ntf    on517904   3.747   2.136   6.240 -0.6636 -0.1928  0.0078
 2598ntf    on517905   3.699   2.095   6.478  0.4632  0.3325  0.3551
 2598ntf    on517906   3.308   2.089   6.307 -0.0245  0.0417  0.1612
 2598ntf    on517907   3.472   2.056   6.121  0.0819  0.1816 -0.4013
 2598ntf    fn417908   3.309   2.384   6.216 -0.1579 -0.2304 -0.1354
 2598ntf    fn417909   3.426   2.340   6.049 -0.4200  0.3973  0.2692
 2598ntf    fn417910   3.237   2.248   6.076 -0.0582 -0.2949 -0.1386
 2599ntf    cn117911   3.351   2.562   6.682  0.1295 -0.2289 -0.0268
 2599ntf    sn217912   3.491   2.675   6.709 -0.1959  0.2119 -0.1745
 2599ntf    nn317913   3.558   2.605   6.833 -0.2472  0.2773 -0.1099
 2599ntf    sn217914   3.675   2.648   6.929 -0.1813 -0.1459 -0.0009
 2599ntf    cn117915   3.590   2.739   7.062 -0.5396 -0.0639 -0.2845
 2599ntf    fn417916   3.286   2.545   6.796 -0.1989  0.8430 -0.0427
 2599ntf    fn417917   3.263   2.618   6.601 -0.5243  0.0521  0.8612
 2599ntf    fn417918   3.393   2.447   6.632  0.0600 -0.3271  0.1389
 2599ntf    on517919   3.568   2.667   6.587 -0.0446 -0.4961 -0.0387
 2599ntf    on517920   3.428   2.798   6.750  0.0001  0.2846 -0.0912
 2599ntf    on517921   3.755   2.757   6.879 -0.0282 -0.3565 -0.2175
 2599ntf    on517922   3.739   2.536   6.994  0.4696  0.3339  0.1930
 2599ntf    fn417923   3.491   2.667   7.112 -0.0495 -0.5220  0.0416
 2599ntf    fn417924   3.678   2.755   7.160 -0.2200  0.3552 -0.6355
 2599ntf    fn417925   3.542   2.858   7.032  0.1827  0.1687 -0.5302
 2600ntf    cn117926   2.266   3.547   0.639  0.1484  0.0335  0.1536
 2600ntf    sn217927   2.196   3.396   0.566  0.0522  0.0412  0.2290
 2600ntf    nn317928   2.178   3.436   0.415  0.1109 -0.2468  0.1441
 2600ntf    sn217929   2.164   3.349   0.285 -0.2170  0.2577 -0.1608
 2600ntf    cn117930   2.332   3.283   0.265 -0.0756  0.5365  0.0859
 2600ntf    fn417931   2.189   3.653   0.623 -0.0373 -0.1095  0.0948
 2600ntf    fn417932   2.301   3.537   0.766  0.6427 -0.7518 -0.0382
 2600ntf    fn417933   2.378   3.572   0.573  0.2717 -0.8191  0.0323
 2600ntf    on517934   2.297   3.297   0.594 -0.4999 -0.3349  0.9399
 2600ntf    on517935   2.069   3.387   0.634 -0.5696  0.0943 -0.9011
 2600ntf    on517936   2.143   3.424   0.163  0.8434  0.6193 -0.1281
 2600ntf    on517937   2.078   3.233   0.282  0.2906 -0.1310  0.1662
 2600ntf    fn417938   2.349   3.248   0.138  0.4500  0.0749  0.2820
 2600ntf    fn417939   2.419   3.380   0.287  0.0980  0.4728 -0.3136
 2600ntf    fn417940   2.362   3.182   0.344  0.2718  0.6962  0.1604
 2601ntf    cn117941   2.551   6.117   4.004  0.2560  0.0412  0.1240
 2601ntf    sn217942   2.592   6.100   3.828 -0.4536  0.0852 -0.0496
 2601ntf    nn317943   2.503   5.975   3.798 -0.4623  0.0842 -0.0184
 2601ntf    sn217944   2.568   5.835   3.769 -0.2373  0.2285 -0.2151
 2601ntf    cn117945   2.413   5.748   3.733  0.0432 -0.4402  0.1617
 2601ntf    fn417946   2.631   6.202   4.067  0.2974 -0.1091  0.2760
 2601ntf    fn417947   2.424   6.152   4.016  0.2234 -0.0879  0.1647
 2601ntf    fn417948   2.570   6.008   4.077  0.1160  0.2804  0.5191
 2601ntf    on517949   2.543   6.220   3.764  0.1632  0.4396  0.1366
 2601ntf    on517950   2.736   6.092   3.836 -0.4322  0.9275  0.6385
 2601ntf    on517951   2.617   5.764   3.885 -0.1868  0.6142 -0.0004
 2601ntf    on517952   2.641   5.824   3.645  0.1355 -1.1438  0.1069
 2601ntf    fn417953   2.332   5.818   3.654  0.3842  0.2356  0.4058
 2601ntf    fn417954   2.430   5.629   3.677 -0.0476 -0.4376  0.1281
 2601ntf    fn417955   2.350   5.715   3.845  0.3093 -1.1422  0.1095
 2602ntf    cn117956   3.485   5.354   4.937  0.2214 -0.4307 -0.4149
 2602ntf    sn217957   3.643   5.368   5.025  0.0739  0.1405 -0.2329
 2602ntf    nn317958   3.672   5.522   5.011  0.1340  0.1882  0.3955
 2602ntf    sn217959   3.760   5.601   4.908  0.1474 -0.1547  0.1442
 2602ntf    cn117960   3.893   5.673   5.009  0.0832 -0.2420  0.2914
 2602ntf    fn417961   3.499   5.313   4.812 -0.0454  0.0040 -0.5895
 2602ntf    fn417962   3.405   5.269   4.999  0.3789 -0.2083  0.0985
 2602ntf    fn417963   3.411   5.464   4.938  0.0614 -0.5376  0.0554
 2602ntf    on517964   3.600   5.344   5.161  0.3400 -0.2524 -0.2164
 2602ntf    on517965   3.741   5.281   4.965  0.0824  0.1532 -0.2379
 2602ntf    on517966   3.681   5.713   4.863  0.1749 -0.3701 -0.4572
 2602ntf    on517967   3.825   5.516   4.811  0.9362 -0.0730  0.6010
 2602ntf    fn417968   3.988   5.732   4.938  0.0275 -0.4954  0.0021
 2602ntf    fn417969   3.841   5.760   5.093 -0.4966 -0.5293  0.2372
 2602ntf    fn417970   3.959   5.587   5.085  0.6545 -0.1454 -0.0948
 2603ntf    cn117971   6.707   6.848   1.983  0.2851  0.3190 -0.2716
 2603ntf    sn217972   6.710   6.932   2.144 -0.4014 -0.1376 -0.0176
 2603ntf    nn317973   6.862   6.971   2.152 -0.4205  0.0289 -0.4772
 2603ntf    sn217974   6.924   7.111   2.117  0.2915 -0.0600  0.4060
 2603ntf    cn117975   7.095   7.051   2.125  0.2914 -0.1162 -0.0128
 2603ntf    fn417976   6.597   6.866   1.912 -0.1008 -0.3130  0.1559
 2603ntf    fn417977   6.808   6.894   1.911  0.4082 -0.5099 -0.6351
 2603ntf    fn417978   6.736   6.719   1.988 -0.7129  0.1052  0.4486
 2603ntf    on517979   6.616   7.039   2.121  0.4653  0.5190 -0.5787
 2603ntf    on517980   6.680   6.821   2.231 -0.0404  0.1151  0.4326
 2603ntf    on517981   6.904   7.201   2.228  0.0598  0.2622  0.1023
 2603ntf    on517982   6.904   7.164   1.985  0.4042 -0.1784  0.3415
 2603ntf    fn417983   7.129   6.973   2.023  0.4820 -0.3098  0.1978
 2603ntf    fn417984   7.179   7.153   2.124  0.1031  0.0392  0.0401
 2603ntf    fn417985   7.114   6.979   2.235 -0.2951 -0.9270 -0.4296
 2604ntf    cn117986   5.797   0.581   1.353  0.0882  0.2778 -0.0033
 2604ntf    sn217987   5.978   0.576   1.333  0.1348 -0.1704  0.4790
 2604ntf    nn317988   5.998   0.421   1.329  0.4882 -0.1177  0.1191
 2604ntf    sn217989   6.055   0.311   1.425 -0.0177 -0.1653  0.3679
 2604ntf    cn117990   5.923   0.189   1.396 -0.4776  0.3297  0.3635
 2604ntf    fn417991   5.739   0.538   1.242  0.1059 -1.1562  0.5128
 2604ntf    fn417992   5.764   0.492   1.446  0.4354 -0.3722 -0.4940
 2604ntf    fn417993   5.741   0.699   1.373  0.0151  0.1808  0.3705
 2604ntf    on517994   5.995   0.633   1.201 -0.4490  0.1009  0.5141
 2604ntf    on517995   6.017   0.654   1.448  0.7759  0.0659  0.1026
 2604ntf    on517996   6.044   0.350   1.563  0.8375 -0.9931  0.6780
 2604ntf    on517997   6.174   0.236   1.395 -0.0145 -0.0653  0.1291
 2604ntf    fn417998   5.808   0.254   1.395 -0.6790 -0.0348 -0.2931
 2604ntf    fn417999   5.923   0.132   1.277 -0.3421 -0.2163  0.6188
 2604ntf    fn418000   5.923   0.090   1.484  0.3430 -0.4330 -0.4657
 2605ntf    cn118001   3.643   6.775   6.406  0.1539 -0.0699 -0.2734
 2605ntf    sn218002   3.677   6.781   6.227 -0.3376 -0.2529 -0.3747
 2605ntf    nn318003   3.730   6.635   6.208  0.2039 -0.0690 -0.3136
 2605ntf    sn218004   3.643   6.504   6.202  0.1659 -0.0642  0.1490
 2605ntf    cn118005   3.633   6.496   6.021  0.5039 -0.0433  0.1294
 2605ntf    fn418006   3.747   6.788   6.486 -0.1074  0.5147 -0.0236
 2605ntf    fn418007   3.558   6.868   6.446  0.3249 -0.3563  0.7742
 2605ntf    fn418008   3.593   6.659   6.443 -0.3908  0.0650 -0.5805
 2605ntf    on518009   3.545   6.815   6.180 -0.3328 -0.2942 -0.4177
 2605ntf    on518010   3.775   6.882   6.193  0.5702 -0.8509  0.3989
 2605ntf    on518011   3.506   6.508   6.248  0.0239 -0.0206 -0.2762
 2605ntf    on518012   3.720   6.389   6.242 -0.2304 -0.4854 -0.2927
 2605ntf    fn418013   3.607   6.376   5.971 -0.6088  0.0544  0.4565
 2605ntf    fn418014   3.541   6.573   5.967  0.4581 -0.1470  0.0592
 2605ntf    fn418015   3.744   6.538   5.962  0.4629  0.2779  0.2780
 2606ntf    cn118016   3.304   2.423   3.137 -0.2763  0.0169 -0.2950
 2606ntf    sn218017   3.380   2.574   3.071  0.3222 -0.0106  0.3291
 2606ntf    nn318018   3.357   2.679   3.186  0.7794  0.7397 -0.2560
 2606ntf    sn218019   3.268   2.808   3.184  0.0052  0.2185  0.0351
 2606ntf    cn118020   3.116   2.760   3.271  0.0953 -0.4219 -0.1580
 2606ntf    fn418021   3.352   2.378   3.252 -0.0524 -0.0121 -0.4006
 2606ntf    fn418022   3.177   2.447   3.168 -0.2035 -0.3499  0.3022
 2606ntf    fn418023   3.295   2.320   3.054 -0.8580  0.2286 -0.5063
 2606ntf    on518024   3.518   2.532   3.072  0.2513 -0.2501  0.0931
 2606ntf    on518025   3.321   2.587   2.941  0.7716  0.4163  0.1637
 2606ntf    on518026   3.229   2.856   3.053 -0.0957  0.0696  0.0112
 2606ntf    on518027   3.319   2.902   3.280 -0.1095 -0.0050  0.3154
 2606ntf    fn418028   3.066   2.651   3.216 -0.6643 -0.3818  0.4363
 2606ntf    fn418029   3.138   2.730   3.398  0.7751  0.4260 -0.0667
 2606ntf    fn418030   3.020   2.850   3.263  0.1060 -0.3687  0.2560
 2607ntf    cn118031   5.024   5.531   4.081 -0.1865  0.0292  0.2308
 2607ntf    sn218032   4.882   5.556   4.191 -0.1393  0.6086  0.1633
 2607ntf    nn318033   4.764   5.490   4.111 -0.3101 -0.1132  0.9819
 2607ntf    sn218034   4.715   5.341   4.103 -0.2365 -0.1032  0.2320
 2607ntf    cn118035   4.738   5.310   3.925 -0.2023  0.0603  0.2080
 2607ntf    fn418036   5.112   5.622   4.119  0.1369 -0.3423  0.3861
 2607ntf    fn418037   5.087   5.415   4.094 -0.2472 -0.0479 -0.1538
 2607ntf    fn418038   4.992   5.548   3.954  0.5407 -0.3165 -0.0101
 2607ntf    on518039   4.935   5.489   4.308  0.3798  0.1625 -0.3218
 2607ntf    on518040   4.861   5.698   4.203 -0.7492  0.5630 -0.3327
 2607ntf    on518041   4.575   5.320   4.127 -0.4389  0.6846 -0.2179
 2607ntf    on518042   4.799   5.241   4.164 -0.1711  0.2585  0.7450
 2607ntf    fn418043   4.866   5.297   3.894 -0.3970 -1.0331 -0.1637
 2607ntf    fn418044   4.686   5.193   3.892 -0.0226 -0.0062  0.1643
 2607ntf    fn418045   4.676   5.400   3.850 -0.2170 -0.2772 -0.1898
 2608ntf    cn118046   1.966   5.241   3.101  0.2707 -0.3091  0.3267
 2608ntf    sn218047   1.814   5.251   3.200  0.1596  0.2060  0.1111
 2608ntf    nn318048   1.748   5.116   3.153 -0.2284  0.4790 -0.1378
 2608ntf    sn218049   1.604   5.056   3.167 -0.0522  0.0633 -0.0931
 2608ntf    cn118050   1.531   5.115   3.011 -0.1052 -0.4254 -0.2574
 2608ntf    fn418051   2.016   5.120   3.113 -0.0159 -0.5018 -0.3586
 2608ntf    fn418052   1.940   5.265   2.973  0.2105 -0.4745  0.3084
 2608ntf    fn418053   2.062   5.325   3.136 -0.0422  0.1684  0.0621
 2608ntf    on518054   1.848   5.246   3.339 -1.0869 -0.4171  0.4141
 2608ntf    on518055   1.736   5.360   3.147  0.2244 -0.2252 -0.9065
 2608ntf    on518056   1.526   5.113   3.273 -0.1511 -0.3286  0.0479
 2608ntf    on518057   1.593   4.913   3.152  0.4301 -0.0095  0.2384
 2608ntf    fn418058   1.517   5.247   3.004  0.1496 -0.3830  0.0067
 2608ntf    fn418059   1.601   5.078   2.905 -0.4918 -0.5741 -0.4615
 2608ntf    fn418060   1.413   5.056   3.002 -0.0825 -0.5046 -0.0464
 2609ntf    cn118061   4.978   4.401   5.458  0.1708  0.2601  0.2135
 2609ntf    sn218062   4.883   4.452   5.605 -0.2494  0.1646 -0.0221
 2609ntf    nn318063   4.740   4.457   5.540 -0.2330  0.4040 -0.0412
 2609ntf    sn218064   4.604   4.444   5.617 -0.2785 -0.2810 -0.2367
 2609ntf    cn118065   4.516   4.312   5.527 -0.1075 -0.1112 -0.6554
 2609ntf    fn418066   5.104   4.367   5.480  0.0261 -0.3535  0.1163
 2609ntf    fn418067   4.919   4.299   5.398  0.2313  0.2706  0.1369
 2609ntf    fn418068   4.970   4.497   5.368 -0.1220  0.3139  0.2961
 2609ntf    on518069   4.913   4.340   5.690 -0.0473  0.3034  0.0901
 2609ntf    on518070   4.937   4.583   5.630  0.3835 -0.1301  0.1862
 2609ntf    on518071   4.522   4.560   5.592  0.3885  0.2587  0.0451
 2609ntf    on518072   4.607   4.386   5.749  0.2738 -0.6494 -0.4078
 2609ntf    fn418073   4.598   4.225   5.471 -0.0524 -0.4097 -0.1139
 2609ntf    fn418074   4.439   4.244   5.610 -0.0928 -0.0265 -0.5718
 2609ntf    fn418075   4.437   4.358   5.431 -0.6333  0.6785  0.1301
 2610ntf    cn118076   3.802   6.850   1.229 -0.2553 -0.2371  0.4828
 2610ntf    sn218077   3.969   6.898   1.282 -0.0448 -0.1095 -0.2874
 2610ntf    nn318078   4.060   6.842   1.167  0.3091  0.1753 -0.1518
 2610ntf    sn218079   4.140   6.920   1.058  0.2704  0.0336 -0.2835
 2610ntf    cn118080   4.295   6.826   1.045 -0.2041 -0.7784 -0.1036
 2610ntf    fn418081   3.787   6.719   1.220 -0.0634 -0.2315  0.0735
 2610ntf    fn418082   3.711   6.895   1.314 -0.2193  0.0677  0.3591
 2610ntf    fn418083   3.771   6.906   1.114  0.4370 -0.3241  0.2480
 2610ntf    on518084   3.950   7.040   1.297  0.8038  0.1263 -1.2876
 2610ntf    on518085   3.988   6.820   1.402 -0.0699  0.1729 -0.0984
 2610ntf    on518086   4.197   7.046   1.101 -0.0623  0.0720  0.0429
 2610ntf    on518087   4.082   6.906   0.927  0.8138  0.1646 -0.5417
 2610ntf    fn418088   4.385   6.883   0.966 -0.1008 -1.0475 -0.1809
 2610ntf    fn418089   4.355   6.832   1.163  0.1034 -0.1389 -0.2845
 2610ntf    fn418090   4.279   6.699   1.012  0.6892 -0.8421 -0.3101
 2611ntf    cn118091   0.884   4.004   2.539  0.3430  0.0339 -0.3545
 2611ntf    sn218092   0.825   3.871   2.430  0.3230 -0.3839  0.1623
 2611ntf    nn318093   0.670   3.901   2.430  0.3777 -0.0993  0.0831
 2611ntf    sn218094   0.552   3.802   2.462 -0.0043  0.4545  0.3955
 2611ntf    cn118095   0.517   3.869   2.627 -0.3033  0.3049  0.3930
 2611ntf    fn418096   0.828   3.982   2.657  0.3645 -0.0995 -0.3685
 2611ntf    fn418097   1.015   4.006   2.552  0.3423  0.0071 -0.3414
 2611ntf    fn418098   0.847   4.125   2.499 -0.1749  0.2124  0.6279
 2611ntf    on518099   0.884   3.893   2.300 -0.1654  0.7381  0.1205
 2611ntf    on518100   0.863   3.746   2.492  0.2358 -0.5114 -0.0370
 2611ntf    on518101   0.582   3.662   2.479 -0.9223  0.1310 -0.5159
 2611ntf    on518102   0.433   3.829   2.386 -0.1776 -0.5649  0.2983
 2611ntf    fn418103   0.615   3.854   2.715  0.0563  0.1562 -0.0300
 2611ntf    fn418104   0.495   4.000   2.622 -0.1724  0.3275  0.3972
 2611ntf    fn418105   0.408   3.815   2.679  0.4749 -1.2512  0.4583
 2612ntf    cn118106   2.686   3.788   0.629  0.1216  0.0698  0.0325
 2612ntf    sn218107   2.624   3.923   0.734  0.2029  0.2319 -0.1276
 2612ntf    nn318108   2.489   3.859   0.782  0.2706  0.3073  0.1639
 2612ntf    sn218109   2.408   3.884   0.914 -0.1279 -0.5692  0.0904
 2612ntf    cn118110   2.259   3.955   0.837  0.3109  0.1885 -0.0652
 2612ntf    fn418111   2.594   3.761   0.539 -0.0090 -0.2799  0.2701
 2612ntf    fn418112   2.796   3.816   0.561  0.1137  0.0482  0.0116
 2612ntf    fn418113   2.719   3.680   0.699  0.2490 -0.0055 -0.1448
 2612ntf    on518114   2.716   3.936   0.844 -0.2929 -0.2838  0.3503
 2612ntf    on518115   2.612   4.036   0.645  0.0361 -0.2422 -0.7118
 2612ntf    on518116   2.455   3.992   0.996 -0.3196 -0.4067 -0.0138
 2612ntf    on518117   2.356   3.774   0.992 -0.0407 -0.2612  0.5833
 2612ntf    fn418118   2.166   3.867   0.805  0.0366  0.4129  0.1108
 2612ntf    fn418119   2.200   4.038   0.920  0.5413  0.5043 -0.2129
 2612ntf    fn418120   2.283   4.025   0.727 -0.5396  0.1914 -0.2510
 2613ntf    cn118121   1.375   1.235   4.898 -0.3857 -0.1530 -0.1619
 2613ntf    sn218122   1.436   1.403   4.865  0.0631 -0.2041  0.3890
 2613ntf    nn318123   1.305   1.475   4.913 -0.0116 -0.1101  0.0464
 2613ntf    sn218124   1.293   1.564   5.042  0.4724  0.2399 -0.1477
 2613ntf    cn118125   1.359   1.722   4.980 -0.1569  0.3894 -0.4448
 2613ntf    fn418126   1.465   1.143   4.866 -0.2435 -0.3121  0.6810
 2613ntf    fn418127   1.353   1.227   5.028  0.0890 -0.3693 -0.0933
 2613ntf    fn418128   1.254   1.215   4.850 -0.8036 -0.3776  0.9556
 2613ntf    on518129   1.554   1.418   4.946  0.0632 -0.4073  0.4274
 2613ntf    on518130   1.444   1.400   4.721  0.1373 -0.6793  0.4000
 2613ntf    on518131   1.375   1.529   5.156  0.1435 -0.7021 -0.1908
 2613ntf    on518132   1.157   1.595   5.078  0.6233  0.4063  0.2891
 2613ntf    fn418133   1.305   1.760   4.866  0.2389  1.0220 -0.4229
 2613ntf    fn418134   1.348   1.825   5.061 -0.5354 -0.0139  0.0230
 2613ntf    fn418135   1.489   1.703   4.961 -0.2252 -0.4966 -0.0894
 2614ntf    cn118136   5.624   3.460   4.344  0.1106 -0.3266  0.0837
 2614ntf    sn218137   5.753   3.370   4.251  0.1515 -0.3069  0.1205
 2614ntf    nn318138   5.652   3.254   4.218 -0.0307 -0.2652  0.5201
 2614ntf    sn218139   5.680   3.103   4.249 -0.2844 -0.3574  0.2990
 2614ntf    cn118140   5.633   3.085   4.423 -0.1820  0.0148  0.3645
 2614ntf    fn418141   5.595   3.401   4.459 -0.3039 -0.1250  0.0823
 2614ntf    fn418142   5.666   3.582   4.372 -0.1359 -0.2560  0.1398
 2614ntf    fn418143   5.508   3.468   4.281  0.1455 -0.6194 -0.0228
 2614ntf    on518144   5.771   3.460   4.140 -0.0901  0.0914  0.3995
 2614ntf    on518145   5.859   3.346   4.346  0.2135 -0.1692  0.0857
 2614ntf    on518146   5.818   3.062   4.246 -0.1997 -0.0698  0.1889
 2614ntf    on518147   5.584   3.024   4.176 -0.2782  0.3622 -0.5107
 2614ntf    fn418148   5.640   2.962   4.472  0.3437 -0.2460 -0.3473
 2614ntf    fn418149   5.711   3.155   4.504 -0.3678  0.2921  0.3034
 2614ntf    fn418150   5.511   3.127   4.451 -0.4072 -0.4951  0.1619
 2615ntf    cn118151   1.225   2.105   0.042 -0.0567  0.2341 -0.1160
 2615ntf    sn218152   1.172   1.968  -0.066 -0.1252  0.1271  0.0512
 2615ntf    nn318153   1.087   2.035  -0.180  0.9136  0.6848 -0.4093
 2615ntf    sn218154   1.024   1.981  -0.313  0.2024  0.0651  0.1770
 2615ntf    cn118155   0.847   1.971  -0.271  0.1522  0.0328 -0.0433
 2615ntf    fn418156   1.296   2.197  -0.021  0.4977  0.3109  0.6048
 2615ntf    fn418157   1.124   2.170   0.097 -0.1027  0.0237  0.0527
 2615ntf    fn418158   1.294   2.058   0.145 -0.1738  0.3214  0.0030
 2615ntf    on518159   1.290   1.898  -0.110 -0.2607  0.1999 -0.4351
 2615ntf    on518160   1.087   1.891   0.021 -0.9823  0.4265 -0.5010
 2615ntf    on518161   1.046   1.843  -0.348  0.4732  0.0865  0.2682
 2615ntf    on518162   1.012   2.071  -0.425  0.2036  0.2192  0.3007
 2615ntf    fn418163   0.775   2.079  -0.297 -0.1617 -0.0964  0.2785
 2615ntf    fn418164   0.789   1.879  -0.347 -0.0432  0.0638  0.0668
 2615ntf    fn418165   0.820   1.933  -0.148  0.0605  0.0261 -0.0656
 2616ntf    cn118166   2.446   3.156   1.484 -0.3200 -0.2943 -0.1006
 2616ntf    sn218167   2.413   3.166   1.663 -0.1185  0.2672 -0.0930
 2616ntf    nn318168   2.534   3.252   1.715  0.1439 -0.0358 -0.1973
 2616ntf    sn218169   2.529   3.397   1.774 -0.1819 -0.2781  0.3829
 2616ntf    cn118170   2.628   3.352   1.919  0.1370 -0.3783  0.1345
 2616ntf    fn418171   2.350   3.087   1.425 -0.5177 -0.1909  0.0992
 2616ntf    fn418172   2.451   3.276   1.429 -0.2224 -0.0492  0.4356
 2616ntf    fn418173   2.565   3.103   1.460 -0.0514  0.2644 -0.0099
 2616ntf    on518174   2.283   3.227   1.654  0.1553  0.8546 -0.1648
 2616ntf    on518175   2.418   3.029   1.708 -0.6108  0.3646  0.2584
 2616ntf    on518176   2.398   3.433   1.823 -0.4846 -0.0768 -0.5452
 2616ntf    on518177   2.610   3.495   1.705  0.1464 -0.3358  0.6831
 2616ntf    fn418178   2.574   3.255   1.990 -0.3006 -0.2833 -0.0618
 2616ntf    fn418179   2.750   3.319   1.880  0.2195 -0.0538  0.1105
 2616ntf    fn418180   2.650   3.459   1.994 -0.0201 -0.3063  0.0776
 2617ntf    cn118181   5.997   1.398   0.375 -0.0433  0.4227 -0.0594
 2617ntf    sn218182   5.845   1.442   0.284 -0.0919 -0.0272 -0.1989
 2617ntf    nn318183   5.916   1.445   0.144  0.1207  0.4908 -0.0813
 2617ntf    sn218184   5.844   1.415   0.008  0.1102 -0.3388  0.1044
 2617ntf    cn118185   5.917   1.549  -0.091 -0.1193 -0.1389  0.2079
 2617ntf    fn418186   5.980   1.341   0.493 -0.2760 -0.2251 -0.4006
 2617ntf    fn418187   6.078   1.319   0.306 -0.1405  0.5051 -0.2684
 2617ntf    fn418188   6.074   1.503   0.394  0.3598  0.0319  0.4969
 2617ntf    on518189   5.756   1.329   0.294  0.3112 -0.3246  0.0689
 2617ntf    on518190   5.803   1.568   0.340 -0.0214 -0.1026  0.0251
 2617ntf    on518191   5.707   1.458   0.009 -0.0530 -0.8520 -0.0202
 2617ntf    on518192   5.881   1.294  -0.063  0.5363 -0.2580  0.1862
 2617ntf    fn418193   5.881   1.662  -0.031  0.1212 -0.3491  0.7616
 2617ntf    fn418194   6.049   1.557  -0.099 -0.0814 -0.1984  0.6966
 2617ntf    fn418195   5.876   1.552  -0.216  0.6478 -0.7924 -0.0639
 2618ntf    cn118196   1.954   5.868   2.640 -0.0397 -0.4770 -0.2730
 2618ntf    sn218197   1.874   6.028   2.670  0.1108 -0.4705  0.1056
 2618ntf    nn318198   1.725   5.987   2.643  0.1219 -0.4316 -0.0134
 2618ntf    sn218199   1.645   6.009   2.509  0.0232 -0.0480  0.1075
 2618ntf    cn118200   1.553   6.159   2.552 -0.3165 -0.2108 -0.0494
 2618ntf    fn418201   1.927   5.824   2.518 -0.5488 -0.9685  0.0100
 2618ntf    fn418202   2.084   5.879   2.664 -0.1289 -0.1484  0.0651
 2618ntf    fn418203   1.909   5.780   2.729  0.2708  0.1149  0.4835
 2618ntf    on518204   1.896   6.055   2.810 -0.5350 -0.1990  0.1577
 2618ntf    on518205   1.941   6.113   2.575  0.6726 -0.8502  0.1621
 2618ntf    on518206   1.538   5.915   2.485 -0.1946  0.4554 -0.9442
 2618ntf    on518207   1.723   6.046   2.393  0.2075  0.0377  0.2577
 2618ntf    fn418208   1.451   6.186   2.472 -0.6183  0.4809  0.5570
 2618ntf    fn418209   1.495   6.161   2.671 -0.1311 -0.1786  0.0396
 2618ntf    fn418210   1.625   6.270   2.553 -0.0430 -0.3887  0.1560
 2619ntf    cn118211   1.834   2.743   2.079 -0.1702  0.1758  0.0471
 2619ntf    sn218212   1.916   2.894   2.139  0.0358  0.0432  0.0992
 2619ntf    nn318213   1.792   2.946   2.220  0.1704  0.0644  0.2933
 2619ntf    sn218214   1.724   3.088   2.212 -0.0236 -0.0529 -0.1475
 2619ntf    cn118215   1.777   3.161   2.369  0.4951 -0.0112 -0.3385
 2619ntf    fn418216   1.917   2.661   2.016 -0.4548 -0.2009  0.1568
 2619ntf    fn418217   1.779   2.671   2.176 -0.0690 -0.3154 -0.2584
 2619ntf    fn418218   1.729   2.773   2.005 -0.7214 -0.5067  0.5378
 2619ntf    on518219   2.031   2.849   2.214  0.0931  0.3487  0.1972
 2619ntf    on518220   1.945   2.950   2.010 -0.7458 -0.3635 -0.2581
 2619ntf    on518221   1.581   3.086   2.229 -0.0012 -0.8821  0.0039
 2619ntf    on518222   1.784   3.177   2.116  0.4538  0.3275  0.4999
 2619ntf    fn418223   1.769   3.080   2.474 -0.2735  0.6746  0.1534
 2619ntf    fn418224   1.903   3.200   2.364  0.3836  0.4156  0.0797
 2619ntf    fn418225   1.703   3.262   2.413 -0.0154 -0.5042 -0.0435
 2620ntf    cn118226   1.316   0.817   2.722  0.0715  0.3676  0.0581
 2620ntf    sn218227   1.481   0.786   2.791  0.1092  0.0103 -0.1943
 2620ntf    nn318228   1.499   0.653   2.709  0.0839 -0.0008 -0.1821
 2620ntf    sn218229   1.473   0.508   2.764  0.4153 -0.2042 -0.5520
 2620ntf    cn118230   1.646   0.454   2.758  0.4736 -0.0567 -0.2555
 2620ntf    fn418231   1.313   0.900   2.620  0.2017  0.3100  0.0072
 2620ntf    fn418232   1.251   0.708   2.686  0.3166  0.1766  0.1908
 2620ntf    fn418233   1.239   0.880   2.810 -0.3739 -0.4969  0.3028
 2620ntf    on518234   1.556   0.896   2.736  0.7156  0.0405  0.6768
 2620ntf    on518235   1.476   0.789   2.935 -0.0041  0.3301 -0.2052
 2620ntf    on518236   1.404   0.428   2.666 -0.3568 -0.0448 -0.1485
 2620ntf    on518237   1.442   0.495   2.904  0.2889  0.1546 -0.5437
 2620ntf    fn418238   1.728   0.546   2.805 -0.3280  0.6723 -0.2560
 2620ntf    fn418239   1.674   0.344   2.827  0.2613 -0.0463 -0.1538
 2620ntf    fn418240   1.684   0.422   2.635 -0.1185 -0.8317 -0.2472
 2621ntf    cn118241   4.817   0.175   1.909  0.0019 -0.1008  0.4648
 2621ntf    sn218242   4.909   0.020   1.887 -0.0543 -0.0662 -0.0195
 2621ntf    nn318243   5.037   0.046   1.974  0.0575 -0.1116 -0.1684
 2621ntf    sn218244   5.100  -0.052   2.080 -0.3418 -0.2772 -0.0809
 2621ntf    cn118245   5.184  -0.179   1.981  0.2839  0.1492 -0.1049
 2621ntf    fn418246   4.805   0.220   2.033  0.4777  0.2461  0.3855
 2621ntf    fn418247   4.868   0.278   1.845  0.3468 -0.2023  0.5734
 2621ntf    fn418248   4.698   0.155   1.855  0.3009  0.0937 -0.2767
 2621ntf    on518249   4.821  -0.079   1.943  0.2165  0.1015  0.7117
 2621ntf    on518250   4.932   0.009   1.745  0.3930  0.2142  0.0276
 2621ntf    on518251   5.016  -0.125   2.170  0.0758 -0.2659  0.3242
 2621ntf    on518252   5.209   0.024   2.136 -0.4078 -0.1282 -0.1524
 2621ntf    fn418253   5.266  -0.247   2.061  0.3593  0.5371  0.1488
 2621ntf    fn418254   5.096  -0.265   1.932 -0.1275  0.2538  0.4438
 2621ntf    fn418255   5.245  -0.130   1.874 -0.0636  0.1005 -0.3236
 2622ntf    cn118256   3.946   0.522   1.978 -0.0136  0.0211  0.4255
 2622ntf    sn218257   3.818   0.651   1.990 -0.1550 -0.0914  0.1347
 2622ntf    nn318258   3.753   0.622   2.129  0.1769 -0.2961  0.2469
 2622ntf    sn218259   3.601   0.621   2.168  0.0997  0.1957 -0.0401
 2622ntf    cn118260   3.540   0.463   2.101  0.2546  0.1534 -0.0823
 2622ntf    fn418261   4.058   0.543   2.045  0.1311  0.0685  0.1712
 2622ntf    fn418262   3.895   0.406   2.014  0.2055 -0.1029  0.3388
 2622ntf    fn418263   3.994   0.503   1.856  0.0889  0.7040  0.3565
 2622ntf    on518264   3.895   0.773   1.997 -0.1765 -0.0274 -0.6361
 2622ntf    on518265   3.739   0.620   1.874 -0.3391  0.2328  0.1714
 2622ntf    on518266   3.519   0.724   2.110  0.1661  0.2716  0.0002
 2622ntf    on518267   3.598   0.594   2.310  0.5260  0.2220 -0.0255
 2622ntf    fn418268   3.426   0.429   2.160  0.2885 -0.3146 -0.2807
 2622ntf    fn418269   3.521   0.474   1.971  0.5224 -0.3029 -0.1616
 2622ntf    fn418270   3.629   0.367   2.123  0.3058  0.2034 -0.0707
 2623ntf    cn118271   1.327   2.479   6.165 -0.0897  0.0293 -0.2377
 2623ntf    sn218272   1.316   2.422   6.337 -0.1197 -0.1463 -0.2975
 2623ntf    nn318273   1.325   2.562   6.408  0.1415 -0.3647  0.1040
 2623ntf    sn218274   1.435   2.622   6.503  0.4221 -0.0688 -0.4021
 2623ntf    cn118275   1.430   2.793   6.442  0.2459  0.0760  0.0125
 2623ntf    fn418276   1.282   2.387   6.081  0.1668 -0.1731 -0.1570
 2623ntf    fn418277   1.259   2.592   6.152 -0.0573  0.0535 -0.1930
 2623ntf    fn418278   1.448   2.513   6.123 -0.0771  0.1668 -0.0904
 2623ntf    on518279   1.185   2.362   6.344 -0.0331 -0.3048 -0.0492
 2623ntf    on518280   1.431   2.336   6.350  0.0720  0.0194 -0.8646
 2623ntf    on518281   1.569   2.573   6.484  0.3752 -0.3723  0.0350
 2623ntf    on518282   1.384   2.627   6.638  0.2825 -0.0572 -0.4554
 2623ntf    fn418283   1.312   2.843   6.473 -0.2158 -0.3460 -0.9971
 2623ntf    fn418284   1.528   2.871   6.485 -0.0971  0.8445 -0.5758
 2623ntf    fn418285   1.439   2.797   6.310  0.0236 -0.3345 -0.0156
 2624ntf    cn118286   4.470   6.832   3.753  0.2064 -0.1239  0.0815
 2624ntf    sn218287   4.380   6.864   3.598 -0.1155 -0.0465  0.2832
 2624ntf    nn318288   4.427   7.012   3.572  0.1226 -0.2909 -0.7134
 2624ntf    sn218289   4.341   7.143   3.582 -0.2025 -0.5450 -0.0930
 2624ntf    cn118290   4.475   7.266   3.578 -0.3838 -0.3355  0.2472
 2624ntf    fn418291   4.599   6.855   3.731  0.1478 -0.2529 -0.4087
 2624ntf    fn418292   4.421   6.899   3.856  0.3076 -0.2733  0.2264
 2624ntf    fn418293   4.458   6.704   3.781 -0.5124 -0.0558  0.0923
 2624ntf    on518294   4.441   6.765   3.512 -0.1546  0.1090  0.0766
 2624ntf    on518295   4.240   6.849   3.628 -0.1047 -0.0488  0.3353
 2624ntf    on518296   4.281   7.165   3.711 -0.1090  0.4536 -0.2082
 2624ntf    on518297   4.265   7.172   3.463 -0.0806  0.7310  0.1299
 2624ntf    fn418298   4.532   7.269   3.459 -0.0292 -0.4599  0.4133
 2624ntf    fn418299   4.435   7.391   3.598  0.1895 -0.0856 -0.1274
 2624ntf    fn418300   4.571   7.250   3.668  0.4117  0.1901 -0.4868
 2625ntf    cn118301   1.364   4.313   3.119 -0.0065  0.4487  0.4281
 2625ntf    sn218302   1.517   4.320   3.022  0.0261 -0.1272  0.4382
 2625ntf    nn318303   1.467   4.260   2.885  0.0937  0.0745  0.3249
 2625ntf    sn218304   1.475   4.109   2.842 -0.3243  0.1683 -0.0819
 2625ntf    cn118305   1.315   4.120   2.755  0.0063  0.2977 -0.6773
 2625ntf    fn418306   1.265   4.359   3.044  0.5392  0.0969 -0.5234
 2625ntf    fn418307   1.343   4.188   3.156 -0.2732  0.2860 -0.2574
 2625ntf    fn418308   1.368   4.375   3.236  0.2663  0.1850  0.5585
 2625ntf    on518309   1.550   4.460   3.021 -0.6750  0.0352  0.0383
 2625ntf    on518310   1.616   4.243   3.093  0.5570  0.4323  0.3070
 2625ntf    on518311   1.455   4.006   2.940  0.3764 -0.2643 -0.3905
 2625ntf    on518312   1.573   4.076   2.742 -0.4180 -0.2113 -0.0499
 2625ntf    fn418313   1.229   4.182   2.833  0.2466  0.0601 -0.2171
 2625ntf    fn418314   1.331   4.195   2.648 -0.3467  0.4899 -0.5962
 2625ntf    fn418315   1.260   4.005   2.718 -0.2157 -0.0914  0.7873
 2626ntf    cn118316   4.000   5.052   2.173  0.1157  0.3357  0.2083
 2626ntf    sn218317   3.953   5.221   2.127 -0.0898  0.2598  0.1357
 2626ntf    nn318318   3.801   5.192   2.103  0.0463 -0.2086 -0.1833
 2626ntf    sn218319   3.675   5.177   2.196 -0.0328 -0.2048 -0.2892
 2626ntf    cn118320   3.542   5.219   2.080 -0.4663 -0.0763  0.2456
 2626ntf    fn418321   4.132   5.050   2.176  0.1003 -0.2734  0.8839
 2626ntf    fn418322   3.955   5.021   2.293  0.7420  0.1505  0.4025
 2626ntf    fn418323   3.962   4.968   2.078  0.4684  0.6321 -0.2025
 2626ntf    on518324   3.985   5.296   2.246 -0.2621  0.1151  0.2728
 2626ntf    on518325   4.021   5.253   2.004  0.1706  0.0736  0.2316
 2626ntf    on518326   3.656   5.282   2.293  0.2176  0.0423 -0.5055
 2626ntf    on518327   3.649   5.041   2.237  0.4019 -0.3614 -0.5276
 2626ntf    fn418328   3.538   5.125   1.986 -0.4066  0.1253  0.0394
 2626ntf    fn418329   3.419   5.235   2.124 -0.5371 -0.6641  0.2751
 2626ntf    fn418330   3.579   5.328   2.015  0.0619 -0.0887  0.5192
 2627ntf    cn118331   2.931   6.760   0.863 -0.0207  0.0667 -0.1716
 2627ntf    sn218332   2.921   6.726   0.684  0.1439  0.1598 -0.1994
 2627ntf    nn318333   2.961   6.866   0.626 -0.0297  0.0741 -0.5284
 2627ntf    sn218334   2.887   6.937   0.507  0.1807  0.5599 -0.3718
 2627ntf    cn118335   2.779   7.053   0.597 -0.1397 -0.0166 -0.0069
 2627ntf    fn418336   3.054   6.749   0.909 -0.1101 -0.1704  0.0061
 2627ntf    fn418337   2.882   6.880   0.890 -0.2107 -0.0078 -0.1810
 2627ntf    fn418338   2.847   6.680   0.925  0.1041 -0.3444 -0.5307
 2627ntf    on518339   3.027   6.629   0.671  0.2245  0.2210 -0.0101
 2627ntf    on518340   2.785   6.680   0.670  0.2243 -0.0014 -0.4519
 2627ntf    on518341   2.805   6.855   0.423  1.0208 -0.7800  0.0813
 2627ntf    on518342   2.973   7.028   0.435  0.5522  0.6686  0.1997
 2627ntf    fn418343   2.677   7.003   0.665  0.3571 -1.4076 -0.2408
 2627ntf    fn418344   2.845   7.138   0.674 -0.2454  0.0294  0.0324
 2627ntf    fn418345   2.717   7.140   0.519  0.4591  0.1372 -0.3212
 2628ntf    cn118346   0.652   3.204   1.981 -0.0398 -0.0755  0.0442
 2628ntf    sn218347   0.790   3.129   2.073 -0.1729 -0.3685  0.0087
 2628ntf    nn318348   0.905   3.223   2.022  0.2408 -1.1540 -0.5337
 2628ntf    sn218349   1.056   3.212   2.063  0.1291 -0.2469  0.1757
 2628ntf    cn118350   1.133   3.184   1.901 -0.3146  0.4498 -0.1601
 2628ntf    fn418351   0.533   3.160   2.018 -0.3869  0.3992 -0.5015
 2628ntf    fn418352   0.660   3.333   2.009 -0.3862 -0.0622  0.0775
 2628ntf    fn418353   0.665   3.187   1.851  0.2284 -0.1353  0.0768
 2628ntf    on518354   0.750   3.159   2.208 -0.4800  0.4060 -0.2517
 2628ntf    on518355   0.798   2.993   2.025 -0.5008 -0.4133  0.0787
 2628ntf    on518356   1.099   3.101   2.145 -0.1387 -0.7006 -0.2884
 2628ntf    on518357   1.117   3.341   2.083 -0.1088 -0.0902 -0.0986
 2628ntf    fn418358   1.070   3.244   1.802  0.0886  0.2361 -0.5546
 2628ntf    fn418359   1.259   3.224   1.896 -0.1803  0.0420 -0.1335
 2628ntf    fn418360   1.143   3.058   1.858 -0.4274  0.3448  0.1243
 2629ntf    cn118361   3.595   6.164   1.770  0.3386 -0.3830  0.1500
 2629ntf    sn218362   3.701   6.307   1.805  0.0459 -0.2210  0.3734
 2629ntf    nn318363   3.777   6.245   1.928  0.1571  0.0029  0.4180
 2629ntf    sn218364   3.900   6.148   1.920  0.1519  0.0020  0.3522
 2629ntf    cn118365   4.025   6.217   2.032  0.1539  0.3127  0.1578
 2629ntf    fn418366   3.498   6.148   1.859  0.1181 -0.3359 -0.0789
 2629ntf    fn418367   3.536   6.189   1.654  0.1985 -0.1052  0.2818
 2629ntf    fn418368   3.665   6.053   1.753  0.1430 -0.5450  0.3913
 2629ntf    on518369   3.769   6.328   1.680 -0.4634  0.2055  0.1635
 2629ntf    on518370   3.608   6.410   1.845  0.6329  0.4542  0.0220
 2629ntf    on518371   3.981   6.151   1.801 -0.1273 -0.3357  0.1517
 2629ntf    on518372   3.867   6.016   1.968 -0.0834 -0.1967 -0.3542
 2629ntf    fn418373   3.995   6.197   2.159 -0.6655 -0.0507 -0.0925
 2629ntf    fn418374   4.138   6.154   2.006  0.0098 -0.0571  0.4270
 2629ntf    fn418375   4.050   6.346   2.016  0.0965  0.3391  0.2831
 2630ntf    cn118376   4.602   1.916   4.591 -0.2325 -0.5769 -0.2109
 2630ntf    sn218377   4.548   1.786   4.706 -0.2058 -0.2536  0.1683
 2630ntf    nn318378   4.666   1.685   4.685 -0.4867 -0.6783  0.6247
 2630ntf    sn218379   4.791   1.685   4.780 -0.0702  0.0581  0.0895
 2630ntf    cn118380   4.739   1.588   4.925 -0.1421  0.0179  0.0355
 2630ntf    fn418381   4.709   1.982   4.630 -0.4299 -0.3698 -0.0123
 2630ntf    fn418382   4.621   1.875   4.467 -0.2564 -0.3506 -0.2904
 2630ntf    fn418383   4.498   1.997   4.580 -0.0802 -0.4408 -0.6923
 2630ntf    on518384   4.553   1.855   4.833 -0.2874 -0.0105  0.0396
 2630ntf    on518385   4.427   1.738   4.645 -0.0996 -0.3428  0.0263
 2630ntf    on518386   4.837   1.814   4.825  0.1531  0.0701 -0.1757
 2630ntf    on518387   4.901   1.604   4.733 -0.4187 -0.4771  0.1763
 2630ntf    fn418388   4.650   1.647   5.004 -0.1617 -0.1408  0.1332
 2630ntf    fn418389   4.689   1.469   4.894 -0.3291  0.0178  0.3347
 2630ntf    fn418390   4.835   1.559   5.011  0.1505 -0.3951 -0.4249
 2631ntf    cn118391   4.896   6.909   5.786 -0.0140 -0.1944  0.0968
 2631ntf    sn218392   5.048   6.957   5.873  0.1491 -0.3098 -0.1252
 2631ntf    nn318393   4.997   7.104   5.893  0.6806 -0.1801  0.2982
 2631ntf    sn218394   4.917   7.176   6.008  0.1941 -0.1366 -0.0636
 2631ntf    cn118395   5.060   7.242   6.099  0.1024  0.1975 -0.1617
 2631ntf    fn418396   4.867   6.997   5.692  0.0484 -0.0558  0.2082
 2631ntf    fn418397   4.898   6.791   5.726  0.5555 -0.0976 -0.0778
 2631ntf    fn418398   4.790   6.900   5.865 -0.4054 -0.3685 -0.4442
 2631ntf    on518399   5.060   6.879   5.993 -0.1380 -0.2690 -0.0707
 2631ntf    on518400   5.153   6.940   5.775  0.7469 -0.1679  0.4810
 2631ntf    on518401   4.854   7.086   6.101  0.8191 -0.8688 -0.3336
 2631ntf    on518402   4.852   7.295   5.959  0.0584 -0.0834  0.2492
 2631ntf    fn418403   5.134   7.318   6.020  0.5587  0.1319  0.1971
 2631ntf    fn418404   5.020   7.325   6.194 -0.0664  0.2894 -0.3127
 2631ntf    fn418405   5.133   7.147   6.155  0.0955  0.0997 -0.3179
 2632ntf    cn118406   0.565   1.909   1.869 -0.4226  0.5905 -0.4306
 2632ntf    sn218407   0.637   1.958   2.028  0.0731  0.1344 -0.5107
 2632ntf    nn318408   0.702   2.091   1.976  0.3836  0.2334  0.1248
 2632ntf    sn218409   0.662   2.242   1.982 -0.0742  0.1350 -0.3786
 2632ntf    cn118410   0.730   2.286   2.145  0.3550 -0.0911 -0.4949
 2632ntf    fn418411   0.469   1.993   1.834 -0.9903  0.1220 -0.0168
 2632ntf    fn418412   0.647   1.902   1.765 -0.1226  0.0199 -0.1612
 2632ntf    fn418413   0.502   1.793   1.880  0.2785  0.2603  0.1510
 2632ntf    on518414   0.524   1.974   2.117  0.6774  0.5568  0.1875
 2632ntf    on518415   0.726   1.848   2.052 -0.1630 -0.0432 -0.4418
 2632ntf    on518416   0.522   2.275   1.975 -0.0931  0.2070  0.2574
 2632ntf    on518417   0.752   2.302   1.887 -0.0644  0.8071  0.0441
 2632ntf    fn418418   0.699   2.410   2.181  0.4090 -0.2458  0.0978
 2632ntf    fn418419   0.673   2.209   2.237  0.4090 -0.1126 -0.4794
 2632ntf    fn418420   0.862   2.281   2.145  0.3394 -0.5719 -0.2744
 2633ntf    cn118421   2.460   6.451   4.538  0.1772 -0.3897  0.1843
 2633ntf    sn218422   2.363   6.311   4.600 -0.6093  0.0069 -0.1296
 2633ntf    nn318423   2.272   6.383   4.706  0.1230  0.7547  0.0009
 2633ntf    sn218424   2.140   6.319   4.761  0.2924  0.1583 -0.2792
 2633ntf    cn118425   2.185   6.273   4.931  0.1879  0.3903 -0.1891
 2633ntf    fn418426   2.512   6.427   4.418 -0.0866 -0.3492  0.0614
 2633ntf    fn418427   2.394   6.565   4.528  1.3436  0.3020  0.0740
 2633ntf    fn418428   2.560   6.476   4.621 -0.3003  0.1869  0.5958
 2633ntf    on518429   2.293   6.267   4.483 -0.1327 -0.0660 -0.3888
 2633ntf    on518430   2.455   6.217   4.660 -0.7717 -0.0813 -0.0207
 2633ntf    on518431   2.103   6.192   4.704 -0.6944  0.2579  0.1120
 2633ntf    on518432   2.034   6.416   4.775  0.4128  0.2128  0.2908
 2633ntf    fn418433   2.176   6.379   5.011 -1.0950  0.2249 -0.0926
 2633ntf    fn418434   2.113   6.175   4.983  0.6953  0.2572  0.2630
 2633ntf    fn418435   2.305   6.219   4.939  0.2377  0.5939  0.5381
 2634ntf    cn118436   0.905   1.356   6.048 -0.0763 -0.2572 -0.0958
 2634ntf    sn218437   0.753   1.449   6.011  0.0056 -0.0797  0.0109
 2634ntf    nn318438   0.644   1.364   6.085 -0.0719 -0.0456 -0.0640
 2634ntf    sn218439   0.583   1.411   6.222  0.2747  0.0700  0.0516
 2634ntf    cn118440   0.459   1.284   6.264  0.1409  0.1948  0.0352
 2634ntf    fn418441   0.866   1.231   6.061 -0.2906 -0.1384  0.4083
 2634ntf    fn418442   0.995   1.368   5.952  0.2593  0.4988  0.2991
 2634ntf    fn418443   0.958   1.400   6.161 -0.4882 -0.8639  0.3389
 2634ntf    on518444   0.784   1.578   6.067  0.4525  0.3399 -1.1779
 2634ntf    on518445   0.744   1.431   5.868  0.1609 -0.5966  0.0649
 2634ntf    on518446   0.502   1.531   6.215 -0.1478 -0.1940  0.3482
 2634ntf    on518447   0.679   1.396   6.328  0.1557 -0.5321  0.0792
 2634ntf    fn418448   0.378   1.261   6.163 -0.1788 -0.7216  0.4925
 2634ntf    fn418449   0.518   1.169   6.293 -0.0663  0.2059  0.5098
 2634ntf    fn418450   0.371   1.317   6.357 -0.1681 -0.0582 -0.1695
 2635ntf    cn118451   1.014   6.860   4.486  0.0665 -0.4934  0.1706
 2635ntf    sn218452   0.960   6.878   4.313  0.0258 -0.0656  0.2263
 2635ntf    nn318453   1.094   6.891   4.232  0.0702 -0.0459  0.3023
 2635ntf    sn218454   1.185   7.017   4.207 -0.3459  0.2220  0.1150
 2635ntf    cn118455   1.143   7.082   4.043 -0.0716  0.2534  0.0579
 2635ntf    fn418456   1.074   6.967   4.535 -0.2479 -0.3627  0.2792
 2635ntf    fn418457   0.907   6.841   4.561 -0.6286  0.1910 -0.6184
 2635ntf    fn418458   1.092   6.754   4.491  0.6032 -0.0714  0.9145
 2635ntf    on518459   0.892   6.753   4.287 -0.5772  0.3359 -0.1364
 2635ntf    on518460   0.878   6.996   4.306  0.4530  0.1875 -0.7276
 2635ntf    on518461   1.322   6.984   4.177 -0.3172  0.3955  0.0528
 2635ntf    on518462   1.173   7.127   4.300 -0.4517  0.0534  0.3021
 2635ntf    fn418463   1.015   7.111   4.033 -0.2168 -0.1993  0.5997
 2635ntf    fn418464   1.202   7.198   4.015 -0.4143  0.3635 -0.2071
 2635ntf    fn418465   1.163   7.000   3.941  0.2017  0.2988  0.0746
 2636ntf    cn118466   6.550   6.819   3.361 -0.2578 -0.2178 -0.0337
 2636ntf    sn218467   6.620   6.948   3.252 -0.5166 -0.3780 -0.3926
 2636ntf    nn318468   6.497   6.991   3.164 -0.1944  0.2750 -0.5258
 2636ntf    sn218469   6.416   6.904   3.062 -0.1345  0.1703 -0.4840
 2636ntf    cn118470   6.262   6.878   3.156 -0.1454  0.1624 -0.5041
 2636ntf    fn418471   6.457   6.862   3.445 -0.1378 -0.0786  0.0295
 2636ntf    fn418472   6.502   6.713   3.299 -0.6393 -0.2083  0.2448
 2636ntf    fn418473   6.646   6.769   3.437 -0.1503 -0.1769 -0.1429
 2636ntf    on518474   6.660   7.054   3.341 -0.4575  0.2428 -1.1498
 2636ntf    on518475   6.727   6.884   3.181 -0.0080 -0.4488  0.4278
 2636ntf    on518476   6.462   6.770   3.036  0.3717  0.2747 -0.1414
 2636ntf    on518477   6.367   6.979   2.949 -0.0480  0.4295 -0.3517
 2636ntf    fn418478   6.212   6.995   3.193  0.3330  0.3406 -0.4022
 2636ntf    fn418479   6.173   6.812   3.085  0.2353 -0.7478 -0.1561
 2636ntf    fn418480   6.279   6.810   3.269 -0.0175  0.4483 -0.3487
 2637ntf    cn118481   0.214   4.721   2.099 -0.3576 -0.4023 -0.0470
 2637ntf    sn218482   0.372   4.759   2.182 -0.3123 -0.3908 -0.1379
 2637ntf    nn318483   0.318   4.793   2.325  0.3387 -0.1787  0.0585
 2637ntf    sn218484   0.258   4.925   2.388 -0.1284 -0.3505 -0.0243
 2637ntf    cn118485   0.362   4.931   2.536 -0.1265 -0.1270 -0.0351
 2637ntf    fn418486   0.143   4.636   2.171  0.1464 -0.4119  0.4510
 2637ntf    fn418487   0.144   4.832   2.082 -0.6753 -0.6343 -0.2650
 2637ntf    fn418488   0.226   4.658   1.983 -0.0410 -0.7746  0.1855
 2637ntf    on518489   0.458   4.644   2.189 -0.2234 -0.2810  0.6731
 2637ntf    on518490   0.430   4.865   2.103 -0.0958 -0.4242 -0.0243
 2637ntf    on518491   0.126   4.905   2.442 -0.4220 -0.0954 -0.6383
 2637ntf    on518492   0.292   5.045   2.315  0.6721 -0.6247 -0.1188
 2637ntf    fn418493   0.365   4.821   2.609  0.1684  0.0600  0.2405
 2637ntf    fn418494   0.488   4.947   2.497 -0.1068  0.2612  0.1712
 2637ntf    fn418495   0.334   5.041   2.605  0.0468 -0.5581  0.7382
 2638ntf    cn118496   5.985   0.447   2.321 -0.2700 -0.0436  0.0114
 2638ntf    sn218497   6.094   0.474   2.464 -0.1731 -0.0522 -0.0602
 2638ntf    nn318498   6.084   0.334   2.536 -0.2640  0.1012  0.2284
 2638ntf    sn218499   5.990   0.302   2.657  0.0777 -0.4955  0.3384
 2638ntf    cn118500   6.061   0.143   2.709  0.1158 -0.3978  0.5896
 2638ntf    fn418501   5.984   0.543   2.229 -0.4791 -0.2856 -0.2410
 2638ntf    fn418502   6.011   0.335   2.255  0.1968 -0.0539  0.2044
 2638ntf    fn418503   5.857   0.436   2.352 -0.2231 -0.2905  0.1182
 2638ntf    on518504   6.219   0.505   2.400 -0.4169  0.1050 -0.4643
 2638ntf    on518505   6.027   0.580   2.535  0.0548 -0.0016  0.0791
 2638ntf    on518506   5.855   0.267   2.624  0.0707 -0.1095 -0.0507
 2638ntf    on518507   6.009   0.383   2.775  0.3053 -0.3651  0.2142
 2638ntf    fn418508   5.999   0.080   2.808 -0.7556 -0.5837 -0.0552
 2638ntf    fn418509   6.063   0.056   2.609 -0.0107 -0.1945  0.4094
 2638ntf    fn418510   6.188   0.154   2.741  0.3514 -0.4838 -0.2873
 2639ntf    cn118511   4.337   5.944   3.471  0.6207  0.4113  0.0594
 2639ntf    sn218512   4.363   6.081   3.588 -0.0433  0.3752  0.2533
 2639ntf    nn318513   4.514   6.121   3.571  0.0988 -0.2091  0.1416
 2639ntf    sn218514   4.597   6.214   3.665 -0.1923 -0.0250  0.2177
 2639ntf    cn118515   4.565   6.373   3.583 -0.3867 -0.1982 -0.0418
 2639ntf    fn418516   4.364   5.987   3.349  0.0703  0.1790 -0.1470
 2639ntf    fn418517   4.414   5.838   3.489 -0.2769 -0.2470  0.0640
 2639ntf    fn418518   4.211   5.905   3.474  0.6711  0.2462  0.0347
 2639ntf    on518519   4.270   6.174   3.529  0.3379  0.2364 -0.5795
 2639ntf    on518520   4.329   6.017   3.713  0.0475  0.1831  0.1796
 2639ntf    on518521   4.739   6.197   3.643  0.0846  0.9485  1.1538
 2639ntf    on518522   4.556   6.217   3.803 -0.4468 -0.0951  0.1446
 2639ntf    fn418523   4.439   6.414   3.582 -0.5160 -0.5717  0.6490
 2639ntf    fn418524   4.640   6.471   3.631 -0.1493 -0.4816  0.1710
 2639ntf    fn418525   4.590   6.374   3.453 -0.0726 -0.1310  0.0183
 2640ntf    cn118526   0.979   5.299   2.414  0.6099  0.0125 -0.2735
 2640ntf    sn218527   0.839   5.346   2.308  0.2417 -0.0379  0.1881
 2640ntf    nn318528   0.916   5.368   2.173 -0.2274 -0.3638 -0.1352
 2640ntf    sn218529   0.941   5.258   2.064 -0.0418 -0.1888 -0.2709
 2640ntf    cn118530   1.089   5.316   1.976  0.5898 -0.7335  0.4100
 2640ntf    fn418531   1.047   5.409   2.443 -0.6905  0.6429  0.4498
 2640ntf    fn418532   0.943   5.242   2.528 -0.0228  0.3866 -0.2810
 2640ntf    fn418533   1.071   5.222   2.356  0.4143 -0.3584 -0.0920
 2640ntf    on518534   0.745   5.237   2.312  0.3828 -0.1925 -0.5094
 2640ntf    on518535   0.797   5.468   2.372 -0.0379  0.0670 -0.1927
 2640ntf    on518536   0.831   5.261   1.971 -0.0964  0.0703 -0.1993
 2640ntf    on518537   1.003   5.137   2.113 -0.4788 -0.1355  0.4307
 2640ntf    fn418538   1.139   5.234   1.884  0.4669 -0.3354 -0.0185
 2640ntf    fn418539   1.072   5.425   1.902  0.3148 -0.9344  0.1700
 2640ntf    fn418540   1.184   5.342   2.063  0.3456  0.1728  0.4146
 2641ntf    cn118541   5.421   3.992   3.039  0.2662  0.2838  0.2381
 2641ntf    sn218542   5.455   3.947   2.867  0.0284  0.2106  0.2099
 2641ntf    nn318543   5.393   4.072   2.796  0.1573  0.1196 -0.0665
 2641ntf    sn218544   5.340   4.071   2.648 -0.0722 -0.3443  0.0162
 2641ntf    cn118545   5.487   4.008   2.560 -0.0854 -0.2072 -0.1050
 2641ntf    fn418546   5.469   3.907   3.128  0.7672  0.3790  0.0574
 2641ntf    fn418547   5.480   4.104   3.078 -0.1682  0.3864  0.6216
 2641ntf    fn418548   5.290   4.002   3.060  0.2020 -0.9390  0.4755
 2641ntf    on518549   5.599   3.947   2.868  0.0333  0.3858 -0.2238
 2641ntf    on518550   5.385   3.821   2.857  0.1536  0.1170  0.5121
 2641ntf    on518551   5.325   4.203   2.591 -0.9621 -0.7013 -0.5905
 2641ntf    on518552   5.230   3.981   2.631 -0.5500  0.2162  0.1097
 2641ntf    fn418553   5.463   4.008   2.430 -0.5961 -0.4298 -0.0164
 2641ntf    fn418554   5.590   4.091   2.564 -0.7502  0.6223  0.1691
 2641ntf    fn418555   5.528   3.887   2.593  0.4421  0.0165  0.0549
 2642ntf    cn118556   4.228   3.896   6.615  0.1573 -0.2148  0.0393
 2642ntf    sn218557   4.240   4.065   6.548  0.2594 -0.2554 -0.0448
 2642ntf    nn318558   4.385   4.051   6.489  0.4110 -1.0118  0.4853
 2642ntf    sn218559   4.421   4.010   6.342  0.3061 -0.0133  0.1714
 2642ntf    cn118560   4.441   4.175   6.269 -0.0212  0.0389  0.1994
 2642ntf    fn418561   4.234   3.810   6.514 -0.2260 -0.4485  0.2132
 2642ntf    fn418562   4.329   3.863   6.694 -0.0524 -0.0751  0.3656
 2642ntf    fn418563   4.115   3.861   6.674 -0.5100  0.1419 -0.9997
 2642ntf    on518564   4.125   4.076   6.460  0.0787  0.8134  0.3169
 2642ntf    on518565   4.237   4.150   6.664  0.1632  0.3227 -0.4671
 2642ntf    on518566   4.314   3.946   6.269  0.2280 -0.0138  0.2867
 2642ntf    on518567   4.549   3.944   6.335  0.1778 -0.1993 -0.5422
 2642ntf    fn418568   4.331   4.243   6.237 -0.0990 -0.2661 -0.1952
 2642ntf    fn418569   4.503   4.255   6.354  0.2822  0.4134 -0.3640
 2642ntf    fn418570   4.517   4.173   6.161  0.1312  0.4994  0.2978
 2643ntf    cn118571   1.441   6.114   4.038 -0.4300 -0.1141  0.0403
 2643ntf    sn218572   1.533   6.269   4.061  0.1381 -0.4691  0.1858
 2643ntf    nn318573   1.645   6.254   3.952  0.2981  0.4855  0.2130
 2643ntf    sn218574   1.656   6.309   3.805 -0.2380  0.4268  0.1511
 2643ntf    cn118575   1.785   6.432   3.838 -0.0276  0.3536 -0.3803
 2643ntf    fn418576   1.314   6.131   4.070 -0.4129  0.3513 -0.1452
 2643ntf    fn418577   1.443   6.080   3.910  0.5262  0.4170 -0.1006
 2643ntf    fn418578   1.490   6.023   4.122  0.2205 -0.3795 -0.6072
 2643ntf    on518579   1.431   6.368   4.038  0.3118 -0.3146  0.0787
 2643ntf    on518580   1.582   6.251   4.195  0.7978  0.7134  0.1151
 2643ntf    on518581   1.544   6.383   3.753 -0.6475  0.1143  0.5786
 2643ntf    on518582   1.711   6.213   3.713 -0.3718  0.1116  0.3987
 2643ntf    fn418583   1.750   6.515   3.936 -0.0245 -0.2460  0.1334
 2643ntf    fn418584   1.893   6.367   3.879 -0.6024 -0.4391 -0.0987
 2643ntf    fn418585   1.820   6.503   3.732  0.2920  0.4367 -0.2220
 2644ntf    cn118586   1.637   3.437   5.531  0.6032  0.0159  0.2023
 2644ntf    sn218587   1.691   3.299   5.637  0.0299 -0.3844 -0.0184
 2644ntf    nn318588   1.654   3.361   5.776  0.3306  0.0571 -0.1344
 2644ntf    sn218589   1.744   3.354   5.905 -0.0009 -0.1924  0.0842
 2644ntf    cn118590   1.778   3.175   5.900  0.0667 -0.1856  0.2787
 2644ntf    fn418591   1.672   3.558   5.570 -0.0448  0.2586  0.0573
 2644ntf    fn418592   1.675   3.431   5.405  0.0052 -0.2334  0.0258
 2644ntf    fn418593   1.505   3.454   5.527  0.6138  0.0092 -0.3090
 2644ntf    on518594   1.603   3.194   5.591  0.1809 -0.6430  0.2814
 2644ntf    on518595   1.829   3.288   5.598 -0.0451  0.6952 -0.6293
 2644ntf    on518596   1.662   3.375   6.021 -0.4471  0.3645 -0.3320
 2644ntf    on518597   1.874   3.416   5.899  0.0037 -0.2505 -0.5217
 2644ntf    fn418598   1.809   3.123   6.017  0.1675 -0.4392  0.1406
 2644ntf    fn418599   1.675   3.105   5.854 -0.2168  0.2654  0.2247
 2644ntf    fn418600   1.887   3.151   5.828 -0.1333  0.0379 -0.1069
 2645ntf    cn118601   1.113   5.275   0.520  0.5842 -0.2377 -0.2780
 2645ntf    sn218602   1.103   5.142   0.644 -0.0642  0.0429 -0.0236
 2645ntf    nn318603   1.173   5.220   0.760 -0.6365  0.1623  0.2438
 2645ntf    sn218604   1.104   5.298   0.878  0.1081  0.2159  0.6484
 2645ntf    cn118605   1.229   5.430   0.885 -0.1431  0.5084 -0.2137
 2645ntf    fn418606   1.085   5.392   0.574  0.1455 -0.4478 -0.0424
 2645ntf    fn418607   1.228   5.297   0.459  0.6113  0.2556 -0.0556
 2645ntf    fn418608   1.028   5.250   0.422  0.4833 -0.3353 -0.1674
 2645ntf    on518609   0.964   5.111   0.664 -0.0197 -0.2311 -0.1335
 2645ntf    on518610   1.189   5.038   0.593 -0.4779 -0.0409 -0.5657
 2645ntf    on518611   1.109   5.232   1.006  0.3531  0.5292  0.8031
 2645ntf    on518612   0.986   5.371   0.839  0.1230  0.0135  0.2241
 2645ntf    fn418613   1.350   5.376   0.889 -0.3619 -0.0037 -0.3497
 2645ntf    fn418614   1.240   5.507   0.778 -0.9882  0.5205 -0.2924
 2645ntf    fn418615   1.212   5.513   0.987 -0.7762  0.1559 -0.0276
 2646ntf    cn118616   3.264   0.263   5.814 -0.0589 -0.0294 -0.1407
 2646ntf    sn218617   3.162   0.167   5.930  0.1640 -0.0655  0.0265
 2646ntf    nn318618   3.040   0.139   5.835  0.0263 -0.0387  0.1947
 2646ntf    sn218619   2.888   0.166   5.861 -0.0430 -0.2283 -0.0093
 2646ntf    cn118620   2.841   0.027   5.969 -0.3593  0.1458  0.3375
 2646ntf    fn418621   3.371   0.314   5.872 -0.4215 -0.0402  0.5615
 2646ntf    fn418622   3.316   0.195   5.714  0.0750  0.1212 -0.1742
 2646ntf    fn418623   3.198   0.362   5.757  0.1348  0.2809  0.1689
 2646ntf    on518624   3.242   0.053   5.967  0.7421  0.2122 -0.3555
 2646ntf    on518625   3.144   0.258   6.040  0.2372  0.4411 -0.3775
 2646ntf    on518626   2.816   0.150   5.737  0.1978 -0.0771 -0.1680
 2646ntf    on518627   2.851   0.284   5.935  0.2794 -0.2918  0.2507
 2646ntf    fn418628   2.721   0.051   6.020 -0.6000  0.0678 -0.1917
 2646ntf    fn418629   2.840  -0.091   5.910 -0.0670  0.2682  0.0865
 2646ntf    fn418630   2.930   0.005   6.065  0.4030 -0.4900 -0.5005
 2647ntf    cn118631   6.534   4.891   4.718 -0.3525  0.4703  0.2234
 2647ntf    sn218632   6.635   4.902   4.868  0.1757 -0.3794 -0.0651
 2647ntf    nn318633   6.648   4.749   4.900  0.4577 -0.2443  0.4858
 2647ntf    sn218634   6.761   4.655   4.843 -0.0157 -0.1983 -0.5540
 2647ntf    cn118635   6.895   4.692   4.961 -0.2972  0.5194 -0.4512
 2647ntf    fn418636   6.413   4.845   4.745 -0.1643  0.2667  0.7226
 2647ntf    fn418637   6.521   5.009   4.658  0.4151  0.4612  0.0273
 2647ntf    fn418638   6.588   4.811   4.628 -0.5817  0.4268  0.1236
 2647ntf    on518639   6.753   4.978   4.834  0.2572 -0.6405 -0.3699
 2647ntf    on518640   6.558   4.958   4.977  0.1207 -0.1476 -0.2218
 2647ntf    on518641   6.810   4.695   4.713 -0.1082 -0.2954 -0.6186
 2647ntf    on518642   6.735   4.514   4.855 -0.1251 -0.1471 -0.1832
 2647ntf    fn418643   7.014   4.667   4.909 -0.1362 -0.1345  0.2084
 2647ntf    fn418644   6.893   4.818   5.000 -0.2137  0.4587 -0.2486
 2647ntf    fn418645   6.869   4.617   5.067  0.2454 -0.2145 -0.8269
 2648ntf    cn118646   3.997   2.850   4.003  0.6307  0.0458  0.0610
 2648ntf    sn218647   3.886   2.923   4.127 -0.0378 -0.0403 -0.4827
 2648ntf    nn318648   3.861   3.069   4.077 -0.4332  0.2177  0.4437
 2648ntf    sn218649   3.866   3.200   4.164  0.4583  0.4421  0.0642
 2648ntf    cn118650   3.690   3.232   4.196  0.2966 -0.2022 -0.1572
 2648ntf    fn418651   3.945   2.847   3.882  0.1848  0.1353  0.2500
 2648ntf    fn418652   4.111   2.917   3.993  0.5597  0.1521 -0.0313
 2648ntf    fn418653   4.011   2.720   4.026 -0.1418 -0.0424  0.0544
 2648ntf    on518654   3.770   2.837   4.126  0.0407 -0.1478 -0.4065
 2648ntf    on518655   3.977   2.910   4.238 -0.0548 -0.4518 -0.5155
 2648ntf    on518656   3.905   3.320   4.096  1.2367  0.3657  0.3601
 2648ntf    on518657   3.915   3.182   4.299 -0.0831 -0.5592  0.1414
 2648ntf    fn418658   3.622   3.293   4.100  0.4425 -0.3275 -0.3424
 2648ntf    fn418659   3.624   3.125   4.236 -0.1750 -0.0936 -0.6326
 2648ntf    fn418660   3.688   3.311   4.302  0.4562 -0.1966 -0.1571
 2649ntf    cn118661   6.512   0.379   0.541 -0.4660  0.1954  0.2855
 2649ntf    sn218662   6.361   0.444   0.463 -0.2251 -0.0133 -0.3637
 2649ntf    nn318663   6.371   0.598   0.489 -0.1543 -0.0435 -0.2102
 2649ntf    sn218664   6.336   0.671   0.624  0.1533  0.3510 -0.3403
 2649ntf    cn118665   6.463   0.801   0.617  0.5052  0.0209 -0.0907
 2649ntf    fn418666   6.484   0.257   0.586 -0.0598 -0.1001 -0.2481
 2649ntf    fn418667   6.606   0.356   0.450 -0.5006 -0.1481  0.3328
 2649ntf    fn418668   6.563   0.451   0.639 -0.0749 -0.0124  0.2371
 2649ntf    on518669   6.377   0.424   0.321  0.1597 -0.2043 -0.2957
 2649ntf    on518670   6.252   0.388   0.539  0.2084  0.5472  0.6899
 2649ntf    on518671   6.372   0.602   0.745  0.0427  0.9176  0.0205
 2649ntf    on518672   6.213   0.747   0.621  0.4678  0.8569 -0.4250
 2649ntf    fn418673   6.580   0.752   0.656  0.5043 -0.0989 -0.2397
 2649ntf    fn418674   6.482   0.864   0.503  0.0365  0.5256  0.1045
 2649ntf    fn418675   6.434   0.900   0.700 -0.0761 -0.0143 -0.2454
 2650ntf    cn118676   0.373   6.015   3.049  0.1497 -0.0540 -0.1372
 2650ntf    sn218677   0.272   5.907   3.155  0.0286  0.0737 -0.1214
 2650ntf    nn318678   0.369   5.902   3.278  0.6898  0.2018 -0.6303
 2650ntf    sn218679   0.386   6.011   3.390 -0.0586  0.0892 -0.4054
 2650ntf    cn118680   0.398   5.906   3.538  0.0131  0.2980 -0.2622
 2650ntf    fn418681   0.313   6.047   2.935 -0.2380 -0.1768  0.0324
 2650ntf    fn418682   0.415   6.119   3.118 -0.0538  0.1877 -0.3725
 2650ntf    fn418683   0.483   5.959   3.001  0.3677  0.7196 -0.5656
 2650ntf    on518684   0.146   5.974   3.170 -0.2980 -0.4001 -0.7101
 2650ntf    on518685   0.264   5.779   3.089 -0.0846  0.1655 -0.2859
 2650ntf    on518686   0.272   6.099   3.405  0.1798  0.3363 -0.0372
 2650ntf    on518687   0.515   6.074   3.396 -0.3113  0.6136 -0.3987
 2650ntf    fn418688   0.438   5.979   3.640  0.4134 -0.2251 -0.0367
 2650ntf    fn418689   0.283   5.850   3.571  0.3557 -0.1927  0.1075
 2650ntf    fn418690   0.491   5.811   3.534  0.1222  0.4064 -0.2831
 2651ntf    cn118691   3.419   0.374   1.403  0.1255 -0.3075  0.2198
 2651ntf    sn218692   3.342   0.241   1.306 -0.4503  0.3333 -0.2029
 2651ntf    nn318693   3.278   0.327   1.191  0.2467  0.4130 -0.5348
 2651ntf    sn218694   3.130   0.376   1.178  0.1548  0.2981  0.0695
 2651ntf    cn118695   3.054   0.223   1.114 -0.0023  0.3440  0.1453
 2651ntf    fn418696   3.336   0.462   1.455 -0.0811 -0.3310 -0.0738
 2651ntf    fn418697   3.488   0.320   1.502 -0.0978 -0.0067  0.5424
 2651ntf    fn418698   3.506   0.442   1.330  0.1024 -0.1488  0.3402
 2651ntf    on518699   3.443   0.155   1.250  0.1750  0.0708  1.2852
 2651ntf    on518700   3.251   0.186   1.404  0.1086  0.1327  0.2074
 2651ntf    on518701   3.109   0.463   1.065  0.4092 -0.1277 -0.3090
 2651ntf    on518702   3.055   0.403   1.298  0.1643 -0.2083  0.1930
 2651ntf    fn418703   3.122   0.177   1.011  0.1371  0.5307  0.1534
 2651ntf    fn418704   3.038   0.120   1.195 -0.3183  0.2583 -0.0247
 2651ntf    fn418705   2.931   0.248   1.072 -0.2634 -1.2415 -0.0959
 2652ntf    cn118706   5.215   4.828   1.165 -0.5527  0.1013  0.0817
 2652ntf    sn218707   5.268   4.922   1.018 -0.3234  0.0173  0.1116
 2652ntf    nn318708   5.351   5.045   1.069  0.0340 -0.0776 -0.2401
 2652ntf    sn218709   5.506   5.070   1.069  0.0594 -0.2324 -0.1412
 2652ntf    cn118710   5.528   5.129   0.898  0.1758 -0.0683 -0.0701
 2652ntf    fn418711   5.129   4.731   1.139 -0.2099 -0.1188 -0.2392
 2652ntf    fn418712   5.317   4.771   1.225 -0.5559 -0.0770 -0.0794
 2652ntf    fn418713   5.161   4.912   1.251 -0.0872  0.4347  0.0466
 2652ntf    on518714   5.339   4.822   0.942 -0.6419 -0.4073  0.3630
 2652ntf    on518715   5.147   4.972   0.959 -0.6702 -0.4793  0.3858
 2652ntf    on518716   5.605   4.965   1.083  0.1577 -0.1276 -0.0484
 2652ntf    on518717   5.528   5.187   1.151  0.7432 -0.5505  0.1364
 2652ntf    fn418718   5.653   5.171   0.883  0.0676  0.2118 -0.1925
 2652ntf    fn418719   5.517   5.031   0.810 -0.1241  0.5554 -0.7408
 2652ntf    fn418720   5.450   5.230   0.863 -0.2905 -0.2837  0.3269
 2653ntf    cn118721   0.781   2.471   2.631 -0.1590  0.0755 -0.2305
 2653ntf    sn218722   0.733   2.610   2.738  0.0463 -0.0480  0.0238
 2653ntf    nn318723   0.839   2.597   2.853  0.2331  0.4930 -0.0848
 2653ntf    sn218724   0.982   2.661   2.870  0.3675  0.0144  0.6517
 2653ntf    cn118725   1.046   2.561   3.007  0.3126 -0.4800  0.3196
 2653ntf    fn418726   0.763   2.356   2.696 -0.5535  0.2419 -0.0361
 2653ntf    fn418727   0.708   2.464   2.521  0.3152 -0.3567 -0.5242
 2653ntf    fn418728   0.909   2.485   2.603 -0.0795 -0.3516 -0.1034
 2653ntf    on518729   0.746   2.722   2.648  0.0358 -0.2707 -0.2585
 2653ntf    on518730   0.601   2.580   2.786  0.0576  0.1407  0.1736
 2653ntf    on518731   0.983   2.792   2.929 -0.6314  0.2978  0.0677
 2653ntf    on518732   1.074   2.637   2.761 -0.2899  0.0191  0.0897
 2653ntf    fn418733   0.963   2.572   3.110 -0.4363 -0.1609 -0.3067
 2653ntf    fn418734   1.050   2.432   2.977  0.2973 -0.3922 -0.0651
 2653ntf    fn418735   1.169   2.592   3.042  0.4609 -0.8469  0.1307
 2654ntf    cn118736   6.221   0.982   5.161  0.0192  0.2028  0.1479
 2654ntf    sn218737   6.394   0.965   5.212  0.1866 -0.0243 -0.4836
 2654ntf    nn318738   6.471   0.973   5.076  0.6426 -0.2650 -0.2434
 2654ntf    sn218739   6.519   1.105   5.004  0.2546 -0.0177 -0.0522
 2654ntf    cn118740   6.679   1.124   5.088  0.1459  0.1837  0.1085
 2654ntf    fn418741   6.202   1.074   5.067 -0.3045  0.1034  0.1137
 2654ntf    fn418742   6.173   0.866   5.117 -0.4680  0.4329  0.0556
 2654ntf    fn418743   6.147   1.019   5.265  0.3786  0.3011  0.3683
 2654ntf    on518744   6.419   1.074   5.303  0.2912 -0.0382 -0.4954
 2654ntf    on518745   6.398   0.836   5.276 -0.3590  0.3771  0.3834
 2654ntf    on518746   6.443   1.224   5.029 -0.1000 -0.2364 -0.0776
 2654ntf    on518747   6.558   1.076   4.868  0.6020 -0.0547  0.0549
 2654ntf    fn418748   6.752   1.014   5.094 -0.2695 -0.0971  0.0250
 2654ntf    fn418749   6.757   1.218   5.036 -0.4582  0.6155 -0.0439
 2654ntf    fn418750   6.664   1.154   5.216 -0.7453  0.7006 -0.1085
 2655ntf    cn118751   0.926   5.421   0.084 -0.1123  0.0238 -0.2373
 2655ntf    sn218752   0.806   5.557   0.070 -0.1260  0.0265 -0.0938
 2655ntf    nn318753   0.895   5.685   0.089 -0.5949  0.3428 -0.0191
 2655ntf    sn218754   0.955   5.742   0.223 -0.0769 -0.2502  0.0038
 2655ntf    cn118755   1.131   5.700   0.203 -0.0728 -0.2197 -0.0251
 2655ntf    fn418756   1.039   5.443   0.018 -0.1010  0.0544 -0.2074
 2655ntf    fn418757   0.970   5.414   0.208 -0.0711  0.0212 -0.2519
 2655ntf    fn418758   0.874   5.305   0.049  0.3279 -0.2522  0.0192
 2655ntf    on518759   0.746   5.540  -0.060 -0.4381  0.3319  0.0087
 2655ntf    on518760   0.720   5.524   0.181 -0.0898  0.0906 -0.0463
 2655ntf    on518761   0.911   5.671   0.341  0.1423 -0.1340  0.1554
 2655ntf    on518762   0.955   5.886   0.221  0.3204 -0.2529 -0.4972
 2655ntf    fn418763   1.157   5.577   0.245  0.3371  0.0868  0.6348
 2655ntf    fn418764   1.173   5.723   0.080 -0.6292 -0.1464 -0.2038
 2655ntf    fn418765   1.207   5.781   0.276 -0.3917  0.0071  0.0593
 2656ntf    cn118766   4.706   4.965   6.369 -0.4328 -0.0052  0.0563
 2656ntf    sn218767   4.589   4.828   6.342 -0.2800 -0.0548 -0.3680
 2656ntf    nn318768   4.606   4.793   6.190 -0.2216  0.3877 -0.4647
 2656ntf    sn218769   4.682   4.669   6.131  0.1822  0.3612  0.1037
 2656ntf    cn118770   4.563   4.538   6.172  0.1113  0.4160  0.0727
 2656ntf    fn418771   4.683   5.035   6.478  0.2435 -0.5228  0.5353
 2656ntf    fn418772   4.831   4.929   6.394 -0.2617  0.2561 -0.3896
 2656ntf    fn418773   4.710   5.051   6.268 -0.1632 -0.1001 -0.0156
 2656ntf    on518774   4.621   4.727   6.440  0.1796  0.3450 -0.0994
 2656ntf    on518775   4.462   4.890   6.367 -0.1798 -0.0918  0.2332
 2656ntf    on518776   4.798   4.637   6.210 -0.4039 -0.2216  0.7374
 2656ntf    on518777   4.698   4.678   5.988  0.1842 -0.4707  0.0452
 2656ntf    fn418778   4.433   4.559   6.159 -0.0133 -0.2955  0.0892
 2656ntf    fn418779   4.571   4.433   6.092 -0.0565  0.5711 -0.1470
 2656ntf    fn418780   4.588   4.497   6.296  0.5978  0.2036 -0.0916
 2657ntf    cn118781   0.840   4.079   3.684 -0.0653 -0.0342 -0.0733
 2657ntf    sn218782   0.706   4.192   3.634 -0.0803  0.0186  0.0868
 2657ntf    nn318783   0.728   4.187   3.478 -0.0174 -0.1204  0.0999
 2657ntf    sn218784   0.814   4.291   3.397  0.2485 -0.3103  0.1377
 2657ntf    cn118785   0.677   4.391   3.332  0.4347 -0.1271  0.0225
 2657ntf    fn418786   0.807   3.951   3.676 -0.4094  0.0495 -0.0163
 2657ntf    fn418787   0.942   4.102   3.603  0.2885  0.1527  0.4283
 2657ntf    fn418788   0.880   4.104   3.807 -0.4829 -0.1614  0.0919
 2657ntf    on518789   0.590   4.118   3.676  0.3046 -0.6807 -0.0729
 2657ntf    on518790   0.743   4.314   3.701 -0.1432  0.2319 -0.2652
 2657ntf    on518791   0.868   4.223   3.281  0.5781  0.3080 -0.0758
 2657ntf    on518792   0.900   4.386   3.463  0.7529 -0.0419 -0.8871
 2657ntf    fn418793   0.561   4.342   3.375  0.4758 -0.0034  0.2756
 2657ntf    fn418794   0.690   4.514   3.377 -0.2306 -0.0919  0.1357
 2657ntf    fn418795   0.676   4.392   3.200 -0.0015 -0.1991  0.0232
 2658ntf    cn118796   0.242   5.620   5.902  0.0583 -0.2671 -0.2775
 2658ntf    sn218797   0.078   5.543   5.918 -0.0580 -0.0113 -0.2339
 2658ntf    nn318798   0.069   5.470   5.779  0.1530  0.5840 -0.5643
 2658ntf    sn218799  -0.016   5.503   5.651 -0.0867  0.0343 -0.5464
 2658ntf    cn118800  -0.160   5.400   5.692 -0.2789  0.4728 -0.1239
 2658ntf    fn418801   0.296   5.661   6.016 -0.0530  0.4147 -0.4606
 2658ntf    fn418802   0.332   5.540   5.846  0.0174 -0.5298  0.0320
 2658ntf    fn418803   0.230   5.736   5.839 -0.1721  0.0976  0.4295
 2658ntf    on518804   0.088   5.447   6.025 -0.3102 -0.5937 -0.7275
 2658ntf    on518805  -0.018   5.651   5.926  0.2377  0.2964 -0.7177
 2658ntf    on518806   0.040   5.448   5.529 -0.5305  0.0396 -0.7523
 2658ntf    on518807  -0.064   5.637   5.634 -0.3869 -0.0073 -0.0235
 2658ntf    fn418808  -0.141   5.272   5.718  0.3857  0.4510 -0.6977
 2658ntf    fn418809  -0.241   5.450   5.784 -0.1723  0.2047  0.1188
 2658ntf    fn418810  -0.234   5.390   5.583 -0.0478 -0.2978 -0.2173
 2659ntf    cn118811   1.399   3.030   0.464 -0.0475 -0.0248 -0.1444
 2659ntf    sn218812   1.382   2.867   0.385  0.4458 -0.1128 -0.0719
 2659ntf    nn318813   1.342   2.781   0.510 -0.2269  0.2297 -0.0430
 2659ntf    sn218814   1.442   2.707   0.607 -0.6390  0.0811  0.2728
 2659ntf    cn118815   1.454   2.544   0.529 -0.1149  0.1057  0.3008
 2659ntf    fn418816   1.483   3.111   0.402  0.6043 -0.3210  0.3386
 2659ntf    fn418817   1.284   3.095   0.475 -0.0781 -0.1219  0.1287
 2659ntf    fn418818   1.447   3.020   0.587 -0.1047  0.1811 -0.1040
 2659ntf    on518819   1.275   2.899   0.294  0.1768 -0.5996  0.0689
 2659ntf    on518820   1.509   2.834   0.326  0.5587 -0.3689  0.3099
 2659ntf    on518821   1.383   2.672   0.733 -0.6688 -0.0678  0.2181
 2659ntf    on518822   1.583   2.739   0.615 -0.3675 -1.0859  0.2882
 2659ntf    fn418823   1.494   2.553   0.403 -0.1025  0.1276  0.3063
 2659ntf    fn418824   1.527   2.453   0.593 -0.6563 -0.0396  0.7173
 2659ntf    fn418825   1.334   2.490   0.519 -0.0222 -0.0926  0.2466
 2660ntf    cn118826   1.319   3.237   1.592  0.1370 -0.0749 -0.0282
 2660ntf    sn218827   1.247   3.259   1.426 -0.2933  0.0189  0.1701
 2660ntf    nn318828   1.095   3.247   1.464 -0.3957  0.5384 -0.0701
 2660ntf    sn218829   0.983   3.142   1.432 -0.0209  0.0304  0.2643
 2660ntf    cn118830   0.828   3.237   1.430 -0.1400 -0.1603  0.3670
 2660ntf    fn418831   1.269   3.132   1.655 -0.1173  0.2985  0.3965
 2660ntf    fn418832   1.448   3.208   1.591  0.1923  0.1742  0.0586
 2660ntf    fn418833   1.302   3.347   1.662 -0.0127 -0.2951  0.2861
 2660ntf    on518834   1.282   3.397   1.403 -0.7822  0.0853 -0.1885
 2660ntf    on518835   1.308   3.159   1.342 -0.6764  0.0875 -0.1867
 2660ntf    on518836   0.958   3.049   1.540 -0.1015  0.1370  0.3380
 2660ntf    on518837   1.003   3.088   1.300  0.6588  0.1126  0.3298
 2660ntf    fn418838   0.817   3.326   1.332  0.6537 -0.9294 -0.4428
 2660ntf    fn418839   0.722   3.159   1.428  0.1689 -0.5800  0.1842
 2660ntf    fn418840   0.811   3.316   1.535 -0.4727  0.1408  0.0928
 2661ntf    cn118841   1.529   0.849   5.293  0.0279  0.3462 -0.0124
 2661ntf    sn218842   1.549   0.710   5.409 -0.0370  0.1756 -0.2047
 2661ntf    nn318843   1.693   0.660   5.371  0.1868  0.5229  0.1677
 2661ntf    sn218844   1.808   0.592   5.453  0.0774  0.0110 -0.0944
 2661ntf    cn118845   1.889   0.728   5.543  0.2405 -0.0591 -0.1342
 2661ntf    fn418846   1.410   0.906   5.295 -0.2376 -0.2030  0.1968
 2661ntf    fn418847   1.617   0.939   5.334  0.3780  0.0129 -0.0205
 2661ntf    fn418848   1.558   0.818   5.168  0.1611 -0.2572  0.1610
 2661ntf    on518849   1.540   0.774   5.538  0.4675  0.0159 -0.0859
 2661ntf    on518850   1.445   0.620   5.368  0.2212 -0.2482  0.0586
 2661ntf    on518851   1.905   0.547   5.357 -0.4227 -0.3341 -0.4415
 2661ntf    on518852   1.770   0.496   5.554  0.4421  0.2852  0.3081
 2661ntf    fn418853   1.854   0.736   5.670 -0.0942 -0.0614 -0.2251
 2661ntf    fn418854   2.018   0.701   5.544  0.3915  0.6486  0.7933
 2661ntf    fn418855   1.869   0.843   5.480 -0.2738 -0.3457 -0.5014
 2662ntf    cn118856   0.164   1.674   1.334  0.2411  0.1258  0.0652
 2662ntf    sn218857   0.062   1.598   1.465 -0.1672  0.3561 -0.1179
 2662ntf    nn318858   0.164   1.607   1.584 -0.6701 -0.3912  0.3711
 2662ntf    sn218859   0.256   1.488   1.628  0.1551  0.0175 -0.2394
 2662ntf    cn118860   0.410   1.577   1.665 -0.0108  0.3551 -0.3621
 2662ntf    fn418861   0.101   1.662   1.219  0.8094 -0.3741 -0.2012
 2662ntf    fn418862   0.191   1.802   1.354 -0.2290  0.2172  0.1241
 2662ntf    fn418863   0.281   1.615   1.317  0.1647  0.1229 -0.4471
 2662ntf    on518864  -0.050   1.686   1.487 -0.4598 -0.0472  0.0038
 2662ntf    on518865   0.028   1.462   1.433  0.2208  0.2134  0.0698
 2662ntf    on518866   0.303   1.399   1.524 -0.4791 -0.5445 -0.0515
 2662ntf    on518867   0.232   1.422   1.754  0.4066 -0.2560 -0.3329
 2662ntf    fn418868   0.425   1.613   1.791  1.3068 -0.8645 -0.1386
 2662ntf    fn418869   0.516   1.507   1.630 -0.2324 -0.0289 -0.2704
 2662ntf    fn418870   0.424   1.690   1.596  0.6342  0.0435 -0.7566
 2663ntf    cn118871   6.465   1.443   6.516 -0.2679  0.1234  0.4263
 2663ntf    sn218872   6.441   1.617   6.563  0.1704  0.2366  0.2346
 2663ntf    nn318873   6.588   1.667   6.582  0.0770  0.3936  0.5507
 2663ntf    sn218874   6.691   1.715   6.472 -0.2082  0.3103  0.2471
 2663ntf    cn118875   6.652   1.892   6.455 -0.1361  0.3216  0.2012
 2663ntf    fn418876   6.579   1.423   6.452 -0.7101 -0.7857 -0.1139
 2663ntf    fn418877   6.462   1.355   6.614 -0.2070  0.0471  0.3596
 2663ntf    fn418878   6.376   1.401   6.426 -0.0528 -0.0447  0.2903
 2663ntf    on518879   6.367   1.674   6.453  0.1490  0.3952  0.3321
 2663ntf    on518880   6.374   1.605   6.690  0.2361 -0.6971  0.1865
 2663ntf    on518881   6.666   1.658   6.342  0.2460 -0.3760  0.4556
 2663ntf    on518882   6.823   1.715   6.530 -0.2098  0.5889  0.2512
 2663ntf    fn418883   6.610   1.923   6.334  0.2265 -0.3126 -0.0897
 2663ntf    fn418884   6.568   1.940   6.546  0.0412  0.2181  0.4195
 2663ntf    fn418885   6.762   1.963   6.472  0.2487 -0.2235  0.0234
 2664ntf    cn118886   1.715   1.451   1.872 -0.3860 -0.1638  0.1580
 2664ntf    sn218887   1.715   1.458   2.053  0.2773  0.0284  0.1556
 2664ntf    nn318888   1.748   1.610   2.070  0.2995  0.0427 -0.0143
 2664ntf    sn218889   1.842   1.704   1.986 -0.2538  0.4439 -0.1848
 2664ntf    cn118890   1.827   1.854   2.088 -0.1187  0.3888 -0.0840
 2664ntf    fn418891   1.691   1.330   1.824  0.2255 -0.2091 -0.0429
 2664ntf    fn418892   1.623   1.524   1.810  0.0439  0.0237 -0.2763
 2664ntf    fn418893   1.833   1.486   1.823 -0.7323  0.4306 -0.2691
 2664ntf    on518894   1.583   1.409   2.084  0.4169 -0.5746 -0.1899
 2664ntf    on518895   1.826   1.370   2.079  0.4938  0.2540 -0.0061
 2664ntf    on518896   1.788   1.742   1.857 -0.5647  0.8239  0.0523
 2664ntf    on518897   1.983   1.682   1.998 -0.3212  0.2475  0.2578
 2664ntf    fn418898   1.702   1.897   2.088 -0.4486 -0.5391 -0.1103
 2664ntf    fn418899   1.866   1.830   2.212 -0.2626  0.1599 -0.0829
 2664ntf    fn418900   1.902   1.952   2.041  0.5883 -0.0336  0.1486
 2665ntf    cn118901   5.104   6.040   6.247  0.1296 -0.1966  0.2842
 2665ntf    sn218902   4.974   6.160   6.288  0.0632 -0.1695 -0.0050
 2665ntf    nn318903   5.058   6.277   6.352  0.2638 -0.2417 -0.1359
 2665ntf    sn218904   5.095   6.412   6.281 -0.0346 -0.0596  0.0539
 2665ntf    cn118905   5.200   6.485   6.410  0.2712 -0.1044 -0.1702
 2665ntf    fn418906   5.170   6.005   6.356 -0.2883 -0.5199  0.4371
 2665ntf    fn418907   5.062   5.920   6.209 -0.1486  0.0072 -0.0581
 2665ntf    fn418908   5.190   6.087   6.158 -0.1418  0.0986  0.1757
 2665ntf    on518909   4.908   6.190   6.163 -0.2933 -0.2834  0.1540
 2665ntf    on518910   4.888   6.091   6.381 -0.2811 -0.0259 -0.2105
 2665ntf    on518911   4.987   6.507   6.267 -0.4179 -0.4679  0.1894
 2665ntf    on518912   5.182   6.388   6.169  0.5017  0.5237  0.3410
 2665ntf    fn418913   5.133   6.516   6.520 -0.0332  0.1097 -0.4153
 2665ntf    fn418914   5.306   6.413   6.440  0.1465 -0.2354 -0.0455
 2665ntf    fn418915   5.244   6.600   6.360  0.0651  0.1468  0.2189
 2666ntf    cn118916   0.236   5.776   4.796  0.1681 -0.5167  0.1573
 2666ntf    sn218917   0.166   5.717   4.639  0.0580  0.0938 -0.0254
 2666ntf    nn318918   0.271   5.601   4.624 -0.5175 -0.4001 -0.2633
 2666ntf    sn218919   0.263   5.460   4.692 -0.3445 -0.2098  0.1569
 2666ntf    cn118920   0.196   5.365   4.553 -0.1552 -0.0722 -0.0282
 2666ntf    fn418921   0.238   5.685   4.892 -0.3281 -0.0579  0.6168
 2666ntf    fn418922   0.361   5.819   4.783 -0.0538 -0.0017 -0.3214
 2666ntf    fn418923   0.173   5.883   4.844 -0.1480 -0.5426 -0.1986
 2666ntf    on518924   0.030   5.688   4.675  0.1542  0.2985  0.5262
 2666ntf    on518925   0.182   5.827   4.547  0.3105 -0.3660 -0.5352
 2666ntf    on518926   0.159   5.442   4.790 -0.8941 -0.3698 -0.4481
 2666ntf    on518927   0.390   5.397   4.715 -0.0211  0.3900  0.0330
 2666ntf    fn418928   0.260   5.393   4.440  0.2826  0.2446  0.2946
 2666ntf    fn418929   0.195   5.234   4.571 -0.2430 -0.0327  0.2478
 2666ntf    fn418930   0.072   5.401   4.520  0.0519  0.9268  0.2539
 2667ntf    cn118931   1.815   5.390   1.418  0.0803  0.1039 -0.0070
 2667ntf    sn218932   1.749   5.411   1.586  0.0220 -0.3668  0.0301
 2667ntf    nn318933   1.865   5.357   1.677  0.0005  0.0425  0.3007
 2667ntf    sn218934   1.874   5.226   1.763 -0.2797 -0.2506 -0.1164
 2667ntf    cn118935   1.826   5.300   1.922 -0.1008  0.3477 -0.3373
 2667ntf    fn418936   1.896   5.493   1.395  0.0069  0.0510 -0.5197
 2667ntf    fn418937   1.879   5.275   1.401  0.1025  0.0661  0.3266
 2667ntf    fn418938   1.735   5.389   1.312  0.2350 -0.3445 -0.1210
 2667ntf    on518939   1.737   5.555   1.593 -0.4660 -0.3940 -0.2447
 2667ntf    on518940   1.629   5.332   1.585  0.0668 -0.4344 -0.3252
 2667ntf    on518941   2.012   5.185   1.778 -0.3729 -0.4441  0.2136
 2667ntf    on518942   1.784   5.117   1.735 -0.0999 -0.4516  0.0859
 2667ntf    fn418943   1.908   5.391   1.971  0.7142 -0.2846 -0.4998
 2667ntf    fn418944   1.705   5.353   1.909 -0.4127 -0.2835 -0.0730
 2667ntf    fn418945   1.815   5.206   2.014  0.1478  0.4521 -0.2018
 2668ntf    cn118946   3.188   2.571   2.181 -0.3426  0.0846  0.0804
 2668ntf    sn218947   3.201   2.740   2.245  0.0855  0.1149 -0.0824
 2668ntf    nn318948   3.074   2.804   2.179 -0.2483 -0.1008  0.3466
 2668ntf    sn218949   2.962   2.897   2.238 -0.1380  0.1864  0.1063
 2668ntf    cn118950   2.900   2.967   2.082  0.2606  0.2677 -0.0165
 2668ntf    fn418951   3.226   2.558   2.055 -0.2662 -0.0239  0.1143
 2668ntf    fn418952   3.253   2.481   2.254  0.0427  0.3184  0.0287
 2668ntf    fn418953   3.066   2.520   2.179 -0.3516  0.0828  0.5856
 2668ntf    on518954   3.184   2.713   2.385 -0.6244  0.2197 -0.1421
 2668ntf    on518955   3.325   2.788   2.189  0.4276 -0.5309  0.1133
 2668ntf    on518956   3.023   3.008   2.308 -0.1923 -0.2012  0.7685
 2668ntf    on518957   2.845   2.835   2.295 -0.2810  0.4266  0.0789
 2668ntf    fn418958   2.872   2.886   1.981 -0.3156  0.6681 -0.1840
 2668ntf    fn418959   2.793   3.040   2.107 -0.2074 -0.4643  0.1658
 2668ntf    fn418960   2.993   3.050   2.038 -0.0108  0.3563 -0.4302
 2669ntf    cn118961   5.214   4.555   4.567  0.0925  0.1433  0.3850
 2669ntf    sn218962   5.109   4.690   4.508  0.0588  0.0243  0.1706
 2669ntf    nn318963   4.970   4.623   4.480  0.0729  0.0592  0.0144
 2669ntf    sn218964   4.840   4.645   4.564  0.0153 -0.1357 -0.0238
 2669ntf    cn118965   4.708   4.581   4.457  0.2097  0.1415 -0.4267
 2669ntf    fn418966   5.237   4.469   4.468 -0.2995  0.2185  0.2287
 2669ntf    fn418967   5.335   4.582   4.612  0.1308  0.6748 -0.0249
 2669ntf    fn418968   5.163   4.488   4.669 -0.1044 -0.3105 -0.0049
 2669ntf    on518969   5.106   4.781   4.620 -0.3736 -0.3736  0.4811
 2669ntf    on518970   5.174   4.732   4.386 -0.3302 -0.0905 -0.0778
 2669ntf    on518971   4.805   4.782   4.591 -0.0886 -0.1421 -0.1260
 2669ntf    on518972   4.823   4.555   4.676 -0.4693 -0.3891 -0.2957
 2669ntf    fn418973   4.598   4.572   4.530  0.5066 -0.0562 -0.0053
 2669ntf    fn418974   4.675   4.654   4.351  0.2140  0.5074 -0.1767
 2669ntf    fn418975   4.730   4.458   4.414  0.0042  0.0639 -0.3131
 2670ntf    cn118976   5.672   4.739   2.585  0.0588  0.4688  0.2565
 2670ntf    sn218977   5.647   4.630   2.728  0.4215  0.1988  0.1166
 2670ntf    nn318978   5.722   4.500   2.683  0.3871  0.2240 -0.0135
 2670ntf    sn218979   5.816   4.408   2.768 -0.2118  0.1034  0.5270
 2670ntf    cn118980   5.976   4.462   2.702 -0.2904 -0.4906 -0.1560
 2670ntf    fn418981   5.580   4.833   2.570 -0.7603 -0.4110 -0.3400
 2670ntf    fn418982   5.790   4.799   2.586  0.4649 -0.2829 -0.6814
 2670ntf    fn418983   5.674   4.659   2.480  0.9551  0.5088  0.2326
 2670ntf    on518984   5.715   4.704   2.831  0.2166 -0.5173  0.7710
 2670ntf    on518985   5.503   4.619   2.730  0.4380  0.0137  0.2678
 2670ntf    on518986   5.812   4.268   2.735 -0.1200  0.1498  0.3143
 2670ntf    on518987   5.819   4.438   2.909  0.9782 -0.8446  0.7201
 2670ntf    fn418988   6.023   4.390   2.601 -0.3642 -1.3366  0.4067
 2670ntf    fn418989   5.980   4.587   2.658 -0.3417 -0.2355  0.5516
 2670ntf    fn418990   6.070   4.452   2.795 -0.1436 -0.1482 -0.2645
 2671ntf    cn118991   6.399   6.215   0.118  0.0908 -0.0669 -0.6017
 2671ntf    sn218992   6.498   6.072   0.064  0.7860  0.0554  0.3147
 2671ntf    nn318993   6.595   6.144  -0.037 -0.3643  0.8662 -0.2413
 2671ntf    sn218994   6.744   6.192  -0.024 -0.0452 -0.2114  0.2509
 2671ntf    cn118995   6.713   6.349  -0.110  0.0994 -0.2729  0.0855
 2671ntf    fn418996   6.308   6.248   0.028 -0.2970  0.1133 -0.1463
 2671ntf    fn418997   6.347   6.190   0.236  0.5292 -0.1838 -0.4288
 2671ntf    fn418998   6.471   6.325   0.134 -0.2619  0.0849 -0.0368
 2671ntf    on518999   6.554   6.020   0.186  0.3540 -0.7970  0.1602
 2671ntf    on519000   6.393   6.000  -0.004  0.4585  0.5887  0.2516
 2671ntf    on519001   6.841   6.128  -0.109  0.5456  0.8315  0.1297
 2671ntf    on519002   6.783   6.245   0.104  0.2553 -0.0462  0.0919
 2671ntf    fn419003   6.652   6.342  -0.227  0.5542  0.1383 -0.1828
 2671ntf    fn419004   6.637   6.437  -0.046 -0.0273  0.0589 -0.5054
 2671ntf    fn419005   6.823   6.417  -0.139  0.0552 -0.4630 -0.5258
 2672ntf    cn119006   6.839   5.587   4.224  0.6456 -0.5517  0.2455
 2672ntf    sn219007   6.778   5.445   4.129 -0.1513  0.0553 -0.1542
 2672ntf    nn319008   6.871   5.328   4.177 -0.3410 -0.0289  0.0066
 2672ntf    sn219009   6.834   5.206   4.269  0.1361  0.1523  0.4409
 2672ntf    cn119010   6.779   5.089   4.141 -0.2976  0.4962  0.3132
 2672ntf    fn419011   6.961   5.568   4.272  0.6753 -0.2409  0.2916
 2672ntf    fn419012   6.854   5.697   4.152  0.2064 -0.6391  0.0220
 2672ntf    fn419013   6.759   5.615   4.325  0.3967 -0.5176  0.0370
 2672ntf    on519014   6.641   5.432   4.174  0.1775 -0.1037  0.8057
 2672ntf    on519015   6.795   5.474   3.988 -0.2496 -0.0138 -0.1810
 2672ntf    on519016   6.723   5.221   4.359  0.3355 -0.2635  0.7621
 2672ntf    on519017   6.951   5.139   4.320  0.0958 -0.3920 -0.1714
 2672ntf    fn419018   6.853   5.106   4.032  0.0355 -0.1374  0.4404
 2672ntf    fn419019   6.787   4.963   4.180 -0.3048  0.4057  0.0228
 2672ntf    fn419020   6.651   5.096   4.108 -0.2017 -0.5610 -0.3102
 2673ntf    cn119021   1.249   0.102   0.072  0.2617  0.3739 -0.1057
 2673ntf    sn219022   1.234   0.131  -0.107 -0.0302 -0.1738 -0.1727
 2673ntf    nn319023   1.287  -0.013  -0.141  0.8169  0.2053 -0.5034
 2673ntf    sn219024   1.232  -0.107  -0.254 -0.1438 -0.0292  0.1460
 2673ntf    cn119025   1.120  -0.215  -0.161 -0.0613 -0.3204 -0.0925
 2673ntf    fn419026   1.177  -0.006   0.099  0.1921  0.0816 -1.3609
 2673ntf    fn419027   1.370   0.078   0.119  0.0524 -0.1149  0.1904
 2673ntf    fn419028   1.190   0.199   0.140  0.2647  0.1440  0.2249
 2673ntf    on519029   1.093   0.154  -0.122  0.0704  0.1442 -0.6526
 2673ntf    on519030   1.330   0.232  -0.144  0.2383 -0.5578 -0.5417
 2673ntf    on519031   1.334  -0.193  -0.308 -0.4000 -0.2028 -0.0679
 2673ntf    on519032   1.149  -0.048  -0.357 -0.1691 -0.9684 -0.3841
 2673ntf    fn419033   1.040  -0.153  -0.076 -0.0997 -0.1135 -0.2789
 2673ntf    fn419034   1.054  -0.306  -0.232  0.1638 -0.2403 -0.4030
 2673ntf    fn419035   1.190  -0.285  -0.073 -0.0816 -0.4361 -0.1667
 2674ntf    cn119036   1.005   4.260   6.482 -0.0590 -0.1373 -0.0025
 2674ntf    sn219037   1.064   4.126   6.590 -0.1577 -0.0217  0.1944
 2674ntf    nn319038   1.218   4.146   6.569 -0.2444  0.0107 -0.4406
 2674ntf    sn219039   1.324   4.080   6.474  0.2178  0.1595 -0.0345
 2674ntf    cn119040   1.458   4.084   6.597  0.1986  0.0266 -0.0088
 2674ntf    fn419041   0.875   4.282   6.492 -0.0226  0.0574  0.0337
 2674ntf    fn419042   1.064   4.377   6.496  0.1907 -0.2799  0.1460
 2674ntf    fn419043   1.022   4.225   6.355  0.0209  0.6615 -0.2184
 2674ntf    on519044   1.027   4.174   6.721 -0.2121 -0.2818  0.2751
 2674ntf    on519045   1.000   4.003   6.549 -0.5163  0.1966  0.0946
 2674ntf    on519046   1.371   4.176   6.378  0.2436 -0.1872 -0.3715
 2674ntf    on519047   1.308   3.939   6.447 -0.3718  0.2560 -0.2060
 2674ntf    fn419048   1.413   4.034   6.710  0.0942  0.1004 -0.0183
 2674ntf    fn419049   1.559   4.008   6.557 -0.0042 -0.2717  0.0429
 2674ntf    fn419050   1.515   4.202   6.614 -0.3499  0.3085 -0.1091
 2675ntf    cn119051   0.352   0.146   4.501  0.1787 -0.2547  0.0281
 2675ntf    sn219052   0.434   0.308   4.514 -0.0935 -0.1339  0.2249
 2675ntf    nn319053   0.310   0.397   4.552  0.2928  0.3674  0.3205
 2675ntf    sn219054   0.223   0.490   4.459  0.2694 -0.1312 -0.1615
 2675ntf    cn119055   0.335   0.632   4.481 -0.0985  0.0712  0.4372
 2675ntf    fn419056   0.427   0.045   4.460 -0.2144 -0.3918 -0.3482
 2675ntf    fn419057   0.297   0.102   4.612  0.0581 -0.3074 -0.0530
 2675ntf    fn419058   0.256   0.156   4.411 -0.1794  0.2425  0.4616
 2675ntf    on519059   0.534   0.289   4.616  0.1768 -0.1810 -0.0510
 2675ntf    on519060   0.488   0.312   4.381 -0.0465  0.1585  0.2518
 2675ntf    on519061   0.105   0.545   4.522  0.1313 -0.4064 -0.1781
 2675ntf    on519062   0.224   0.464   4.318  0.1008 -0.1824 -0.1537
 2675ntf    fn419063   0.333   0.666   4.609  0.5250  0.4191  0.3554
 2675ntf    fn419064   0.462   0.605   4.455  0.0509  0.2727  0.9485
 2675ntf    fn419065   0.310   0.736   4.403 -0.3679 -0.7174 -0.5457
 2676ntf    cn119066   2.682   3.920   4.277  0.4291  0.1211  0.0331
 2676ntf    sn219067   2.631   3.800   4.403  0.0979 -0.1288 -0.3341
 2676ntf    nn319068   2.480   3.839   4.419  0.3378  0.6248  0.1941
 2676ntf    sn219069   2.388   3.809   4.542  0.0969 -0.1011 -0.1532
 2676ntf    cn119070   2.223   3.842   4.473 -0.0539 -0.6668 -0.0683
 2676ntf    fn419071   2.621   3.893   4.162 -0.1588  0.1892  0.3227
 2676ntf    fn419072   2.646   4.044   4.306  0.1141 -0.1166  0.6609
 2676ntf    fn419073   2.813   3.913   4.262  0.4854  0.3234  0.4364
 2676ntf    on519074   2.656   3.668   4.351 -0.3700 -0.1380 -0.5344
 2676ntf    on519075   2.713   3.837   4.516 -0.4236 -0.9945  0.3423
 2676ntf    on519076   2.392   3.911   4.644  0.9181  0.1076 -0.3912
 2676ntf    on519077   2.387   3.675   4.595  0.4221  0.1127  0.4000
 2676ntf    fn419078   2.126   3.818   4.560  0.1993 -0.1638  0.3625
 2676ntf    fn419079   2.213   3.965   4.426  0.4036 -0.3579  0.6274
 2676ntf    fn419080   2.184   3.769   4.369 -0.4058 -1.0292  0.3123
 2677ntf    cn119081   4.047   2.224   2.617  0.4369 -0.2152 -0.5729
 2677ntf    sn219082   4.182   2.219   2.739 -0.0410 -0.0134 -0.0362
 2677ntf    nn319083   4.107   2.145   2.856 -0.0659  0.2202  0.0958
 2677ntf    sn219084   4.048   2.200   2.991 -0.4974  0.0794 -0.0348
 2677ntf    cn119085   4.195   2.171   3.094 -0.4962  0.2176  0.0020
 2677ntf    fn419086   3.927   2.256   2.661  0.4692 -0.2746 -0.4426
 2677ntf    fn419087   4.065   2.317   2.524  0.0159 -0.0472 -0.4853
 2677ntf    fn419088   4.036   2.105   2.562  0.6616 -0.5417  0.0817
 2677ntf    on519089   4.289   2.146   2.678  0.3048  0.4944 -0.0432
 2677ntf    on519090   4.214   2.357   2.768 -0.2555  0.0713 -0.1975
 2677ntf    on519091   3.956   2.108   3.053 -0.2906  0.1115  0.3243
 2677ntf    on519092   4.025   2.340   3.017 -0.3840  0.0355  0.3067
 2677ntf    fn419093   4.304   2.228   3.045  0.1525 -0.4912  0.5890
 2677ntf    fn419094   4.183   2.231   3.212  0.4575  0.5051 -0.0373
 2677ntf    fn419095   4.217   2.043   3.120 -0.3313  0.3195  0.3804
 2678ntf    cn119096   0.685   0.992   2.647 -0.2714  0.0426 -0.2182
 2678ntf    sn219097   0.586   1.141   2.616 -0.3178 -0.0584 -0.5698
 2678ntf    nn319098   0.693   1.256   2.632  0.0879 -0.5416  0.3006
 2678ntf    sn219099   0.730   1.332   2.764 -0.0330  0.3310 -0.1636
 2678ntf    cn119100   0.602   1.462   2.768 -0.2544  0.1024  0.1954
 2678ntf    fn419101   0.607   0.887   2.661 -0.3393  0.1183 -0.0324
 2678ntf    fn419102   0.771   0.980   2.547  0.3237 -0.0174  0.2938
 2678ntf    fn419103   0.758   0.996   2.757 -0.1327  0.0358 -0.3095
 2678ntf    on519104   0.531   1.135   2.483  0.3353 -0.1481 -0.8425
 2678ntf    on519105   0.485   1.138   2.719  0.0800  0.3325 -0.1596
 2678ntf    on519106   0.853   1.405   2.750  0.0464  0.1932 -0.1839
 2678ntf    on519107   0.709   1.262   2.888 -1.2865  0.2653 -0.4017
 2678ntf    fn419108   0.615   1.538   2.875  0.0048 -0.3156  0.4660
 2678ntf    fn419109   0.627   1.533   2.659 -0.8108  0.1455  0.0941
 2678ntf    fn419110   0.474   1.430   2.757 -0.2703  0.3912 -0.5323
 2679ntf    cn119111   6.679   4.317   1.054  0.2964  0.4114 -0.0544
 2679ntf    sn219112   6.516   4.364   0.990  0.2099  0.1638 -0.0180
 2679ntf    nn319113   6.437   4.238   1.041 -0.1399  0.3060 -0.2044
 2679ntf    sn219114   6.281   4.215   1.037 -0.1087 -0.0333  0.4149
 2679ntf    cn119115   6.231   4.231   1.211  0.4108  0.2033  0.5468
 2679ntf    fn419116   6.771   4.410   1.040  0.0370  0.6424 -0.2317
 2679ntf    fn419117   6.685   4.288   1.183 -0.0191 -0.2978 -0.1958
 2679ntf    fn419118   6.725   4.212   0.987 -0.3333  0.0205  0.1170
 2679ntf    on519119   6.489   4.490   1.055 -0.3437  0.2034 -0.3109
 2679ntf    on519120   6.539   4.366   0.847  0.6047  0.6493  0.0531
 2679ntf    on519121   6.238   4.080   1.011  0.2396 -0.0324 -0.2061
 2679ntf    on519122   6.197   4.320   0.986 -0.3532 -0.3184  0.2309
 2679ntf    fn419123   6.284   4.347   1.248  0.0182  0.6372 -0.2139
 2679ntf    fn419124   6.101   4.220   1.237  0.2517 -0.3760 -0.4266
 2679ntf    fn419125   6.283   4.136   1.285  0.3894  0.0514  0.3683
 2680ntf    cn119126   5.590   3.626   2.117  0.6393 -0.0941  0.0745
 2680ntf    sn219127   5.643   3.490   2.008 -0.1906 -0.0709 -0.3687
 2680ntf    nn319128   5.777   3.448   2.079  0.0085 -0.6538 -1.0761
 2680ntf    sn219129   5.785   3.340   2.193 -0.0229  0.4110 -0.0426
 2680ntf    cn119130   5.862   3.198   2.109  0.2145  0.3099  0.3409
 2680ntf    fn419131   5.654   3.739   2.095 -0.1134  0.3505  0.1373
 2680ntf    fn419132   5.465   3.661   2.093  0.5025 -0.2901  0.4948
 2680ntf    fn419133   5.608   3.606   2.246 -0.1088  0.1481  0.2208
 2680ntf    on519134   5.536   3.394   2.010 -0.0957 -0.1701  0.1581
 2680ntf    on519135   5.677   3.547   1.880  0.6987 -0.4430 -0.3095
 2680ntf    on519136   5.665   3.282   2.250 -0.4915  0.3850 -1.0265
 2680ntf    on519137   5.885   3.370   2.292  0.1143 -0.0851 -0.0247
 2680ntf    fn419138   5.779   3.130   2.031 -0.0731  0.4199  0.5513
 2680ntf    fn419139   5.960   3.236   2.028 -0.1261  0.0838 -0.1853
 2680ntf    fn419140   5.917   3.111   2.191 -0.0109 -0.0324  0.1300
 2681ntf    cn119141   6.760   5.874   0.827 -0.4711  0.0458  0.4702
 2681ntf    sn219142   6.741   5.911   0.650 -0.3461  0.3693  0.5229
 2681ntf    nn319143   6.674   5.781   0.594  0.5759 -0.0768  0.4392
 2681ntf    sn219144   6.748   5.645   0.567 -0.0885 -0.2873 -0.3658
 2681ntf    cn119145   6.675   5.539   0.695 -0.2679 -0.0720 -0.2891
 2681ntf    fn419146   6.641   5.854   0.879 -0.5734  0.1223  0.2666
 2681ntf    fn419147   6.825   5.764   0.861 -0.4439 -0.0462  0.1297
 2681ntf    fn419148   6.813   5.975   0.894 -0.3421  0.1311  0.2420
 2681ntf    on519149   6.645   6.019   0.645 -0.6402  0.0889 -0.0586
 2681ntf    on519150   6.868   5.947   0.594 -0.4846 -0.1396 -0.1240
 2681ntf    on519151   6.889   5.641   0.597 -0.0237  0.2376 -0.5844
 2681ntf    on519152   6.705   5.584   0.443 -0.5998 -0.3593 -0.1551
 2681ntf    fn419153   6.544   5.529   0.683 -0.2742  0.1659 -0.4260
 2681ntf    fn419154   6.712   5.415   0.668 -0.2621 -0.1696  0.1510
 2681ntf    fn419155   6.707   5.574   0.819 -0.7904 -0.0871 -0.1463
 2682ntf    cn119156   6.887   3.800   3.180  0.0226 -0.3989 -0.2682
 2682ntf    sn219157   7.039   3.704   3.204 -0.0160 -0.5287 -0.5315
 2682ntf    nn319158   7.106   3.740   3.067  0.0077  0.6418 -0.2228
 2682ntf    sn219159   7.238   3.822   3.044  0.3467  0.1258 -0.1240
 2682ntf    cn119160   7.359   3.691   3.008  0.2765  0.0017  0.0868
 2682ntf    fn419161   6.830   3.840   3.292  0.4724  0.0819 -0.2095
 2682ntf    fn419162   6.913   3.912   3.115  0.0681 -0.1874  0.1152
 2682ntf    fn419163   6.796   3.735   3.109 -0.1974  0.1400 -0.4857
 2682ntf    on519164   7.096   3.759   3.325 -0.4849 -0.3746 -0.3780
 2682ntf    on519165   6.993   3.568   3.216 -0.6658 -0.2558  0.1230
 2682ntf    on519166   7.297   3.889   3.158 -0.2049  0.1013  0.1804
 2682ntf    on519167   7.233   3.891   2.918  0.3274 -0.0262 -0.2071
 2682ntf    fn419168   7.352   3.644   2.884  0.3493  0.3016 -0.0328
 2682ntf    fn419169   7.484   3.727   3.027  0.0632  0.3848  0.8156
 2682ntf    fn419170   7.341   3.583   3.082 -0.3242 -0.1883 -0.3268
 2683ntf    cn119171   6.635   0.129   6.867 -0.0646 -0.0379 -0.1793
 2683ntf    sn219172   6.766   0.166   6.988 -0.0759 -0.3735 -0.0613
 2683ntf    nn319173   6.683   0.167   7.122 -0.3333 -0.0310 -0.2215
 2683ntf    sn219174   6.672   0.051   7.227  0.1363  0.1513  0.0349
 2683ntf    cn119175   6.805   0.095   7.342 -0.0961  0.0534  0.3404
 2683ntf    fn419176   6.578   0.012   6.894  0.3516 -0.2607 -0.2671
 2683ntf    fn419177   6.533   0.212   6.879  0.5817  0.7188  0.1956
 2683ntf    fn419178   6.670   0.117   6.740 -0.5310  0.2131 -0.3349
 2683ntf    on519179   6.873   0.071   6.974  0.3674  0.2274 -0.8691
 2683ntf    on519180   6.810   0.302   6.965  0.1680 -0.3825  0.3505
 2683ntf    on519181   6.708  -0.080   7.180 -0.1932  0.0518  0.0592
 2683ntf    on519182   6.559   0.052   7.317 -0.2135  0.5229 -0.3998
 2683ntf    fn419183   6.928   0.102   7.296  0.0940  0.0090  0.8306
 2683ntf    fn419184   6.790   0.219   7.384  0.3539  0.2749 -0.1478
 2683ntf    fn419185   6.809   0.021   7.452  0.1377  0.2808  0.4858
 2684ntf    cn119186   0.063   1.584   0.699 -0.2371  0.5983 -0.4835
 2684ntf    sn219187   0.159   1.695   0.592  0.4241  0.5981  0.0970
 2684ntf    nn319188   0.075   1.827   0.611 -0.5024  0.0085  0.1407
 2684ntf    sn219189   0.082   1.942   0.717 -0.0142 -0.0146  0.1325
 2684ntf    cn119190   0.172   2.062   0.613 -0.5518  0.3143  0.0452
 2684ntf    fn419191  -0.060   1.557   0.660 -0.3508  0.0571  0.2266
 2684ntf    fn419192   0.134   1.474   0.719  0.0797  0.9680  0.4996
 2684ntf    fn419193   0.053   1.634   0.821  0.0852 -0.4272 -0.0275
 2684ntf    on519194   0.293   1.685   0.643  0.1816  0.4500  0.7151
 2684ntf    on519195   0.142   1.649   0.456 -0.2264  0.2696  0.2847
 2684ntf    on519196   0.170   1.919   0.829  0.0341  0.3035  0.1599
 2684ntf    on519197  -0.047   2.000   0.745 -0.4402 -0.5102 -0.7556
 2684ntf    fn419198   0.199   2.173   0.679  0.3650  0.1187  0.0030
 2684ntf    fn419199   0.287   2.008   0.577 -0.2563  1.1608 -0.2801
 2684ntf    fn419200   0.107   2.099   0.504  0.0520 -0.2340 -0.5098
 2685ntf    cn119201   3.572   3.308   3.386  0.1321 -0.1034  0.1265
 2685ntf    sn219202   3.735   3.371   3.437  0.2157 -0.0411 -0.2144
 2685ntf    nn319203   3.764   3.263   3.548 -0.1340  0.0095 -0.0700
 2685ntf    sn219204   3.857   3.137   3.536 -0.1466  0.0264 -0.3622
 2685ntf    cn119205   3.983   3.197   3.653 -0.1242 -0.1691 -0.2861
 2685ntf    fn419206   3.535   3.381   3.283  0.2441 -0.2821 -0.0428
 2685ntf    fn419207   3.571   3.184   3.340 -0.1299 -0.2838  0.6056
 2685ntf    fn419208   3.484   3.327   3.483 -0.4592  0.6481 -0.5510
 2685ntf    on519209   3.811   3.345   3.318  0.2378 -0.6711 -0.0670
 2685ntf    on519210   3.703   3.504   3.483  0.3955  0.0439 -0.3341
 2685ntf    on519211   3.938   3.123   3.417  0.1769 -0.4869 -0.0862
 2685ntf    on519212   3.806   3.021   3.605 -0.1167  0.5279  0.5293
 2685ntf    fn419213   4.065   3.290   3.609  0.0764 -0.1312  0.1626
 2685ntf    fn419214   3.930   3.237   3.767  0.6703 -0.2435  0.1205
 2685ntf    fn419215   4.065   3.099   3.690 -0.0020  0.0824  0.1118
 2686ntf    cn119216   4.446   6.003   2.245  0.2519  0.1681  0.5456
 2686ntf    sn219217   4.392   6.168   2.299  0.0118  0.2848 -0.0403
 2686ntf    nn319218   4.450   6.165   2.445  0.0729  0.1178 -0.0681
 2686ntf    sn219219   4.563   6.250   2.513  0.3152 -0.1801 -0.0925
 2686ntf    cn119220   4.447   6.382   2.562 -0.0242 -0.3733 -0.3717
 2686ntf    fn419221   4.578   5.991   2.237  0.1408 -0.6171 -0.2781
 2686ntf    fn419222   4.404   5.913   2.332 -0.3791 -0.1207 -0.0527
 2686ntf    fn419223   4.399   5.962   2.129  0.6159  0.1181  0.4129
 2686ntf    on519224   4.459   6.256   2.207  0.5206 -0.0967 -0.0375
 2686ntf    on519225   4.248   6.166   2.303  0.0282 -0.6103  0.5810
 2686ntf    on519226   4.656   6.309   2.420 -0.0784  0.0734 -0.3275
 2686ntf    on519227   4.619   6.192   2.633  0.3544  0.0404 -0.0025
 2686ntf    fn419228   4.499   6.464   2.652  0.0298  0.0567 -0.7932
 2686ntf    fn419229   4.394   6.449   2.462  0.3807  0.5697  0.0323
 2686ntf    fn419230   4.344   6.326   2.624  0.1012 -0.7773 -0.5261
 2687ntf    cn119231   4.427   1.526   5.855 -0.1993  0.0599 -0.1043
 2687ntf    sn219232   4.608   1.517   5.835 -0.1633  0.1067  0.2026
 2687ntf    nn319233   4.650   1.381   5.902  0.1467  0.0397 -0.1250
 2687ntf    sn219234   4.692   1.340   6.047  0.0530 -0.0226 -0.1158
 2687ntf    cn119235   4.872   1.364   6.036 -0.0104  0.5391  0.0708
 2687ntf    fn419236   4.394   1.495   5.979 -0.3828 -0.3067 -0.2437
 2687ntf    fn419237   4.381   1.649   5.839 -0.2851  0.0778  0.2858
 2687ntf    fn419238   4.354   1.440   5.785  0.0740 -0.1282 -0.1591
 2687ntf    on519239   4.617   1.508   5.692 -0.2248  0.2671  0.1881
 2687ntf    on519240   4.659   1.634   5.901 -0.5903  0.5270 -0.2007
 2687ntf    on519241   4.684   1.197   6.069 -0.2041 -0.0148 -0.1519
 2687ntf    on519242   4.656   1.431   6.153  0.2687 -0.2443  0.1534
 2687ntf    fn419243   4.906   1.490   6.061  0.9622  0.2867  0.0633
 2687ntf    fn419244   4.935   1.281   6.117 -0.4902 -0.1539 -0.2584
 2687ntf    fn419245   4.919   1.339   5.915 -0.3375  0.0900  0.0358
 2688ntf    cn119246   5.934   1.467   2.921  0.2133  0.1448  0.1905
 2688ntf    sn219247   6.021   1.331   2.837 -0.1427  0.0054  0.0486
 2688ntf    nn319248   6.164   1.345   2.899  0.0136 -0.6265 -0.1583
 2688ntf    sn219249   6.295   1.408   2.838  0.0430 -0.3746  0.1640
 2688ntf    cn119250   6.378   1.264   2.764  0.5587  0.0423 -0.0716
 2688ntf    fn419251   5.990   1.582   2.886  0.1417 -0.0137 -0.4577
 2688ntf    fn419252   5.810   1.482   2.879  0.2222 -1.0017 -0.2808
 2688ntf    fn419253   5.937   1.451   3.052  0.3029 -0.6027  0.1014
 2688ntf    on519254   5.956   1.209   2.880 -0.4111 -0.1581 -0.7910
 2688ntf    on519255   6.006   1.362   2.697 -0.6728  0.2765  0.1649
 2688ntf    on519256   6.389   1.456   2.937  0.4075 -0.2194 -0.2580
 2688ntf    on519257   6.279   1.498   2.727  0.3803 -0.0896  0.3439
 2688ntf    fn419258   6.369   1.156   2.840 -0.3152  0.0477 -0.1547
 2688ntf    fn419259   6.315   1.226   2.654 -0.4183  0.2219  0.4119
 2688ntf    fn419260   6.503   1.285   2.725  0.7447 -0.4095  0.2737
 2689ntf    cn119261   2.803   6.710   4.705  0.1997  0.1430 -0.2998
 2689ntf    sn219262   2.966   6.769   4.759  0.1382 -0.1291  0.1928
 2689ntf    nn319263   3.054   6.696   4.651 -0.0934  0.2745 -0.2701
 2689ntf    sn219264   3.195   6.735   4.595  0.1285  0.2890  0.2919
 2689ntf    cn119265   3.299   6.610   4.678  0.0150  0.0005  0.0011
 2689ntf    fn419266   2.771   6.752   4.584  0.2764  0.1875 -0.3049
 2689ntf    fn419267   2.793   6.578   4.706 -0.1121  0.1668 -0.0553
 2689ntf    fn419268   2.699   6.749   4.777  0.1681 -0.3858 -0.0528
 2689ntf    on519269   2.958   6.912   4.747  0.9371 -0.0985 -0.0640
 2689ntf    on519270   2.980   6.712   4.891  0.4107 -0.3305  0.0795
 2689ntf    on519271   3.251   6.862   4.635  0.3523  0.3278 -0.1359
 2689ntf    on519272   3.229   6.699   4.459  0.7508  0.0672  0.5035
 2689ntf    fn419273   3.417   6.592   4.620 -0.1580 -0.0684 -0.3351
 2689ntf    fn419274   3.326   6.645   4.802  0.0540 -0.1738  0.0414
 2689ntf    fn419275   3.240   6.492   4.685 -0.1924  0.1026 -0.0157
 2690ntf    cn119276   6.768   4.589   5.377  0.0088 -0.1839  0.1610
 2690ntf    sn219277   6.765   4.695   5.526  0.1245 -0.0160  0.0446
 2690ntf    nn319278   6.836   4.821   5.466  0.4834 -0.0932  0.3029
 2690ntf    sn219279   6.867   4.960   5.532 -0.2596  0.0162  0.4280
 2690ntf    cn119280   6.735   5.057   5.454  0.2300  0.0572 -0.3516
 2690ntf    fn419281   6.896   4.585   5.343  0.0130  0.3331  0.1057
 2690ntf    fn419282   6.727   4.464   5.394 -0.8194 -0.0094 -0.4939
 2690ntf    fn419283   6.693   4.635   5.278  0.1543  0.0427  0.1552
 2690ntf    on519284   6.625   4.708   5.556  0.1951  0.5419  0.1283
 2690ntf    on519285   6.848   4.630   5.624  0.2947  0.0802 -0.0367
 2690ntf    on519286   6.990   5.014   5.480 -0.1186 -0.2657  0.4667
 2690ntf    on519287   6.847   4.972   5.675 -0.0611  0.2356  0.4378
 2690ntf    fn419288   6.745   5.189   5.459 -0.0245  0.0700 -0.1619
 2690ntf    fn419289   6.707   5.023   5.329  0.1687 -0.3600 -0.2247
 2690ntf    fn419290   6.618   5.033   5.512  0.2114  0.3143 -0.2790
 2691ntf    cn119291   1.116   2.062   2.827  0.1053 -0.0381  0.0077
 2691ntf    sn219292   1.201   1.968   2.697 -0.1615 -0.0583 -0.1533
 2691ntf    nn319293   1.175   2.078   2.587  0.2925  0.1491 -0.0561
 2691ntf    sn219294   1.054   2.101   2.490  0.0973 -0.2749  0.0866
 2691ntf    cn119295   1.152   2.158   2.349 -0.1025 -0.0406  0.0413
 2691ntf    fn419296   1.175   2.180   2.844  0.2384 -0.1090  0.0377
 2691ntf    fn419297   0.991   2.087   2.792  0.2669  0.3274 -0.3239
 2691ntf    fn419298   1.118   2.015   2.950 -0.0782 -0.6272 -0.2129
 2691ntf    on519299   1.340   1.976   2.734 -0.3533  0.5816  0.4409
 2691ntf    on519300   1.136   1.840   2.693  0.2839 -0.2813 -0.2794
 2691ntf    on519301   0.978   2.216   2.532 -0.7530 -0.7061 -0.2518
 2691ntf    on519302   0.987   1.980   2.449  0.0320 -0.1843 -0.0761
 2691ntf    fn419303   1.077   2.191   2.245  0.1164 -0.4639 -0.2590
 2691ntf    fn419304   1.233   2.259   2.377 -0.5229  0.4511 -0.4741
 2691ntf    fn419305   1.226   2.063   2.293  0.0163 -0.3784  0.7579
 2692ntf    cn119306   3.136   4.402   5.713  0.2327 -0.0602  0.1895
 2692ntf    sn219307   2.982   4.395   5.808  0.0621 -0.1748 -0.0952
 2692ntf    nn319308   2.948   4.244   5.778  0.0765 -0.1550 -0.2107
 2692ntf    sn219309   2.833   4.193   5.684 -0.2800 -0.0526  0.1639
 2692ntf    cn119310   2.695   4.176   5.801 -0.2540  0.2119  0.2337
 2692ntf    fn419311   3.224   4.306   5.741  0.2179 -0.0863  0.1453
 2692ntf    fn419312   3.117   4.390   5.583 -0.2024 -0.1230  0.2572
 2692ntf    fn419313   3.199   4.518   5.726 -0.4011  0.3170 -0.0833
 2692ntf    on519314   3.036   4.427   5.938 -0.4414 -0.0060  0.0746
 2692ntf    on519315   2.899   4.499   5.753 -0.1699 -0.1485  0.2929
 2692ntf    on519316   2.853   4.054   5.648 -0.3697 -0.1004  0.2969
 2692ntf    on519317   2.785   4.284   5.584 -0.3374 -0.3354 -0.0681
 2692ntf    fn419318   2.577   4.141   5.752 -0.1779  0.6439 -0.2654
 2692ntf    fn419319   2.726   4.101   5.906 -0.2618 -0.2215 -0.0677
 2692ntf    fn419320   2.683   4.296   5.855 -0.5649  0.0667  0.4884
 2693ntf    cn119321   1.052   6.007   4.169 -0.0020  0.2555  0.3270
 2693ntf    sn219322   0.927   5.889   4.110  0.3500  0.1042 -0.1290
 2693ntf    nn319323   1.001   5.828   3.986 -0.1891  0.6259 -0.7079
 2693ntf    sn219324   1.026   5.679   3.942 -0.4256  0.3814 -0.0218
 2693ntf    cn119325   1.207   5.682   3.962 -0.4378  0.4420  0.0792
 2693ntf    fn419326   1.011   6.055   4.285 -0.4136  0.6491  0.0200
 2693ntf    fn419327   1.168   5.945   4.190  0.2722  0.7535  0.3040
 2693ntf    fn419328   1.063   6.108   4.085  0.3852  0.1930  0.2963
 2693ntf    on519329   0.926   5.797   4.222 -0.1711  0.2644  0.0009
 2693ntf    on519330   0.808   5.966   4.084  0.3022 -0.0863 -0.4871
 2693ntf    on519331   0.999   5.657   3.802 -0.3186  0.1726 -0.0095
 2693ntf    on519332   0.974   5.568   4.018  0.2289 -0.0624 -0.2157
 2693ntf    fn419333   1.257   5.560   3.973 -0.5356  0.4248  0.3356
 2693ntf    fn419334   1.266   5.742   3.860 -0.3785  0.5362  0.1688
 2693ntf    fn419335   1.244   5.732   4.079 -0.0036 -0.2423  0.2368
 2694ntf    cn119336   1.165   1.856   1.250  0.5737  0.5004  0.2191
 2694ntf    sn219337   0.997   1.925   1.241  0.2276 -0.4079 -0.3919
 2694ntf    nn319338   1.037   2.074   1.211 -0.3525 -0.2147 -0.2312
 2694ntf    sn219339   1.024   2.163   1.082  0.6577  0.1799 -0.0715
 2694ntf    cn119340   1.184   2.245   1.061  0.5587  0.4012  0.0367
 2694ntf    fn419341   1.249   1.942   1.305  0.9768  0.3497 -0.1565
 2694ntf    fn419342   1.166   1.746   1.323 -0.7525  0.2152 -0.1572
 2694ntf    fn419343   1.209   1.813   1.133  0.1230  0.0115  0.2257
 2694ntf    on519344   0.935   1.846   1.137  0.1618 -0.1808 -0.5252
 2694ntf    on519345   0.942   1.917   1.374  0.2902 -0.1153 -0.3477
 2694ntf    on519346   0.931   2.266   1.120  0.0496 -0.3827 -0.0161
 2694ntf    on519347   0.996   2.095   0.958 -0.1258 -0.4284  0.4212
 2694ntf    fn419348   1.256   2.157   0.993  0.0845  0.3553 -0.4120
 2694ntf    fn419349   1.183   2.359   0.994 -0.5653  0.4984  0.2015
 2694ntf    fn419350   1.248   2.269   1.174 -0.0528  0.5249  0.3578
 2695ntf    cn119351   0.124   3.357   6.319  0.3920 -0.0971 -0.1548
 2695ntf    sn219352   0.149   3.365   6.498 -0.2126  0.0160 -0.0710
 2695ntf    nn319353   0.261   3.475   6.503 -0.1878  0.0157 -0.6624
 2695ntf    sn219354   0.414   3.442   6.487 -0.1510 -0.0720 -0.1305
 2695ntf    cn119355   0.461   3.395   6.656  0.0877  0.2586 -0.1056
 2695ntf    fn419356   0.231   3.314   6.255  0.0325 -0.3361 -0.6074
 2695ntf    fn419357   0.027   3.274   6.282  0.2956  0.1332 -0.4261
 2695ntf    fn419358   0.091   3.475   6.269  0.0173  0.1844  0.7423
 2695ntf    on519359   0.018   3.398   6.549 -0.1101  0.2867  0.0219
 2695ntf    on519360   0.190   3.229   6.524  0.5948  0.3639  0.5447
 2695ntf    on519361   0.497   3.557   6.462 -0.1374 -0.0406  0.0562
 2695ntf    on519362   0.447   3.322   6.414 -0.7390 -0.5452  0.3680
 2695ntf    fn419363   0.586   3.353   6.665  0.0482  0.0541 -0.5117
 2695ntf    fn419364   0.437   3.500   6.733 -0.0947  0.2403 -0.1364
 2695ntf    fn419365   0.391   3.294   6.704 -0.0409  0.1211 -0.5833
 2696ntf    cn119366   3.871   5.035   1.442  0.0569  0.1027  0.0367
 2696ntf    sn219367   4.052   5.026   1.449  0.0320 -0.0671  0.4688
 2696ntf    nn319368   4.088   4.894   1.372  0.4543  0.2266  0.1593
 2696ntf    sn219369   4.102   4.749   1.430 -0.0722  0.0740 -0.0825
 2696ntf    cn119370   4.284   4.751   1.428 -0.0658 -0.4705 -0.2293
 2696ntf    fn419371   3.803   4.946   1.512  0.0215  0.3248  0.2853
 2696ntf    fn419372   3.828   5.143   1.506 -0.0154  0.4820 -0.6406
 2696ntf    fn419373   3.832   5.042   1.315  0.6668 -1.1459 -0.2381
 2696ntf    on519374   4.092   5.138   1.367  0.5174 -0.3043  0.3781
 2696ntf    on519375   4.085   5.038   1.589  0.2099 -0.0069  0.4220
 2696ntf    on519376   4.068   4.654   1.327  0.2907 -0.0114 -0.1257
 2696ntf    on519377   4.071   4.712   1.566  0.4373  0.2934  0.0995
 2696ntf    fn419378   4.341   4.842   1.505  0.1004 -0.5583 -0.2480
 2696ntf    fn419379   4.332   4.637   1.474 -0.5294 -0.4950  0.1925
 2696ntf    fn419380   4.331   4.774   1.306  0.1708  0.8421  0.0892
 2697ntf    cn119381   3.539   2.161   4.267  0.0423  0.3150 -0.3313
 2697ntf    sn219382   3.612   2.234   4.416 -0.0206 -0.0925 -0.0980
 2697ntf    nn319383   3.709   2.343   4.357  0.1131 -0.0708  0.1597
 2697ntf    sn219384   3.866   2.337   4.362  0.1282  0.1080 -0.0887
 2697ntf    cn119385   3.907   2.289   4.191  0.1585 -0.2179  0.0104
 2697ntf    fn419386   3.456   2.060   4.287 -0.3910  0.7449  0.0850
 2697ntf    fn419387   3.483   2.251   4.187  0.1047  0.3813 -0.3000
 2697ntf    fn419388   3.632   2.114   4.186 -0.5392 -0.1754 -0.7246
 2697ntf    on519389   3.501   2.293   4.486 -0.1171 -0.2637 -0.1089
 2697ntf    on519390   3.672   2.128   4.492  0.3857  0.6757  0.6739
 2697ntf    on519391   3.935   2.248   4.452  0.6250  0.1175 -0.4529
 2697ntf    on519392   3.912   2.474   4.366  0.1473  0.0882  0.3356
 2697ntf    fn419393   3.838   2.353   4.099 -0.1221  0.4445  0.6725
 2697ntf    fn419394   4.035   2.296   4.161  0.1824 -0.1592  0.1238
 2697ntf    fn419395   3.874   2.164   4.161  0.3992 -0.1941 -0.3480
 2698ntf    cn119396   6.839   0.838   3.295 -0.3558  0.4268 -0.0840
 2698ntf    sn219397   6.681   0.770   3.237 -0.0900 -0.1301 -0.1709
 2698ntf    nn319398   6.733   0.625   3.209  0.5522  0.0943 -0.1492
 2698ntf    sn219399   6.725   0.542   3.075 -0.2220 -0.0672 -0.0064
 2698ntf    cn119400   6.866   0.613   2.985 -0.1835  0.0008  0.1058
 2698ntf    fn419401   6.937   0.813   3.209 -0.4508 -0.2404 -0.0037
 2698ntf    fn419402   6.841   0.968   3.320 -0.2932  0.3613  0.2500
 2698ntf    fn419403   6.891   0.785   3.404 -0.7848  0.2760  0.0489
 2698ntf    on519404   6.597   0.787   3.353  0.1970  0.8729 -0.0973
 2698ntf    on519405   6.646   0.855   3.125 -0.1223 -0.1397 -0.1680
 2698ntf    on519406   6.607   0.577   3.000  0.3024 -0.0871 -0.8481
 2698ntf    on519407   6.751   0.402   3.099  0.1795  0.0928  0.5115
 2698ntf    fn419408   6.878   0.550   2.868  0.9999  0.1816  0.1187
 2698ntf    fn419409   6.843   0.741   2.960  0.3051  0.1351  0.3338
 2698ntf    fn419410   6.980   0.605   3.050 -0.1406  0.0385  0.0358
 2699ntf    cn119411   0.840   1.188   0.914 -0.0162 -0.2578  0.0465
 2699ntf    sn219412   0.969   1.315   0.898 -0.3056  0.0676  0.2684
 2699ntf    nn319413   1.056   1.249   0.785 -0.7524 -0.1357  0.0399
 2699ntf    sn219414   1.035   1.234   0.631  0.0844 -0.1550 -0.0770
 2699ntf    cn119415   1.197   1.176   0.571  0.0840  0.0626 -0.2884
 2699ntf    fn419416   0.882   1.069   0.953  0.3443 -0.1691 -0.0695
 2699ntf    fn419417   0.732   1.230   0.979 -0.2354 -0.6947 -0.0298
 2699ntf    fn419418   0.789   1.168   0.794 -0.5500  0.7072  0.0962
 2699ntf    on519419   0.895   1.432   0.860 -0.5038 -0.0938  0.1553
 2699ntf    on519420   1.037   1.319   1.026  0.5774  0.3316 -0.2007
 2699ntf    on519421   1.006   1.354   0.555 -0.0838 -0.5664 -0.6741
 2699ntf    on519422   0.950   1.121   0.604 -0.0645  0.0034 -0.2762
 2699ntf    fn419423   1.229   1.051   0.600  0.4273  0.1856 -0.1368
 2699ntf    fn419424   1.206   1.184   0.439 -0.2228  0.6621 -0.2770
 2699ntf    fn419425   1.294   1.255   0.613 -0.0671  0.2884 -0.3554
 2700ntf    cn119426   1.560   5.404   4.188 -0.2247  0.0184 -0.4723
 2700ntf    sn219427   1.505   5.231   4.181 -0.0432 -0.0583 -0.0061
 2700ntf    nn319428   1.625   5.144   4.233  0.3100  0.3899 -0.0667
 2700ntf    sn219429   1.646   5.067   4.368  0.0276 -0.2195 -0.3704
 2700ntf    cn119430   1.729   4.913   4.316 -0.0874 -0.3836 -0.0759
 2700ntf    fn419431   1.553   5.457   4.066  0.2987  0.2626 -0.3977
 2700ntf    fn419432   1.494   5.484   4.271 -0.3914 -0.1482 -0.4450
 2700ntf    fn419433   1.687   5.408   4.223 -0.3747  0.7714  0.0228
 2700ntf    on519434   1.390   5.230   4.268  0.0092 -0.0349  0.0639
 2700ntf    on519435   1.472   5.211   4.042 -0.2441 -0.1892  0.0607
 2700ntf    on519436   1.525   5.026   4.435  0.4727 -0.3841  0.3521
 2700ntf    on519437   1.745   5.122   4.457 -0.5193 -0.2768  0.2879
 2700ntf    fn419438   1.769   4.844   4.421  0.2669  0.6128  0.4591
 2700ntf    fn419439   1.636   4.841   4.255 -0.3659 -0.2525  0.1892
 2700ntf    fn419440   1.838   4.935   4.245  0.1297 -0.3848  0.2562
   7.01364   7.01364   7.01364
