Converted from moscito
 3240
    1SOL     ow    1   0.233   1.452   5.068 -0.2258  0.0594 -0.1460
    1SOL     hw    2   0.180   1.500   5.003 -0.2583  0.6854  0.3331
    1SOL     hw    3   0.169   1.422   5.133 -0.1332 -0.1831 -0.1656
    1SOL     vw    4   0.217   1.454   5.068  0.0024 -0.0307 -0.0207
    2SOL     ow    5   1.386   0.863   5.730 -1.0470 -0.8273  0.1641
    2SOL     hw    6   1.376   0.936   5.669 -0.0648 -0.3092  0.6076
    2SOL     hw    7   1.391   0.786   5.674 -1.1747 -0.4611 -0.3552
    2SOL     vw    8   1.385   0.862   5.715  0.0605 -0.0380 -0.0255
    3SOL     ow    9   1.456   0.683   6.495 -0.6070 -0.0530 -0.5209
    3SOL     hw   10   1.367   0.654   6.476 -1.4748  1.6896  0.5909
    3SOL     hw   11   1.451   0.721   6.583  0.7238  2.0450 -1.2677
    3SOL     vw   12   1.444   0.684   6.504  0.0171  0.0449 -0.0315
    4SOL     ow   13   1.280   0.221   1.264  0.0225 -0.8759  0.1523
    4SOL     hw   14   1.369   0.242   1.235 -0.1042  3.8329  2.2106
    4SOL     hw   15   1.293   0.163   1.340  1.4990  0.4507  0.9829
    4SOL     vw   16   1.294   0.216   1.270 -0.0431 -0.0291  0.0428
    5SOL     ow   17   1.801   0.888   4.070 -0.2643 -0.3112  0.5593
    5SOL     hw   18   1.765   0.812   4.116 -1.1202 -1.2119 -1.4473
    5SOL     hw   19   1.890   0.897   4.105 -0.2230 -2.0912  1.0430
    5SOL     vw   20   1.808   0.879   4.081 -0.0901 -0.0715 -0.0875
    6SOL     ow   21   0.071   0.469   4.444 -0.8275  0.2147 -0.4921
    6SOL     hw   22   0.091   0.518   4.524  0.2653  0.8683 -1.1594
    6SOL     hw   23   0.028   0.389   4.476 -0.6209  0.5702  0.7307
    6SOL     vw   24   0.068   0.465   4.459 -0.0632  0.0426 -0.0739
    7SOL     ow   25   1.486   1.399   6.171 -0.3780 -0.5298 -0.0964
    7SOL     hw   26   1.534   1.359   6.098  3.3175 -1.1473  2.4057
    7SOL     hw   27   1.548   1.400   6.243 -3.0568  2.1441  2.4702
    7SOL     vw   28   1.500   1.394   6.171 -0.1419 -0.0580  0.0587
    8SOL     ow   29   2.217   0.518   4.303 -0.0701  0.1048  0.4700
    8SOL     hw   30   2.302   0.555   4.283 -0.8122  2.2910  1.1015
    8SOL     hw   31   2.185   0.483   4.220  2.3815 -3.0136  0.6661
    8SOL     vw   32   2.224   0.518   4.290  0.0423 -0.0017  0.0198
    9SOL     ow   33   1.329   2.286   0.205  0.0424  0.9234  0.3200
    9SOL     hw   34   1.284   2.202   0.198 -0.1191  0.9568  0.9140
    9SOL     hw   35   1.268   2.350   0.167 -1.0947  1.1989  2.4732
    9SOL     vw   36   1.315   2.284   0.199 -0.0099 -0.0013  0.0608
   10SOL     ow   37   1.037   1.657   5.866  0.5770  0.5562 -0.3127
   10SOL     hw   38   0.976   1.673   5.938 -0.2481  0.3875 -0.9617
   10SOL     hw   39   1.015   1.569   5.834  0.7274  0.7493 -0.9666
   10SOL     vw   40   1.026   1.647   5.871 -0.0806 -0.0441 -0.0470
   11SOL     ow   41   1.280   1.500   1.924 -0.0034  0.2846  0.2035
   11SOL     hw   42   1.213   1.560   1.956  0.1994  1.4163 -1.3827
   11SOL     hw   43   1.233   1.421   1.900 -0.6347  0.7032  0.0407
   11SOL     vw   44   1.265   1.497   1.925 -0.0092 -0.0260 -0.0065
   12SOL     ow   45   1.157   1.244   4.035  0.3086 -0.2803 -0.6089
   12SOL     hw   46   1.127   1.333   4.020  0.8573 -0.0313 -0.2732
   12SOL     hw   47   1.115   1.192   3.967  0.6443  0.3678 -1.3266
   12SOL     vw   48   1.148   1.249   4.024 -0.0214 -0.0187  0.0067
   13SOL     ow   49   1.409   0.656   1.270 -0.1807  0.4621 -0.3224
   13SOL     hw   50   1.337   0.593   1.266 -0.3731  0.7066 -0.8892
   13SOL     hw   51   1.450   0.641   1.355 -0.0218 -0.6313 -0.5887
   13SOL     vw   52   1.405   0.646   1.281 -0.0052 -0.0027  0.0571
   14SOL     ow   53   1.854   0.899   5.161 -0.0207  0.1263  0.2119
   14SOL     hw   54   1.908   0.851   5.098  0.6522 -1.6094  2.0210
   14SOL     hw   55   1.764   0.874   5.140  0.2194 -0.6739  0.1186
   14SOL     vw   56   1.849   0.890   5.150  0.0086 -0.0732  0.0513
   15SOL     ow   57   0.072   1.659   0.895  0.1007 -0.7441 -0.2291
   15SOL     hw   58   0.155   1.700   0.919  0.1002 -0.6015 -0.4781
   15SOL     hw   59   0.006   1.725   0.914  0.0971 -0.6406 -0.5997
   15SOL     vw   60   0.074   1.673   0.901 -0.0561 -0.0562 -0.0346
   16SOL     ow   61   1.896   1.207   4.348  0.2138 -0.0505  0.6641
   16SOL     hw   62   1.972   1.202   4.289 -0.5330 -1.7572 -0.2288
   16SOL     hw   63   1.846   1.282   4.316 -0.7957 -1.6121 -1.7838
   16SOL     vw   64   1.900   1.216   4.336 -0.0471 -0.0756  0.0076
   17SOL     ow   65   0.161   2.391   5.774  0.4195 -0.1640  0.1546
   17SOL     hw   66   0.212   2.450   5.718 -0.9743 -0.5784 -1.6229
   17SOL     hw   67   0.128   2.324   5.714  1.5786 -2.5517  2.0326
   17SOL     vw   68   0.164   2.390   5.759 -0.0093  0.0230  0.0396
   18SOL     ow   69   1.575   1.933   0.303 -0.3595  0.1796  0.1325
   18SOL     hw   70   1.500   1.928   0.362 -1.1626  1.1910 -0.7528
   18SOL     hw   71   1.608   1.843   0.299 -0.4535  0.0383  1.8713
   18SOL     vw   72   1.569   1.920   0.310 -0.0659  0.0128  0.0174
   19SOL     ow   73   0.765   0.582   0.400  0.0802 -0.3433  0.1909
   19SOL     hw   74   0.687   0.629   0.428 -0.0030  0.6508 -1.5396
   19SOL     hw   75   0.838   0.630   0.440 -0.1114  0.0873  0.0385
   19SOL     vw   76   0.765   0.595   0.409  0.0164 -0.0994  0.0857
   20SOL     ow   77   0.635   1.477   6.615  0.4282  0.1404 -0.0494
   20SOL     hw   78   0.580   1.497   6.538 -0.7131 -0.0420  0.6901
   20SOL     hw   79   0.681   1.397   6.591 -1.5729 -1.1682  0.2299
   20SOL     vw   80   0.634   1.469   6.602  0.0308  0.0604 -0.0286
   21SOL     ow   81   0.210   2.461   1.146 -0.0212 -0.0226  0.2296
   21SOL     hw   82   0.222   2.371   1.174 -1.0063  0.1716  1.3664
   21SOL     hw   83   0.297   2.501   1.155  0.3403 -0.7678  0.0472
   21SOL     vw   84   0.223   2.455   1.151  0.0409  0.0543 -0.1329
   22SOL     ow   85   2.274   0.523   6.057  0.1256  0.4864 -0.2233
   22SOL     hw   86   2.299   0.604   6.101  2.3298 -0.1674 -0.1614
   22SOL     hw   87   2.338   0.512   5.987 -0.7058 -0.7221 -0.8414
   22SOL     vw   88   2.285   0.532   6.054  0.0336 -0.0627  0.0591
   23SOL     ow   89   1.546   0.572   3.277 -0.0311 -0.8456 -0.1150
   23SOL     hw   90   1.537   0.492   3.329 -0.1627  0.1120  1.3832
   23SOL     hw   91   1.587   0.543   3.196 -0.0642 -2.4306  0.4018
   23SOL     vw   92   1.550   0.558   3.273 -0.0595  0.0068 -0.0637
   24SOL     ow   93   0.710   0.134   3.974 -0.0303 -0.4159  0.3806
   24SOL     hw   94   0.720   0.078   4.051 -2.4965  0.1672  1.2000
   24SOL     hw   95   0.718   0.075   3.899 -2.1826 -1.8468  1.2123
   24SOL     vw   96   0.713   0.119   3.974 -0.0199  0.0117  0.0411
   25SOL     ow   97   0.921   0.933   1.588  0.3316 -0.2314  0.3023
   25SOL     hw   98   0.959   0.985   1.658 -0.2584  0.3058  0.2283
   25SOL     hw   99   0.991   0.873   1.561  0.4495 -0.7002  1.5976
   25SOL     vw  100   0.935   0.932   1.594 -0.0235 -0.0426 -0.0039
   26SOL     ow  101   1.179   0.079   3.999 -0.0687  0.1914 -0.1706
   26SOL     hw  102   1.256   0.043   4.042 -0.8561  0.4941  1.6142
   26SOL     hw  103   1.107   0.023   4.028 -0.7813  1.0198 -0.3028
   26SOL     vw  104   1.179   0.067   4.009  0.0433  0.0993 -0.0045
   27SOL     ow  105   0.032   2.162   6.140  0.5396  0.6007  0.0330
   27SOL     hw  106   0.084   2.241   6.128 -0.2647  1.2727  0.9145
   27SOL     hw  107  -0.038   2.187   6.200 -0.0549 -0.6304 -0.1109
   27SOL     vw  108   0.030   2.176   6.146 -0.0487 -0.0106 -0.0734
   28SOL     ow  109   0.663   1.396   1.935  0.4970 -0.1831  0.6660
   28SOL     hw  110   0.734   1.334   1.919  1.7549  0.5957  2.8724
   28SOL     hw  111   0.587   1.341   1.953  0.7644 -1.0339 -0.6034
   28SOL     vw  112   0.662   1.381   1.935  0.0606  0.0528  0.1868
   29SOL     ow  113   0.336   0.934   3.887  0.0737 -0.3299 -0.4006
   29SOL     hw  114   0.394   1.009   3.875 -1.0987  0.7424  0.3639
   29SOL     hw  115   0.254   0.959   3.844  0.6486 -2.5453 -3.1091
   29SOL     vw  116   0.333   0.947   3.880  0.0087 -0.0097  0.0325
   30SOL     ow  117   0.120   1.852   6.208  0.1566  0.2995  0.1441
   30SOL     hw  118   0.098   1.881   6.297  1.7698 -1.1445  1.1022
   30SOL     hw  119   0.208   1.814   6.217  1.5550  2.4958 -2.6252
   30SOL     vw  120   0.129   1.851   6.221 -0.0506 -0.0169 -0.0188
   31SOL     ow  121   0.599   1.245   1.715 -0.3638  0.2854 -0.5771
   31SOL     hw  122   0.569   1.308   1.781 -1.1617 -0.2809 -0.3877
   31SOL     hw  123   0.554   1.273   1.635 -2.1250 -1.0369 -0.1238
   31SOL     vw  124   0.589   1.257   1.713  0.0376 -0.0286 -0.0438
   32SOL     ow  125   1.205   0.872   5.912  0.0274 -0.4214  0.1167
   32SOL     hw  126   1.270   0.859   5.843 -0.1945  1.2427 -0.4439
   32SOL     hw  127   1.179   0.783   5.937  2.6291 -1.1610  0.5021
   32SOL     vw  128   1.210   0.858   5.906  0.0131 -0.0459  0.0319
   33SOL     ow  129   2.427   0.371   1.479  0.6118 -0.5740  0.1361
   33SOL     hw  130   2.498   0.309   1.497  1.6701  0.7618  0.7381
   33SOL     hw  131   2.472   0.451   1.451 -0.7380 -0.2181 -1.1103
   33SOL     vw  132   2.442   0.373   1.477 -0.0410  0.0098  0.0388
   34SOL     ow  133   0.677   0.966   1.697 -0.5345  0.2187 -0.5655
   34SOL     hw  134   0.765   0.951   1.663 -0.4351  0.9457 -0.6435
   34SOL     hw  135   0.663   1.060   1.688 -1.0530  0.2150  0.0935
   34SOL     vw  136   0.687   0.976   1.691 -0.0380  0.0261 -0.0210
   35SOL     ow  137   1.711   0.872   0.986  0.4707 -0.4820 -0.0929
   35SOL     hw  138   1.798   0.844   0.958  1.3666  0.3890  1.6289
   35SOL     hw  139   1.714   0.864   1.082 -0.4270  2.0369  0.2134
   35SOL     vw  140   1.723   0.867   0.995  0.0937  0.0840 -0.0056
   36SOL     ow  141   1.141   1.256   5.120  0.5860  0.6839  0.4724
   36SOL     hw  142   1.148   1.206   5.039  3.6296  2.5128 -0.5645
   36SOL     hw  143   1.080   1.327   5.101  2.2607  1.8711 -0.7837
   36SOL     vw  144   1.134   1.259   5.107 -0.0281 -0.0584  0.1235
   37SOL     ow  145   1.759   0.622   2.196 -0.1359 -0.6903  0.5057
   37SOL     hw  146   1.803   0.546   2.157 -0.6061 -1.7327  1.9290
   37SOL     hw  147   1.813   0.696   2.169  0.0359 -1.4341 -1.3910
   37SOL     vw  148   1.772   0.621   2.187 -0.0121 -0.0482  0.0950
   38SOL     ow  149   1.987   2.141   6.166  0.1647 -0.4556  0.0202
   38SOL     hw  150   1.891   2.140   6.166  0.0643  2.2883  0.3941
   38SOL     hw  151   2.011   2.148   6.258  0.7595 -1.6147 -0.0407
   38SOL     vw  152   1.977   2.142   6.178 -0.0211  0.0033  0.0169
   39SOL     ow  153   2.230   1.577   3.974  0.4234  0.6545 -0.4604
   39SOL     hw  154   2.288   1.574   3.898  0.7690 -1.0990 -0.1682
   39SOL     hw  155   2.156   1.521   3.951  0.3619  0.3843  0.3441
   39SOL     vw  156   2.228   1.569   3.961  0.0203 -0.0104  0.0610
   40SOL     ow  157   0.656   0.184   3.562 -0.2312  0.0455  0.5914
   40SOL     hw  158   0.566   0.216   3.555 -0.1826  0.7224  2.3251
   40SOL     hw  159   0.647   0.092   3.588 -0.3753 -0.6606 -1.7522
   40SOL     vw  160   0.643   0.176   3.565  0.0006  0.0231 -0.0079
   41SOL     ow  161   0.070   2.297   0.863  0.2069 -0.1620  0.7852
   41SOL     hw  162   0.027   2.215   0.888 -0.2616 -0.8669 -2.0554
   41SOL     hw  163   0.042   2.313   0.774  2.5842  1.5750  0.2536
   41SOL     vw  164   0.061   2.288   0.855  0.0691  0.0169  0.0260
   42SOL     ow  165   0.113   0.761   5.083  0.3680 -0.2057 -0.0182
   42SOL     hw  166   0.086   0.848   5.113 -0.2751 -0.4760  0.1923
   42SOL     hw  167   0.128   0.711   5.163 -1.6510 -1.0233 -0.0986
   42SOL     vw  168   0.111   0.766   5.097  0.0355  0.0250  0.0172
   43SOL     ow  169   1.236   1.455   5.965 -0.2271  0.2005 -0.1306
   43SOL     hw  170   1.283   1.458   5.881 -1.5038 -0.2996 -0.9012
   43SOL     hw  171   1.152   1.497   5.946 -0.6659 -0.2243  0.8105
   43SOL     vw  172   1.231   1.461   5.951 -0.0031  0.0377  0.0095
   44SOL     ow  173   2.440   0.347   2.646 -0.1039 -0.6573  0.3021
   44SOL     hw  174   2.525   0.315   2.677  0.3835 -1.9219 -2.0445
   44SOL     hw  175   2.423   0.425   2.697  1.1216 -1.9085  2.7950
   44SOL     vw  176   2.449   0.353   2.657  0.0620  0.0301 -0.0930
   45SOL     ow  177   2.452   2.066   0.698  0.1923 -0.0153 -0.3853
   45SOL     hw  178   2.503   2.013   0.637  0.8952 -0.5025  0.6009
   45SOL     hw  179   2.457   2.155   0.663 -0.6228 -0.5105 -1.8131
   45SOL     vw  180   2.459   2.071   0.686 -0.0088 -0.0247 -0.0336
   46SOL     ow  181   1.493   1.240   3.679  0.1174  0.2902 -0.6475
   46SOL     hw  182   1.571   1.213   3.729 -0.4955  0.7224  0.5787
   46SOL     hw  183   1.505   1.334   3.665 -0.1196  0.3346 -0.5577
   46SOL     vw  184   1.505   1.249   3.684 -0.0064  0.0269 -0.1181
   47SOL     ow  185   0.740   0.638   0.107 -0.0953  0.4010  0.2632
   47SOL     hw  186   0.763   0.688   0.029 -1.1826 -1.3489 -1.2392
   47SOL     hw  187   0.677   0.693   0.153  1.0978  1.7709  0.3514
   47SOL     vw  188   0.735   0.652   0.103  0.0033  0.0050 -0.0240
   48SOL     ow  189   1.722   0.920   5.616  0.3019 -0.1941  0.1011
   48SOL     hw  190   1.672   0.850   5.657 -1.4691  0.0698 -1.4911
   48SOL     hw  191   1.750   0.884   5.532 -2.5380  1.5715 -1.7842
   48SOL     vw  192   1.719   0.906   5.610  0.0320  0.0662  0.0160
   49SOL     ow  193   1.835   1.186   4.022  0.0923 -0.1437  0.0292
   49SOL     hw  194   1.885   1.125   4.077  0.3390 -0.1092 -0.1571
   49SOL     hw  195   1.812   1.257   4.082  2.8386  1.3424 -0.5248
   49SOL     vw  196   1.839   1.187   4.037  0.0993  0.0514 -0.0169
   50SOL     ow  197   0.479   0.943   4.766 -0.1367  0.2736 -0.8661
   50SOL     hw  198   0.499   0.973   4.855 -0.2108 -1.1193 -0.3578
   50SOL     hw  199   0.558   0.961   4.716 -0.0363  0.9174 -0.4957
   50SOL     vw  200   0.492   0.950   4.771 -0.0309 -0.0195 -0.0439
   51SOL     ow  201   0.036   1.058   2.549 -0.0415 -1.0413 -0.5948
   51SOL     hw  202   0.050   1.029   2.459  4.9852  1.4685 -0.9330
   51SOL     hw  203  -0.027   1.131   2.541  0.5498 -0.6620 -2.1532
   51SOL     vw  204   0.029   1.064   2.536  0.0511  0.0600  0.0565
   52SOL     ow  205   2.363   0.620   2.150  0.2601 -0.0164  0.3815
   52SOL     hw  206   2.422   0.552   2.116 -0.5550 -1.1185  1.1049
   52SOL     hw  207   2.421   0.692   2.174  0.9603  0.6061 -2.6913
   52SOL     vw  208   2.379   0.620   2.149  0.0126  0.0027 -0.0311
   53SOL     ow  209   2.292   1.988   2.956 -0.3554  0.0103  0.4088
   53SOL     hw  210   2.239   1.917   2.919 -0.1865 -0.5283  1.1648
   53SOL     hw  211   2.372   1.987   2.905 -1.1341  0.9652 -0.8796
   53SOL     vw  212   2.295   1.979   2.944  0.0619 -0.1045 -0.0018
   54SOL     ow  213   1.672   2.207   2.732 -0.1283 -0.0828  0.6096
   54SOL     hw  214   1.587   2.187   2.693 -0.3020  0.3236  0.7768
   54SOL     hw  215   1.681   2.302   2.723  0.9823 -0.2778 -0.7728
   54SOL     vw  216   1.662   2.217   2.725  0.0455  0.0321  0.1149
   55SOL     ow  217   0.984   1.862   5.157  0.0904 -0.1051  0.4263
   55SOL     hw  218   1.012   1.831   5.071  0.3912 -1.3330  0.9476
   55SOL     hw  219   1.066   1.876   5.205 -0.0913 -0.2129  0.7723
   55SOL     vw  220   0.999   1.860   5.152  0.0570 -0.0530 -0.0412
   56SOL     ow  221   1.186   0.672   0.770 -0.1548 -0.4502  0.2773
   56SOL     hw  222   1.120   0.677   0.839 -1.5648 -0.3722 -1.0118
   56SOL     hw  223   1.143   0.711   0.694  0.4982 -2.5574 -1.2557
   56SOL     vw  224   1.171   0.678   0.769 -0.0124 -0.0320  0.0361
   57SOL     ow  225   1.287   0.570   1.589 -0.1503  0.4379 -0.2685
   57SOL     hw  226   1.231   0.646   1.574  1.5881  1.7269 -0.6170
   57SOL     hw  227   1.282   0.520   1.508 -1.1679  0.2723 -0.1085
   57SOL     vw  228   1.279   0.574   1.577 -0.0196 -0.0460  0.0385
   58SOL     ow  229   1.249   0.026   1.789  0.8336  0.6242 -0.6869
   58SOL     hw  230   1.172   0.081   1.776  0.6143  0.5904  0.3924
   58SOL     hw  231   1.222  -0.039   1.854  1.6487  0.3690 -0.5902
   58SOL     vw  232   1.236   0.025   1.796 -0.0063 -0.0366 -0.0048
   59SOL     ow  233   1.022   1.880   1.594  0.3737 -0.2288  0.5389
   59SOL     hw  234   1.018   1.940   1.669  0.1388  0.6382 -0.1453
   59SOL     hw  235   0.962   1.918   1.530 -0.3843 -1.6375  0.3824
   59SOL     vw  236   1.014   1.893   1.596  0.0421 -0.0104 -0.0021
   60SOL     ow  237   1.391   0.854   3.145 -0.3725 -0.0454 -0.6598
   60SOL     hw  238   1.398   0.949   3.139 -0.5523 -0.0841 -1.6963
   60SOL     hw  239   1.422   0.822   3.060 -2.5780 -0.7687 -1.2697
   60SOL     vw  240   1.396   0.862   3.133 -0.0205 -0.0113  0.0273
   61SOL     ow  241   0.471   2.268   3.096 -0.5790 -0.0048 -0.1245
   61SOL     hw  242   0.424   2.246   3.015 -0.2157 -0.7372 -0.1487
   61SOL     hw  243   0.433   2.211   3.162  1.3824 -1.8975 -0.4977
   61SOL     vw  244   0.460   2.257   3.094  0.0226 -0.0461 -0.0122
   62SOL     ow  245   0.417   1.789   4.897 -0.4948 -0.1098  0.1044
   62SOL     hw  246   0.450   1.703   4.924  0.1300  0.3784  0.9261
   62SOL     hw  247   0.486   1.825   4.841  0.1462  0.6812  1.3757
   62SOL     vw  248   0.430   1.782   4.893 -0.0172  0.0001  0.0987
   63SOL     ow  249   0.150   0.164   6.215 -0.1647 -0.5532  0.2100
   63SOL     hw  250   0.214   0.100   6.246 -0.5591 -0.6967  0.7494
   63SOL     hw  251   0.121   0.209   6.295  0.6497  0.8180 -0.2332
   63SOL     vw  252   0.154   0.162   6.230  0.0095 -0.0500 -0.0706
   64SOL     ow  253   0.842   0.700   6.761 -0.3801 -0.3902 -0.0345
   64SOL     hw  254   0.789   0.760   6.709  0.7722 -0.4441 -1.3061
   64SOL     hw  255   0.809   0.613   6.741  0.1564 -0.4221 -0.8180
   64SOL     vw  256   0.831   0.697   6.752  0.0626 -0.0312 -0.0870
   65SOL     ow  257   1.418   0.585   5.658 -0.8387 -0.3778 -0.4259
   65SOL     hw  258   1.508   0.604   5.686 -1.3096  0.6465  0.4477
   65SOL     hw  259   1.428   0.554   5.568  0.3331  0.4128 -0.5966
   65SOL     vw  260   1.431   0.583   5.650 -0.0182  0.0549  0.0122
   66SOL     ow  261   0.067   0.430   2.075  0.2322  0.2992 -0.3753
   66SOL     hw  262   0.006   0.357   2.070 -0.4337  0.7464  0.8863
   66SOL     hw  263   0.147   0.391   2.112  0.4832 -0.1254 -1.3211
   66SOL     vw  264   0.070   0.415   2.079 -0.0352 -0.0087 -0.0528
   67SOL     ow  265   0.657   2.207   2.028 -0.2031 -0.3976 -0.0093
   67SOL     hw  266   0.634   2.158   1.949  1.4314 -1.1318 -0.0779
   67SOL     hw  267   0.661   2.142   2.097 -0.9694  0.1355  0.5449
   67SOL     vw  268   0.655   2.192   2.026 -0.0363  0.0685 -0.0284
   68SOL     ow  269   0.311   1.674   4.648 -1.0074 -0.0916 -0.1062
   68SOL     hw  270   0.256   1.637   4.578 -1.5551  1.2232 -0.3831
   68SOL     hw  271   0.400   1.669   4.612 -1.1985 -0.1242 -0.5877
   68SOL     vw  272   0.315   1.668   4.634 -0.0225  0.0358 -0.0322
   69SOL     ow  273   1.417   0.816   3.459 -0.0507 -0.0375  0.5566
   69SOL     hw  274   1.338   0.824   3.512 -0.7456  1.1007 -0.5978
   69SOL     hw  275   1.454   0.904   3.457  1.3554 -0.6014  1.2240
   69SOL     vw  276   1.411   0.828   3.466  0.0501  0.0048  0.0029
   70SOL     ow  277   0.127   1.900   0.490 -0.0354  0.0241  0.1158
   70SOL     hw  278   0.213   1.884   0.529 -0.6919 -1.6771  0.9803
   70SOL     hw  279   0.142   1.898   0.396  0.9942  0.5563  0.2579
   70SOL     vw  280   0.140   1.897   0.483 -0.0188 -0.0858  0.0025
   71SOL     ow  281   1.865   1.750   0.263 -0.6216 -0.9378 -0.1316
   71SOL     hw  282   1.881   1.666   0.305  0.7703 -1.1962 -1.1001
   71SOL     hw  283   1.893   1.737   0.172  1.8011  1.1504  0.1802
   71SOL     vw  284   1.871   1.737   0.256  0.1491  0.0724 -0.0126
   72SOL     ow  285   1.576   1.230   3.270  0.3034  0.2603 -0.1893
   72SOL     hw  286   1.652   1.277   3.236 -0.0433  2.9678  2.3400
   72SOL     hw  287   1.515   1.226   3.197  2.2126 -0.6222 -1.8350
   72SOL     vw  288   1.578   1.236   3.256 -0.0182  0.0072 -0.0494
   73SOL     ow  289   1.109   1.280   0.660 -0.0057 -0.8529  0.5260
   73SOL     hw  290   1.057   1.347   0.707 -0.3297 -2.5806  2.8089
   73SOL     hw  291   1.065   1.272   0.575 -2.4422 -0.9687  1.7033
   73SOL     vw  292   1.096   1.288   0.655  0.0521 -0.0030  0.0349
   74SOL     ow  293   2.148   0.442   4.032  0.1959  0.2331 -0.2932
   74SOL     hw  294   2.224   0.387   4.013  0.3324  0.4468 -0.3597
   74SOL     hw  295   2.146   0.507   3.962 -0.4296 -0.1691 -0.6588
   74SOL     vw  296   2.158   0.443   4.021 -0.0120  0.0014  0.0069
   75SOL     ow  297   1.915   2.004   3.965 -0.0961  0.3979  0.4188
   75SOL     hw  298   1.944   1.925   4.010 -1.8634  1.1063  3.0695
   75SOL     hw  299   1.821   1.992   3.954 -0.0725  1.3120 -0.9474
   75SOL     vw  300   1.906   1.992   3.970 -0.0418  0.0493  0.0770
   76SOL     ow  301   2.402   0.511   2.386 -0.0727  0.2993 -0.2682
   76SOL     hw  302   2.382   0.551   2.301  0.9504  0.7455 -0.3132
   76SOL     hw  303   2.442   0.581   2.437 -0.8227  0.0763  0.6572
   76SOL     vw  304   2.405   0.525   2.381 -0.0094  0.0758 -0.0300
   77SOL     ow  305   0.172   2.374   6.044 -0.4302  0.5536  0.8770
   77SOL     hw  306   0.266   2.374   6.062 -0.0804 -2.1681 -0.5302
   77SOL     hw  307   0.165   2.365   5.949 -1.9732 -2.7853  1.1519
   77SOL     vw  308   0.183   2.373   6.034 -0.0004 -0.0303  0.0057
   78SOL     ow  309   0.375   1.023   0.560  0.3896 -0.1640  0.1766
   78SOL     hw  310   0.396   1.084   0.489 -0.7247 -1.2923 -1.2048
   78SOL     hw  311   0.444   1.036   0.625  0.4668  2.1824 -0.2801
   78SOL     vw  312   0.387   1.033   0.559 -0.0959  0.0298 -0.0467
   79SOL     ow  313   2.299   2.306   6.275  0.6249 -0.1810 -0.0612
   79SOL     hw  314   2.236   2.265   6.334  1.0431  0.5580  0.9369
   79SOL     hw  315   2.249   2.324   6.196 -0.2840 -0.0951  0.5170
   79SOL     vw  316   2.284   2.303   6.272 -0.0422 -0.0187  0.0231
   80SOL     ow  317   0.617   0.247   2.871  0.0499  0.3667  0.0222
   80SOL     hw  318   0.689   0.290   2.824 -0.7591  0.2699 -1.3486
   80SOL     hw  319   0.556   0.220   2.802  0.0125 -2.0215  0.9009
   80SOL     vw  320   0.619   0.249   2.855  0.0459 -0.0803  0.0327
   81SOL     ow  321   1.694   0.331   6.317 -0.8114 -0.3413 -0.0714
   81SOL     hw  322   1.654   0.254   6.276 -1.6423  0.2541 -0.4060
   81SOL     hw  323   1.632   0.402   6.301 -0.0374  0.4156  0.1893
   81SOL     vw  324   1.681   0.330   6.309  0.0070 -0.0966 -0.0122
   82SOL     ow  325   1.218   2.254   6.025 -0.6044  0.4211 -0.0660
   82SOL     hw  326   1.199   2.166   5.992  0.8469 -0.0048  0.1784
   82SOL     hw  327   1.140   2.305   6.002 -1.5745 -0.9741 -0.0006
   82SOL     vw  328   1.205   2.249   6.017 -0.0307 -0.0246  0.0229
   83SOL     ow  329   1.834   0.040   0.963 -0.0931  0.4334 -0.3335
   83SOL     hw  330   1.872   0.011   0.880 -0.5820 -0.9754 -0.0793
   83SOL     hw  331   1.903   0.027   1.027 -0.3974 -0.4270 -0.1760
   83SOL     vw  332   1.848   0.035   0.960  0.0747 -0.0066 -0.0117
   84SOL     ow  333   2.039   0.623   6.874 -0.6237  0.0868  0.0889
   84SOL     hw  334   2.001   0.697   6.920 -2.5187 -0.8677  0.1504
   84SOL     hw  335   2.073   0.659   6.792 -3.4469  0.7614 -0.8991
   84SOL     vw  336   2.039   0.637   6.869 -0.0064  0.0552 -0.0653
   85SOL     ow  337   0.729   1.816   2.181  0.2695 -0.3262  0.0072
   85SOL     hw  338   0.691   1.902   2.195  0.4571 -0.0990 -0.8016
   85SOL     hw  339   0.812   1.833   2.137  0.4224 -0.9086  0.0544
   85SOL     vw  340   0.735   1.829   2.177 -0.0559 -0.0598 -0.0092
   86SOL     ow  341   2.267   1.413   4.500  0.1975  0.2329  0.3626
   86SOL     hw  342   2.276   1.436   4.408 -0.7905 -1.0170 -0.0929
   86SOL     hw  343   2.221   1.487   4.539 -1.2467 -0.0832 -0.6370
   86SOL     vw  344   2.262   1.426   4.493 -0.0162  0.0214  0.0081
   87SOL     ow  345   0.992   0.314   4.154 -0.3657 -0.4004 -0.5554
   87SOL     hw  346   0.992   0.288   4.246 -1.7518  0.4741 -0.2841
   87SOL     hw  347   0.906   0.352   4.139  0.3714  0.8933 -1.8113
   87SOL     vw  348   0.981   0.316   4.164 -0.0307 -0.0373  0.0300
   88SOL     ow  349   0.645   2.064   2.240  0.5381 -0.0756  0.0404
   88SOL     hw  350   0.686   2.139   2.283 -0.7581  1.4819 -1.3562
   88SOL     hw  351   0.567   2.046   2.292  0.9335 -0.6138  0.4718
   88SOL     vw  352   0.640   2.071   2.252 -0.0080 -0.0154  0.0308
   89SOL     ow  353   0.697   1.767   5.100  0.2565 -0.5865 -0.0696
   89SOL     hw  354   0.610   1.743   5.133  0.2492 -0.0423  0.3270
   89SOL     hw  355   0.685   1.854   5.061  0.5944 -0.5609 -0.1204
   89SOL     vw  356   0.684   1.776   5.100 -0.0272 -0.0286 -0.0114
   90SOL     ow  357   0.952   1.531   2.316 -0.2532  0.0967  0.1802
   90SOL     hw  358   0.972   1.583   2.238  0.2317  0.4959  0.5643
   90SOL     hw  359   0.958   1.440   2.287 -1.0873  0.2429 -0.4950
   90SOL     vw  360   0.955   1.526   2.302  0.1236 -0.0320 -0.0027
   91SOL     ow  361   1.754   1.377   4.189 -0.0330 -0.0191  0.0111
   91SOL     hw  362   1.696   1.421   4.128 -0.4262  0.3086  0.6159
   91SOL     hw  363   1.812   1.445   4.222 -0.2417 -0.0675  0.4862
   91SOL     vw  364   1.754   1.392   4.185  0.0250 -0.0116 -0.1097
   92SOL     ow  365   1.606   0.595   1.061  0.3618  0.7395 -0.5038
   92SOL     hw  366   1.663   0.570   1.135 -0.6623 -0.9237 -0.2288
   92SOL     hw  367   1.585   0.512   1.018 -1.9521  1.2777 -0.5114
   92SOL     vw  368   1.611   0.581   1.065 -0.0270  0.0653 -0.0259
   93SOL     ow  369   1.921   1.733   3.594 -0.8578 -0.5350  0.2016
   93SOL     hw  370   1.877   1.677   3.658 -1.2920 -1.5200 -0.9111
   93SOL     hw  371   1.864   1.730   3.517  1.4704 -2.5872 -1.6415
   93SOL     vw  372   1.907   1.725   3.592  0.0669 -0.0375  0.0130
   94SOL     ow  373   0.415   1.670   2.171 -0.6026 -0.0903  0.1343
   94SOL     hw  374   0.346   1.609   2.197 -1.3163  0.7346  0.2307
   94SOL     hw  375   0.368   1.744   2.131  0.2543  0.2838 -0.2048
   94SOL     vw  376   0.400   1.672   2.169  0.0833 -0.0492 -0.0070
   95SOL     ow  377   1.125   2.322   4.865  0.0889  0.1833  0.1868
   95SOL     hw  378   1.071   2.350   4.791  2.0768 -0.5936 -1.6734
   95SOL     hw  379   1.130   2.227   4.857 -0.4721 -0.0399  1.9717
   95SOL     vw  380   1.118   2.313   4.854  0.0338 -0.0249 -0.0074
   96SOL     ow  381   1.305   0.059   3.740  0.8687 -0.7685 -0.0562
   96SOL     hw  382   1.308  -0.036   3.752 -0.3897 -0.8816 -0.4458
   96SOL     hw  383   1.225   0.086   3.785 -0.1118 -0.2439 -2.0332
   96SOL     vw  384   1.295   0.050   3.748  0.0797 -0.0125  0.0862
   97SOL     ow  385   0.264   1.597   5.306  0.0483  0.3625 -0.0706
   97SOL     hw  386   0.285   1.565   5.218  0.4632  0.1429  0.1054
   97SOL     hw  387   0.290   1.526   5.364  0.1186  0.6539  0.2585
   97SOL     vw  388   0.270   1.583   5.302 -0.0243 -0.0593 -0.0331
   98SOL     ow  389   2.183   1.498   4.232  0.2282  0.4743 -0.2144
   98SOL     hw  390   2.216   1.532   4.149  0.4845  0.8823  0.0499
   98SOL     hw  391   2.105   1.550   4.250 -0.3822 -0.2520 -0.6629
   98SOL     vw  392   2.177   1.509   4.224 -0.0421 -0.0420 -0.0224
   99SOL     ow  393   1.850   2.168   2.948 -0.1145 -0.1119 -0.2855
   99SOL     hw  394   1.790   2.166   2.874 -2.3151 -2.2243  1.3604
   99SOL     hw  395   1.793   2.163   3.025  2.1151  0.1136  1.4939
   99SOL     vw  396   1.834   2.167   2.948  0.0291  0.0489  0.0162
  100SOL     ow  397   1.624   1.079   4.165  0.4859 -0.2293 -0.1855
  100SOL     hw  398   1.667   1.157   4.128 -0.7368  0.0976 -0.9670
  100SOL     hw  399   1.676   1.006   4.131  1.0522  0.1913 -0.2526
  100SOL     vw  400   1.637   1.080   4.155 -0.0371 -0.0286  0.0103
  101SOL     ow  401   0.420   2.171   2.651 -0.3905  0.1611  0.5644
  101SOL     hw  402   0.485   2.112   2.614  0.4093  0.1702  1.8667
  101SOL     hw  403   0.343   2.161   2.595 -0.8436 -3.2954  1.5406
  101SOL     vw  404   0.419   2.162   2.639 -0.0121 -0.0035  0.0422
  102SOL     ow  405   2.400   1.892   3.713 -0.6151 -0.0293 -0.0413
  102SOL     hw  406   2.473   1.953   3.704 -1.5781  1.3629  0.9995
  102SOL     hw  407   2.437   1.816   3.758  0.3480  0.3335 -0.2025
  102SOL     vw  408   2.414   1.890   3.718 -0.1293  0.0604 -0.0396
  103SOL     ow  409   0.546   0.098   6.449  0.4142  0.0003  0.0870
  103SOL     hw  410   0.527   0.004   6.456 -1.1951  0.1880 -1.1230
  103SOL     hw  411   0.624   0.103   6.393  0.0505 -0.5999 -0.4864
  103SOL     vw  412   0.554   0.086   6.442  0.0372  0.0227  0.0255
  104SOL     ow  413   1.962   0.385   6.789  0.0486 -0.5288 -0.2854
  104SOL     hw  414   1.938   0.364   6.880 -0.0056 -0.1665 -0.2141
  104SOL     hw  415   1.991   0.476   6.793  0.2509 -0.5817 -0.5963
  104SOL     vw  416   1.962   0.394   6.802 -0.0462 -0.0200  0.0627
  105SOL     ow  417   1.918   0.542   3.612 -0.1652  0.4871  0.1019
  105SOL     hw  418   1.947   0.523   3.523  0.3568  1.4687  0.0507
  105SOL     hw  419   1.869   0.464   3.638  2.8702 -1.5045  0.3401
  105SOL     vw  420   1.915   0.529   3.604 -0.0052 -0.0058 -0.0216
  106SOL     ow  421   0.998   2.359   0.648 -0.2041 -0.4313 -0.0630
  106SOL     hw  422   1.082   2.314   0.641  0.4026  0.7648 -0.9721
  106SOL     hw  423   0.933   2.289   0.661  0.6438 -1.5968 -1.7228
  106SOL     vw  424   1.000   2.344   0.649 -0.0033 -0.0039 -0.0329
  107SOL     ow  425   1.963   0.253   3.997  0.0826 -0.2050 -0.5227
  107SOL     hw  426   1.995   0.185   4.056 -0.0369 -0.0098 -0.2330
  107SOL     hw  427   2.018   0.329   4.015 -1.4841  0.6191  1.0619
  107SOL     vw  428   1.974   0.254   4.007 -0.0194  0.0229  0.0381
  108SOL     ow  429   1.282   0.645   4.026  0.4569  0.2007  0.4359
  108SOL     hw  430   1.211   0.701   3.995  1.1698  1.6333  1.2902
  108SOL     hw  431   1.332   0.700   4.085  1.6347 -1.1320  0.7389
  108SOL     vw  432   1.279   0.659   4.029  0.0283 -0.0091  0.0095
  109SOL     ow  433   2.055   0.336   1.848 -0.3844  0.0213  0.1538
  109SOL     hw  434   2.050   0.303   1.938 -1.5910 -0.9685 -0.2465
  109SOL     hw  435   2.058   0.257   1.794 -3.3486  0.4572 -0.8317
  109SOL     vw  436   2.054   0.321   1.853  0.0122  0.0279 -0.0181
  110SOL     ow  437   1.339   0.461   0.766  0.1742 -0.3274  0.4007
  110SOL     hw  438   1.265   0.522   0.771 -0.6072 -1.2521  0.3914
  110SOL     hw  439   1.316   0.401   0.696  0.9620 -0.6024  0.3689
  110SOL     vw  440   1.326   0.461   0.758  0.0430 -0.0150 -0.0042
  111SOL     ow  441   2.047   0.157   3.764  0.1041 -0.1183  0.5054
  111SOL     hw  442   2.042   0.233   3.822 -2.3769  0.3048 -0.1625
  111SOL     hw  443   2.085   0.088   3.819  0.1837  0.9477  1.8547
  111SOL     vw  444   2.051   0.158   3.779 -0.0837 -0.0490 -0.0250
  112SOL     ow  445   1.816   1.753   4.047 -0.5768 -0.2953  0.3894
  112SOL     hw  446   1.830   1.716   3.959  0.8386 -1.8293  1.2146
  112SOL     hw  447   1.723   1.778   4.047 -0.2927  1.0651 -1.9899
  112SOL     vw  448   1.805   1.751   4.035  0.0088 -0.0939  0.0474
  113SOL     ow  449   1.893   1.465   1.309 -0.3038 -0.3089 -0.2804
  113SOL     hw  450   1.948   1.537   1.340  1.6622  0.0947 -4.1324
  113SOL     hw  451   1.805   1.501   1.309 -0.2001  0.2146  2.7850
  113SOL     vw  452   1.889   1.479   1.313  0.0387  0.0213 -0.0700
  114SOL     ow  453   0.133   1.112   4.259 -0.5450  0.3612 -0.0916
  114SOL     hw  454   0.105   1.112   4.350 -2.2493 -2.4672 -0.5104
  114SOL     hw  455   0.225   1.140   4.262  0.4293 -2.5494  2.8923
  114SOL     vw  456   0.142   1.116   4.271 -0.0669 -0.0643 -0.0322
  115SOL     ow  457   1.460   1.926   6.007  0.4372  0.4575  0.1932
  115SOL     hw  458   1.408   1.950   5.930  0.1468 -0.1834  0.1842
  115SOL     hw  459   1.487   1.836   5.991  3.4052  1.3759 -0.8349
  115SOL     vw  460   1.457   1.917   5.995  0.0848  0.0581 -0.0958
  116SOL     ow  461   2.214   2.125   3.739  0.0763  0.1300  0.3637
  116SOL     hw  462   2.291   2.149   3.687  0.5719 -0.1864  0.9437
  116SOL     hw  463   2.141   2.168   3.695  0.7203  1.3035  0.4090
  116SOL     vw  464   2.215   2.134   3.726  0.0445 -0.0209  0.0180
  117SOL     ow  465   0.712   0.511   3.220 -0.1995  0.4991 -0.1259
  117SOL     hw  466   0.762   0.434   3.192 -0.8988  0.7908 -2.3213
  117SOL     hw  467   0.622   0.479   3.227 -0.5856  1.2344 -1.6074
  117SOL     vw  468   0.707   0.497   3.217  0.0398  0.0293 -0.0507
  118SOL     ow  469   2.043   0.613   3.826 -0.8274  0.2231  0.1195
  118SOL     hw  470   2.000   0.579   3.748  0.9433 -0.4545 -0.6081
  118SOL     hw  471   1.977   0.667   3.868 -2.3525 -0.7155 -0.9654
  118SOL     vw  472   2.029   0.615   3.821  0.0800  0.0536  0.0131
  119SOL     ow  473   1.953   1.500   5.249 -0.4928 -0.0992 -0.1491
  119SOL     hw  474   1.969   1.534   5.337  0.3288 -1.1582  0.1270
  119SOL     hw  475   1.908   1.572   5.204  3.0121  2.2712 -0.2472
  119SOL     vw  476   1.949   1.514   5.255  0.0397  0.0036  0.0374
  120SOL     ow  477   1.449   2.455   4.363 -0.0647  1.0306 -0.1502
  120SOL     hw  478   1.442   2.518   4.436 -0.8836  1.0499 -0.2303
  120SOL     hw  479   1.379   2.392   4.380 -0.1835  0.9658 -0.8538
  120SOL     vw  480   1.439   2.455   4.375  0.0133  0.0174  0.0095
  121SOL     ow  481   0.162   1.567   5.717  0.0185 -0.0062 -0.1028
  121SOL     hw  482   0.134   1.598   5.630 -1.2315 -3.5653 -1.1663
  121SOL     hw  483   0.239   1.513   5.699 -1.6701 -2.7945  0.5104
  121SOL     vw  484   0.168   1.564   5.703 -0.1141 -0.0233  0.0355
  122SOL     ow  485   0.828   1.638   1.462 -0.2408  0.5488  0.0802
  122SOL     hw  486   0.751   1.615   1.410 -0.3823 -0.1327  0.5795
  122SOL     hw  487   0.893   1.665   1.397 -0.5071 -0.0240 -0.4362
  122SOL     vw  488   0.827   1.639   1.447  0.0285 -0.0265 -0.0011
  123SOL     ow  489   0.515   2.313   6.457 -0.5183 -0.2584  0.0067
  123SOL     hw  490   0.428   2.287   6.486 -0.6371  2.1429  2.1980
  123SOL     hw  491   0.575   2.269   6.517 -0.2810 -0.9829 -0.7526
  123SOL     vw  492   0.512   2.304   6.469  0.0461  0.0077  0.0172
  124SOL     ow  493   0.642   0.841   4.064 -0.3061 -0.0721 -0.3472
  124SOL     hw  494   0.733   0.855   4.036 -0.0128 -0.4645  0.3825
  124SOL     hw  495   0.614   0.927   4.095 -0.6763  0.3967 -1.9211
  124SOL     vw  496   0.651   0.854   4.065  0.0136 -0.0354  0.0734
  125SOL     ow  497   0.170   1.218   0.605  0.2439 -0.4647 -0.1855
  125SOL     hw  498   0.192   1.283   0.671  1.1211 -1.5395  0.6059
  125SOL     hw  499   0.227   1.144   0.624  0.2874 -0.9317 -1.9440
  125SOL     vw  500   0.181   1.217   0.616 -0.0179  0.0305  0.0055
  126SOL     ow  501   2.202   0.236   2.542 -0.0581 -0.1394  0.0258
  126SOL     hw  502   2.162   0.245   2.628  0.3182 -0.6574  0.2652
  126SOL     hw  503   2.130   0.211   2.484 -0.2347 -0.2180  0.2770
  126SOL     vw  504   2.188   0.234   2.546 -0.0011  0.0564 -0.0398
  127SOL     ow  505   1.801   0.691   2.452 -0.1390  0.1195  0.0452
  127SOL     hw  506   1.862   0.713   2.382 -0.1999  1.7064  0.4595
  127SOL     hw  507   1.857   0.678   2.529 -0.0253 -2.0840 -0.3415
  127SOL     vw  508   1.816   0.692   2.453  0.0319  0.0817  0.0490
  128SOL     ow  509   1.544   1.487   1.874 -0.1827  0.0469  0.0015
  128SOL     hw  510   1.451   1.487   1.896  0.1853 -0.7877  1.7378
  128SOL     hw  511   1.551   1.545   1.798 -1.7385  2.1819  1.3827
  128SOL     vw  512   1.532   1.494   1.867 -0.0039 -0.0285 -0.0104
  129SOL     ow  513   1.356   0.712   3.762  0.3914  0.3606  0.1408
  129SOL     hw  514   1.357   0.671   3.848  1.2636 -0.2657 -0.1531
  129SOL     hw  515   1.268   0.695   3.727 -0.3582  1.5916  1.3403
  129SOL     vw  516   1.345   0.705   3.768  0.0094 -0.0511  0.0098
  130SOL     ow  517   2.075   0.278   2.773 -0.5968 -0.6631 -0.2177
  130SOL     hw  518   1.982   0.295   2.787 -0.1946  0.2295  1.7617
  130SOL     hw  519   2.103   0.233   2.853  0.2554 -2.8468 -1.6736
  130SOL     vw  520   2.066   0.274   2.785 -0.0337 -0.0212  0.0128
  131SOL     ow  521   1.137   0.891   3.599 -0.0014  0.5777  0.4617
  131SOL     hw  522   1.114   0.977   3.563  0.8841  0.7118  0.1858
  131SOL     hw  523   1.104   0.829   3.534 -0.4112  0.7212  0.5303
  131SOL     vw  524   1.130   0.894   3.585 -0.0322  0.0346 -0.0185
  132SOL     ow  525   2.350   0.282   0.221 -0.1473  0.5185  0.1840
  132SOL     hw  526   2.408   0.206   0.221  2.5024  2.1873 -3.9359
  132SOL     hw  527   2.385   0.339   0.290  0.0497 -0.4479  0.9078
  132SOL     vw  528   2.362   0.280   0.231 -0.0489  0.0966 -0.0416
  133SOL     ow  529   0.333   2.449   6.275  0.5356  0.7163  0.0777
  133SOL     hw  530   0.419   2.487   6.295  1.2613 -1.3642  1.2498
  133SOL     hw  531   0.348   2.355   6.276 -1.7921  0.2929  0.4242
  133SOL     vw  532   0.347   2.442   6.278 -0.0439  0.0618  0.0560
  134SOL     ow  533   2.351   0.898   2.681  0.5489 -0.1090  0.4338
  134SOL     hw  534   2.265   0.938   2.669  0.8794  1.1823  2.0120
  134SOL     hw  535   2.412   0.958   2.638  0.8057 -0.1994  0.6673
  134SOL     vw  536   2.348   0.911   2.674 -0.0130  0.0129  0.0683
  135SOL     ow  537   0.798   0.882   3.292 -0.5688  0.3576 -0.4375
  135SOL     hw  538   0.797   0.956   3.353  0.3720 -0.3277  0.4356
  135SOL     hw  539   0.713   0.887   3.248 -0.7808  1.5813  0.0549
  135SOL     vw  540   0.786   0.892   3.294 -0.0404 -0.0023  0.0632
  136SOL     ow  541   0.197   0.855   2.757  0.3300  0.5678 -0.3802
  136SOL     hw  542   0.194   0.948   2.734  1.2668  1.0402  1.2737
  136SOL     hw  543   0.189   0.810   2.673 -0.4024  2.1251 -1.1882
  136SOL     vw  544   0.196   0.861   2.743 -0.0640  0.0033 -0.0117
  137SOL     ow  545   2.179   1.187   4.884 -0.0432 -0.7076 -0.0783
  137SOL     hw  546   2.247   1.130   4.920 -0.5341  0.1371  2.3905
  137SOL     hw  547   2.221   1.273   4.879 -0.2974 -0.6132 -0.6422
  137SOL     vw  548   2.194   1.191   4.888  0.0187 -0.0399  0.0670
  138SOL     ow  549   2.294   0.922   4.076  0.0223  0.6304  0.6631
  138SOL     hw  550   2.273   0.907   3.983  0.6405 -0.5397  0.6940
  138SOL     hw  551   2.330   1.011   4.078  1.5432  0.1071 -0.5233
  138SOL     vw  552   2.296   0.932   4.064 -0.0166 -0.0252  0.0243
  139SOL     ow  553   2.455   2.327   0.619 -0.2628 -0.0577  0.0280
  139SOL     hw  554   2.368   2.324   0.578  1.2228 -3.8332 -3.5898
  139SOL     hw  555   2.507   2.380   0.559  0.6310 -0.5021  0.3998
  139SOL     vw  556   2.450   2.333   0.606  0.0416 -0.0813 -0.0072
  140SOL     ow  557   2.021   0.128   1.198  0.1047  0.6285  0.1170
  140SOL     hw  558   1.997   0.061   1.262 -0.4464  0.2214 -0.5023
  140SOL     hw  559   2.077   0.188   1.246 -0.0631  0.1691  0.9029
  140SOL     vw  560   2.025   0.127   1.213  0.0743  0.0248 -0.0469
  141SOL     ow  561   0.170   0.710   2.978  0.4781  0.4031  0.8682
  141SOL     hw  562   0.244   0.729   3.035  2.0884  0.7687 -1.2440
  141SOL     hw  563   0.182   0.767   2.902 -1.8362  0.2755  0.3053
  141SOL     vw  564   0.181   0.720   2.976 -0.0234 -0.0098 -0.0192
  142SOL     ow  565   2.466   1.633   5.972  0.4184  0.0423  0.1293
  142SOL     hw  566   2.514   1.621   6.054 -2.6609  0.5710  2.1759
  142SOL     hw  567   2.421   1.717   5.984 -1.2251 -0.5634 -1.5106
  142SOL     vw  568   2.467   1.643   5.985 -0.0038 -0.0622 -0.0231
  143SOL     ow  569   0.161   2.115   2.975 -0.1361  0.3451 -0.5244
  143SOL     hw  570   0.145   2.046   2.911  0.7020  0.3568 -0.7557
  143SOL     hw  571   0.146   2.073   3.060  0.2100 -0.0861 -0.6700
  143SOL     vw  572   0.157   2.100   2.978  0.0010  0.0609  0.0021
  144SOL     ow  573   0.916   1.412   5.767  0.5679 -0.4416 -0.2700
  144SOL     hw  574   0.835   1.438   5.809 -0.8522  0.8202 -3.4696
  144SOL     hw  575   0.898   1.419   5.673  4.7919  1.2736 -1.1743
  144SOL     vw  576   0.903   1.416   5.760  0.0184 -0.0244 -0.0055
  145SOL     ow  577   0.884   1.363   5.466 -0.1840 -0.5400  0.4426
  145SOL     hw  578   0.969   1.321   5.461 -1.1033 -2.4722 -0.0184
  145SOL     hw  579   0.837   1.333   5.388 -0.7105  1.9204 -0.2935
  145SOL     vw  580   0.889   1.354   5.455  0.0237  0.0058  0.0184
  146SOL     ow  581   1.041   0.919   5.513 -0.4885  0.2777  1.3180
  146SOL     hw  582   1.102   0.986   5.543  0.2568  1.0171 -1.5193
  146SOL     hw  583   1.095   0.861   5.459 -2.2245  1.0948 -1.4733
  146SOL     vw  584   1.056   0.920   5.510 -0.0708  0.0476 -0.0179
  147SOL     ow  585   1.358   1.911   6.241  0.7901 -0.9029 -0.2969
  147SOL     hw  586   1.274   1.956   6.235 -0.4071 -2.8652  0.7092
  147SOL     hw  587   1.391   1.909   6.151 -0.1940 -0.0518 -0.6916
  147SOL     vw  588   1.352   1.917   6.229 -0.0408  0.0011  0.0494
  148SOL     ow  589   1.620   0.485   6.599  0.6065  0.4881  0.2112
  148SOL     hw  590   1.600   0.503   6.691  1.8432 -1.1009  0.8297
  148SOL     hw  591   1.570   0.551   6.550 -3.7004 -1.3080  1.7047
  148SOL     vw  592   1.611   0.496   6.605 -0.0129 -0.0150  0.0110
  149SOL     ow  593   1.749   0.026   1.340 -0.1226 -0.4887  0.8852
  149SOL     hw  594   1.763   0.121   1.337  1.1317 -0.6690  0.2242
  149SOL     hw  595   1.743   0.000   1.248  0.1863 -1.1251  1.0383
  149SOL     vw  596   1.750   0.035   1.327 -0.0190 -0.0483 -0.0236
  150SOL     ow  597   0.488   0.392   3.123  0.2380 -0.0069 -0.3720
  150SOL     hw  598   0.406   0.384   3.075 -0.4615 -1.0818  0.9447
  150SOL     hw  599   0.547   0.329   3.082  0.3950  0.6967 -1.2541
  150SOL     vw  600   0.485   0.383   3.111  0.0686 -0.0090  0.0142
  151SOL     ow  601   0.305   0.304   2.962 -0.5571 -0.0373  0.2829
  151SOL     hw  602   0.219   0.346   2.969 -2.1937 -2.5291 -2.5594
  151SOL     hw  603   0.318   0.290   2.868  2.6111 -0.5561  0.6685
  151SOL     vw  604   0.296   0.308   2.950 -0.0285  0.0108 -0.0309
  152SOL     ow  605   1.957   1.363   4.840 -0.1222  0.2110  0.1749
  152SOL     hw  606   1.922   1.332   4.756  2.9154  0.2921 -1.2742
  152SOL     hw  607   1.952   1.459   4.833 -0.5885  0.2057  0.4311
  152SOL     vw  608   1.952   1.372   4.828  0.0579 -0.0472  0.0658
  153SOL     ow  609   2.100   1.250   4.181  0.2953  0.1745 -0.3129
  153SOL     hw  610   2.171   1.203   4.139 -0.0730 -0.2778 -0.4388
  153SOL     hw  611   2.140   1.331   4.212  0.9956 -0.3378  0.1437
  153SOL     vw  612   2.114   1.255   4.179  0.0151  0.0140  0.0002
  154SOL     ow  613   1.268   0.362   4.061 -0.8867 -0.6114 -0.6428
  154SOL     hw  614   1.353   0.370   4.104 -1.4122  0.0657  0.2949
  154SOL     hw  615   1.249   0.450   4.030 -1.4813 -0.6522 -0.3960
  154SOL     vw  616   1.277   0.375   4.062  0.0465  0.0127  0.0682
  155SOL     ow  617   2.374   1.168   4.112 -0.4922 -0.3972 -0.1426
  155SOL     hw  618   2.404   1.208   4.030  0.4919 -0.4690  0.1588
  155SOL     hw  619   2.454   1.133   4.151 -1.1350 -1.4676  0.2560
  155SOL     vw  620   2.389   1.169   4.106 -0.0066  0.0401  0.0434
  156SOL     ow  621   0.163   1.536   6.184 -0.1786  0.0800  0.3072
  156SOL     hw  622   0.179   1.442   6.177 -1.2176 -0.1765  1.0614
  156SOL     hw  623   0.248   1.573   6.206  0.2486 -0.6777 -0.0113
  156SOL     vw  624   0.176   1.528   6.186 -0.0394 -0.0215  0.0415
  157SOL     ow  625   2.208   2.090   3.199  0.2238  0.6991 -1.0358
  157SOL     hw  626   2.128   2.120   3.241  0.2121  0.2980 -0.7703
  157SOL     hw  627   2.187   2.002   3.167  0.8485  0.1978 -0.1205
  157SOL     vw  628   2.195   2.082   3.200 -0.0179  0.0308  0.0598
  158SOL     ow  629   1.651   0.691   5.754  0.2837 -0.5658  0.2050
  158SOL     hw  630   1.722   0.628   5.766  1.4912  0.6505 -0.2814
  158SOL     hw  631   1.645   0.738   5.837  1.3747  0.5980 -0.3264
  158SOL     vw  632   1.659   0.689   5.766 -0.0165  0.0286 -0.0298
  159SOL     ow  633   0.191   0.585   4.218  0.1219  0.3656  0.2641
  159SOL     hw  634   0.146   0.541   4.291 -2.3031  4.0273  1.2847
  159SOL     hw  635   0.268   0.626   4.258  0.3465  0.0593  0.1440
  159SOL     vw  636   0.195   0.585   4.233 -0.0430  0.0363 -0.0374
  160SOL     ow  637   1.229   0.016   0.795 -0.4949  0.3834  0.3155
  160SOL     hw  638   1.294   0.046   0.732  0.9229  0.7631  1.8890
  160SOL     hw  639   1.241   0.072   0.871 -2.8128  0.5864  0.6212
  160SOL     vw  640   1.239   0.027   0.797 -0.0998  0.0310 -0.0377
  161SOL     ow  641   0.952   1.790   3.584  0.2747 -0.6147 -0.5159
  161SOL     hw  642   0.989   1.874   3.611  2.0520 -1.8295  1.0640
  161SOL     hw  643   0.967   1.732   3.658  1.0251 -2.9093 -2.3485
  161SOL     vw  644   0.959   1.793   3.597  0.1084 -0.0383 -0.0868
  162SOL     ow  645   0.948   0.857   5.788  0.6506 -0.3359  0.2931
  162SOL     hw  646   0.917   0.913   5.859  0.7458 -1.9168  1.6492
  162SOL     hw  647   1.043   0.862   5.793  0.6750  0.6973 -0.7177
  162SOL     vw  648   0.956   0.865   5.798 -0.0335  0.0004 -0.0098
  163SOL     ow  649   2.215   2.466   6.651  0.8919 -0.0625  0.1510
  163SOL     hw  650   2.204   2.376   6.681  1.9187 -0.4979 -0.7034
  163SOL     hw  651   2.279   2.460   6.580 -0.1354  1.1545 -0.9274
  163SOL     vw  652   2.222   2.453   6.645 -0.0354  0.0448 -0.0341
  164SOL     ow  653   0.396   1.180   0.336  0.6173  0.4517 -0.0293
  164SOL     hw  654   0.366   1.144   0.253 -0.5928  2.3040 -0.4475
  164SOL     hw  655   0.472   1.233   0.314  1.1404 -0.1584  0.2731
  164SOL     vw  656   0.402   1.182   0.322 -0.0168  0.0452  0.0389
  165SOL     ow  657   0.673   0.694   1.829 -0.7275 -0.5045 -0.1587
  165SOL     hw  658   0.678   0.634   1.755 -1.5137  0.9347 -1.4152
  165SOL     hw  659   0.617   0.649   1.892 -5.3163  0.6617 -2.9439
  165SOL     vw  660   0.666   0.680   1.828  0.1200  0.0083 -0.0039
  166SOL     ow  661   1.176   2.045   0.181 -0.2862  0.0767  0.4939
  166SOL     hw  662   1.098   2.096   0.201 -0.7494 -1.1775  2.0436
  166SOL     hw  663   1.196   1.999   0.262  1.7808 -0.0282 -0.0264
  166SOL     vw  664   1.168   2.046   0.194  0.0674  0.0451  0.0127
  167SOL     ow  665   2.371   1.902   6.022  0.1405 -0.8230 -0.0669
  167SOL     hw  666   2.290   1.903   6.073  0.7536 -1.7206  0.9830
  167SOL     hw  667   2.346   1.937   5.936 -1.6060 -2.1445 -0.1521
  167SOL     vw  668   2.357   1.907   6.017  0.0259  0.0004 -0.0451
  168SOL     ow  669   0.752   0.086   6.254  0.4193  0.0724 -0.0845
  168SOL     hw  670   0.784   0.171   6.224 -0.9048  0.4915 -0.3607
  168SOL     hw  671   0.687   0.060   6.189  1.0228 -1.3033 -0.1626
  168SOL     vw  672   0.748   0.094   6.242  0.0271  0.0496  0.0098
  169SOL     ow  673   0.712   2.468   4.216  0.4105 -0.7110  0.0636
  169SOL     hw  674   0.721   2.389   4.269 -0.6376 -0.2334  0.9837
  169SOL     hw  675   0.621   2.497   4.230  0.3079 -0.1902 -1.4543
  169SOL     vw  676   0.701   2.462   4.224  0.0365 -0.0344 -0.0143
  170SOL     ow  677   2.249   0.706   1.903 -0.8754 -0.2304  0.4567
  170SOL     hw  678   2.288   0.794   1.906 -0.7176 -0.2781 -0.1132
  170SOL     hw  679   2.281   0.663   1.982 -2.8618  1.0235  2.0512
  170SOL     vw  680   2.258   0.712   1.913 -0.0584  0.0145  0.0570
  171SOL     ow  681   2.022   0.966   5.596 -0.1281 -0.0815 -0.0402
  171SOL     hw  682   2.078   0.999   5.525  2.4937  0.1002  1.9397
  171SOL     hw  683   1.978   0.890   5.558  0.1186  0.7807 -2.2392
  171SOL     vw  684   2.024   0.961   5.581  0.0206 -0.0601  0.0112
  172SOL     ow  685   2.267   1.809   1.336 -0.1122  0.1765 -0.2199
  172SOL     hw  686   2.315   1.735   1.373  0.3655 -0.8484 -2.6699
  172SOL     hw  687   2.285   1.882   1.396  0.5510 -1.3351  1.5085
  172SOL     vw  688   2.276   1.809   1.349 -0.0106 -0.0064  0.0120
  173SOL     ow  689   1.455   2.052   0.021 -0.0290  0.5852 -0.1346
  173SOL     hw  690   1.472   2.049  -0.073 -1.3878  0.4625 -0.3896
  173SOL     hw  691   1.366   2.087   0.029  0.5891  2.0155  1.1688
  173SOL     vw  692   1.446   2.057   0.010  0.0312 -0.0128  0.0228
  174SOL     ow  693   1.487   0.246   6.824 -0.3620  0.2171  0.6633
  174SOL     hw  694   1.450   0.158   6.826 -2.2805  0.8775 -1.5294
  174SOL     hw  695   1.489   0.273   6.916 -0.9085 -1.6327  1.2602
  174SOL     vw  696   1.483   0.238   6.837  0.0228  0.0146 -0.0229
  175SOL     ow  697   2.334   0.907   0.613 -0.7595 -0.0003  0.0182
  175SOL     hw  698   2.345   0.879   0.704 -0.2402 -0.7770 -0.2693
  175SOL     hw  699   2.240   0.908   0.600 -0.8450  0.3639  0.6428
  175SOL     vw  700   2.323   0.903   0.623  0.0105 -0.0527  0.0168
  176SOL     ow  701   1.684   2.394   4.571  1.1288  0.1408 -0.1122
  176SOL     hw  702   1.632   2.396   4.651 -1.4432  1.2314 -1.6979
  176SOL     hw  703   1.762   2.345   4.595 -0.5472 -1.5177  2.4717
  176SOL     vw  704   1.687   2.388   4.584 -0.0180  0.0513 -0.0591
  177SOL     ow  705   1.852   1.258   4.629  0.0081 -0.6377  0.5898
  177SOL     hw  706   1.763   1.269   4.663 -0.2431  0.2901 -0.3500
  177SOL     hw  707   1.871   1.339   4.582  1.9320 -0.1606  2.0335
  177SOL     vw  708   1.843   1.270   4.628 -0.0237 -0.0638 -0.0768
  178SOL     ow  709   0.961   2.421   0.942 -0.2069  0.1035 -0.3035
  178SOL     hw  710   0.944   2.328   0.954  2.5194 -0.9299 -3.0530
  178SOL     hw  711   1.001   2.449   1.024 -1.1877 -1.0791  0.6120
  178SOL     vw  712   0.964   2.412   0.954 -0.0488  0.0393  0.0083
  179SOL     ow  713   0.851   1.853   3.954 -0.6480  0.3322 -0.7295
  179SOL     hw  714   0.878   1.820   4.040 -2.2885 -1.1473 -0.7279
  179SOL     hw  715   0.830   1.945   3.969  0.9024  0.5882  0.0094
  179SOL     vw  716   0.851   1.861   3.967 -0.0005 -0.0111 -0.0077
  180SOL     ow  717   2.394   1.372   5.784  0.0957  0.7562  0.0890
  180SOL     hw  718   2.371   1.347   5.873 -0.1597  0.7488  0.0222
  180SOL     hw  719   2.462   1.310   5.758 -1.0815 -0.4034 -0.3606
  180SOL     vw  720   2.400   1.361   5.792 -0.0104  0.0183  0.0176
  181SOL     ow  721   1.853   0.278   6.583  0.3753 -0.3338 -0.1793
  181SOL     hw  722   1.918   0.209   6.566  1.1045 -0.5367  2.8773
  181SOL     hw  723   1.882   0.318   6.665 -1.6559  1.7129 -0.3774
  181SOL     vw  724   1.866   0.274   6.591 -0.0503 -0.0008 -0.1090
  182SOL     ow  725   1.093   0.800   3.930  0.4149 -0.5503  0.9703
  182SOL     hw  726   1.041   0.820   4.008  2.2939 -1.8835  2.6889
  182SOL     hw  727   1.114   0.886   3.893 -1.8060  0.0580  0.9584
  182SOL     vw  728   1.089   0.814   3.935  0.0092 -0.0351  0.0570
  183SOL     ow  729   0.402   0.711   4.306 -0.0447  0.7569 -0.4977
  183SOL     hw  730   0.482   0.663   4.330  0.3504  1.8507  0.5334
  183SOL     hw  731   0.420   0.747   4.219 -0.3333 -0.8766 -1.2657
  183SOL     vw  732   0.415   0.709   4.298  0.0050 -0.0090 -0.0203
  184SOL     ow  733   2.187   0.316   1.319  0.0180 -0.4046  0.3564
  184SOL     hw  734   2.171   0.384   1.254 -0.8110 -0.2124  0.7537
  184SOL     hw  735   2.278   0.328   1.345  0.0271  0.2151  0.0446
  184SOL     vw  736   2.197   0.326   1.314 -0.0130  0.0325  0.0564
  185SOL     ow  737   1.079   0.198   5.974 -0.1433 -0.0989  0.2776
  185SOL     hw  738   1.116   0.270   5.923 -0.0962  0.8098  1.5490
  185SOL     hw  739   1.024   0.241   6.039 -0.5861 -1.2566  0.6885
  185SOL     vw  740   1.077   0.213   5.976 -0.0390  0.0215 -0.0083
  186SOL     ow  741   1.290   1.912   0.420  0.4361  0.0839  0.2019
  186SOL     hw  742   1.240   1.949   0.493 -1.1538 -1.1501 -0.2002
  186SOL     hw  743   1.275   1.818   0.426  0.1182 -0.0348 -1.8010
  186SOL     vw  744   1.281   1.904   0.431  0.0758  0.0272  0.0278
  187SOL     ow  745   0.025   1.132   0.402  0.2731  0.2945 -0.2540
  187SOL     hw  746   0.050   1.183   0.325 -0.6013  1.4140  0.1706
  187SOL     hw  747   0.074   1.172   0.474 -0.2545  0.4004  0.0487
  187SOL     vw  748   0.035   1.144   0.401 -0.0007  0.0072  0.0284
  188SOL     ow  749   0.087   1.721   5.445  0.2238 -0.1030  0.0875
  188SOL     hw  750   0.147   1.666   5.395 -1.7322  1.3165 -4.3278
  188SOL     hw  751   0.125   1.808   5.443  0.4220 -0.0966  1.8594
  188SOL     vw  752   0.100   1.725   5.438 -0.1111  0.1003 -0.0217
  189SOL     ow  753   0.219   0.691   5.312  0.1426  1.3021  0.2938
  189SOL     hw  754   0.243   0.654   5.397  1.3202  0.3463 -0.4064
  189SOL     hw  755   0.274   0.769   5.304 -0.0236  1.4353  0.4294
  189SOL     vw  756   0.230   0.697   5.322 -0.0092 -0.0024 -0.0367
  190SOL     ow  757   0.447   1.797   3.279  0.6983 -0.3494 -0.2586
  190SOL     hw  758   0.385   1.772   3.348 -0.1782 -0.5641 -1.1084
  190SOL     hw  759   0.454   1.720   3.223  0.0382  0.3700 -1.3876
  190SOL     vw  760   0.439   1.783   3.281 -0.0558  0.0451 -0.0346
  191SOL     ow  761   0.830   0.038   2.023  0.3393  0.0826  0.3746
  191SOL     hw  762   0.891   0.016   1.952  1.4087 -0.6708  1.4762
  191SOL     hw  763   0.875   0.107   2.072 -0.2347  0.3585  0.5171
  191SOL     vw  764   0.844   0.044   2.020  0.0303 -0.0450  0.0178
  192SOL     ow  765   1.532   0.222   6.549 -0.5135 -0.0095 -0.5473
  192SOL     hw  766   1.463   0.156   6.537 -2.6859  2.1533 -0.6676
  192SOL     hw  767   1.539   0.233   6.644  1.4131 -1.8698 -0.4084
  192SOL     vw  768   1.524   0.215   6.560 -0.0862 -0.0020 -0.0019
  193SOL     ow  769   1.655   1.670   0.380  0.7506 -0.1295  0.1198
  193SOL     hw  770   1.733   1.709   0.339  0.7666 -1.6388 -1.3946
  193SOL     hw  771   1.623   1.608   0.315 -0.9706 -0.5007  1.2667
  193SOL     vw  772   1.661   1.667   0.366 -0.0700 -0.0331  0.0358
  194SOL     ow  773   1.000   2.410   5.988 -0.1191 -0.2341  0.8343
  194SOL     hw  774   1.005   2.506   5.984 -1.4953 -0.1562  0.5042
  194SOL     hw  775   0.964   2.384   5.904 -1.1936 -0.9258  1.4852
  194SOL     vw  776   0.996   2.419   5.977  0.0761 -0.0367 -0.0072
  195SOL     ow  777   1.256   1.026   4.182 -0.4484 -0.3797  0.0157
  195SOL     hw  778   1.302   0.952   4.221 -1.1482 -0.1476  1.3570
  195SOL     hw  779   1.177   1.036   4.236 -0.3660  1.3415 -0.1313
  195SOL     vw  780   1.251   1.018   4.194  0.0201 -0.0155  0.0329
  196SOL     ow  781   1.033   0.066   3.449  0.2714  0.1791  0.3652
  196SOL     hw  782   1.054   0.124   3.521 -2.2058  0.5762  0.8483
  196SOL     hw  783   0.992  -0.010   3.490 -1.7815  0.6909 -0.5731
  196SOL     vw  784   1.030   0.063   3.464 -0.0227  0.0493 -0.0025
  197SOL     ow  785   0.869   0.721   2.008 -0.4921  0.5085 -0.1924
  197SOL     hw  786   0.807   0.722   1.935  0.1456 -0.1706 -0.7509
  197SOL     hw  787   0.928   0.795   1.990 -0.6344  0.6471 -0.0958
  197SOL     vw  788   0.868   0.731   1.996  0.0152  0.0009 -0.0156
  198SOL     ow  789   2.030   0.911   4.174  0.3956 -0.5503  0.6266
  198SOL     hw  790   2.113   0.946   4.141  1.1076 -1.7263  1.0843
  198SOL     hw  791   2.055   0.832   4.222 -0.9335 -0.5654  1.3464
  198SOL     vw  792   2.044   0.905   4.176  0.0690  0.0196  0.0279
  199SOL     ow  793   0.148   0.459   1.811 -0.1126 -0.1988  0.4960
  199SOL     hw  794   0.087   0.402   1.764 -1.0029  0.3302  0.9910
  199SOL     hw  795   0.119   0.456   1.902 -0.5199  1.4612  0.4527
  199SOL     vw  796   0.136   0.451   1.816  0.0015  0.0281 -0.0069
  200SOL     ow  797   0.109   0.648   4.633  0.6102 -0.2283  0.5692
  200SOL     hw  798   0.101   0.724   4.576  1.4489  0.4880  1.3742
  200SOL     hw  799   0.038   0.659   4.697 -1.1562 -1.7071 -1.0371
  200SOL     vw  800   0.099   0.660   4.634 -0.0386  0.0134  0.0556
  201SOL     ow  801   0.113   0.440   6.551  0.1940  0.1294  0.2866
  201SOL     hw  802   0.168   0.517   6.538 -0.0554  0.3339  0.4383
  201SOL     hw  803   0.023   0.472   6.542  0.1112 -0.4737 -1.4646
  201SOL     vw  804   0.108   0.454   6.548  0.0517 -0.0616 -0.0317
  202SOL     ow  805   0.292   1.820   5.765 -0.1767  0.0602  0.3977
  202SOL     hw  806   0.247   1.735   5.764 -0.8097  0.3874  0.3623
  202SOL     hw  807   0.379   1.801   5.801  0.7616 -1.1152 -2.2483
  202SOL     vw  808   0.297   1.806   5.770 -0.0480  0.0010  0.0153
  203SOL     ow  809   1.836   0.787   5.410 -0.2580  0.0176  0.3763
  203SOL     hw  810   1.865   0.826   5.327 -1.9200  0.2084 -0.1463
  203SOL     hw  811   1.767   0.725   5.384  0.3924 -1.2171  1.4676
  203SOL     vw  812   1.831   0.784   5.396 -0.0010  0.0188  0.0174
  204SOL     ow  813   1.506   2.401   1.394  0.0271 -0.0560  0.8077
  204SOL     hw  814   1.590   2.443   1.378 -0.9318  1.8965  0.5610
  204SOL     hw  815   1.456   2.465   1.443 -1.7419 -0.6524 -0.1115
  204SOL     vw  816   1.510   2.415   1.398 -0.0278 -0.0064  0.0226
  205SOL     ow  817   0.024   1.107   4.557 -0.0311  0.1112  0.3938
  205SOL     hw  818  -0.061   1.146   4.577  0.4358  1.5196 -0.2746
  205SOL     hw  819   0.077   1.121   4.636 -0.1551 -0.0523  0.5081
  205SOL     vw  820   0.020   1.114   4.570  0.0032  0.0077  0.0095
  206SOL     ow  821   0.878   1.834   1.941  0.1288  0.1433  0.3699
  206SOL     hw  822   0.925   1.908   1.980 -0.6204  0.2128  1.1661
  206SOL     hw  823   0.847   1.867   1.857  0.1804  0.5972  0.5233
  206SOL     vw  824   0.880   1.848   1.935 -0.0273  0.0631  0.0442
  207SOL     ow  825   1.804   2.330   3.641  0.4562  0.1316  0.6491
  207SOL     hw  826   1.850   2.291   3.715  1.1937 -0.9178 -0.3350
  207SOL     hw  827   1.713   2.302   3.653  0.9794 -2.1449 -0.1135
  207SOL     vw  828   1.798   2.321   3.652 -0.0286  0.0234  0.0271
  208SOL     ow  829   0.384   0.426   3.775  0.3162 -0.6720  0.5494
  208SOL     hw  830   0.316   0.437   3.709  1.4989  0.5328 -0.5344
  208SOL     hw  831   0.336   0.412   3.857 -1.2781  1.0397 -0.0184
  208SOL     vw  832   0.368   0.426   3.777  0.0423 -0.0310  0.0015
  209SOL     ow  833   2.451   0.453   5.869  0.1048  0.2844 -0.0677
  209SOL     hw  834   2.507   0.506   5.812 -1.9565  2.7101 -0.0094
  209SOL     hw  835   2.372   0.437   5.817  0.9163 -3.6544 -0.4129
  209SOL     vw  836   2.448   0.458   5.855  0.0155  0.0445  0.0222
  210SOL     ow  837   1.287   1.084   6.026  0.1731 -0.1066  0.4253
  210SOL     hw  838   1.350   1.106   5.958  2.5951 -1.1272  2.2078
  210SOL     hw  839   1.246   1.003   5.997 -0.8213  0.8511 -1.0041
  210SOL     vw  840   1.290   1.076   6.014  0.0105  0.0697 -0.0443
  211SOL     ow  841   1.693   2.039   6.193  0.2804 -0.5424 -0.3479
  211SOL     hw  842   1.625   2.042   6.126  0.9489  0.7471 -0.9907
  211SOL     hw  843   1.725   1.949   6.191  0.8026 -0.3375 -2.2740
  211SOL     vw  844   1.688   2.027   6.184  0.0203  0.0165 -0.0250
  212SOL     ow  845   1.389   1.326   4.199  0.6204 -0.3780  0.2067
  212SOL     hw  846   1.328   1.373   4.256  0.5169 -0.1827 -0.0637
  212SOL     hw  847   1.441   1.395   4.158 -0.2392 -0.4157 -1.0118
  212SOL     vw  848   1.388   1.341   4.201 -0.0641 -0.0207 -0.0031
  213SOL     ow  849   2.131   2.358   6.066  0.2743  0.1627  0.3587
  213SOL     hw  850   2.082   2.276   6.073 -0.9636  0.8022 -0.4741
  213SOL     hw  851   2.070   2.425   6.096  1.6172  0.7085  2.0374
  213SOL     vw  852   2.117   2.356   6.071  0.0385 -0.0087  0.0398
  214SOL     ow  853   1.534   1.673   5.867  0.1155 -0.0076  0.4924
  214SOL     hw  854   1.548   1.713   5.781  3.8807  0.0326  0.9867
  214SOL     hw  855   1.606   1.611   5.878 -0.6380 -0.5437  3.3459
  214SOL     vw  856   1.545   1.670   5.857  0.0048  0.0502  0.0482
  215SOL     ow  857   2.112   0.042   3.006  0.1758  0.5440 -0.1842
  215SOL     hw  858   2.113  -0.043   2.962  0.9416 -0.2232  1.2432
  215SOL     hw  859   2.202   0.053   3.038  0.9778  3.3640 -2.9686
  215SOL     vw  860   2.124   0.032   3.005 -0.0900  0.0208  0.0862
  216SOL     ow  861   1.147   0.801   1.533 -0.4482  0.1054  0.4805
  216SOL     hw  862   1.228   0.819   1.580 -0.0837 -0.5633  0.1233
  216SOL     hw  863   1.158   0.843   1.448 -1.1308  1.3639  0.9904
  216SOL     vw  864   1.159   0.809   1.528 -0.0189  0.0396 -0.0414
  217SOL     ow  865   1.209   1.250   6.207  0.3569  0.0887  0.5693
  217SOL     hw  866   1.227   1.187   6.137 -2.6875  1.2253 -1.4488
  217SOL     hw  867   1.165   1.199   6.275  4.2222 -1.2358  2.3255
  217SOL     vw  868   1.205   1.235   6.207  0.0008  0.1051  0.0336
  218SOL     ow  869   0.396   0.307   6.534  0.5396 -0.2706 -0.1333
  218SOL     hw  870   0.445   0.230   6.503 -1.6576 -0.6858 -2.9408
  218SOL     hw  871   0.431   0.380   6.483 -0.1570 -0.1500 -0.4419
  218SOL     vw  872   0.407   0.306   6.523 -0.0605  0.0181  0.0331
  219SOL     ow  873   1.485   0.321   3.368  0.3545 -0.0678  1.0634
  219SOL     hw  874   1.428   0.252   3.402  1.1598 -1.1337  0.3232
  219SOL     hw  875   1.553   0.275   3.319  0.1062  1.3054 -0.6957
  219SOL     vw  876   1.486   0.306   3.366  0.0354  0.0009 -0.0030
  220SOL     ow  877   1.846   1.580   3.843  0.0148  0.3655  0.1814
  220SOL     hw  878   1.767   1.536   3.874  0.2510 -0.0062  0.2698
  220SOL     hw  879   1.917   1.539   3.893  0.2093  1.0864  0.5102
  220SOL     vw  880   1.845   1.569   3.853  0.0426 -0.0101 -0.0721
  221SOL     ow  881   0.506   1.605   6.846  0.6009  0.4277  0.1249
  221SOL     hw  882   0.505   1.649   6.931  1.9916  1.2839 -0.2757
  221SOL     hw  883   0.428   1.549   6.848 -1.4629  3.0845  0.5742
  221SOL     vw  884   0.495   1.603   6.858  0.0958 -0.0283  0.0048
  222SOL     ow  885   2.103   0.655   1.622 -0.0393  0.1150  0.1294
  222SOL     hw  886   2.151   0.676   1.542  0.1106  0.8893  0.4130
  222SOL     hw  887   2.075   0.564   1.611  0.6428 -0.0268 -0.4691
  222SOL     vw  888   2.106   0.646   1.610 -0.0616  0.0453 -0.0679
  223SOL     ow  889   2.377   1.689   5.675 -0.9521  1.4166  0.6703
  223SOL     hw  890   2.294   1.730   5.700 -2.3714 -0.8203 -0.0797
  223SOL     hw  891   2.399   1.731   5.591 -2.1145  1.0349  0.1497
  223SOL     vw  892   2.369   1.700   5.667  0.0608 -0.0460 -0.0081
  224SOL     ow  893   1.428   1.184   5.744  0.4239 -0.5577 -0.0462
  224SOL     hw  894   1.360   1.149   5.687  1.5564  0.1641 -1.9818
  224SOL     hw  895   1.401   1.274   5.762  1.3826  0.1453 -1.8521
  224SOL     vw  896   1.416   1.191   5.738  0.0544  0.0596 -0.0269
  225SOL     ow  897   2.414   0.719   1.642  0.7942 -0.3175 -0.7224
  225SOL     hw  898   2.434   0.683   1.556 -0.1601  0.1965 -1.1851
  225SOL     hw  899   2.499   0.742   1.679  1.3650 -2.2537 -0.7437
  225SOL     vw  900   2.428   0.717   1.635  0.0019  0.0014  0.0007
  226SOL     ow  901   2.418   0.746   4.261  0.1152  0.0348  0.0694
  226SOL     hw  902   2.457   0.788   4.336  0.8545  1.2142 -0.9400
  226SOL     hw  903   2.373   0.816   4.214  0.9638 -0.3459 -1.3917
  226SOL     vw  904   2.417   0.761   4.264 -0.0376 -0.0169 -0.0329
  227SOL     ow  905   0.694   1.354   4.927  0.3188 -0.3831  0.1274
  227SOL     hw  906   0.763   1.387   4.869  1.3356  1.3059  2.1907
  227SOL     hw  907   0.717   1.262   4.941 -0.7343 -1.2962 -3.1228
  227SOL     vw  908   0.706   1.346   4.921 -0.0430  0.0359 -0.0234
  228SOL     ow  909   0.772   0.128   3.334 -0.4617 -0.8638  0.1890
  228SOL     hw  910   0.851   0.080   3.359 -0.5958 -0.7238  0.8935
  228SOL     hw  911   0.727   0.145   3.416 -1.2598 -0.9938 -0.2063
  228SOL     vw  912   0.776   0.124   3.348  0.0118  0.0300 -0.0050
  229SOL     ow  913   2.034   0.082   6.477 -0.1441 -0.4276 -0.3502
  229SOL     hw  914   2.090   0.152   6.444  0.5861 -0.0896  1.4794
  229SOL     hw  915   2.079   0.051   6.556 -1.6510 -1.3581  0.1851
  229SOL     vw  916   2.047   0.087   6.483  0.0502 -0.0608 -0.0629
  230SOL     ow  917   0.862   1.634   5.344 -0.1053 -0.1396 -0.1401
  230SOL     hw  918   0.853   1.608   5.436  1.0451 -0.5835 -0.1378
  230SOL     hw  919   0.927   1.573   5.309 -0.7424 -0.1547 -1.3301
  230SOL     vw  920   0.869   1.622   5.352 -0.0071  0.0170  0.0041
  231SOL     ow  921   1.397   1.114   3.086 -0.1202 -0.5119  0.5041
  231SOL     hw  922   1.449   1.108   3.006 -0.0932 -1.3000  0.5719
  231SOL     hw  923   1.316   1.158   3.059  1.1618  2.1138  0.7060
  231SOL     vw  924   1.393   1.119   3.072  0.0404 -0.0129  0.0120
  232SOL     ow  925   1.537   0.223   1.178  0.1387 -0.0006 -0.3624
  232SOL     hw  926   1.537   0.133   1.146 -0.4571 -0.0781 -0.1496
  232SOL     hw  927   1.525   0.276   1.099  3.0305  0.0554 -0.8664
  232SOL     vw  928   1.536   0.218   1.163  0.1432 -0.0104 -0.0293
  233SOL     ow  929   1.612   2.447   1.076  0.0461 -0.1737  0.3081
  233SOL     hw  930   1.676   2.478   1.012 -1.3800  0.7120 -0.7637
  233SOL     hw  931   1.574   2.368   1.037 -0.2984 -0.0646  0.4162
  233SOL     vw  932   1.615   2.441   1.063 -0.0050 -0.0496  0.0848
  234SOL     ow  933   0.987   2.380   6.269  0.5441 -0.5099 -0.2931
  234SOL     hw  934   0.909   2.435   6.281 -0.3719 -1.7643 -0.2512
  234SOL     hw  935   1.006   2.387   6.175 -0.0840 -0.7778 -0.4471
  234SOL     vw  936   0.979   2.388   6.258 -0.0595 -0.0316 -0.0277
  235SOL     ow  937   0.916   0.899   4.131  0.4399  0.1376 -0.0729
  235SOL     hw  938   0.916   0.879   4.224  0.4583  0.8532  0.0851
  235SOL     hw  939   0.897   0.992   4.126  0.4368  0.1076 -0.7881
  235SOL     vw  940   0.913   0.908   4.142  0.0046  0.0223 -0.0463
  236SOL     ow  941   0.395   2.067   3.305 -0.0702 -0.0932  0.4914
  236SOL     hw  942   0.422   1.980   3.277 -0.9417 -0.5279  0.9756
  236SOL     hw  943   0.453   2.088   3.379  0.8344  0.1898 -0.2742
  236SOL     vw  944   0.406   2.058   3.311 -0.0763 -0.0175  0.0590
  237SOL     ow  945   2.096   0.749   4.374  0.1767 -0.3947  0.2973
  237SOL     hw  946   2.150   0.672   4.362 -0.6974 -0.9701 -0.0491
  237SOL     hw  947   2.006   0.716   4.373 -0.1955  0.5542  0.6814
  237SOL     vw  948   2.091   0.734   4.373 -0.0200 -0.0252  0.0126
  238SOL     ow  949   0.254   0.387   3.999 -0.1563  0.0603 -0.2159
  238SOL     hw  950   0.212   0.302   4.011  1.5888 -0.8269 -0.0384
  238SOL     hw  951   0.241   0.432   4.083 -1.6103  0.2391 -0.5177
  238SOL     vw  952   0.247   0.382   4.012 -0.0332  0.0441  0.0234
  239SOL     ow  953   0.995   1.646   3.811 -0.5601 -0.2427  0.7934
  239SOL     hw  954   0.943   1.711   3.858 -0.6209  0.1744  0.1617
  239SOL     hw  955   0.957   1.562   3.837 -2.6982  0.0954 -0.9175
  239SOL     vw  956   0.983   1.643   3.821 -0.0106  0.0666 -0.0039
  240SOL     ow  957   2.398   0.862   2.956 -0.0778  0.0347  0.1695
  240SOL     hw  958   2.459   0.789   2.947  0.7181  0.6995 -0.0340
  240SOL     hw  959   2.371   0.883   2.867 -0.1289  0.1243  0.2054
  240SOL     vw  960   2.402   0.855   2.943  0.1490  0.1052 -0.0882
  241SOL     ow  961   2.159   0.585   2.797  0.6041 -0.2101 -0.2028
  241SOL     hw  962   2.187   0.599   2.888  0.0779  0.0038 -0.0686
  241SOL     hw  963   2.107   0.505   2.801  1.0049 -0.4812 -0.4091
  241SOL     vw  964   2.156   0.576   2.810 -0.0306 -0.0065 -0.0244
  242SOL     ow  965   1.844   0.308   0.981 -0.2087  0.1191  0.1802
  242SOL     hw  966   1.864   0.215   0.974 -0.3581  0.1563 -1.0198
  242SOL     hw  967   1.833   0.337   0.890 -0.3828  1.2579  0.5453
  242SOL     vw  968   1.845   0.299   0.968 -0.1265  0.0023  0.0250
  243SOL     ow  969   0.074   1.458   4.662 -0.3951 -0.4690 -0.0322
  243SOL     hw  970   0.141   1.412   4.611  0.4829  1.2524 -0.5009
  243SOL     hw  971  -0.008   1.415   4.638  0.2784 -1.1507 -1.1931
  243SOL     vw  972   0.072   1.446   4.652 -0.0039  0.0081 -0.0706
  244SOL     ow  973   0.215   0.874   4.118  0.5380  0.0170 -0.5725
  244SOL     hw  974   0.267   0.882   4.038  1.9168 -0.2595  0.2801
  244SOL     hw  975   0.211   0.962   4.153 -2.6645  0.8024 -2.4496
  244SOL     vw  976   0.221   0.886   4.112 -0.0711  0.0234  0.0212
  245SOL     ow  977   0.130   0.886   0.532 -0.0880  0.3815 -0.3703
  245SOL     hw  978   0.212   0.935   0.535 -0.6457  1.3191  0.3587
  245SOL     hw  979   0.139   0.818   0.598 -0.5262  1.5510  0.9300
  245SOL     vw  980   0.142   0.884   0.541 -0.0126  0.0398 -0.0493
  246SOL     ow  981   2.041   0.138   1.641  0.5002 -0.2238  0.0398
  246SOL     hw  982   2.017   0.097   1.558 -2.4326 -1.2449  1.2647
  246SOL     hw  983   2.093   0.072   1.686  1.0727 -0.1328 -0.4723
  246SOL     vw  984   2.045   0.124   1.636  0.0080 -0.0298  0.0620
  247SOL     ow  985   0.433   0.226   3.358 -0.3568  0.1525  0.5584
  247SOL     hw  986   0.356   0.269   3.396  0.6095  1.5282  1.0283
  247SOL     hw  987   0.465   0.287   3.291 -0.4409 -1.0198 -0.6020
  247SOL     vw  988   0.427   0.240   3.354 -0.0421 -0.0139 -0.0099
  248SOL     ow  989   2.140   1.945   3.512  0.0953 -0.2173 -0.1644
  248SOL     hw  990   2.116   2.037   3.503  2.3467  0.3216 -1.6686
  248SOL     hw  991   2.062   1.897   3.485 -0.9961  1.2350  0.2638
  248SOL     vw  992   2.127   1.951   3.507  0.0111 -0.0349  0.0361
  249SOL     ow  993   1.242   0.019   5.164 -0.0846 -0.3715  0.3285
  249SOL     hw  994   1.195   0.060   5.236 -1.8374 -2.7705  0.6731
  249SOL     hw  995   1.262  -0.069   5.195 -0.2329 -1.2274 -1.8183
  249SOL     vw  996   1.238   0.013   5.178  0.1543 -0.0378  0.0331
  250SOL     ow  997   0.070   0.601   1.407 -0.3172 -0.7374 -0.5572
  250SOL     hw  998   0.084   0.630   1.317  1.1224 -0.7042 -0.3462
  250SOL     hw  999   0.157   0.602   1.446 -0.9051 -0.8844  0.8041
  250SOL     vw 1000   0.083   0.605   1.400 -0.0170 -0.0076  0.0329
  251SOL     ow 1001   2.251   1.176   4.627  0.1387  0.3271  0.7207
  251SOL     hw 1002   2.229   1.267   4.611 -0.2553  0.4950  2.0672
  251SOL     hw 1003   2.230   1.162   4.720 -1.8859 -1.7115  0.0570
  251SOL     vw 1004   2.245   1.186   4.637 -0.0134  0.0036 -0.0889
  252SOL     ow 1005   2.188   0.559   0.156  0.3997  0.2147  0.0426
  252SOL     hw 1006   2.152   0.585   0.071 -0.5619 -0.9796  0.0529
  252SOL     hw 1007   2.278   0.592   0.155  0.2557  0.6241 -1.2427
  252SOL     vw 1008   2.195   0.567   0.145 -0.0004 -0.0132  0.0500
  253SOL     ow 1009   1.535   0.192   3.843  0.5489  0.2550 -0.1970
  253SOL     hw 1010   1.498   0.198   3.931  0.3215  1.3876 -0.3511
  253SOL     hw 1011   1.464   0.154   3.791  0.4543  0.1873 -0.0220
  253SOL     vw 1012   1.521   0.188   3.848 -0.0183 -0.0257  0.0241
  254SOL     ow 1013   1.123   0.412   3.314 -0.4767  0.4992  0.4628
  254SOL     hw 1014   1.191   0.349   3.290  1.3079  2.4409  0.1713
  254SOL     hw 1015   1.044   0.380   3.271  0.6338 -0.8849 -0.6328
  254SOL     vw 1016   1.122   0.399   3.305 -0.0352  0.0750 -0.0472
  255SOL     ow 1017   1.987   0.529   1.060  0.3975 -0.1309 -0.3061
  255SOL     hw 1018   2.049   0.570   1.000  0.5392  1.6762  0.9711
  255SOL     hw 1019   1.944   0.460   1.009  1.4806  0.4241 -2.0236
  255SOL     vw 1020   1.989   0.525   1.045 -0.0001 -0.0384  0.0376
  256SOL     ow 1021   0.617   2.453   1.847 -0.2635 -0.6970 -0.1130
  256SOL     hw 1022   0.650   2.489   1.764  0.3918  0.7154  0.7162
  256SOL     hw 1023   0.524   2.434   1.830 -0.7814  1.8431 -0.5221
  256SOL     vw 1024   0.609   2.455   1.834 -0.0353 -0.0581 -0.0446
  257SOL     ow 1025   2.295   0.440   1.723  0.0065 -0.0527 -0.0180
  257SOL     hw 1026   2.226   0.406   1.780 -0.0760  0.4735  0.2064
  257SOL     hw 1027   2.298   0.379   1.649 -1.2721  0.3736 -0.4486
  257SOL     vw 1028   2.286   0.427   1.721 -0.0048  0.0515 -0.0162
  258SOL     ow 1029   0.858   1.536   6.827  0.0041  0.8234 -0.4329
  258SOL     hw 1030   0.916   1.469   6.863 -1.6788 -1.2207 -1.3275
  258SOL     hw 1031   0.918   1.604   6.793  1.9352 -1.3095 -1.6083
  258SOL     vw 1032   0.874   1.536   6.827 -0.0522  0.0370  0.0167
  259SOL     ow 1033   2.026   1.698   1.385  0.1354  0.2931 -0.4422
  259SOL     hw 1034   1.970   1.754   1.332  0.4471  1.0656  0.0238
  259SOL     hw 1035   2.114   1.711   1.350 -0.1330 -2.2031 -2.2785
  259SOL     vw 1036   2.030   1.707   1.374 -0.0542  0.0154  0.0042
  260SOL     ow 1037   0.828   1.371   1.649  0.7541 -0.1751 -0.3654
  260SOL     hw 1038   0.847   1.323   1.568  2.0524 -0.9158  0.3428
  260SOL     hw 1039   0.747   1.331   1.682  0.6536 -0.4106 -0.8903
  260SOL     vw 1040   0.820   1.359   1.643  0.0373 -0.0498  0.0247
  261SOL     ow 1041   1.895   1.071   4.952  0.0493  0.4629 -0.4392
  261SOL     hw 1042   1.911   0.995   4.896 -0.0184 -0.1403  0.3407
  261SOL     hw 1043   1.865   1.033   5.034  2.7525  1.1606  0.9693
  261SOL     vw 1044   1.893   1.056   4.955 -0.0284  0.0696  0.0010
  262SOL     ow 1045   0.847   1.589   2.823  0.3526 -0.1519  0.0695
  262SOL     hw 1046   0.916   1.527   2.847  0.4602 -0.8871 -1.8764
  262SOL     hw 1047   0.769   1.557   2.868  1.1896  0.5296  2.0806
  262SOL     vw 1048   0.846   1.576   2.832 -0.0079 -0.0129  0.0517
  263SOL     ow 1049   1.654   2.009   2.247  0.3484 -0.1654 -0.0275
  263SOL     hw 1050   1.639   1.942   2.314  1.0266 -0.2874  0.0140
  263SOL     hw 1051   1.581   1.999   2.187  0.3106 -0.7918  0.1112
  263SOL     vw 1052   1.643   1.999   2.248  0.0699  0.0510  0.0520
  264SOL     ow 1053   2.234   0.794   1.395 -0.0800 -0.5386 -0.2358
  264SOL     hw 1054   2.159   0.853   1.397 -0.9009 -1.4926 -1.0868
  264SOL     hw 1055   2.247   0.776   1.301  1.6999  0.2015 -0.1559
  264SOL     vw 1056   2.226   0.799   1.383 -0.0519 -0.0490  0.0196
  265SOL     ow 1057   0.605   2.011   2.562  0.3605 -0.0124 -0.1054
  265SOL     hw 1058   0.678   2.058   2.523 -0.1642  0.8610 -0.0512
  265SOL     hw 1059   0.644   1.960   2.633  0.6967  1.5996  0.8973
  265SOL     vw 1060   0.620   2.010   2.566  0.0089 -0.0271 -0.0919
  266SOL     ow 1061   1.148   0.160   1.009 -0.6008  0.1041  0.1718
  266SOL     hw 1062   1.110   0.247   1.001  1.9785  1.1748 -1.8738
  266SOL     hw 1063   1.188   0.159   1.095 -0.0648  1.2455 -0.0459
  266SOL     vw 1064   1.148   0.171   1.019  0.0436  0.0327  0.0114
  267SOL     ow 1065   2.326   0.746   3.792  0.6264  0.6364 -0.7921
  267SOL     hw 1066   2.239   0.708   3.803  1.6963 -1.7387  0.1358
  267SOL     hw 1067   2.336   0.756   3.698 -0.6516  1.0022 -0.9079
  267SOL     vw 1068   2.316   0.742   3.781  0.0030 -0.0321  0.0124
  268SOL     ow 1069   2.425   0.582   2.771 -0.0888 -0.1904 -0.0873
  268SOL     hw 1070   2.445   0.537   2.853  2.0127  1.7504  0.5730
  268SOL     hw 1071   2.330   0.573   2.762 -0.0746 -2.4441  1.3073
  268SOL     vw 1072   2.415   0.575   2.781  0.0026  0.0749  0.0472
  269SOL     ow 1073   1.480   0.926   3.822  0.0948 -0.3039  0.1824
  269SOL     hw 1074   1.428   0.852   3.793 -0.5589  0.7754 -1.5747
  269SOL     hw 1075   1.569   0.908   3.790  0.3120 -1.0730  1.1889
  269SOL     vw 1076   1.485   0.914   3.814  0.0429  0.0395  0.0207
  270SOL     ow 1077   1.792   0.555   1.254 -0.0835 -0.1279 -0.0973
  270SOL     hw 1078   1.783   0.462   1.272 -0.4178 -0.5119 -2.0655
  270SOL     hw 1079   1.854   0.560   1.182 -0.0662  1.1857 -0.0183
  270SOL     vw 1080   1.799   0.543   1.247  0.0767 -0.0053  0.0576
  271SOL     ow 1081   1.303   0.092   6.074  0.8561 -0.6111  0.4017
  271SOL     hw 1082   1.224   0.129   6.033  0.9770  0.4875  1.1162
  271SOL     hw 1083   1.305   0.130   6.162  1.4738 -1.6739  0.8631
  271SOL     vw 1084   1.293   0.102   6.080  0.0476 -0.0293  0.0207
  272SOL     ow 1085   1.488   2.101   6.384  0.2463  0.5723 -0.1391
  272SOL     hw 1086   1.566   2.089   6.329  0.4895 -0.2722  0.3679
  272SOL     hw 1087   1.429   2.030   6.357  0.0715  0.5956  0.1838
  272SOL     vw 1088   1.490   2.090   6.373  0.0610  0.0190 -0.0210
  273SOL     ow 1089   0.859   0.341   3.695  0.1725 -0.2376  0.2084
  273SOL     hw 1090   0.791   0.291   3.651 -1.9438  2.4747  0.1632
  273SOL     hw 1091   0.928   0.350   3.630  0.0484 -1.9100 -0.2021
  273SOL     vw 1092   0.859   0.336   3.681 -0.0385 -0.0531  0.0703
  274SOL     ow 1093   0.426   0.793   1.672 -0.2361  0.0789 -0.5657
  274SOL     hw 1094   0.331   0.786   1.677 -0.4640  2.0462 -1.0918
  274SOL     hw 1095   0.446   0.772   1.581  0.1494 -2.6389  0.0666
  274SOL     vw 1096   0.416   0.790   1.660 -0.0359 -0.0079  0.0153
  275SOL     ow 1097   2.110   2.263   2.934  0.1617  0.2389 -0.2874
  275SOL     hw 1098   2.022   2.226   2.933  1.5580 -3.4300 -1.5765
  275SOL     hw 1099   2.144   2.248   2.846  2.6371  0.0647  0.6304
  275SOL     vw 1100   2.103   2.256   2.923  0.0086  0.0105  0.0273
  276SOL     ow 1101   1.214   1.107   5.609 -0.4341  0.0566  0.1069
  276SOL     hw 1102   1.143   1.125   5.671 -1.0744 -1.0773 -0.2573
  276SOL     hw 1103   1.197   1.166   5.535  0.8758  2.1067  1.3498
  276SOL     vw 1104   1.202   1.117   5.607  0.0396  0.0540  0.0210
  277SOL     ow 1105   1.533   1.060   3.463 -0.6261 -0.1404  0.2600
  277SOL     hw 1106   1.578   1.109   3.394  0.8636 -1.4765  0.2312
  277SOL     hw 1107   1.498   1.128   3.522  1.0732  0.9685  0.0504
  277SOL     vw 1108   1.534   1.076   3.462 -0.0518 -0.0457  0.0693
  278SOL     ow 1109   0.137   0.129   6.501 -0.6815  0.2484 -0.1004
  278SOL     hw 1110   0.058   0.084   6.471 -2.0160  1.6636  1.1371
  278SOL     hw 1111   0.208   0.087   6.452 -2.2094 -0.8588 -1.4948
  278SOL     vw 1112   0.136   0.117   6.490  0.0308  0.0018  0.0827
  279SOL     ow 1113   1.945   2.236   3.846 -0.2261 -0.6260 -0.0826
  279SOL     hw 1114   1.934   2.156   3.897 -1.9870  1.3169  2.9472
  279SOL     hw 1115   2.004   2.290   3.900  1.2850  0.0285 -2.2500
  279SOL     vw 1116   1.952   2.233   3.860  0.0188  0.0570 -0.0365
  280SOL     ow 1117   1.668   2.176   1.294 -0.0151  0.1575 -0.4219
  280SOL     hw 1118   1.751   2.152   1.333  1.0379  0.5290 -2.3031
  280SOL     hw 1119   1.678   2.155   1.201 -1.0266  2.5825 -1.1808
  280SOL     vw 1120   1.680   2.170   1.287 -0.0128  0.0508  0.0467
  281SOL     ow 1121   0.884   0.334   6.153  0.6961 -0.0742  0.0733
  281SOL     hw 1122   0.845   0.349   6.066  0.2742 -1.3591  0.0274
  281SOL     hw 1123   0.869   0.416   6.200 -2.6773 -0.6561  0.2751
  281SOL     vw 1124   0.877   0.347   6.147  0.0029 -0.0781  0.0734
  282SOL     ow 1125   0.381   0.706   4.992 -0.1386  0.6967 -0.2905
  282SOL     hw 1126   0.435   0.785   4.987  2.3614 -0.6478  2.7299
  282SOL     hw 1127   0.308   0.730   5.048  2.4051  0.1781  3.5885
  282SOL     vw 1128   0.379   0.720   4.999 -0.0273 -0.0894 -0.0396
  283SOL     ow 1129   0.727   0.633   2.968 -0.3498 -0.0116  0.2334
  283SOL     hw 1130   0.651   0.656   2.914 -0.3396 -0.7850 -0.1235
  283SOL     hw 1131   0.693   0.569   3.031  0.4325 -2.0097 -1.2944
  283SOL     vw 1132   0.712   0.628   2.969  0.0196  0.0035  0.0150
  284SOL     ow 1133   2.404   2.264   3.017  0.0956  0.2487  0.1163
  284SOL     hw 1134   2.498   2.258   3.031  0.0829 -1.2146 -0.2465
  284SOL     hw 1135   2.394   2.323   2.942  0.8853 -1.2320 -1.2230
  284SOL     vw 1136   2.415   2.271   3.009  0.0439 -0.0082 -0.0451
  285SOL     ow 1137   0.166   0.731   1.775  0.2466 -0.1024 -1.0872
  285SOL     hw 1138   0.159   0.636   1.783  1.2485 -0.3058 -2.2505
  285SOL     hw 1139   0.186   0.761   1.863  0.0998 -0.9892 -0.7407
  285SOL     vw 1140   0.168   0.723   1.788  0.0299  0.0192 -0.0048
  286SOL     ow 1141   0.331   2.294   2.865 -0.2020 -0.2497 -0.1647
  286SOL     hw 1142   0.263   2.230   2.886  0.0571 -0.1438  1.0966
  286SOL     hw 1143   0.370   2.262   2.784 -2.0667 -0.0346 -1.1868
  286SOL     vw 1144   0.327   2.281   2.857 -0.0152 -0.0501  0.0213
  287SOL     ow 1145   0.153   1.409   0.810 -0.3753  0.0365  0.5861
  287SOL     hw 1146   0.109   1.490   0.835 -0.6728 -0.2381  0.9516
  287SOL     hw 1147   0.219   1.395   0.879 -1.5871 -1.0318  1.5785
  287SOL     vw 1148   0.156   1.418   0.822  0.0192 -0.0126  0.0127
  288SOL     ow 1149   0.086   0.655   3.928  0.2346 -0.1277 -0.8073
  288SOL     hw 1150   0.138   0.581   3.895 -2.4523 -2.1349 -0.8215
  288SOL     hw 1151   0.008   0.657   3.873 -0.2664  2.1045 -0.1256
  288SOL     vw 1152   0.083   0.645   3.916 -0.0304  0.0609  0.0479
  289SOL     ow 1153   1.676   1.303   6.010 -0.1145  1.6183  0.4840
  289SOL     hw 1154   1.691   1.266   5.923 -1.0919  1.7839  0.2290
  289SOL     hw 1155   1.733   1.380   6.014 -0.0261  1.5795  0.0136
  289SOL     vw 1156   1.685   1.309   5.999 -0.0120 -0.0252 -0.0331
  290SOL     ow 1157   1.931   0.280   6.165 -0.2655  0.9732 -0.5623
  290SOL     hw 1158   1.873   0.295   6.090  0.2348  2.7822 -0.6456
  290SOL     hw 1159   1.875   0.293   6.242 -0.4102  0.7083 -0.6201
  290SOL     vw 1160   1.916   0.284   6.165 -0.0662  0.0997 -0.0322
  291SOL     ow 1161   1.995   0.377   0.186 -0.2253 -0.8538 -0.1620
  291SOL     hw 1162   2.047   0.456   0.172  2.2192 -2.3293 -0.0938
  291SOL     hw 1163   2.006   0.358   0.279 -0.0205 -1.7501 -0.3594
  291SOL     vw 1164   2.003   0.385   0.197 -0.0675 -0.0225  0.0209
  292SOL     ow 1165   2.341   1.683   4.902  0.5521  0.5686  0.7705
  292SOL     hw 1166   2.291   1.675   4.821  1.9302  0.8414 -0.1609
  292SOL     hw 1167   2.313   1.767   4.940  0.1581  0.6131  0.3841
  292SOL     vw 1168   2.331   1.693   4.896  0.0933  0.0634 -0.0362
  293SOL     ow 1169   1.752   1.226   3.778  0.5515  0.0366 -0.1743
  293SOL     hw 1170   1.773   1.203   3.868  1.4236 -4.1598 -1.2021
  293SOL     hw 1171   1.837   1.247   3.739  0.1454  2.1009 -0.0329
  293SOL     vw 1172   1.766   1.226   3.784 -0.0018 -0.0042 -0.0535
  294SOL     ow 1173   1.465   0.751   0.799 -0.2471  0.2784 -0.1443
  294SOL     hw 1174   1.506   0.679   0.750  0.3528  1.1049 -0.8878
  294SOL     hw 1175   1.371   0.736   0.789 -0.1340  0.2189 -1.2758
  294SOL     vw 1176   1.458   0.740   0.791  0.0163  0.0190 -0.0361
  295SOL     ow 1177   1.445   2.331   6.231 -0.4744  0.3038  0.5428
  295SOL     hw 1178   1.527   2.379   6.236 -0.3310 -0.0044  1.2381
  295SOL     hw 1179   1.456   2.258   6.292 -0.0169 -1.6090 -1.6602
  295SOL     vw 1180   1.457   2.327   6.240 -0.0209  0.0150  0.0138
  296SOL     ow 1181   0.142   1.989   3.206 -0.3484  0.2153  0.2929
  296SOL     hw 1182   0.204   2.021   3.272  0.1920 -2.2811  1.1386
  296SOL     hw 1183   0.141   1.894   3.219 -5.0119  0.1458  0.8596
  296SOL     vw 1184   0.150   1.981   3.216  0.0009 -0.0061 -0.0459
  297SOL     ow 1185   1.639   1.454   3.935 -0.4619  0.3430 -0.1798
  297SOL     hw 1186   1.632   1.418   3.847  0.7587 -0.4873  0.0341
  297SOL     hw 1187   1.560   1.507   3.946 -1.6969 -1.2610 -0.9722
  297SOL     vw 1188   1.628   1.456   3.925 -0.0410 -0.0924  0.0051
  298SOL     ow 1189   1.319   0.144   3.496  0.4978  0.1714 -0.3366
  298SOL     hw 1190   1.249   0.115   3.436  1.4041  1.0611 -1.8928
  298SOL     hw 1191   1.304   0.093   3.575  1.3670 -3.8739 -2.4805
  298SOL     vw 1192   1.308   0.133   3.498  0.0687 -0.0113 -0.0669
  299SOL     ow 1193   0.829   1.655   5.619 -0.3200  0.0201 -0.1811
  299SOL     hw 1194   0.829   1.739   5.664 -1.9666 -0.1294  0.1571
  299SOL     hw 1195   0.895   1.603   5.664  2.1296  1.6957 -1.5971
  299SOL     vw 1196   0.838   1.659   5.631 -0.0118  0.0323 -0.0038
  300SOL     ow 1197   1.510   2.383   5.946  0.2829  0.0476  0.3959
  300SOL     hw 1198   1.559   2.313   5.904  0.3336  0.8999 -1.0289
  300SOL     hw 1199   1.536   2.462   5.898 -1.6656  0.6728  0.2969
  300SOL     vw 1200   1.520   2.384   5.934 -0.0306 -0.0306 -0.0389
  301SOL     ow 1201   1.611   0.370   3.593 -0.0393  0.1698 -0.1062
  301SOL     hw 1202   1.584   0.365   3.501  0.0366 -0.4430 -0.0978
  301SOL     hw 1203   1.624   0.464   3.609 -2.2113  0.5167 -0.0892
  301SOL     vw 1204   1.610   0.382   3.583 -0.1273  0.0001  0.0031
  302SOL     ow 1205   2.104   1.584   5.519  0.3478 -0.3015 -0.0004
  302SOL     hw 1206   2.129   1.676   5.508  0.0835 -0.1602  0.5391
  302SOL     hw 1207   2.174   1.548   5.574 -0.7063  0.1551  1.7232
  302SOL     vw 1208   2.117   1.592   5.525 -0.0201  0.0359 -0.0136
  303SOL     ow 1209   0.481   0.703   3.885  0.8020  0.5600  0.2088
  303SOL     hw 1210   0.547   0.737   3.945  1.6163  0.8895 -0.8522
  303SOL     hw 1211   0.426   0.779   3.864  1.3384  0.7553 -0.5092
  303SOL     vw 1212   0.483   0.718   3.890 -0.0284  0.0021  0.0350
  304SOL     ow 1213   0.513   0.897   1.963  0.3200 -0.8347  0.1636
  304SOL     hw 1214   0.422   0.874   1.981 -0.2191  0.6020 -0.5596
  304SOL     hw 1215   0.560   0.872   2.042 -0.6990 -1.6227  0.5376
  304SOL     vw 1216   0.507   0.891   1.976 -0.0207  0.0393 -0.0026
  305SOL     ow 1217   1.677   1.349   6.351 -0.1299  0.5401 -0.2889
  305SOL     hw 1218   1.705   1.438   6.328  0.2946  0.4345 -0.1792
  305SOL     hw 1219   1.725   1.292   6.291 -1.0516  0.4312 -0.9503
  305SOL     vw 1220   1.687   1.353   6.340  0.1222 -0.0096  0.1078
  306SOL     ow 1221   1.694   1.143   5.792  0.5131 -0.6340  0.1917
  306SOL     hw 1222   1.607   1.140   5.753 -0.2269  0.0907  1.7133
  306SOL     hw 1223   1.696   1.067   5.851  0.2947  0.1964  1.3163
  306SOL     vw 1224   1.683   1.133   5.795  0.0364  0.0314  0.0186
  307SOL     ow 1225   0.357   0.663   4.690  0.2910 -0.8702 -0.2592
  307SOL     hw 1226   0.380   0.756   4.695  0.8153 -1.0261  0.5584
  307SOL     hw 1227   0.262   0.662   4.678 -0.1575 -0.2042  2.4689
  307SOL     vw 1228   0.348   0.675   4.689  0.0921  0.0045  0.0498
  308SOL     ow 1229   1.717   1.867   6.775 -0.4842 -0.4228  0.2031
  308SOL     hw 1230   1.812   1.856   6.778 -0.6439 -1.7632  1.5420
  308SOL     hw 1231   1.695   1.905   6.860 -0.9057  2.4924 -1.1210
  308SOL     vw 1232   1.727   1.870   6.787  0.0341 -0.0092 -0.0539
  309SOL     ow 1233   0.136   0.207   5.894 -0.0489 -0.0018  0.1837
  309SOL     hw 1234   0.081   0.284   5.881 -1.6059 -1.3133 -1.5068
  309SOL     hw 1235   0.193   0.205   5.818  1.1795  0.3682  1.0643
  309SOL     vw 1236   0.136   0.217   5.883 -0.0024  0.0549 -0.0248
  310SOL     ow 1237   0.905   1.414   4.747  0.3281  0.8260  0.2056
  310SOL     hw 1238   0.936   1.338   4.698 -1.5913 -0.6782  1.1778
  310SOL     hw 1239   0.917   1.488   4.687 -0.2122 -0.6387 -1.8265
  310SOL     vw 1240   0.911   1.414   4.733  0.0389  0.0413  0.0808
  311SOL     ow 1241   1.017   0.759   3.379 -0.2516 -0.1840  0.7824
  311SOL     hw 1242   0.960   0.829   3.347  1.0871  1.3205  1.5676
  311SOL     hw 1243   0.962   0.681   3.376 -2.1134  1.0516  0.7702
  311SOL     vw 1244   1.002   0.758   3.375 -0.0073 -0.0128  0.0257
  312SOL     ow 1245   0.678   0.867   2.168 -0.0511 -0.3286  0.5154
  312SOL     hw 1246   0.729   0.794   2.133  0.7843  0.1980  0.6162
  312SOL     hw 1247   0.741   0.939   2.177 -1.1706  0.9183 -1.0570
  312SOL     vw 1248   0.693   0.867   2.165  0.0014  0.0011 -0.0007
  313SOL     ow 1249   1.748   2.254   2.451 -0.3091 -0.4806  0.0984
  313SOL     hw 1250   1.660   2.291   2.461 -0.2918 -0.1837 -0.7935
  313SOL     hw 1251   1.765   2.211   2.535 -0.4790  1.2332  1.0763
  313SOL     vw 1252   1.739   2.253   2.463  0.0332  0.0712 -0.0023
  314SOL     ow 1253   2.111   1.709   1.638 -0.1053  0.2507 -0.4742
  314SOL     hw 1254   2.102   1.804   1.643  2.3953  0.5049  0.7519
  314SOL     hw 1255   2.079   1.686   1.550 -2.2912  1.9548 -0.1959
  314SOL     vw 1256   2.106   1.718   1.627  0.0771  0.0040  0.0157
  315SOL     ow 1257   0.820   2.008   3.431 -0.8689  0.4254  0.2696
  315SOL     hw 1258   0.901   2.058   3.422 -0.6575 -0.0143 -0.3124
  315SOL     hw 1259   0.763   2.063   3.485  0.2001  0.2785  1.5925
  315SOL     vw 1260   0.823   2.022   3.437  0.0182  0.0134 -0.0039
  316SOL     ow 1261   2.258   0.243   6.391  0.0715 -0.0812  0.0176
  316SOL     hw 1262   2.212   0.320   6.425  0.1424 -0.7577  1.7939
  316SOL     hw 1263   2.250   0.250   6.296 -0.8705  1.5295  0.1731
  316SOL     vw 1264   2.251   0.254   6.383 -0.0346  0.0578  0.0341
  317SOL     ow 1265   1.098   0.120   4.954  0.3541 -0.3680 -0.7257
  317SOL     hw 1266   1.132   0.205   4.982  0.9115 -0.8086 -0.0414
  317SOL     hw 1267   1.062   0.137   4.866 -2.0836  1.1843  0.4636
  317SOL     vw 1268   1.098   0.134   4.946 -0.0900  0.0727 -0.0274
  318SOL     ow 1269   1.798   0.110   3.690  0.1730 -0.0329  0.2905
  318SOL     hw 1270   1.799   0.016   3.672 -0.3486 -0.0981  0.5636
  318SOL     hw 1271   1.888   0.132   3.711 -0.0189 -0.8739  2.2268
  318SOL     vw 1272   1.810   0.100   3.690 -0.0393  0.0068  0.0105
  319SOL     ow 1273   1.024   0.511   0.220  0.0412  0.1785 -0.1987
  319SOL     hw 1274   1.057   0.426   0.190  1.2963 -0.2075  2.0646
  319SOL     hw 1275   1.102   0.567   0.224 -0.6129  1.1510 -0.7049
  319SOL     vw 1276   1.039   0.507   0.216 -0.0184  0.0119 -0.0276
  320SOL     ow 1277   2.129   1.926   6.136  0.0829  0.6530 -0.1377
  320SOL     hw 1278   2.082   1.843   6.136  0.7179  0.2809 -1.1476
  320SOL     hw 1279   2.061   1.993   6.134 -0.4183  0.1549  0.0639
  320SOL     vw 1280   2.114   1.924   6.136  0.0328 -0.0062  0.0265
  321SOL     ow 1281   2.260   1.100   1.417  0.3830  0.4278 -0.5055
  321SOL     hw 1282   2.353   1.122   1.413  0.5270 -0.2207 -0.8198
  321SOL     hw 1283   2.257   1.009   1.446 -0.2472  1.1255  1.8399
  321SOL     vw 1284   2.272   1.091   1.420  0.0390  0.0029 -0.0427
  322SOL     ow 1285   0.333   0.979   4.415 -0.4985 -0.0725  0.2699
  322SOL     hw 1286   0.389   0.902   4.406 -0.6937 -0.0907 -0.8094
  322SOL     hw 1287   0.348   1.008   4.505  0.0493 -0.9979  0.4940
  322SOL     vw 1288   0.342   0.973   4.426  0.0048 -0.0588  0.0019
  323SOL     ow 1289   1.134   0.559   3.742  0.3389  0.1191  0.1783
  323SOL     hw 1290   1.084   0.541   3.662  0.0786 -1.9216  0.7358
  323SOL     hw 1291   1.079   0.620   3.792 -0.0290  0.4990 -0.6790
  323SOL     vw 1292   1.120   0.564   3.738 -0.0129  0.0350 -0.0106
  324SOL     ow 1293   1.391   0.280   1.769  0.1369  0.5651 -0.4769
  324SOL     hw 1294   1.486   0.281   1.757  0.1845 -0.4146 -0.2120
  324SOL     hw 1295   1.375   0.209   1.830 -0.7758  0.6961 -0.5523
  324SOL     vw 1296   1.402   0.271   1.775 -0.0041  0.0038 -0.0326
  325SOL     ow 1297   0.999   2.402   4.101 -0.5139 -0.6082  0.4710
  325SOL     hw 1298   1.018   2.318   4.059 -0.1903  0.2220 -1.1305
  325SOL     hw 1299   0.909   2.394   4.132 -0.4087 -1.6252  0.5360
  325SOL     vw 1300   0.990   2.390   4.099 -0.0639 -0.0102  0.0322
  326SOL     ow 1301   2.377   0.914   0.275  0.1538 -0.4484  0.1497
  326SOL     hw 1302   2.353   0.858   0.202 -1.3803  0.2512  0.0913
  326SOL     hw 1303   2.431   0.983   0.236 -0.8655  0.0658 -0.3964
  326SOL     vw 1304   2.381   0.916   0.260 -0.0261 -0.0162  0.0099
  327SOL     ow 1305   1.430   0.033   4.080 -0.1007 -0.2236 -0.1183
  327SOL     hw 1306   1.447   0.003   4.170  0.1401 -1.5211 -0.5814
  327SOL     hw 1307   1.506   0.004   4.031 -0.2212  0.5104 -0.7572
  327SOL     vw 1308   1.442   0.026   4.086 -0.0275 -0.0191  0.0260
  328SOL     ow 1309   0.725   0.364   4.145 -0.0937 -0.0317  0.3015
  328SOL     hw 1310   0.718   0.269   4.136  0.0551 -0.0611  0.4779
  328SOL     hw 1311   0.654   0.388   4.204  0.2452 -0.1160  0.7556
  328SOL     vw 1312   0.715   0.355   4.152 -0.0225  0.0296 -0.0851
  329SOL     ow 1313   1.532   2.027   6.658  0.1036 -0.0429 -0.1848
  329SOL     hw 1314   1.545   2.048   6.565 -0.6711  0.0469 -0.2784
  329SOL     hw 1315   1.597   1.960   6.677  2.1401  1.8536 -0.0821
  329SOL     vw 1316   1.542   2.021   6.648 -0.0088  0.0455  0.0215
  330SOL     ow 1317   0.849   1.680   2.502 -0.3187 -0.3471  0.7004
  330SOL     hw 1318   0.901   1.625   2.443  0.2202  2.4811 -1.6733
  330SOL     hw 1319   0.762   1.681   2.463 -0.1867  0.8451  0.4034
  330SOL     vw 1320   0.845   1.673   2.489 -0.0686  0.0446  0.1260
  331SOL     ow 1321   0.173   2.036   5.925  0.0593 -0.4803 -0.3171
  331SOL     hw 1322   0.180   2.128   5.900 -1.8926 -0.3115 -0.3969
  331SOL     hw 1323   0.201   1.987   5.847  3.7469 -0.0689  0.5575
  331SOL     vw 1324   0.177   2.041   5.911  0.0355 -0.0443 -0.0215
  332SOL     ow 1325   1.753   0.861   3.774 -0.4690 -0.1387 -0.5512
  332SOL     hw 1326   1.822   0.914   3.735  0.8938 -1.1953  0.3158
  332SOL     hw 1327   1.759   0.879   3.867  0.9214 -2.6961 -0.0576
  332SOL     vw 1328   1.763   0.870   3.781  0.0150 -0.0370  0.0075
  333SOL     ow 1329   2.079   1.846   3.791  0.3253 -0.4286  0.4215
  333SOL     hw 1330   2.014   1.904   3.831 -0.0791 -1.2923  1.0354
  333SOL     hw 1331   2.034   1.808   3.716  1.0155  1.0269 -0.8051
  333SOL     vw 1332   2.065   1.849   3.786 -0.1043 -0.0331  0.0584
  334SOL     ow 1333   1.248   1.597   6.224 -0.4060 -0.8763 -0.4986
  334SOL     hw 1334   1.313   1.666   6.218 -0.2343 -1.0979 -1.2315
  334SOL     hw 1335   1.172   1.638   6.266  0.4371 -0.7941  1.0359
  334SOL     vw 1336   1.246   1.611   6.229 -0.0522  0.0018  0.0398
  335SOL     ow 1337   0.307   0.017   3.032  0.1035  0.0659  0.1649
  335SOL     hw 1338   0.310  -0.035   2.952  2.9593  1.1202 -0.5293
  335SOL     hw 1339   0.301   0.108   3.002  1.1822  0.4775  1.0847
  335SOL     vw 1340   0.307   0.022   3.018  0.0327  0.0592  0.0434
  336SOL     ow 1341   2.046   2.200   3.547  0.6405  0.0758 -0.0943
  336SOL     hw 1342   1.967   2.228   3.595  0.3994  0.8343 -0.9082
  336SOL     hw 1343   2.023   2.212   3.455  1.4090 -0.5439 -0.3722
  336SOL     vw 1344   2.032   2.206   3.541  0.0055  0.0803 -0.0527
  337SOL     ow 1345   0.814   1.999   1.735  0.3030 -0.0983 -0.1067
  337SOL     hw 1346   0.841   2.004   1.643 -0.3113 -1.0385 -0.3434
  337SOL     hw 1347   0.724   2.032   1.736 -0.8137 -2.9089 -0.3697
  337SOL     vw 1348   0.806   2.004   1.723 -0.0510 -0.0324  0.0176
  338SOL     ow 1349   1.073   0.329   3.856  0.5333  0.4406  0.0839
  338SOL     hw 1350   1.110   0.402   3.807 -0.0833 -1.0146 -2.7134
  338SOL     hw 1351   0.985   0.318   3.821  0.7116 -1.8139  0.2035
  338SOL     vw 1352   1.066   0.337   3.845  0.0077 -0.0521  0.0192
  339SOL     ow 1353   1.576   2.223   0.272 -0.4553 -0.6460 -0.3826
  339SOL     hw 1354   1.574   2.200   0.365  1.1167 -0.4477 -0.2714
  339SOL     hw 1355   1.487   2.252   0.252 -0.4836  0.6016  1.3899
  339SOL     vw 1356   1.564   2.224   0.282  0.0311  0.1657  0.0550
  340SOL     ow 1357   2.387   0.055   6.077 -0.3833 -0.6530  0.2967
  340SOL     hw 1358   2.334  -0.017   6.044 -0.4937  0.4494 -2.1326
  340SOL     hw 1359   2.325   0.126   6.093 -0.0134 -0.3441  0.3897
  340SOL     vw 1360   2.372   0.055   6.075 -0.0002  0.0450 -0.0491
  341SOL     ow 1361   0.543   1.072   0.752  0.2352 -0.7851  0.0134
  341SOL     hw 1362   0.551   0.992   0.804 -1.0351  0.1048  1.6799
  341SOL     hw 1363   0.550   1.143   0.817  2.1207  0.5279 -1.5066
  341SOL     vw 1364   0.545   1.070   0.768  0.0117 -0.0221  0.0085
  342SOL     ow 1365   1.856   2.424   5.013 -0.3027 -0.8321  0.6451
  342SOL     hw 1366   1.781   2.458   5.061  1.4351  2.3110  1.4585
  342SOL     hw 1367   1.819   2.380   4.937 -2.9474  0.5796  1.0065
  342SOL     vw 1368   1.841   2.422   5.010  0.0290 -0.0685  0.0796
  343SOL     ow 1369   2.183   0.271   6.133  0.0233  0.3280 -0.1918
  343SOL     hw 1370   2.209   0.360   6.110  0.9130 -0.3141 -1.7899
  343SOL     hw 1371   2.087   0.274   6.136  0.0588  1.4655  0.4252
  343SOL     vw 1372   2.174   0.283   6.131  0.1359  0.0087 -0.0293
  344SOL     ow 1373   1.638   0.563   3.909  0.7246  0.0341  0.2855
  344SOL     hw 1374   1.623   0.617   3.832  0.1656 -0.7857 -0.2054
  344SOL     hw 1375   1.612   0.618   3.983  2.1665  1.1650 -0.0064
  344SOL     vw 1376   1.632   0.577   3.909  0.0287  0.0199 -0.0223
  345SOL     ow 1377   0.943   1.428   5.086 -0.2677 -0.0182  0.0045
  345SOL     hw 1378   0.848   1.441   5.080 -0.1551  1.4458  0.9041
  345SOL     hw 1379   0.976   1.453   5.000 -0.5939  0.7893  0.0992
  345SOL     vw 1380   0.935   1.433   5.074 -0.0238 -0.0204 -0.0331
  346SOL     ow 1381   0.834   0.737   4.765  0.6984  0.5389  0.0724
  346SOL     hw 1382   0.907   0.679   4.745 -0.4726 -1.3365  0.9579
  346SOL     hw 1383   0.845   0.811   4.704  2.3443 -0.4970 -0.9804
  346SOL     vw 1384   0.845   0.739   4.754  0.0001  0.0334  0.0069
  347SOL     ow 1385   0.628   0.572   4.798 -0.1312 -0.2888  0.1117
  347SOL     hw 1386   0.691   0.643   4.789 -0.7067  0.2850  0.5622
  347SOL     hw 1387   0.673   0.496   4.761 -0.3280  0.7528 -2.4527
  347SOL     vw 1388   0.642   0.571   4.792 -0.0584 -0.0305  0.0591
  348SOL     ow 1389   2.024   0.393   1.554  0.5205  0.0784  0.4735
  348SOL     hw 1390   2.081   0.375   1.479 -0.5980 -1.3956 -0.0583
  348SOL     hw 1391   2.009   0.308   1.594 -2.1733  0.2189 -0.0586
  348SOL     vw 1392   2.030   0.380   1.549  0.0056  0.0392 -0.0359
  349SOL     ow 1393   2.184   0.254   6.875  0.1842 -0.0292 -0.2084
  349SOL     hw 1394   2.129   0.306   6.816  0.1027 -0.2440 -0.3223
  349SOL     hw 1395   2.196   0.171   6.829 -0.4940 -0.4820  0.3968
  349SOL     vw 1396   2.178   0.250   6.861 -0.0440 -0.0114  0.0474
  350SOL     ow 1397   0.857   2.028   1.445 -0.2048 -0.4151 -0.0458
  350SOL     hw 1398   0.805   2.109   1.443  0.8319  0.2562 -1.3664
  350SOL     hw 1399   0.835   1.983   1.364  0.1574 -0.8456  0.0908
  350SOL     vw 1400   0.847   2.033   1.434 -0.0508 -0.0129  0.0709
  351SOL     ow 1401   1.595   1.509   0.628  0.4180 -0.5209  0.1064
  351SOL     hw 1402   1.598   1.574   0.558 -0.0354  1.0424  1.4765
  351SOL     hw 1403   1.687   1.489   0.645  0.6805  1.2334  0.9401
  351SOL     vw 1404   1.608   1.514   0.621 -0.0139 -0.0089  0.0194
  352SOL     ow 1405   2.034   0.895   2.953  0.2087 -0.3842 -0.2938
  352SOL     hw 1406   1.941   0.915   2.951  0.3229  0.3722  0.8651
  352SOL     hw 1407   2.065   0.916   2.865 -0.7937 -1.1380 -0.8415
  352SOL     vw 1408   2.026   0.901   2.941 -0.0082 -0.0326  0.0117
  353SOL     ow 1409   1.787   0.366   3.817  0.1756  0.1204  0.4610
  353SOL     hw 1410   1.747   0.447   3.850 -0.2951  0.3201 -0.5629
  353SOL     hw 1411   1.824   0.325   3.895  1.9631  2.1504  0.7783
  353SOL     vw 1412   1.787   0.371   3.832  0.0504  0.0023  0.0147
  354SOL     ow 1413   1.030   1.174   5.788 -0.3047 -0.5187 -0.0028
  354SOL     hw 1414   0.978   1.122   5.849 -0.9549 -0.0342 -0.1357
  354SOL     hw 1415   0.991   1.261   5.790 -1.2552 -0.8331 -2.1636
  354SOL     vw 1416   1.018   1.178   5.796  0.0676  0.0381 -0.0651
  355SOL     ow 1417   0.074   0.858   4.482 -0.0398 -0.6522 -0.4165
  355SOL     hw 1418   0.160   0.882   4.446 -1.0046  0.8829 -1.8887
  355SOL     hw 1419   0.044   0.937   4.528 -2.1064  0.1731 -2.9350
  355SOL     vw 1420   0.081   0.872   4.483 -0.0394  0.0145 -0.1466
  356SOL     ow 1421   0.887   0.298   3.175  0.3566  0.2919  0.4516
  356SOL     hw 1422   0.937   0.236   3.122 -0.2040 -0.5929  0.9307
  356SOL     hw 1423   0.848   0.245   3.243  2.0226  1.5677  2.5231
  356SOL     vw 1424   0.889   0.283   3.177  0.0396  0.0354 -0.0241
  357SOL     ow 1425   1.231   0.463   1.349  0.5241  0.6433 -0.1228
  357SOL     hw 1426   1.139   0.489   1.351  0.4569  0.4789 -0.7232
  357SOL     hw 1427   1.228   0.370   1.324  0.8105  0.3691  0.8230
  357SOL     vw 1428   1.218   0.454   1.346  0.0297  0.0198  0.0233
  358SOL     ow 1429   1.434   1.162   3.944 -0.5128  0.0284  0.1373
  358SOL     hw 1430   1.467   1.077   3.914  0.0639  0.6160 -0.9576
  358SOL     hw 1431   1.416   1.210   3.863  0.4372  1.4338  0.7435
  358SOL     vw 1432   1.436   1.157   3.930  0.0521  0.0108 -0.0213
  359SOL     ow 1433   2.186   0.900   3.264  0.1382 -0.8050  0.7528
  359SOL     hw 1434   2.119   0.861   3.321  0.6930 -1.3681  1.0290
  359SOL     hw 1435   2.255   0.927   3.324 -0.6901  1.6476  0.7037
  359SOL     vw 1436   2.186   0.898   3.279 -0.0329 -0.0277  0.0842
  360SOL     ow 1437   1.354   0.103   1.546  0.2566  0.5451 -0.1306
  360SOL     hw 1438   1.319   0.068   1.628  3.1485  0.1905  1.1074
  360SOL     hw 1439   1.423   0.163   1.573  2.1856 -0.5305 -2.2438
  360SOL     vw 1440   1.359   0.106   1.560 -0.0316 -0.0051 -0.0653
  361SOL     ow 1441   1.132   0.621   5.978 -0.2412  0.0872 -0.4105
  361SOL     hw 1442   1.053   0.578   6.011  0.2490 -0.8864 -0.4819
  361SOL     hw 1443   1.185   0.551   5.940  1.5273  0.3777  1.3242
  361SOL     vw 1444   1.129   0.606   5.978 -0.1234  0.1276  0.0679
  362SOL     ow 1445   0.528   1.716   0.168 -0.6623  0.3026 -0.2220
  362SOL     hw 1446   0.473   1.694   0.243 -0.7858  0.0074 -0.3951
  362SOL     hw 1447   0.553   1.807   0.182 -1.7009  0.6299 -0.4496
  362SOL     vw 1448   0.524   1.725   0.180  0.0466 -0.0077 -0.0111
  363SOL     ow 1449   0.729   1.775   6.747  0.8893  0.0720  0.0338
  363SOL     hw 1450   0.802   1.809   6.799  1.7271  1.4782 -1.9321
  363SOL     hw 1451   0.682   1.852   6.716 -0.8365 -0.7849  0.3942
  363SOL     vw 1452   0.733   1.790   6.749 -0.0828  0.0118  0.0315
  364SOL     ow 1453   2.457   1.708   0.603  0.4624  0.4811 -0.4729
  364SOL     hw 1454   2.496   1.782   0.557 -2.6476  3.1370  0.7393
  364SOL     hw 1455   2.504   1.703   0.686  0.8770  0.8808 -0.6805
  364SOL     vw 1456   2.468   1.717   0.608  0.0966 -0.0348  0.0632
  365SOL     ow 1457   1.789   0.280   1.278  0.0065 -0.9421 -0.3331
  365SOL     hw 1458   1.703   0.267   1.238  0.4737  1.1203 -2.1652
  365SOL     hw 1459   1.849   0.283   1.204  1.2386  0.6311  0.6825
  365SOL     vw 1460   1.785   0.279   1.263 -0.0350  0.0281  0.0020
  366SOL     ow 1461   1.177   1.023   3.828 -0.0824 -0.3391  0.0408
  366SOL     hw 1462   1.159   0.975   3.747 -1.9561  0.8917 -0.3341
  366SOL     hw 1463   1.267   1.055   3.817 -0.3521 -0.0430 -1.6633
  366SOL     vw 1464   1.186   1.021   3.816  0.0110  0.0030  0.0089
  367SOL     ow 1465   2.389   0.016   6.429 -0.0109  0.2957  0.1146
  367SOL     hw 1466   2.347   0.098   6.402 -0.1416 -0.3338 -1.7475
  367SOL     hw 1467   2.358  -0.049   6.366 -0.4837 -1.3857  1.9652
  367SOL     vw 1468   2.379   0.018   6.417 -0.0299  0.0029  0.0851
  368SOL     ow 1469   1.292   1.637   0.497  0.3636 -0.0091 -0.2943
  368SOL     hw 1470   1.364   1.602   0.550  1.4856  1.1876 -0.9604
  368SOL     hw 1471   1.292   1.583   0.418  0.4172 -0.1329 -0.2102
  368SOL     vw 1472   1.302   1.625   0.493 -0.0582 -0.0123  0.0024
  369SOL     ow 1473   0.779   2.175   4.278 -0.8894 -0.3547 -0.1873
  369SOL     hw 1474   0.797   2.130   4.360 -0.6273 -2.2185 -1.1982
  369SOL     hw 1475   0.688   2.153   4.258 -0.7820 -0.3868 -0.6650
  369SOL     vw 1476   0.769   2.166   4.286 -0.0378  0.0749  0.0002
  370SOL     ow 1477   1.750   2.023   0.087  0.1376  0.2773 -0.3422
  370SOL     hw 1478   1.787   1.979   0.164  0.3516  0.6485 -0.2278
  370SOL     hw 1479   1.819   2.083   0.058 -0.1510  0.5458 -0.4867
  370SOL     vw 1480   1.764   2.025   0.094  0.0815 -0.1054 -0.0548
  371SOL     ow 1481   1.246   0.451   5.839  0.4594 -0.2372 -0.1269
  371SOL     hw 1482   1.271   0.530   5.791 -0.6063  0.4741  0.4333
  371SOL     hw 1483   1.326   0.399   5.844  0.6374 -0.3126 -2.6006
  371SOL     vw 1484   1.260   0.455   5.833  0.0671 -0.1424 -0.1132
  372SOL     ow 1485   0.683   1.823   2.715 -0.1707  0.4149 -0.5254
  372SOL     hw 1486   0.695   1.853   2.806  0.4955  0.2092 -0.5425
  372SOL     hw 1487   0.588   1.809   2.707 -0.3396  1.2244 -0.1112
  372SOL     vw 1488   0.672   1.825   2.726  0.0175 -0.1444  0.0615
  373SOL     ow 1489   1.735   0.357   0.743 -0.0540  0.6201  0.1018
  373SOL     hw 1490   1.766   0.280   0.695  1.0079  0.6129  0.7460
  373SOL     hw 1491   1.701   0.415   0.675  1.3529  0.5907 -0.6885
  373SOL     vw 1492   1.735   0.354   0.728  0.0402  0.1123 -0.0058
  374SOL     ow 1493   1.624   0.595   0.634  0.4860  0.5837  0.2895
  374SOL     hw 1494   1.569   0.593   0.556  0.7648 -0.5794  0.0920
  374SOL     hw 1495   1.687   0.666   0.618  0.0117  0.9061 -0.1640
  374SOL     vw 1496   1.625   0.604   0.622 -0.0372  0.0201  0.0106
  375SOL     ow 1497   2.151   1.294   1.264  0.0506  0.6792  0.4857
  375SOL     hw 1498   2.162   1.253   1.178 -0.8950  0.5599  0.4162
  375SOL     hw 1499   2.205   1.241   1.323 -0.3328 -0.0343  0.2041
  375SOL     vw 1500   2.160   1.282   1.261  0.0252  0.0073  0.0220
  376SOL     ow 1501   0.474   1.535   4.990 -0.0867 -0.5013 -0.3259
  376SOL     hw 1502   0.548   1.482   4.962  0.0981  0.2509 -1.3360
  376SOL     hw 1503   0.416   1.474   5.035  1.7946 -0.8225  1.8028
  376SOL     vw 1504   0.476   1.520   4.992 -0.0087  0.0160 -0.0587
  377SOL     ow 1505   0.780   0.628   3.458 -0.2634  0.5715 -0.6657
  377SOL     hw 1506   0.787   0.722   3.444 -0.5254  0.6547 -0.2718
  377SOL     hw 1507   0.757   0.592   3.373  1.2108  0.6999 -1.1413
  377SOL     vw 1508   0.778   0.635   3.445 -0.0356 -0.0103 -0.0321
  378SOL     ow 1509   1.435   0.846   1.096 -0.4429  0.5438  0.1038
  378SOL     hw 1510   1.344   0.875   1.084 -1.0223 -0.9865  0.5385
  378SOL     hw 1511   1.428   0.771   1.156  1.1263  0.4668  0.2250
  378SOL     vw 1512   1.422   0.840   1.102  0.0437 -0.0201  0.0288
  379SOL     ow 1513   1.961   0.711   2.677 -0.7333  0.0189  0.3423
  379SOL     hw 1514   1.883   0.695   2.731 -0.2177 -0.1279  1.0535
  379SOL     hw 1515   2.032   0.667   2.723 -0.1627  0.4259 -0.1312
  379SOL     vw 1516   1.960   0.703   2.690  0.0376  0.0542  0.0312
  380SOL     ow 1517   0.547   1.159   1.993  0.0927  0.0180 -0.1565
  380SOL     hw 1518   0.504   1.076   1.972  1.2518 -1.3159  2.3118
  380SOL     hw 1519   0.627   1.134   2.038  2.3236  2.4505 -2.4026
  380SOL     vw 1520   0.552   1.145   1.996  0.0261  0.0592  0.0373
  381SOL     ow 1521   0.402   2.438   3.333 -0.6562  0.3504 -0.2799
  381SOL     hw 1522   0.424   2.530   3.348  0.2967  0.1398 -0.2970
  381SOL     hw 1523   0.457   2.390   3.395 -2.9719 -0.1150  1.5685
  381SOL     vw 1524   0.412   2.444   3.343 -0.0867  0.0694  0.0174
  382SOL     ow 1525   1.089   0.316   3.576 -0.2875  0.5014  0.2634
  382SOL     hw 1526   1.179   0.295   3.601 -0.3863 -1.2695 -0.6968
  382SOL     hw 1527   1.093   0.330   3.481 -0.5896  3.1156  0.5785
  382SOL     vw 1528   1.101   0.315   3.567  0.0536  0.0881 -0.0800
  383SOL     ow 1529   0.124   1.609   4.867  0.4927 -0.0726  0.0799
  383SOL     hw 1530   0.036   1.637   4.891 -0.1043 -1.6289 -0.1742
  383SOL     hw 1531   0.110   1.539   4.804  1.9658  1.7499 -2.4682
  383SOL     vw 1532   0.111   1.604   4.862  0.0416  0.1636 -0.0801
  384SOL     ow 1533   2.040   1.404   3.936  0.6375 -0.1363 -0.3104
  384SOL     hw 1534   2.078   1.367   3.856 -0.6389 -1.0066 -0.5347
  384SOL     hw 1535   2.048   1.334   4.001 -0.0570 -0.1196 -0.2040
  384SOL     vw 1536   2.046   1.390   3.934 -0.0702 -0.0444  0.0155
  385SOL     ow 1537   0.026   0.712   2.540 -0.2846 -0.3246  0.2914
  385SOL     hw 1538  -0.025   0.787   2.570  0.6301  0.6277 -0.4202
  385SOL     hw 1539   0.014   0.645   2.607 -1.0905  0.4761  0.9650
  385SOL     vw 1540   0.018   0.713   2.552  0.0348  0.0209  0.0614
  386SOL     ow 1541   1.151   1.282   5.405 -0.0975 -0.1748  0.0890
  386SOL     hw 1542   1.188   1.370   5.396  0.3857 -0.4143 -0.3090
  386SOL     hw 1543   1.132   1.255   5.315 -1.3222 -0.0322  0.2856
  386SOL     vw 1544   1.154   1.290   5.392 -0.0212 -0.0129 -0.0069
  387SOL     ow 1545   0.688   1.526   2.172 -0.3368  0.2680 -0.2430
  387SOL     hw 1546   0.692   1.503   2.080 -1.4375  1.3800 -0.6125
  387SOL     hw 1547   0.773   1.501   2.208  0.1775  0.0071 -1.5998
  387SOL     vw 1548   0.700   1.520   2.165  0.0256 -0.1447  0.0107
  388SOL     ow 1549   0.287   0.527   1.562  0.0134  0.3220  0.5878
  388SOL     hw 1550   0.271   0.493   1.650  1.7324 -0.6561  0.5661
  388SOL     hw 1551   0.301   0.449   1.508  1.5664  0.9721 -0.0023
  388SOL     vw 1552   0.286   0.512   1.566 -0.0340  0.0073 -0.0239
  389SOL     ow 1553   1.191   1.442   4.333 -0.3783  0.0822  0.4331
  389SOL     hw 1554   1.217   1.524   4.375 -1.5306  1.3424 -1.1930
  389SOL     hw 1555   1.147   1.393   4.402  1.8157  0.0382  1.8942
  389SOL     vw 1556   1.188   1.447   4.348 -0.0390  0.0293  0.0076
  390SOL     ow 1557   0.609   0.059   3.121  0.4906 -0.1549 -0.0541
  390SOL     hw 1558   0.655   0.100   3.047 -0.1392  0.0382 -0.3477
  390SOL     hw 1559   0.665   0.075   3.196  0.9678 -0.0354 -0.4310
  390SOL     vw 1560   0.622   0.066   3.121  0.0445  0.0078 -0.0404
  391SOL     ow 1561   0.056   1.945   2.813 -0.3894 -0.6785  0.0454
  391SOL     hw 1562   0.043   1.855   2.843  0.6363 -0.4550  1.2629
  391SOL     hw 1563   0.059   1.939   2.718  0.4613 -2.0571  0.1350
  391SOL     vw 1564   0.055   1.932   2.804 -0.0542 -0.0687 -0.0174
  392SOL     ow 1565   2.436   0.729   4.880 -0.2963  0.0942  0.4482
  392SOL     hw 1566   2.421   0.636   4.893 -2.8266  0.7845  3.6337
  392SOL     hw 1567   2.505   0.752   4.944  0.1134  0.4808 -0.1176
  392SOL     vw 1568   2.443   0.720   4.890 -0.1585 -0.0414 -0.0019
  393SOL     ow 1569   2.025   0.999   4.509 -0.3161 -0.0488  0.0283
  393SOL     hw 1570   2.044   0.926   4.451 -2.4738  0.2943 -1.2319
  393SOL     hw 1571   2.108   1.045   4.519  0.1275  0.0016 -3.0346
  393SOL     vw 1572   2.038   0.996   4.502 -0.0272  0.0163  0.0527
  394SOL     ow 1573   1.547   0.360   0.937  0.2935 -0.0003  0.0451
  394SOL     hw 1574   1.615   0.363   0.870 -0.1648 -0.0890 -0.4336
  394SOL     hw 1575   1.468   0.391   0.892  0.3159  1.5517  0.9747
  394SOL     vw 1576   1.545   0.365   0.922 -0.0235 -0.0175 -0.0074
  395SOL     ow 1577   1.240   0.658   3.303  0.0493  0.0920 -0.0790
  395SOL     hw 1578   1.202   0.571   3.317  1.8042 -0.4146  2.0390
  395SOL     hw 1579   1.166   0.718   3.313 -0.7903 -1.0280  0.7055
  395SOL     vw 1580   1.225   0.655   3.306  0.0740 -0.0978 -0.0272
  396SOL     ow 1581   0.814   0.320   0.217 -0.0650  0.0794  0.1579
  396SOL     hw 1582   0.725   0.289   0.203  0.2123 -0.5145 -0.3603
  396SOL     hw 1583   0.865   0.240   0.229  0.6558  0.3064 -1.1361
  396SOL     vw 1584   0.809   0.306   0.216 -0.0409  0.0452 -0.0117
  397SOL     ow 1585   1.803   0.826   1.292  0.1338 -0.0690  0.2105
  397SOL     hw 1586   1.740   0.853   1.359  0.9199  1.9182  0.2187
  397SOL     hw 1587   1.806   0.731   1.300 -2.1625 -0.1708  0.8156
  397SOL     vw 1588   1.795   0.817   1.302 -0.0337  0.0234 -0.0423
  398SOL     ow 1589   2.358   0.983   4.956  0.3627 -0.4080  0.0589
  398SOL     hw 1590   2.342   0.964   5.048 -0.4864 -0.8435 -0.1715
  398SOL     hw 1591   2.370   0.897   4.915 -1.3705 -0.3591 -0.6089
  398SOL     vw 1592   2.358   0.969   4.963  0.0347  0.0218 -0.0007
  399SOL     ow 1593   1.377   1.435   0.781 -0.5700  0.3132 -0.6293
  399SOL     hw 1594   1.451   1.466   0.729 -0.7537  0.1127 -1.0134
  399SOL     hw 1595   1.365   1.502   0.848  1.0211 -0.4232  0.4858
  399SOL     vw 1596   1.385   1.448   0.783  0.0405 -0.0635 -0.0024
  400SOL     ow 1597   0.083   0.460   2.965  0.3334  0.1461  0.5436
  400SOL     hw 1598   0.048   0.459   3.054 -1.6782 -0.1658 -0.1933
  400SOL     hw 1599   0.122   0.547   2.955 -0.2512  0.5201  1.4206
  400SOL     vw 1600   0.084   0.471   2.975  0.0019 -0.0605  0.0637
  401SOL     ow 1601   1.688   1.024   4.472  0.6900  0.2313  0.0162
  401SOL     hw 1602   1.661   1.068   4.392  1.2774 -0.2523 -0.4633
  401SOL     hw 1603   1.611   0.975   4.500  0.1265  1.3065  0.3928
  401SOL     vw 1604   1.675   1.023   4.465 -0.0244 -0.0297 -0.0405
  402SOL     ow 1605   1.377   1.483   5.745  0.2179  0.2319 -0.0118
  402SOL     hw 1606   1.420   1.552   5.795  2.3015 -0.2337 -1.0332
  402SOL     hw 1607   1.373   1.517   5.656 -0.8930 -0.0641 -0.0945
  402SOL     vw 1608   1.382   1.496   5.740  0.0466 -0.0151 -0.0415
  403SOL     ow 1609   1.999   1.263   5.152  0.0538  0.1427 -0.1746
  403SOL     hw 1610   1.995   1.356   5.174  0.5041  0.0296  0.3920
  403SOL     hw 1611   2.021   1.219   5.234 -0.1505 -0.4670 -0.4367
  403SOL     vw 1612   2.001   1.269   5.166 -0.0204 -0.0476  0.0417
  404SOL     ow 1613   2.002   2.456   1.420  0.4230  0.5189  0.0447
  404SOL     hw 1614   2.010   2.377   1.473  1.1112  0.8204  0.4029
  404SOL     hw 1615   1.908   2.466   1.406  0.2863  0.0039  0.5580
  404SOL     vw 1616   1.991   2.447   1.425 -0.0188 -0.0455  0.0125
  405SOL     ow 1617   1.908   1.588   4.255 -0.5135  0.1426  0.5888
  405SOL     hw 1618   1.877   1.633   4.333 -1.9977  0.1083  0.0596
  405SOL     hw 1619   1.890   1.648   4.183 -2.2817 -1.0961 -0.0979
  405SOL     vw 1620   1.901   1.602   4.256 -0.0480 -0.0225 -0.0281
  406SOL     ow 1621   0.995   0.568   1.414 -0.4228  0.5140 -0.1149
  406SOL     hw 1622   0.922   0.567   1.352  0.1322  0.9439 -0.7796
  406SOL     hw 1623   1.028   0.657   1.410 -0.2996  0.5122  0.7127
  406SOL     vw 1624   0.989   0.579   1.406  0.0053 -0.0055  0.0077
  407SOL     ow 1625   0.550   0.560   3.573 -0.0520  0.2292  0.2110
  407SOL     hw 1626   0.634   0.596   3.543  0.3213  0.8953  1.9439
  407SOL     hw 1627   0.484   0.613   3.529  0.3834 -0.6334 -1.5790
  407SOL     vw 1628   0.553   0.572   3.563  0.0206 -0.0210  0.0049
  408SOL     ow 1629   1.041   1.678   2.096  0.1863  0.5964 -0.7373
  408SOL     hw 1630   1.109   1.738   2.124  0.2326 -0.2320  1.0996
  408SOL     hw 1631   0.991   1.727   2.030  1.8089  1.6360 -1.2454
  408SOL     vw 1632   1.043   1.692   2.091 -0.0183 -0.0051  0.0131
  409SOL     ow 1633   2.089   0.954   2.695 -0.2499 -0.5476  0.2947
  409SOL     hw 1634   2.046   0.872   2.672  0.5381 -0.9443  0.1836
  409SOL     hw 1635   2.039   1.021   2.650 -0.1074 -1.1005 -0.7250
  409SOL     vw 1636   2.077   0.952   2.686 -0.0327 -0.0031  0.0187
  410SOL     ow 1637   0.807   1.943   5.355  0.3944 -0.5291  0.2874
  410SOL     hw 1638   0.712   1.953   5.350  0.2859 -1.5068  0.1885
  410SOL     hw 1639   0.832   1.986   5.437 -0.0080  0.5620 -0.1525
  410SOL     vw 1640   0.798   1.950   5.365  0.0478  0.0660 -0.0141
  411SOL     ow 1641   0.918   0.725   2.712 -0.1962  0.4242  0.7243
  411SOL     hw 1642   0.948   0.784   2.643  0.5842  0.7190  1.3040
  411SOL     hw 1643   0.914   0.639   2.670  3.4659 -0.0784  1.0370
  411SOL     vw 1644   0.922   0.721   2.698  0.0251  0.0513  0.0155
  412SOL     ow 1645   1.100   2.011   3.576  0.0159 -0.1682  0.7630
  412SOL     hw 1646   1.190   1.994   3.603  0.8110 -0.1084 -1.5813
  412SOL     hw 1647   1.109   2.056   3.492 -2.2061  0.7096  0.9279
  412SOL     vw 1648   1.113   2.015   3.568 -0.0822  0.0491  0.0187
  413SOL     ow 1649   1.989   2.246   3.286 -0.4850  0.5709  0.3427
  413SOL     hw 1650   1.899   2.218   3.270  0.0121 -0.4895 -0.7182
  413SOL     hw 1651   2.010   2.305   3.214 -0.2824  0.7008  0.5051
  413SOL     vw 1652   1.980   2.250   3.275 -0.0174  0.0072  0.0153
  414SOL     ow 1653   2.081   0.120   4.915 -0.9010  0.1149  0.2338
  414SOL     hw 1654   2.138   0.105   4.840  0.7596  2.0934  1.0020
  414SOL     hw 1655   2.025   0.192   4.888 -1.3722 -0.2025  0.3538
  414SOL     vw 1656   2.081   0.128   4.901 -0.0017 -0.0129 -0.0448
  415SOL     ow 1657   1.017   0.926   2.547 -0.0869  0.6242 -0.3011
  415SOL     hw 1658   1.009   0.935   2.452 -1.4719  0.0087 -0.2684
  415SOL     hw 1659   1.071   1.001   2.573  0.1522  0.9190 -1.5401
  415SOL     vw 1660   1.023   0.937   2.538  0.0321 -0.0277 -0.0068
  416SOL     ow 1661   1.885   1.186   6.235 -0.4772  0.4533 -0.0087
  416SOL     hw 1662   1.877   1.131   6.157  0.1770  0.0766  0.1894
  416SOL     hw 1663   1.957   1.246   6.215 -0.9083  0.9684 -0.0530
  416SOL     vw 1664   1.893   1.187   6.222 -0.0409  0.0263 -0.0086
  417SOL     ow 1665   1.730   1.402   6.662  0.1232  0.2328  0.3794
  417SOL     hw 1666   1.676   1.438   6.733 -1.0131  1.3670 -0.9853
  417SOL     hw 1667   1.759   1.479   6.613  1.5292 -0.4850  0.0347
  417SOL     vw 1668   1.726   1.417   6.665 -0.0509  0.0306 -0.0126
  418SOL     ow 1669   2.298   1.423   4.933 -0.5011 -0.0555 -0.2112
  418SOL     hw 1670   2.308   1.395   5.025  2.3748 -1.2686 -0.7766
  418SOL     hw 1671   2.327   1.514   4.932 -0.9634  0.0974  0.1524
  418SOL     vw 1672   2.303   1.431   4.945 -0.0428 -0.0218 -0.0203
  419SOL     ow 1673   2.237   0.685   3.018  0.1867  0.2603 -0.1624
  419SOL     hw 1674   2.285   0.673   3.100 -1.2665  0.2308  0.7073
  419SOL     hw 1675   2.277   0.762   2.978  0.3783  0.7666  0.9688
  419SOL     vw 1676   2.249   0.694   3.024 -0.0340 -0.1220  0.1719
  420SOL     ow 1677   1.607   0.659   3.629  0.5288 -0.0336  1.0995
  420SOL     hw 1678   1.520   0.693   3.609  0.9674  0.4969 -0.0251
  420SOL     hw 1679   1.664   0.736   3.630  0.8891 -0.2802  2.5603
  420SOL     vw 1680   1.603   0.674   3.626  0.0303 -0.0315  0.0690
  421SOL     ow 1681   0.950   2.450   1.775  0.0601 -0.0475  0.5296
  421SOL     hw 1682   1.001   2.373   1.799  1.0475  0.6284  0.6173
  421SOL     hw 1683   0.956   2.454   1.680  0.0127 -0.0759  0.5254
  421SOL     vw 1684   0.957   2.441   1.766 -0.0078  0.0038  0.0267
  422SOL     ow 1685   1.667   0.070   6.242 -0.1218 -0.2792  0.3482
  422SOL     hw 1686   1.672   0.077   6.147  1.4742  3.3622  0.5415
  422SOL     hw 1687   1.751   0.032   6.268 -0.4141 -0.9371  0.3529
  422SOL     vw 1688   1.679   0.066   6.233  0.0077  0.0084 -0.0165
  423SOL     ow 1689   1.980   1.210   1.503  0.0217 -0.8058  0.6044
  423SOL     hw 1690   1.907   1.191   1.561 -2.4668  0.0140 -1.9907
  423SOL     hw 1691   2.041   1.138   1.515 -1.9244 -2.3141  1.8570
  423SOL     vw 1692   1.978   1.198   1.512 -0.0337 -0.0188 -0.0647
  424SOL     ow 1693   0.685   0.497   3.844 -0.2522  0.3540 -0.1839
  424SOL     hw 1694   0.700   0.493   3.939  0.3793  2.6300 -0.1472
  424SOL     hw 1695   0.756   0.445   3.807 -0.1771 -0.0964  0.5535
  424SOL     vw 1696   0.696   0.489   3.852 -0.0461 -0.0788 -0.0398
  425SOL     ow 1697   2.138   0.074   0.185 -0.0662 -0.1164 -0.4864
  425SOL     hw 1698   2.101   0.061   0.272  2.0867  0.5556  0.6054
  425SOL     hw 1699   2.150  -0.014   0.150  1.6239 -0.5848  1.1024
  425SOL     vw 1700   2.134   0.061   0.192 -0.0325  0.0608 -0.0343
  426SOL     ow 1701   1.814   1.344   1.979  0.2206 -0.3139  0.5408
  426SOL     hw 1702   1.859   1.316   2.058 -1.5757  1.6185  2.3878
  426SOL     hw 1703   1.769   1.265   1.948  1.8457 -1.3653  0.7606
  426SOL     vw 1704   1.814   1.330   1.985  0.0076  0.0480  0.0381
  427SOL     ow 1705   0.678   1.614   1.766 -0.4372 -0.0875 -0.5154
  427SOL     hw 1706   0.653   1.561   1.842 -0.8900 -0.1808 -0.7245
  427SOL     hw 1707   0.606   1.676   1.755 -1.1907 -1.1320 -1.8412
  427SOL     vw 1708   0.665   1.615   1.775  0.0122 -0.0752 -0.0463
  428SOL     ow 1709   0.953   1.655   1.742  0.6715 -0.1166 -0.8451
  428SOL     hw 1710   0.954   1.731   1.683  2.0523 -0.4869 -1.3388
  428SOL     hw 1711   0.932   1.692   1.828  0.4862  0.7109 -1.2349
  428SOL     vw 1712   0.951   1.670   1.745  0.1031  0.0201 -0.0573
  429SOL     ow 1713   1.952   0.027   6.214 -0.1712 -0.2110  0.2762
  429SOL     hw 1714   1.987   0.025   6.303 -4.2710  0.1335  2.1144
  429SOL     hw 1715   1.949   0.120   6.191  1.6769 -0.3366 -0.7041
  429SOL     vw 1716   1.956   0.039   6.222 -0.0390 -0.0334  0.0021
  430SOL     ow 1717   0.548   1.597   2.433 -0.3279  0.5295 -0.0217
  430SOL     hw 1718   0.481   1.617   2.498 -2.1909 -0.1362 -1.6479
  430SOL     hw 1719   0.554   1.502   2.432  0.6382  0.5745  0.0631
  430SOL     vw 1720   0.540   1.587   2.442  0.0564  0.0108 -0.0652
  431SOL     ow 1721   1.997   0.926   1.491  0.0356 -0.0701 -0.4904
  431SOL     hw 1722   1.928   0.904   1.429 -0.0945 -0.2630 -0.2792
  431SOL     hw 1723   1.971   0.882   1.572  0.6071 -0.4765 -0.5240
  431SOL     vw 1724   1.985   0.917   1.493  0.0429 -0.0581 -0.0495
  432SOL     ow 1725   2.433   1.699   1.725 -0.0453 -0.2659 -0.9297
  432SOL     hw 1726   2.517   1.715   1.683  1.3014  0.4672  1.8276
  432SOL     hw 1727   2.429   1.762   1.797 -3.1537 -0.0209 -1.1657
  432SOL     vw 1728   2.443   1.709   1.729 -0.0225 -0.0367  0.0490
  433poe    c31 1729   0.650   1.934   1.171 -0.4892  0.1646  0.1585
  433poe     o2 1730   0.769   1.903   1.240 -0.2809 -0.1611 -0.3475
  433poe    c23 1731   0.851   1.833   1.148  0.1328 -0.4823  0.2599
  433poe    c23 1732   0.994   1.811   1.199  0.2995 -0.0578 -0.0122
  433poe     o2 1733   1.011   1.708   1.295  0.0680  0.5776  0.7223
  433poe    c23 1734   1.139   1.650   1.286 -0.1999  0.0951 -0.1288
  433poe    c23 1735   1.158   1.552   1.403 -0.8531  0.5167  0.3364
  433poe     o2 1736   1.069   1.445   1.379 -0.1696  0.0070  0.0533
  433poe    c23 1737   1.099   1.331   1.456  0.2676  0.0338 -0.0751
  433poe    c23 1738   1.012   1.212   1.410 -0.2463  0.1060  0.7060
  433poe     o2 1739   0.879   1.221   1.456 -0.3784  0.1377  0.3225
  433poe    c31 1740   0.788   1.139   1.386 -0.5350  0.0815  0.5871
  434poe    c31 1741   0.526   2.356   0.847  0.0523 -0.2124  0.1797
  434poe     o2 1742   0.502   2.479   0.912  0.3983 -0.0182 -0.0564
  434poe    c23 1743   0.602   2.529   0.998  0.3770 -0.2937  0.1311
  434poe    c23 1744   0.573   2.669   1.054  0.3176 -0.1378 -0.2861
  434poe     o2 1745   0.463   2.667   1.142  0.5483  0.2405  0.0150
  434poe    c23 1746   0.412   2.794   1.176  0.3420 -0.0975  1.0010
  434poe    c23 1747   0.270   2.786   1.235 -0.2985  0.0008 -0.4972
  434poe     o2 1748   0.270   2.767   1.375 -0.0797  0.0249 -0.4935
  434poe    c23 1749   0.276   2.643   1.441 -0.1216  0.1313 -0.2895
  434poe    c23 1750   0.228   2.640   1.587 -0.2322 -0.4546 -0.3340
  434poe     o2 1751   0.099   2.689   1.616  0.0935  0.2023  0.0305
  434poe    c31 1752   0.046   2.630   1.732  0.8966  0.1878  0.4006
  435poe    c31 1753   0.588   0.538   2.169 -0.1909  0.1848  0.2434
  435poe     o2 1754   0.600   0.538   2.029  0.4206  0.1264  0.2940
  435poe    c23 1755   0.679   0.426   1.996 -0.0397 -0.1805  0.2279
  435poe    c23 1756   0.624   0.371   1.863  0.4874 -0.1488 -0.0076
  435poe     o2 1757   0.671   0.438   1.749 -0.7053  0.0581 -0.3953
  435poe    c23 1758   0.620   0.396   1.624 -0.0746 -0.0836 -0.6094
  435poe    c23 1759   0.656   0.475   1.497  0.3153 -0.0829 -0.4999
  435poe     o2 1760   0.632   0.613   1.502 -0.8157 -0.2808 -0.1013
  435poe    c23 1761   0.650   0.671   1.375  0.7097  0.6376  0.4894
  435poe    c23 1762   0.622   0.822   1.381 -0.5835  0.4304  0.0648
  435poe     o2 1763   0.491   0.849   1.426 -0.4060  0.5009  0.5463
  435poe    c31 1764   0.383   0.843   1.335  0.4051 -0.4741 -0.3827
  436poe    c31 1765   0.299   1.746   1.093 -0.4969 -0.4347 -0.1540
  436poe     o2 1766   0.285   1.763   0.954  0.1105 -0.3416 -0.2060
  436poe    c23 1767   0.408   1.783   0.887  0.3275  0.2446  0.3520
  436poe    c23 1768   0.395   1.850   0.749 -0.0784  0.0001  0.2685
  436poe     o2 1769   0.349   1.770   0.642  0.1890 -0.2854  0.3630
  436poe    c23 1770   0.428   1.666   0.589 -0.0938 -0.3261  0.0179
  436poe    c23 1771   0.358   1.590   0.475 -0.2261 -0.1345 -0.0302
  436poe     o2 1772   0.344   1.684   0.370  0.0572  0.0331  0.0804
  436poe    c23 1773   0.254   1.622   0.281  0.3669 -0.1533 -0.1054
  436poe    c23 1774   0.205   1.723   0.175 -0.7651 -0.2958  0.2794
  436poe     o2 1775   0.145   1.841   0.224 -0.1434 -0.0775  0.5164
  436poe    c31 1776   0.067   1.898   0.122 -0.2481 -0.3589  0.4366
  437poe    c31 1777   0.753   0.357   6.768  0.3125  0.1485  0.2285
  437poe     o2 1778   0.797   0.452   6.674 -0.5638  0.1087 -0.2245
  437poe    c23 1779   0.868   0.387   6.571  0.6234  0.3969  0.3935
  437poe    c23 1780   0.948   0.479   6.476  0.3729  0.1550 -0.0583
  437poe     o2 1781   0.886   0.527   6.359  0.3645 -0.4075 -0.2859
  437poe    c23 1782   0.892   0.666   6.340  0.2226 -0.3858 -0.1781
  437poe    c23 1783   0.815   0.688   6.208  0.3629  0.5996 -0.1088
  437poe     o2 1784   0.870   0.615   6.100 -0.1036 -0.3602  0.2846
  437poe    c23 1785   0.764   0.610   6.007  0.3006  0.2629 -0.2192
  437poe    c23 1786   0.789   0.513   5.890  0.0884  0.2457 -0.2506
  437poe     o2 1787   0.787   0.378   5.933  0.2396  0.2144 -0.3424
  437poe    c31 1788   0.805   0.297   5.819 -0.0296 -0.3223 -0.0047
  438poe    c31 1789   2.210   0.297   5.721 -0.0534 -0.2617 -0.3003
  438poe     o2 1790   2.223   0.434   5.751  0.2267 -0.3175 -0.1726
  438poe    c23 1791   2.135   0.511   5.673  0.2705  0.0778  0.1645
  438poe    c23 1792   2.195   0.602   5.564  0.6796 -0.5360 -0.1261
  438poe     o2 1793   2.259   0.524   5.465  0.1407 -0.4979 -0.5092
  438poe    c23 1794   2.311   0.594   5.354  0.1769 -0.0347 -0.2032
  438poe    c23 1795   2.398   0.506   5.263  0.5683 -0.0183  0.1494
  438poe     o2 1796   2.322   0.450   5.158 -0.2914 -0.2981  0.9083
  438poe    c23 1797   2.388   0.360   5.072 -0.4690  0.2316  0.2060
  438poe    c23 1798   2.328   0.363   4.930 -0.0759 -0.0330  0.0331
  438poe     o2 1799   2.322   0.487   4.863  0.2170 -0.0089  0.0466
  438poe    c31 1800   2.237   0.479   4.750  0.1028 -0.4699  0.1607
  439poe    c31 1801   2.082   0.734   2.300  0.3500 -0.2012 -0.4171
  439poe     o2 1802   1.956   0.777   2.251 -0.0220 -0.2518  0.4771
  439poe    c23 1803   1.969   0.916   2.234 -0.4396 -0.2762 -0.0399
  439poe    c23 1804   1.832   0.973   2.191 -0.2214 -0.0078 -0.3890
  439poe     o2 1805   1.743   0.910   2.280 -0.1916 -0.0262 -0.3720
  439poe    c23 1806   1.610   0.955   2.266 -0.1984 -0.0590 -0.4122
  439poe    c23 1807   1.510   0.879   2.355 -0.2804  0.6517  0.1098
  439poe     o2 1808   1.499   0.742   2.323  0.4858  0.5565  0.2403
  439poe    c23 1809   1.395   0.680   2.394  0.3048  0.1114 -0.4028
  439poe    c23 1810   1.410   0.531   2.356 -0.0431 -0.0878  0.2316
  439poe     o2 1811   1.547   0.498   2.362 -0.0244 -0.0266  0.1383
  439poe    c31 1812   1.565   0.359   2.339  0.5935  0.1079 -0.2102
  440poe    c31 1813   1.512   1.338   2.197 -0.1605  0.3709  0.0065
  440poe     o2 1814   1.589   1.442   2.141  0.6123 -0.1413  0.0839
  440poe    c23 1815   1.629   1.526   2.247 -0.1602  0.1741  0.1345
  440poe    c23 1816   1.682   1.657   2.185 -0.4062  0.2892  0.1656
  440poe     o2 1817   1.770   1.619   2.082  0.6145  1.0749  0.7254
  440poe    c23 1818   1.781   1.737   2.006 -0.0012  0.4055 -0.4279
  440poe    c23 1819   1.855   1.714   1.873  0.5080 -0.1592 -0.0529
  440poe     o2 1820   1.781   1.620   1.797 -0.3512  0.2832  0.2335
  440poe    c23 1821   1.782   1.648   1.659 -0.3139 -0.5608  0.0622
  440poe    c23 1822   1.690   1.554   1.579 -0.2841 -0.3795 -0.1838
  440poe     o2 1823   1.558   1.584   1.619 -0.3431 -0.3511 -0.3947
  440poe    c31 1824   1.460   1.500   1.561 -1.0831  0.2038  0.0290
  441poe    c31 1825   0.449   1.451   5.578 -0.0560  0.4782 -0.1959
  441poe     o2 1826   0.318   1.401   5.596  0.1720  0.0479  0.3140
  441poe    c23 1827   0.318   1.261   5.613  0.3170 -0.0258 -0.2622
  441poe    c23 1828   0.175   1.206   5.610  0.5954 -0.7726  0.0290
  441poe     o2 1829   0.102   1.206   5.731 -0.1949 -0.2071 -0.4352
  441poe    c23 1830   0.137   1.096   5.812 -0.1204  0.1316  0.0003
  441poe    c23 1831   0.030   1.085   5.922 -0.1518 -0.1613 -0.0573
  441poe     o2 1832   0.031   1.196   6.009 -0.1103  0.0651 -0.3452
  441poe    c23 1833  -0.045   1.198   6.128  0.4726  0.4002  0.0217
  441poe    c23 1834   0.036   1.173   6.257 -0.2437  0.4772  0.4900
  441poe     o2 1835   0.144   1.264   6.250  0.2428 -0.1018  0.3740
  441poe    c31 1836   0.246   1.201   6.323  0.0718 -0.1477  0.5755
  442poe    c31 1837   2.083   1.712   6.862  0.0833 -0.2115 -0.2828
  442poe     o2 1838   1.949   1.705   6.905  0.0423 -0.1063 -0.3956
  442poe    c23 1839   1.899   1.574   6.894 -0.5840  0.0958 -0.0073
  442poe    c23 1840   1.954   1.464   6.988  0.3478  0.1711 -0.4578
  442poe     o2 1841   1.891   1.472   7.114  0.3956 -0.2933 -0.4041
  442poe    c23 1842   1.948   1.390   7.214  0.2238  0.1856  0.0898
  442poe    c23 1843   1.917   1.453   7.351 -0.0943 -0.1521  0.1748
  442poe     o2 1844   1.959   1.586   7.373  0.1871 -0.1712 -0.2501
  442poe    c23 1845   1.946   1.637   7.503 -0.2993 -0.4662 -0.1805
  442poe    c23 1846   1.987   1.783   7.531 -0.0666 -0.4068 -0.8174
  442poe     o2 1847   2.127   1.797   7.546 -0.2245  0.0251  0.3242
  442poe    c31 1848   2.165   1.933   7.550  0.0610 -0.0503  0.1713
  443poe    c31 1849   2.418   0.476   0.520  0.1019 -0.2547 -0.4538
  443poe     o2 1850   2.431   0.463   0.380 -0.4333 -0.2504 -0.5055
  443poe    c23 1851   2.534   0.548   0.335  0.2487 -0.4482  0.6367
  443poe    c23 1852   2.537   0.556   0.181 -0.0639 -0.1177  0.6463
  443poe     o2 1853   2.430   0.628   0.123  0.1103 -0.3474  0.0360
  443poe    c23 1854   2.462   0.653  -0.012 -0.0749 -0.3026  0.0010
  443poe    c23 1855   2.410   0.783  -0.076 -0.6613 -0.7149 -0.3695
  443poe     o2 1856   2.285   0.820  -0.021 -0.3201  0.5096 -0.3834
  443poe    c23 1857   2.228   0.941  -0.063 -0.4117  0.5691 -0.0850
  443poe    c23 1858   2.111   0.984   0.029 -0.1486 -0.1677  0.6052
  443poe     o2 1859   1.997   0.906   0.004 -0.0620  0.1086 -0.7162
  443poe    c31 1860   1.876   0.949   0.063 -0.3557 -1.2897 -0.2583
  444poe    c31 1861   0.059   0.177   6.810  0.2999 -0.0051 -0.0433
  444poe     o2 1862   0.194   0.212   6.790  0.2989 -0.1563 -0.3175
  444poe    c23 1863   0.244   0.273   6.906 -0.2118  0.2490 -0.3098
  444poe    c23 1864   0.347   0.383   6.874  0.1654 -0.0287 -0.0665
  444poe     o2 1865   0.300   0.465   6.769 -0.1675  0.2481  0.2940
  444poe    c23 1866   0.359   0.592   6.757 -0.0639  0.1701 -0.0536
  444poe    c23 1867   0.294   0.687   6.654 -0.2539 -0.0263 -0.1151
  444poe     o2 1868   0.288   0.624   6.528 -0.3001 -0.0921 -0.0801
  444poe    c23 1869   0.287   0.708   6.415  1.0751  0.0549 -0.0008
  444poe    c23 1870   0.240   0.644   6.283  0.3824 -0.3069  0.4133
  444poe     o2 1871   0.322   0.537   6.241  0.1933 -0.2105 -0.2202
  444poe    c31 1872   0.263   0.481   6.126 -0.3770  0.3114 -0.1866
  445poe    c31 1873   1.103   0.456   4.896  0.6045  0.0420  0.5643
  445poe     o2 1874   1.138   0.372   5.004  0.0624 -0.3195  0.4631
  445poe    c23 1875   1.145   0.444   5.125 -0.0298  0.0271  0.2633
  445poe    c23 1876   1.048   0.383   5.227  0.2240  0.0318  0.5065
  445poe     o2 1877   0.911   0.417   5.227  0.1411 -0.3025 -0.0212
  445poe    c23 1878   0.828   0.378   5.120 -0.4098  0.2823  0.1855
  445poe    c23 1879   0.682   0.389   5.168 -0.4017 -0.0698  0.2949
  445poe     o2 1880   0.585   0.387   5.066 -0.0973  0.1527 -0.0014
  445poe    c23 1881   0.451   0.388   5.109 -0.1334  0.7635 -0.1159
  445poe    c23 1882   0.353   0.349   4.996 -0.2344  0.3518  0.1117
  445poe     o2 1883   0.351   0.436   4.886 -0.1335  0.2822  0.0543
  445poe    c31 1884   0.301   0.361   4.777  0.7980 -0.3441  0.0471
  446poe    c31 1885   1.755   2.136   5.885 -0.2518  0.2900  0.3325
  446poe     o2 1886   1.631   2.176   5.831  0.0793  0.1765 -0.5153
  446poe    c23 1887   1.597   2.079   5.735  0.4720 -0.9565  0.4662
  446poe    c23 1888   1.449   2.068   5.693  0.5178 -0.2586  0.1042
  446poe     o2 1889   1.355   2.025   5.789  0.1403 -0.1412 -0.2114
  446poe    c23 1890   1.222   2.027   5.741 -0.1629  0.3040  0.6237
  446poe    c23 1891   1.131   1.949   5.838  0.2672 -0.2892  0.5554
  446poe     o2 1892   1.131   2.016   5.961  0.5404 -0.2979  0.5606
  446poe    c23 1893   1.017   1.972   6.032 -0.0565  0.4578  0.0805
  446poe    c23 1894   0.998   2.044   6.166 -0.3612 -0.2344  0.4123
  446poe     o2 1895   1.110   2.007   6.243 -0.2493 -0.0676  0.3315
  446poe    c31 1896   1.085   2.053   6.373 -0.1873  0.0195  0.3123
  447poe    c31 1897   0.036   1.973   4.339 -0.3332 -0.4460  0.1646
  447poe     o2 1898   0.111   1.859   4.307 -0.2221 -0.3108 -0.0654
  447poe    c23 1899   0.036   1.741   4.290 -0.2777 -0.2127 -0.4973
  447poe    c23 1900   0.124   1.621   4.250 -0.1347 -0.1122 -0.4837
  447poe     o2 1901   0.202   1.558   4.349 -0.2782  0.3201 -0.0927
  447poe    c23 1902   0.230   1.424   4.314  0.6755  0.5462 -0.2082
  447poe    c23 1903   0.335   1.360   4.408  0.0412 -0.3740 -0.1201
  447poe     o2 1904   0.291   1.356   4.542 -0.0019 -0.4376 -0.1364
  447poe    c23 1905   0.357   1.260   4.623  0.3918 -0.2137 -0.1869
  447poe    c23 1906   0.292   1.243   4.761  0.1701 -0.0606 -0.2713
  447poe     o2 1907   0.183   1.154   4.758  0.2986 -0.2464  0.3297
  447poe    c31 1908   0.170   1.078   4.876 -0.2891 -0.6019  0.0443
  448poe    c31 1909   1.578   0.937   6.015  0.1471 -0.0807  0.0834
  448poe     o2 1910   1.701   0.894   5.963  0.2862  0.1511  0.2202
  448poe    c23 1911   1.787   0.834   6.058  0.5084 -0.4458 -0.3467
  448poe    c23 1912   1.931   0.869   6.018  0.4347  0.0880 -0.1568
  448poe     o2 1913   1.950   1.008   6.006 -0.6125  0.3057  0.5363
  448poe    c23 1914   2.060   1.045   5.925 -0.1347 -0.4907  0.8077
  448poe    c23 1915   2.065   1.181   5.852 -0.8080 -0.5694  0.6064
  448poe     o2 1916   1.969   1.193   5.750 -0.0950 -0.5835 -0.0736
  448poe    c23 1917   2.005   1.291   5.655 -0.5268 -0.4404 -0.0930
  448poe    c23 1918   1.888   1.316   5.559 -0.3410 -0.3710 -0.3009
  448poe     o2 1919   1.838   1.192   5.513 -0.6983 -0.1729 -0.4507
  448poe    c31 1920   1.731   1.206   5.422 -0.1626  0.6065 -0.9785
  449poe    c31 1921   1.843   1.427   3.515 -0.1639 -0.6977 -0.5603
  449poe     o2 1922   1.736   1.518   3.520  0.0902 -0.4327  0.1216
  449poe    c23 1923   1.623   1.497   3.438  0.0036  0.0985  0.0999
  449poe    c23 1924   1.499   1.564   3.500  0.0225  0.4714 -0.2628
  449poe     o2 1925   1.457   1.496   3.616  0.5679  0.1541 -0.2465
  449poe    c23 1926   1.338   1.557   3.661  0.3587 -0.5122  0.1168
  449poe    c23 1927   1.309   1.507   3.804  0.3342  0.0750  0.3217
  449poe     o2 1928   1.394   1.563   3.902  0.1101  0.3674  0.3502
  449poe    c23 1929   1.315   1.627   4.000 -0.3861 -0.2397  0.3543
  449poe    c23 1930   1.421   1.667   4.104 -0.3057  0.7174 -0.0866
  449poe     o2 1931   1.497   1.556   4.145 -0.3427  0.6942 -0.0804
  449poe    c31 1932   1.548   1.589   4.273 -0.8793 -0.3563  0.4207
  450poe    c31 1933   1.488   1.880   2.964  0.0643  0.4239  0.0215
  450poe     o2 1934   1.430   1.967   2.869 -1.1870 -0.1879  0.2052
  450poe    c23 1935   1.425   2.098   2.921 -0.4120 -0.0100 -0.1664
  450poe    c23 1936   1.353   2.181   2.813  0.0007  0.0230 -0.4197
  450poe     o2 1937   1.427   2.201   2.695  0.3504 -0.0122 -0.2096
  450poe    c23 1938   1.337   2.274   2.615  0.1021  0.3208  0.3758
  450poe    c23 1939   1.406   2.333   2.491 -0.1517 -0.2117 -0.0226
  450poe     o2 1940   1.525   2.398   2.531  0.0577 -0.2695 -0.5415
  450poe    c23 1941   1.517   2.518   2.605  0.4856  0.0068 -0.9419
  450poe    c23 1942   1.657   2.569   2.646  0.2138  0.2758 -0.3430
  450poe     o2 1943   1.730   2.466   2.710  0.0089  0.5061  0.2739
  450poe    c31 1944   1.868   2.494   2.709 -0.0006  0.5540 -0.0151
  451poe    c31 1945   0.906   1.526   6.286 -0.1499  0.6340  0.4482
  451poe     o2 1946   1.001   1.609   6.348  0.6515  0.1952 -0.1804
  451poe    c23 1947   0.970   1.643   6.481  0.2200 -0.1247 -0.1964
  451poe    c23 1948   1.061   1.744   6.554 -0.1836  0.2924 -0.2626
  451poe     o2 1949   1.036   1.740   6.693  0.0854 -0.3387 -0.2289
  451poe    c23 1950   1.093   1.843   6.771 -0.5991 -0.0232 -0.1431
  451poe    c23 1951   1.032   1.842   6.912 -0.3297 -0.3208 -0.0282
  451poe     o2 1952   0.897   1.880   6.923 -0.1703  0.3120 -0.2425
  451poe    c23 1953   0.869   1.914   7.057 -0.6239  0.1066 -0.2863
  451poe    c23 1954   0.743   2.002   7.066 -0.1744  0.6999  0.2085
  451poe     o2 1955   0.620   1.939   7.091  0.3900 -0.4407  0.1816
  451poe    c31 1956   0.537   2.044   7.136  0.4655 -0.2399 -0.1503
  452poe    c31 1957   0.119   1.087   1.529  0.2839  0.5173 -0.3383
  452poe     o2 1958   0.066   1.147   1.413 -0.2407  0.7053 -0.0086
  452poe    c23 1959   0.144   1.152   1.295  0.0210 -0.2398  0.1140
  452poe    c23 1960   0.052   1.221   1.193  0.3056 -0.2757 -0.1691
  452poe     o2 1961  -0.064   1.144   1.168  0.2415 -0.2955  0.1810
  452poe    c23 1962  -0.074   1.124   1.029  0.1897 -0.3827  0.1974
  452poe    c23 1963  -0.217   1.076   0.996  0.0985 -0.3795  0.5825
  452poe     o2 1964  -0.305   1.171   1.051  0.2710  0.2883 -0.2716
  452poe    c23 1965  -0.435   1.144   1.002 -0.1161  0.6305  0.5416
  452poe    c23 1966  -0.538   1.094   1.104  0.1456 -0.2727  0.3738
  452poe     o2 1967  -0.562   1.176   1.216  0.0302 -0.1161  0.2356
  452poe    c31 1968  -0.702   1.179   1.231  0.0520 -0.4080  0.5041
  453poe    c31 1969   0.719   0.618   4.381  0.2929  0.0542 -0.2337
  453poe     o2 1970   0.603   0.547   4.342  0.2344  0.0046  0.0273
  453poe    c23 1971   0.581   0.456   4.447 -0.0994 -0.0608 -0.1013
  453poe    c23 1972   0.477   0.347   4.410 -0.4052  0.2740 -0.2328
  453poe     o2 1973   0.503   0.268   4.297 -0.0203  0.1777 -0.0793
  453poe    c23 1974   0.390   0.192   4.259  0.2497 -0.3401  0.1433
  453poe    c23 1975   0.401   0.097   4.139 -0.4550  0.0054 -0.1995
  453poe     o2 1976   0.430  -0.032   4.189  0.1408  0.2380  0.0643
  453poe    c23 1977   0.417  -0.129   4.088  0.7329 -0.0530  0.2681
  453poe    c23 1978   0.377  -0.269   4.138  0.4253 -0.0591  0.0040
  453poe     o2 1979   0.473  -0.306   4.234 -0.0433 -0.2874  0.3884
  453poe    c31 1980   0.402  -0.332   4.354 -0.0920  0.4338  0.5168
  454poe    c31 1981   1.710   2.023   3.284  0.3554  0.0908 -0.1373
  454poe     o2 1982   1.743   2.158   3.262  0.2742  0.2466  0.6510
  454poe    c23 1983   1.634   2.243   3.290  0.2581  0.2843  0.4784
  454poe    c23 1984   1.663   2.390   3.258  0.1281  0.2023 -0.0220
  454poe     o2 1985   1.730   2.403   3.134 -0.0591 -0.0467 -0.1505
  454poe    c23 1986   1.793   2.522   3.090 -0.1518  0.0517 -0.0210
  454poe    c23 1987   1.750   2.667   3.116 -0.2897  0.0396 -0.1791
  454poe     o2 1988   1.752   2.714   3.249 -0.0303 -0.4911  0.0048
  454poe    c23 1989   1.876   2.740   3.310 -0.1836 -0.3654  0.2668
  454poe    c23 1990   1.968   2.850   3.253 -0.5716 -0.1073  0.1350
  454poe     o2 1991   1.906   2.975   3.271 -0.1736  0.0564  0.3835
  454poe    c31 1992   1.975   3.072   3.195 -0.0602 -0.2435  0.1028
  455poe    c31 1993   1.692   2.255   2.006 -0.0191  0.0577 -0.0006
  455poe     o2 1994   1.783   2.241   2.112  0.3465 -0.6663 -0.4036
  455poe    c23 1995   1.913   2.223   2.060  0.0989 -0.6644 -1.0314
  455poe    c23 1996   2.004   2.181   2.177 -0.6922  0.6876  0.1085
  455poe     o2 1997   1.936   2.090   2.260 -0.2966 -0.2171 -0.5433
  455poe    c23 1998   2.020   2.039   2.361 -0.7910  0.1823  0.0763
  455poe    c23 1999   1.956   1.924   2.440  0.2648 -0.2312  0.3514
  455poe     o2 2000   1.847   1.948   2.528  0.2715  0.2104  0.2410
  455poe    c23 2001   1.783   1.827   2.562  0.0545  0.0733 -0.6229
  455poe    c23 2002   1.630   1.843   2.558  0.0427  0.2928  0.4243
  455poe     o2 2003   1.563   1.852   2.434 -0.0073 -0.2317  0.4120
  455poe    c31 2004   1.425   1.857   2.460 -0.1943 -0.5698 -0.4676
  456poe    c31 2005   1.207   0.883   6.316 -0.1845  0.5418  0.5144
  456poe     o2 2006   1.219   0.796   6.426  0.2201  0.0539  0.0887
  456poe    c23 2007   1.194   0.862   6.548  0.0393 -0.5489  0.3802
  456poe    c23 2008   1.182   0.790   6.684  0.1839  0.0784  0.7260
  456poe     o2 2009   1.305   0.737   6.728  0.2556 -0.5188 -0.1901
  456poe    c23 2010   1.291   0.654   6.841 -0.5790 -0.0887  0.0259
  456poe    c23 2011   1.390   0.538   6.821 -0.0504  0.3811 -0.1111
  456poe     o2 2012   1.529   0.559   6.824  0.0721 -0.4352  0.0489
  456poe    c23 2013   1.576   0.612   6.946 -0.1412  0.0805 -0.0914
  456poe    c23 2014   1.650   0.498   7.019 -0.4170 -0.4473 -0.6209
  456poe     o2 2015   1.564   0.389   7.044 -0.5142 -0.2107  0.1196
  456poe    c31 2016   1.629   0.295   7.126 -0.5564  0.0082  0.4052
  457poe    c31 2017   1.833   1.703   6.470  0.0409  0.2534  0.1360
  457poe     o2 2018   1.725   1.614   6.484  0.1305  0.1394  0.1099
  457poe    c23 2019   1.605   1.676   6.444  0.1019  0.5372  0.7796
  457poe    c23 2020   1.480   1.619   6.514 -0.1966 -0.0400 -0.1945
  457poe     o2 2021   1.459   1.482   6.488 -0.4593 -0.0089 -0.1471
  457poe    c23 2022   1.369   1.431   6.583  0.1371 -0.0928  0.3764
  457poe    c23 2023   1.355   1.279   6.563  0.0631  0.0023 -0.3006
  457poe     o2 2024   1.481   1.217   6.549  0.0928  0.0003 -0.0348
  457poe    c23 2025   1.486   1.090   6.609  0.2897  0.2322  0.4422
  457poe    c23 2026   1.624   1.030   6.575  0.1568  0.0801  0.1695
  457poe     o2 2027   1.721   1.131   6.576  0.0763  0.1565  0.2810
  457poe    c31 2028   1.852   1.078   6.571  0.3361  0.8574 -0.5657
  458poe    c31 2029   1.529   2.133   0.630  0.9894 -0.1128 -0.3331
  458poe     o2 2030   1.563   2.265   0.594  0.4984  0.1638  0.1996
  458poe    c23 2031   1.538   2.354   0.700  0.1067 -0.1411  0.3693
  458poe    c23 2032   1.554   2.504   0.668  0.1622 -0.2899 -0.3179
  458poe     o2 2033   1.434   2.558   0.615  0.0125  0.2700  0.5635
  458poe    c23 2034   1.467   2.669   0.536  0.1183  0.0993  0.3653
  458poe    c23 2035   1.338   2.727   0.474  0.5929  0.6181 -0.1548
  458poe     o2 2036   1.233   2.752   0.565  0.4884  0.1613 -0.1445
  458poe    c23 2037   1.102   2.751   0.512  0.4065 -0.2738  0.0689
  458poe    c23 2038   1.002   2.767   0.628 -0.2972 -0.1652 -0.5470
  458poe     o2 2039   0.979   2.647   0.698  0.1574 -0.0870 -0.2579
  458poe    c31 2040   0.850   2.673   0.750  0.4164  0.2882  0.2060
  459poe    c31 2041   2.386   1.918   1.037  0.3428  0.0296 -0.1547
  459poe     o2 2042   2.354   1.807   0.957  0.3025 -0.1539  0.1135
  459poe    c23 2043   2.214   1.804   0.944  0.2818  0.2191  0.2607
  459poe    c23 2044   2.197   1.652   0.927 -0.1052  0.3082 -0.2035
  459poe     o2 2045   2.240   1.601   0.803  0.4321 -0.0977  0.1414
  459poe    c23 2046   2.222   1.461   0.798 -0.2994  0.0049 -0.2844
  459poe    c23 2047   2.293   1.414   0.669  0.2569  0.1558 -0.0370
  459poe     o2 2048   2.252   1.507   0.572  0.0511  0.3145  0.2002
  459poe    c23 2049   2.304   1.468   0.446 -0.0397 -0.2551  0.3367
  459poe    c23 2050   2.258   1.574   0.344 -0.2980 -0.6272  0.0673
  459poe     o2 2051   2.268   1.696   0.412  0.2045 -0.4358 -0.3404
  459poe    c31 2052   2.253   1.802   0.320  0.1582 -0.5325 -0.4443
  460poe    c31 2053   1.533   1.354   4.545  0.0334 -0.5979 -0.0718
  460poe     o2 2054   1.603   1.304   4.657 -0.1557 -0.2985  0.1827
  460poe    c23 2055   1.529   1.301   4.777  0.3475 -0.0611  0.5005
  460poe    c23 2056   1.502   1.150   4.790 -0.5246  0.0290 -0.1912
  460poe     o2 2057   1.613   1.062   4.785 -0.4567  0.0887  0.2786
  460poe    c23 2058   1.609   0.944   4.862 -0.4825 -0.0753  0.0286
  460poe    c23 2059   1.696   0.829   4.809 -0.3985 -0.5180  1.0982
  460poe     o2 2060   1.832   0.854   4.840 -0.2749  0.6500 -0.2636
  460poe    c23 2061   1.917   0.759   4.779 -0.2626  0.5244 -0.0529
  460poe    c23 2062   2.046   0.757   4.862 -0.1855  0.3046 -0.1771
  460poe     o2 2063   2.020   0.759   5.001  0.5626  0.3950 -0.0351
  460poe    c31 2064   2.133   0.727   5.079  0.0413 -0.3880  0.4130
  461poe    c31 2065   0.567   0.706   0.660  0.7053 -0.1959  0.0976
  461poe     o2 2066   0.564   0.668   0.524  0.6415  0.4594 -0.0889
  461poe    c23 2067   0.442   0.708   0.467  0.7390  0.8238 -0.0459
  461poe    c23 2068   0.426   0.676   0.317  0.1192  0.0609  0.1774
  461poe     o2 2069   0.512   0.747   0.231  0.1295 -0.3819 -0.1830
  461poe    c23 2070   0.455   0.858   0.166  0.0325 -0.4945 -0.2919
  461poe    c23 2071   0.561   0.953   0.107  0.0920 -0.2331  0.2254
  461poe     o2 2072   0.624   1.031   0.206  0.5925 -0.0968 -0.1971
  461poe    c23 2073   0.674   1.149   0.149  0.0976  0.0505 -0.3290
  461poe    c23 2074   0.720   1.239   0.265 -0.0999  0.0175 -0.2261
  461poe     o2 2075   0.634   1.337   0.318 -0.3513 -0.5328  0.4068
  461poe    c31 2076   0.687   1.418   0.421 -0.4081  0.2206 -0.1462
  462poe    c31 2077   1.371   1.252   0.459 -0.1130  0.1143  0.3057
  462poe     o2 2078   1.389   1.221   0.595 -0.1590  0.0006  0.2859
  462poe    c23 2079   1.450   1.094   0.603 -0.1968 -0.0554 -0.3036
  462poe    c23 2080   1.482   1.092   0.753 -0.6281 -0.4720 -0.2174
  462poe     o2 2081   1.358   1.114   0.816 -0.6279 -0.8716 -0.0733
  462poe    c23 2082   1.381   1.116   0.955 -0.2354  0.1575 -0.1444
  462poe    c23 2083   1.260   1.179   1.027 -0.2495  0.1404 -0.1533
  462poe     o2 2084   1.208   1.288   0.955 -0.1393  0.0475 -0.3737
  462poe    c23 2085   1.087   1.341   1.003  0.1551  0.1061  0.3096
  462poe    c23 2086   1.048   1.471   0.930  0.1918 -0.2672 -0.3858
  462poe     o2 2087   0.988   1.471   0.802 -0.1752  0.0045 -0.2180
  462poe    c31 2088   0.850   1.492   0.789 -0.1924  0.1976  0.2274
  463poe    c31 2089   0.288   1.820   3.594  0.2482 -0.4139  0.3729
  463poe     o2 2090   0.246   1.766   3.471  0.0578 -0.0941  0.2945
  463poe    c23 2091   0.106   1.779   3.468  0.0374 -0.3836 -0.0537
  463poe    c23 2092   0.040   1.682   3.368 -0.7886  0.3559 -0.2414
  463poe     o2 2093   0.083   1.711   3.237  0.2733  0.5875  0.1469
  463poe    c23 2094   0.067   1.593   3.162 -0.3214  0.7502  0.0102
  463poe    c23 2095   0.109   1.608   3.015  0.0496  0.0272  0.0394
  463poe     o2 2096   0.011   1.668   2.934  0.1508 -0.3769 -0.3882
  463poe    c23 2097  -0.086   1.574   2.891 -0.1325 -0.0321 -0.5067
  463poe    c23 2098  -0.232   1.623   2.891 -0.0640  0.1796  0.0999
  463poe     o2 2099  -0.273   1.741   2.825  0.1470  0.0605 -0.2448
  463poe    c31 2100  -0.404   1.736   2.774  0.2069 -0.0383 -0.3899
  464poe    c31 2101   1.031   0.359   1.705 -0.4692  0.1820 -0.2203
  464poe     o2 2102   1.121   0.392   1.809 -0.0465  0.4498 -0.6661
  464poe    c23 2103   1.074   0.502   1.883 -0.1163 -0.1529  0.1942
  464poe    c23 2104   1.188   0.536   1.980 -0.0263  0.3998 -0.1037
  464poe     o2 2105   1.307   0.546   1.904 -0.0353 -0.0372 -0.1757
  464poe    c23 2106   1.408   0.617   1.972  0.0215 -0.2469 -0.0376
  464poe    c23 2107   1.507   0.655   1.861  0.0271 -0.0511  0.0327
  464poe     o2 2108   1.542   0.538   1.791  0.4245 -0.1767  0.4359
  464poe    c23 2109   1.636   0.554   1.687 -0.6152 -0.0108 -0.4950
  464poe    c23 2110   1.695   0.415   1.661 -0.1712  0.0320  0.2514
  464poe     o2 2111   1.614   0.300   1.651 -0.1379  0.0307 -0.0105
  464poe    c31 2112   1.687   0.181   1.632 -0.0207  0.0831  0.1077
  465poe    c31 2113   1.500   1.984   1.527  0.0478 -0.2203  0.0838
  465poe     o2 2114   1.441   2.104   1.482 -0.0242 -0.0940  0.5114
  465poe    c23 2115   1.301   2.091   1.487 -0.1059  0.5186  0.0122
  465poe    c23 2116   1.229   2.177   1.382 -0.7310 -0.0287 -0.0206
  465poe     o2 2117   1.326   2.219   1.288 -0.5577  0.4933  0.3807
  465poe    c23 2118   1.280   2.286   1.172 -0.1914 -0.4016 -0.2939
  465poe    c23 2119   1.315   2.216   1.039 -0.1393 -0.0950 -0.4410
  465poe     o2 2120   1.452   2.202   1.007 -0.1320 -0.4724 -0.2510
  465poe    c23 2121   1.478   2.064   1.017  0.6000 -0.2829  0.5018
  465poe    c23 2122   1.625   2.043   0.976  0.3806  0.0908 -0.5126
  465poe     o2 2123   1.718   2.111   1.058  0.0864 -0.3744  0.2110
  465poe    c31 2124   1.847   2.104   1.002 -0.2725  0.7190 -0.7901
  466poe    c31 2125   0.280   1.484   1.832 -1.6335  0.6750 -0.2367
  466poe     o2 2126   0.278   1.445   1.967 -0.0518  0.4114 -0.2622
  466poe    c23 2127   0.159   1.490   2.030 -0.0431 -0.0829  0.1197
  466poe    c23 2128   0.149   1.446   2.177  0.1044 -0.4801  0.0117
  466poe     o2 2129   0.263   1.490   2.247 -0.3340  0.4205  0.1657
  466poe    c23 2130   0.288   1.426   2.370 -0.2300 -0.4366 -0.2959
  466poe    c23 2131   0.382   1.304   2.362  0.1071 -0.1661 -0.4758
  466poe     o2 2132   0.515   1.342   2.388 -0.0011 -0.1184  0.0087
  466poe    c23 2133   0.596   1.228   2.400  0.2793  0.0583 -0.1873
  466poe    c23 2134   0.696   1.221   2.517 -0.1812 -0.4786  0.1840
  466poe     o2 2135   0.793   1.320   2.493 -0.2335 -0.3495  0.5089
  466poe    c31 2136   0.866   1.339   2.612  0.1680  0.3938  0.1592
  467poe    c31 2137   2.459   0.884   3.417 -0.6237 -0.1582  0.1109
  467poe     o2 2138   2.413   0.997   3.347 -0.5205 -0.4176 -0.3790
  467poe    c23 2139   2.471   1.024   3.222 -0.2749  0.0171 -0.1751
  467poe    c23 2140   2.400   1.134   3.141  0.0550  0.1845 -0.2390
  467poe     o2 2141   2.274   1.094   3.092 -0.1117  0.1820  0.1886
  467poe    c23 2142   2.205   1.196   3.023 -0.0740  0.3289  0.3670
  467poe    c23 2143   2.084   1.235   3.110  0.2107  0.1104  0.8671
  467poe     o2 2144   2.019   1.112   3.128  0.1034  0.0122 -0.1487
  467poe    c23 2145   1.902   1.135   3.204  0.2517 -0.3338  0.1865
  467poe    c23 2146   1.819   1.006   3.214  0.2219 -0.3525 -0.2771
  467poe     o2 2147   1.885   0.919   3.303 -0.2324 -0.0204  0.3942
  467poe    c31 2148   1.807   0.844   3.393 -0.7271  0.0239  0.0051
  468poe    c31 2149   1.840   2.039   5.322  0.4257  0.3061 -0.1795
  468poe     o2 2150   1.900   2.038   5.194  0.7874  0.3016 -0.0093
  468poe    c23 2151   1.926   1.910   5.143  0.2852  0.0387  0.3847
  468poe    c23 2152   2.036   1.823   5.206 -0.0363 -0.4134  0.3351
  468poe     o2 2153   2.163   1.878   5.178 -0.2183 -0.0775  0.1613
  468poe    c23 2154   2.277   1.803   5.213  0.0775  0.2160 -0.1612
  468poe    c23 2155   2.411   1.874   5.186  0.0063  0.4684  0.1490
  468poe     o2 2156   2.434   1.899   5.050 -0.0645 -0.6512 -0.0735
  468poe    c23 2157   2.565   1.949   5.036 -0.0942 -0.5595 -0.0191
  468poe    c23 2158   2.603   2.004   4.897  0.0320 -0.2086  0.1524
  468poe     o2 2159   2.648   1.916   4.797 -0.0435  0.3085 -0.3379
  468poe    c31 2160   2.696   1.996   4.691  0.7148 -0.1429 -0.3421
  469poe    c31 2161   1.646   0.137   5.141  0.5298 -0.2210 -0.2261
  469poe     o2 2162   1.655   0.004   5.186 -0.6667 -0.1949  0.1210
  469poe    c23 2163   1.603  -0.001   5.317  0.1079 -0.5987  0.4190
  469poe    c23 2164   1.537  -0.135   5.355 -0.3681 -0.3676  0.4154
  469poe     o2 2165   1.441  -0.176   5.260 -0.0273 -0.2650  0.0239
  469poe    c23 2166   1.398  -0.309   5.278 -0.2970 -0.1380  0.3341
  469poe    c23 2167   1.317  -0.349   5.154 -0.4409 -0.3957  0.5085
  469poe     o2 2168   1.203  -0.270   5.130 -0.0266  0.1237  0.2188
  469poe    c23 2169   1.088  -0.296   5.207 -0.1972 -0.0960 -0.1068
  469poe    c23 2170   0.958  -0.250   5.139 -0.2287 -0.2494 -0.1497
  469poe     o2 2171   0.966  -0.120   5.086 -0.5942 -0.2005 -0.0850
  469poe    c31 2172   0.833  -0.075   5.075 -0.5585 -0.1683 -0.4107
  470poe    c31 2173   0.924   1.038   6.082  0.5787  0.3609  0.0865
  470poe     o2 2174   0.887   1.063   5.948 -0.1479 -0.6063  0.0974
  470poe    c23 2175   0.753   1.105   5.940  0.0774  0.1718  0.3175
  470poe    c23 2176   0.692   1.122   5.799 -0.2063 -0.4917  0.3549
  470poe     o2 2177   0.651   1.001   5.741 -0.2556 -0.3548  0.1025
  470poe    c23 2178   0.598   1.023   5.612 -0.3195  0.1087  0.2061
  470poe    c23 2179   0.577   0.884   5.549 -0.4129  0.0567  0.3520
  470poe     o2 2180   0.701   0.817   5.536 -0.1917  0.4444  0.4441
  470poe    c23 2181   0.669   0.680   5.535 -0.5578  0.5288  0.2539
  470poe    c23 2182   0.797   0.597   5.516 -0.7327  0.3019  0.0624
  470poe     o2 2183   0.903   0.676   5.565 -0.0404 -0.1408 -0.6829
  470poe    c31 2184   1.013   0.588   5.571 -0.3241 -0.4559  0.0529
  471poe    c31 2185   1.768   0.128   4.295  0.0585 -0.1544  0.4770
  471poe     o2 2186   1.732  -0.007   4.280 -0.2694 -0.1105  0.8646
  471poe    c23 2187   1.837  -0.085   4.227 -0.1439  0.1851  0.6832
  471poe    c23 2188   1.799  -0.233   4.213  0.7971  0.0026 -0.0711
  471poe     o2 2189   1.724  -0.255   4.330  0.5021 -0.2381 -0.3016
  471poe    c23 2190   1.696  -0.390   4.361  0.0826 -0.0061  0.3574
  471poe    c23 2191   1.595  -0.408   4.475 -0.4671 -0.5104 -0.2043
  471poe     o2 2192   1.470  -0.352   4.441 -0.2135  0.0119 -0.2778
  471poe    c23 2193   1.389  -0.336   4.556  0.4087  0.2475  0.1334
  471poe    c23 2194   1.246  -0.295   4.515  0.4229  0.0868 -0.0790
  471poe     o2 2195   1.254  -0.168   4.455 -0.4860  0.1554 -0.0661
  471poe    c31 2196   1.134  -0.142   4.387 -0.2455 -0.3648 -0.7001
  472poe    c31 2197   0.493   0.550   2.724 -0.1917  0.5242 -0.6893
  472poe     o2 2198   0.520   0.668   2.796 -0.4716  0.2586 -0.1510
  472poe    c23 2199   0.555   0.771   2.707  1.4330 -0.5784 -0.4280
  472poe    c23 2200   0.594   0.896   2.788  0.1063 -0.3043 -0.1866
  472poe     o2 2201   0.722   0.899   2.847 -0.0900  0.0822  0.2230
  472poe    c23 2202   0.745   1.031   2.891 -0.0379  0.3929 -0.6966
  472poe    c23 2203   0.897   1.048   2.904 -0.0436  0.1164 -0.2285
  472poe     o2 2204   0.940   0.932   2.973 -0.1449  0.1179 -0.1637
  472poe    c23 2205   1.076   0.905   2.949 -0.0974  0.1668  0.0474
  472poe    c23 2206   1.114   0.763   2.994 -0.2890  0.1763  0.2406
  472poe     o2 2207   1.009   0.672   2.970 -0.2610  0.1065  0.3765
  472poe    c31 2208   1.049   0.542   3.005  0.2557  0.3232  0.6014
  473poe    c31 2209   2.442   1.533   1.387 -0.3580  0.0280 -0.4405
  473poe     o2 2210   2.345   1.522   1.489  0.3909 -0.3313  0.2444
  473poe    c23 2211   2.371   1.420   1.583  0.2720  0.0958  0.7404
  473poe    c23 2212   2.254   1.379   1.674 -0.1508  0.1825  0.2392
  473poe     o2 2213   2.242   1.465   1.786 -0.0110  0.6669 -0.1122
  473poe    c23 2214   2.143   1.438   1.883 -0.0335 -0.2482 -0.3770
  473poe    c23 2215   2.175   1.545   1.989  0.2792 -0.1305 -0.5881
  473poe     o2 2216   2.194   1.667   1.922 -0.2070  0.2466 -0.0535
  473poe    c23 2217   2.239   1.751   2.026 -0.4229  0.3438 -0.0395
  473poe    c23 2218   2.294   1.892   1.993 -0.0236  0.0891 -0.4741
  473poe     o2 2219   2.412   1.866   1.920 -0.3347  0.0798 -0.9838
  473poe    c31 2220   2.466   1.993   1.892 -0.6195  0.2544 -0.7562
  474poe    c31 2221   2.323   1.937   6.411 -0.0167  0.2435 -0.0211
  474poe     o2 2222   2.462   1.917   6.428 -0.0546 -0.0966 -0.0908
  474poe    c23 2223   2.477   1.818   6.526 -0.1109 -0.2988 -0.2860
  474poe    c23 2224   2.625   1.790   6.559 -0.0121  0.3446 -0.1755
  474poe     o2 2225   2.686   1.894   6.632  0.2905 -0.0845  0.1838
  474poe    c23 2226   2.826   1.882   6.631  0.3041  0.0855  0.0339
  474poe    c23 2227   2.897   1.970   6.735 -0.0244  0.1899  0.1700
  474poe     o2 2228   3.030   1.996   6.696 -0.1015 -0.0581 -0.2556
  474poe    c23 2229   3.071   2.115   6.760  0.0080 -0.1615 -0.1331
  474poe    c23 2230   3.207   2.157   6.702  0.1635 -0.6246 -0.1136
  474poe     o2 2231   3.199   2.233   6.584  0.1437 -0.4281  0.0131
  474poe    c31 2232   3.322   2.299   6.564 -0.2207  0.2680  0.0371
  475poe    c31 2233   0.928   2.020   2.471 -0.1168 -0.5020  0.0826
  475poe     o2 2234   0.826   2.117   2.475  0.0412 -0.3142 -0.3472
  475poe    c23 2235   0.870   2.248   2.502 -0.5027 -0.2183  0.0962
  475poe    c23 2236   0.763   2.353   2.466  0.0903  0.3318 -0.0870
  475poe     o2 2237   0.725   2.330   2.332  0.1807  0.0841 -0.0707
  475poe    c23 2238   0.589   2.366   2.339  0.0967 -0.2218 -0.0987
  475poe    c23 2239   0.571   2.493   2.253 -0.0441 -0.0837  0.1349
  475poe     o2 2240   0.542   2.454   2.121  0.0887  0.0853  0.0556
  475poe    c23 2241   0.402   2.446   2.109  0.0501 -0.5668  0.8997
  475poe    c23 2242   0.334   2.341   2.019 -0.1767  0.4521 -0.1355
  475poe     o2 2243   0.374   2.355   1.885 -0.6771 -0.0979 -0.3457
  475poe    c31 2244   0.284   2.299   1.791 -0.6823 -0.1101 -0.3334
  476poe    c31 2245   1.863   0.266   4.658 -0.6861  0.1901  0.0468
  476poe     o2 2246   1.896   0.259   4.795 -0.3681 -0.4163 -0.0581
  476poe    c23 2247   1.818   0.352   4.866 -0.2255 -0.2728 -0.0903
  476poe    c23 2248   1.895   0.411   4.986 -0.4804 -0.0601 -0.0313
  476poe     o2 2249   1.930   0.306   5.072  0.0709  0.2318  0.1034
  476poe    c23 2250   2.013   0.351   5.177  0.0593  0.1794  0.1358
  476poe    c23 2251   2.046   0.236   5.273 -0.2386 -0.0225 -0.0036
  476poe     o2 2252   2.067   0.110   5.213  0.0824  0.0827 -0.1148
  476poe    c23 2253   2.092   0.009   5.309  0.3623  0.4909  0.2424
  476poe    c23 2254   2.187  -0.088   5.238  0.2410  0.3336  0.2951
  476poe     o2 2255   2.115  -0.115   5.120 -0.2657  0.4474  0.5748
  476poe    c31 2256   2.157  -0.231   5.051  0.0798  0.8321  0.1264
  477poe    c31 2257   1.543   0.584   6.193  0.0848  0.9485  0.8027
  477poe     o2 2258   1.486   0.468   6.249 -0.1626  0.4910 -0.3711
  477poe    c23 2259   1.348   0.459   6.223 -0.0890  0.5122 -0.7761
  477poe    c23 2260   1.264   0.373   6.318  0.7046  0.2295 -0.3220
  477poe     o2 2261   1.293   0.235   6.311 -0.5627 -0.0759  0.1442
  477poe    c23 2262   1.215   0.184   6.417 -0.3366  0.2537  0.4698
  477poe    c23 2263   1.240   0.037   6.453  0.1840  0.3385  0.4619
  477poe     o2 2264   1.357   0.039   6.531 -0.0042  0.1973  0.7487
  477poe    c23 2265   1.386  -0.091   6.579  0.1253 -0.2819 -0.5882
  477poe    c23 2266   1.514  -0.098   6.664  0.0587  0.4217 -0.4224
  477poe     o2 2267   1.480  -0.050   6.793  0.2182 -0.4291 -0.0543
  477poe    c31 2268   1.587  -0.055   6.885  0.2752  0.4747 -0.0553
  478poe    c31 2269   0.653   1.729   3.683 -0.1326 -0.3083  0.4879
  478poe     o2 2270   0.675   1.734   3.544 -0.1741  0.5515  0.5077
  478poe    c23 2271   0.676   1.602   3.493 -0.1457  0.5331  0.5562
  478poe    c23 2272   0.732   1.605   3.350 -0.5313  0.2420  0.3985
  478poe     o2 2273   0.836   1.699   3.331 -0.5481  0.2064  0.1307
  478poe    c23 2274   0.893   1.701   3.202 -0.0210  0.3459  0.3664
  478poe    c23 2275   1.044   1.734   3.208  0.0157  0.1935  0.2931
  478poe     o2 2276   1.054   1.865   3.260 -0.0351  0.2490  0.1628
  478poe    c23 2277   1.186   1.899   3.294  0.1721 -0.3340 -0.0459
  478poe    c23 2278   1.199   2.049   3.265  0.0421 -0.4289 -0.6156
  478poe     o2 2279   1.106   2.119   3.345  0.6752 -0.3338  0.0569
  478poe    c31 2280   1.115   2.258   3.326  0.0850 -0.3188 -0.1341
  479poe    c31 2281   0.465   0.853   3.123 -0.5295  0.0066  0.5379
  479poe     o2 2282   0.521   0.910   3.239  0.2900 -0.5946  0.4411
  479poe    c23 2283   0.437   0.871   3.345  0.3122 -0.3958  0.5315
  479poe    c23 2284   0.483   0.913   3.486 -0.6882 -0.4236  0.8766
  479poe     o2 2285   0.612   0.860   3.508 -0.2174  0.4595  0.2674
  479poe    c23 2286   0.668   0.899   3.631  0.8107 -0.0316 -0.0269
  479poe    c23 2287   0.715   1.046   3.625 -0.3461  0.3529 -0.0726
  479poe     o2 2288   0.821   1.065   3.534  0.1372  0.0643  0.4202
  479poe    c23 2289   0.865   1.199   3.524  0.3563 -0.0176  0.2816
  479poe    c23 2290   0.991   1.223   3.439  0.0017  0.1307 -0.2082
  479poe     o2 2291   1.095   1.150   3.500 -0.1907  0.1751  0.1791
  479poe    c31 2292   1.212   1.195   3.434 -0.2382 -0.4263 -0.3276
  480poe    c31 2293   2.031   2.353   4.567 -0.8462  0.9124 -0.1821
  480poe     o2 2294   1.915   2.279   4.599 -0.1679 -0.1959 -0.2211
  480poe    c23 2295   1.938   2.207   4.718  0.0954 -0.3596 -0.3693
  480poe    c23 2296   1.810   2.155   4.787 -0.2767  0.5186 -0.3919
  480poe     o2 2297   1.741   2.269   4.834 -0.4118  0.3235 -0.1177
  480poe    c23 2298   1.620   2.226   4.892 -0.7231 -0.1389 -1.0932
  480poe    c23 2299   1.513   2.335   4.908 -0.1900  0.2750 -0.2414
  480poe     o2 2300   1.503   2.409   4.788 -0.4794 -0.3685 -0.6206
  480poe    c23 2301   1.393   2.496   4.793 -0.3683 -0.2454 -0.2926
  480poe    c23 2302   1.420   2.631   4.723  0.4887  0.0394  0.5708
  480poe     o2 2303   1.440   2.630   4.584  0.1300  0.2764  0.5173
  480poe    c31 2304   1.504   2.752   4.553  0.0336  0.2739  0.3058
  481poe    c31 2305   0.492   1.898   5.427 -0.1102  0.3266 -0.0158
  481poe     o2 2306   0.565   1.984   5.343 -0.0665 -0.0681 -0.3890
  481poe    c23 2307   0.487   2.070   5.262  0.0360  0.2196 -0.1859
  481poe    c23 2308   0.538   2.130   5.130 -0.0725 -0.1132 -0.3806
  481poe     o2 2309   0.586   2.029   5.044  0.2257  0.1370 -0.5100
  481poe    c23 2310   0.611   2.098   4.924  0.1962  0.2309 -0.4623
  481poe    c23 2311   0.688   2.000   4.833  0.0301 -0.1857 -0.1542
  481poe     o2 2312   0.611   1.895   4.780 -0.3632 -0.2618  0.5530
  481poe    c23 2313   0.710   1.810   4.725  0.0299  0.6486 -0.1656
  481poe    c23 2314   0.647   1.685   4.661  0.5583  0.3947 -0.1992
  481poe     o2 2315   0.547   1.711   4.565  0.3040  0.4963  0.0879
  481poe    c31 2316   0.589   1.710   4.430  0.1003 -0.3397  0.0223
  482poe    c31 2317   0.255   0.172   0.862  0.3729 -0.2401 -0.1433
  482poe     o2 2318   0.140   0.092   0.872 -0.0586  0.4275  0.3293
  482poe    c23 2319   0.029   0.173   0.841 -0.1172  0.1372 -0.2382
  482poe    c23 2320  -0.103   0.111   0.891  0.0236  0.1713  0.1784
  482poe     o2 2321  -0.063   0.044   1.009 -0.0607 -0.3596 -0.0915
  482poe    c23 2322  -0.166   0.001   1.096 -0.1645 -0.1070 -0.0895
  482poe    c23 2323  -0.108  -0.087   1.208  0.4289  0.6250  0.1892
  482poe     o2 2324  -0.049  -0.203   1.154 -0.4070  0.0609  0.4638
  482poe    c23 2325   0.029  -0.267   1.252 -0.0300  0.2918  0.3172
  482poe    c23 2326   0.159  -0.332   1.201 -0.1659  0.3846 -0.1532
  482poe     o2 2327   0.267  -0.255   1.151  0.2649 -0.3069 -0.3057
  482poe    c31 2328   0.369  -0.332   1.092  0.3546 -0.1995 -0.2902
  483poe    c31 2329   0.488   0.198   5.996  0.1328  0.9428  1.0781
  483poe     o2 2330   0.578   0.101   6.045 -0.4552 -0.3708 -0.3620
  483poe    c23 2331   0.611   0.012   5.940  0.0362  0.1504 -0.6545
  483poe    c23 2332   0.626  -0.132   5.992  0.1138  0.2747 -0.3300
  483poe     o2 2333   0.509  -0.183   6.052  0.3706  0.4212  0.3074
  483poe    c23 2334   0.524  -0.303   6.124  0.2537  0.3364  0.1908
  483poe    c23 2335   0.387  -0.351   6.176 -0.1797  0.7162 -0.5672
  483poe     o2 2336   0.327  -0.274   6.277 -0.0670  0.0272  0.0387
  483poe    c23 2337   0.244  -0.344   6.367 -0.0670  0.3673  0.3057
  483poe    c23 2338   0.159  -0.252   6.457 -0.4636  0.2571  0.0474
  483poe     o2 2339   0.256  -0.209   6.550 -0.0908 -0.4144 -0.0250
  483poe    c31 2340   0.205  -0.178   6.677 -0.1372 -0.5276 -0.0157
  484poe    c31 2341   1.134   1.738   2.650  0.3227  0.3284  0.1177
  484poe     o2 2342   1.028   1.788   2.728 -0.0426 -0.1829 -0.0461
  484poe    c23 2343   1.085   1.873   2.825 -0.2477 -0.0364 -0.0560
  484poe    c23 2344   0.981   1.985   2.848  0.0916  0.2809 -0.0451
  484poe     o2 2345   0.862   1.926   2.897 -0.0467  0.2278 -0.4326
  484poe    c23 2346   0.777   2.012   2.969  0.2735 -0.3863  0.7239
  484poe    c23 2347   0.668   1.940   3.051 -0.2835 -0.0376  0.3032
  484poe     o2 2348   0.585   1.864   2.966  0.2956  0.0264 -0.3241
  484poe    c23 2349   0.466   1.926   2.922 -0.1403  0.1980  1.0540
  484poe    c23 2350   0.372   1.818   2.864  0.6549 -0.0508  0.1940
  484poe     o2 2351   0.426   1.762   2.747 -0.2738 -0.7688  0.1052
  484poe    c31 2352   0.334   1.779   2.640 -0.9259 -0.5945  0.6873
  485poe    c31 2353   2.336   1.498   3.652 -0.0582  0.5397 -0.7211
  485poe     o2 2354   2.382   1.567   3.766  0.3453  0.1847 -0.6653
  485poe    c23 2355   2.521   1.553   3.788  0.1095 -0.6493  0.3531
  485poe    c23 2356   2.578   1.645   3.897  0.3433 -0.4453  0.0563
  485poe     o2 2357   2.578   1.776   3.843  0.1253 -0.3585  0.2677
  485poe    c23 2358   2.626   1.867   3.939 -0.6427 -0.2292  0.5438
  485poe    c23 2359   2.579   2.011   3.915 -0.2525 -0.1376  0.3239
  485poe     o2 2360   2.605   2.057   3.784 -0.5993 -0.3140  0.1932
  485poe    c23 2361   2.563   2.192   3.786 -1.0260 -0.4413 -0.0782
  485poe    c23 2362   2.532   2.236   3.642  0.2168  0.3277 -0.1219
  485poe     o2 2363   2.418   2.172   3.589  0.2209  0.3477 -0.1548
  485poe    c31 2364   2.411   2.179   3.448  0.3953  0.5037 -0.1561
  486poe    c31 2365   2.190   2.090   2.675 -0.2383  0.1951  0.4882
  486poe     o2 2366   2.189   2.230   2.692  0.0782  0.3200 -0.4696
  486poe    c23 2367   2.313   2.284   2.651  0.1490  0.4530 -0.0836
  486poe    c23 2368   2.323   2.433   2.691 -0.2449  0.5275 -0.2560
  486poe     o2 2369   2.357   2.438   2.827 -0.5420 -0.1032 -0.1543
  486poe    c23 2370   2.388   2.570   2.867  0.0581 -0.5690  0.9670
  486poe    c23 2371   2.435   2.588   3.012  0.7600 -0.3859  0.7165
  486poe     o2 2372   2.336   2.552   3.106 -0.0913  0.2180  0.0600
  486poe    c23 2373   2.397   2.552   3.232  0.1659  0.2601 -0.0637
  486poe    c23 2374   2.297   2.492   3.333  0.0954 -0.0823 -0.3381
  486poe     o2 2375   2.172   2.553   3.351  0.2074  0.0850 -0.1323
  486poe    c31 2376   2.104   2.507   3.466  0.0985  0.1739 -0.1607
  487lim     li 2377   0.831   1.557   1.629  0.5135 -0.4126 -0.9811
  488lim     li 2378   0.251   1.753   4.808  0.0605  0.6655  0.1447
  489lim     li 2379   1.853   1.097   4.502 -0.9149  0.5117  0.2520
  490lim     li 2380   0.836   0.529   0.229  0.6579 -1.4553  0.4473
  491lim     li 2381   1.638   1.294   6.533 -1.0154  0.9849 -1.1925
  492lim     li 2382   1.648   0.642   2.369  0.1232  1.5786  1.0432
  493lim     li 2383   0.684   1.585   6.763 -0.0095  0.0941  0.4952
  494lim     li 2384   2.136   0.978   3.106 -0.9525  0.7548 -0.8681
  495lim     li 2385   0.822   1.822   3.446  0.0274  0.0913  0.6242
  496lim     li 2386   1.690   1.493   1.992 -0.0142  1.0708 -0.1358
  497lim     li 2387   1.334   1.176   4.104  0.0619 -0.1256  0.6937
  498lim     li 2388   0.595   1.662   2.247 -0.2842  0.5281 -0.8228
  499lim     li 2389   0.840   1.723   2.698 -0.3429 -0.5618  0.8972
  500lim     li 2390   2.264   0.639   1.731 -1.0879  0.5725  0.8402
  501lim     li 2391   0.098   0.082   6.023 -0.6702 -0.5026  0.3212
  502lim     li 2392   2.437   0.957   0.458  0.7628 -0.3702  0.0663
  503lim     li 2393   2.213   1.930   3.702  0.7647 -0.1571  0.6804
  504lim     li 2394   0.835   1.785   5.238 -0.2322 -0.1707  0.3070
  505lim     li 2395   0.088   2.441   0.992  0.1572 -0.1856  0.1949
  506lim     li 2396   1.856   1.091   5.657 -0.5172  0.1976  1.1199
  507lim     li 2397   1.286   1.434   6.143  0.3591  0.4883 -0.3327
  508lim     li 2398   2.022   0.033   5.062  0.7460  0.6943 -0.9716
  509lim     li 2399   0.566   0.839   1.781 -0.5817  0.6178 -0.7126
  510lim     li 2400   1.485   2.213   1.368  0.6616  0.4917  1.0895
  511lim     li 2401   1.284   1.266   0.742 -0.0519  1.1567  0.1815
  512lim     li 2402   1.359   2.368   6.064  0.2007 -0.4319  0.5036
  513lim     li 2403   0.220   0.292   6.631  1.0565  0.7905  0.6567
  514lim     li 2404   2.278   1.665   0.617  0.0858  0.3838  0.1607
  515lim     li 2405   0.523   0.559   3.767  0.1713  0.0616  0.3482
  516lim     li 2406   1.018   0.018   0.775 -0.4989  0.0624 -1.0023
  517lim     li 2407   0.447   2.447   3.152  0.2478  0.5626  0.7228
  518lim     li 2408   2.013   1.217   4.973  0.2101 -0.1536  0.0246
  519lim     li 2409   0.092   0.727   4.110 -0.4116 -0.0470 -0.5554
  520lim     li 2410   0.438   0.588   4.856  1.0213  1.1000 -1.1373
  521lim     li 2411   0.675   2.401   2.017  0.9672 -1.6618  0.6234
  522lim     li 2412   1.559   0.771   0.968  0.5006 -0.5559  0.7600
  523lim     li 2413   1.315   0.451   1.746 -0.0203  1.0999 -0.5103
  524lim     li 2414   1.422   0.714   3.278 -0.3059  0.2019 -0.2167
  525lim     li 2415   1.590   2.072   0.172 -0.1331  0.8063  1.1958
  526lim     li 2416   2.251   1.635   1.748  0.3588 -0.5866  0.0567
  527lim     li 2417   1.620   2.361   4.380 -0.4374  0.1834 -0.2783
  528lim     li 2418   2.157   0.273   0.161  0.8596  0.4818  0.0914
  529lim     li 2419   2.374   0.343   2.451  0.7374  0.3170 -1.2909
  530lim     li 2420   2.445   1.550   5.790  0.0382 -0.5516 -0.3868
  531lim     li 2421   1.771   2.163   2.275 -1.1115 -0.2848  0.1928
  532lim     li 2422   0.883   0.850   5.597 -0.0499 -0.8178 -0.0153
  533lim     li 2423   1.982   1.300   1.334 -0.1415  1.0618 -1.1273
  534lim     li 2424   0.067   1.973   6.068 -0.6793 -0.2070 -0.3365
  535lim     li 2425   1.671   0.248   3.721  0.2649 -0.1222 -1.4694
  536lim     li 2426   1.679   0.332   6.505  0.8510 -0.4523  0.4436
  537lim     li 2427   2.261   2.153   3.033  0.4103 -0.4840  0.2828
  538lim     li 2428   1.126   2.427   5.030 -0.0567 -0.9548 -0.6275
  539lim     li 2429   0.861   0.754   2.890  0.1691 -0.3549 -0.6559
  540lim     li 2430   1.115   0.261   4.028  0.4030  0.3886  0.5857
  541ntf    cn1 2431   2.241   0.042   2.158 -0.0764 -0.3787  0.3589
  541ntf    sn2 2432   2.236   0.223   2.142 -0.2152 -0.4237 -0.1177
  541ntf    nn3 2433   2.086   0.234   2.097 -0.0996 -0.1874 -0.4513
  541ntf    sn2 2434   1.962   0.255   2.191  0.4081  0.2561  0.1273
  541ntf    cn1 2435   1.841   0.137   2.124 -0.0722  0.4949  0.5692
  541ntf    fn4 2436   2.365  -0.002   2.170  0.1357  0.0785 -0.1084
  541ntf    fn4 2437   2.176  -0.001   2.265 -0.0317 -0.1633  0.4716
  541ntf    fn4 2438   2.184  -0.023   2.058  0.0913 -0.2161  0.1578
  541ntf    on5 2439   2.275   0.275   2.271  0.3988  0.2679 -0.5719
  541ntf    on5 2440   2.323   0.252   2.031 -0.0560 -0.2725  0.0466
  541ntf    on5 2441   1.900   0.383   2.167  0.1945  0.1099 -0.1041
  541ntf    on5 2442   1.975   0.215   2.329 -0.3548  0.1275  0.1633
  541ntf    fn4 2443   1.753   0.101   2.216 -0.2125 -0.1177  0.2055
  541ntf    fn4 2444   1.784   0.182   2.013  0.3054  0.1411  0.2287
  541ntf    fn4 2445   1.914   0.034   2.087  0.0430  0.6310  0.4176
  542ntf    cn1 2446   0.228   2.392   0.187  0.3727 -0.2381  0.4722
  542ntf    sn2 2447   0.200   2.511   0.321 -0.0179 -0.1215  0.2873
  542ntf    nn3 2448   0.349   2.556   0.340  0.0862 -0.4930  0.3466
  542ntf    sn2 2449   0.409   2.701   0.333 -0.2123 -0.3950 -0.1691
  542ntf    cn1 2450   0.516   2.704   0.480 -0.0609  0.4773 -0.2920
  542ntf    fn4 2451   0.302   2.287   0.221  0.1705 -0.7206 -0.5355
  542ntf    fn4 2452   0.116   2.349   0.132 -0.0198  0.7390  0.4938
  542ntf    fn4 2453   0.298   2.449   0.090 -0.0443 -0.4854  0.0202
  542ntf    on5 2454   0.113   2.599   0.248  0.1595 -0.3415 -0.1915
  542ntf    on5 2455   0.141   2.432   0.425  0.2143 -0.5170  0.1202
  542ntf    on5 2456   0.322   2.813   0.356  0.3131 -0.0351  0.0939
  542ntf    on5 2457   0.504   2.724   0.226 -0.1901 -0.0622 -0.0779
  542ntf    fn4 2458   0.612   2.615   0.466 -0.4775  0.0283 -0.3298
  542ntf    fn4 2459   0.575   2.820   0.503  0.4670  0.1890 -0.1864
  542ntf    fn4 2460   0.448   2.664   0.586  0.2072 -0.1516 -0.3494
  543ntf    cn1 2461   0.275   0.573   3.320  0.2395  0.2963  0.0399
  543ntf    sn2 2462   0.202   0.521   3.478 -0.0685  0.1585 -0.1474
  543ntf    nn3 2463   0.052   0.563   3.457  0.1710  0.8218 -0.5740
  543ntf    sn2 2464  -0.046   0.497   3.354  0.0569  0.3301 -0.1588
  543ntf    cn1 2465  -0.134   0.384   3.466  0.2881  0.2460 -0.0629
  543ntf    fn4 2466   0.234   0.499   3.218  0.2680  0.1770  0.1142
  543ntf    fn4 2467   0.239   0.695   3.286 -0.5528  0.2408  0.6526
  543ntf    fn4 2468   0.406   0.555   3.328  0.2592  0.4495  0.0587
  543ntf    on5 2469   0.219   0.380   3.500  0.3044  0.1810 -0.2873
  543ntf    on5 2470   0.262   0.603   3.579 -0.3098  0.1405  0.0121
  543ntf    on5 2471   0.008   0.416   3.248 -0.5348  0.0420 -0.2477
  543ntf    on5 2472  -0.144   0.595   3.313 -0.3126 -0.0424 -0.1743
  543ntf    fn4 2473  -0.235   0.326   3.403  0.3936  0.2895 -0.2748
  543ntf    fn4 2474  -0.059   0.290   3.521 -0.5581 -0.0495  0.5922
  543ntf    fn4 2475  -0.191   0.461   3.558 -0.3539 -0.1680 -0.1086
  544ntf    cn1 2476   0.818   0.527   0.931  0.1321  0.0217 -0.1514
  544ntf    sn2 2477   0.951   0.539   1.054 -0.2701  0.1581  0.2723
  544ntf    nn3 2478   1.002   0.682   1.015  0.3733 -0.1774 -0.1361
  544ntf    sn2 2479   1.030   0.814   1.095  0.2270 -0.1279 -0.1653
  544ntf    cn1 2480   0.911   0.921   1.009  0.4659  0.3432  0.0843
  544ntf    fn4 2481   0.861   0.502   0.809  0.1986 -0.3168 -0.0590
  544ntf    fn4 2482   0.730   0.435   0.967 -0.7788  0.9695  0.1235
  544ntf    fn4 2483   0.744   0.636   0.919  0.4629  0.2471 -0.1436
  544ntf    on5 2484   0.867   0.543   1.171 -0.0628 -0.2290  0.4360
  544ntf    on5 2485   1.045   0.433   1.025 -0.0427  0.3700  0.2350
  544ntf    on5 2486   1.161   0.872   1.074  0.4781 -0.5489  0.2170
  544ntf    on5 2487   0.989   0.811   1.233 -0.1210 -0.2139 -0.2716
  544ntf    fn4 2488   0.916   1.045   1.053 -0.2917  0.3594  0.1434
  544ntf    fn4 2489   0.927   0.914   0.878  0.0800  0.8495  0.0058
  544ntf    fn4 2490   0.786   0.879   1.028  0.4571  0.5080  0.4089
  545ntf    cn1 2491   2.104   0.972   3.585 -0.1243 -0.0571  0.1149
  545ntf    sn2 2492   2.170   1.044   3.739 -0.2560 -0.0621  0.1735
  545ntf    nn3 2493   2.323   1.021   3.715 -0.2430  0.1904  0.0075
  545ntf    sn2 2494   2.452   1.098   3.761 -0.0667 -0.0451 -0.0895
  545ntf    cn1 2495   2.504   1.175   3.605 -0.3177  0.2870 -0.0101
  545ntf    fn4 2496   2.148   0.851   3.554  0.1261  0.0247  0.1452
  545ntf    fn4 2497   1.972   0.977   3.579 -0.0988  0.4451  0.0117
  545ntf    fn4 2498   2.132   1.044   3.478 -0.4122  0.3441  0.3088
  545ntf    on5 2499   2.134   1.183   3.729 -1.1454 -0.2949 -0.0085
  545ntf    on5 2500   2.115   0.960   3.842 -0.1720  0.0860  0.3387
  545ntf    on5 2501   2.566   1.016   3.793  0.2738  0.2541 -0.5347
  545ntf    on5 2502   2.420   1.210   3.847  0.3285 -0.0785  0.1053
  545ntf    fn4 2503   2.571   1.287   3.625  0.2847  0.0000 -0.3763
  545ntf    fn4 2504   2.585   1.098   3.535 -0.0836  0.1296  0.4296
  545ntf    fn4 2505   2.393   1.204   3.538 -0.2614  0.2871 -0.1040
  546ntf    cn1 2506   2.470   0.148   3.804 -0.0210 -0.1209 -0.1602
  546ntf    sn2 2507   2.446   0.145   3.984  0.2638 -0.1437 -0.1218
  546ntf    nn3 2508   2.363   0.012   3.989  0.0119  0.0172  0.0102
  546ntf    sn2 2509   2.221  -0.004   4.055 -0.0346 -0.1571 -0.1313
  546ntf    cn1 2510   2.242  -0.167   4.133  0.6217  0.1216  0.2909
  546ntf    fn4 2511   2.534   0.041   3.760 -0.0248 -0.5496  0.8569
  546ntf    fn4 2512   2.352   0.152   3.744  0.1002  0.3394 -0.3742
  546ntf    fn4 2513   2.534   0.259   3.773  0.0215 -0.1558 -0.1980
  546ntf    on5 2514   2.578   0.146   4.043  0.1091  0.0986  0.2285
  546ntf    on5 2515   2.375   0.269   4.009  0.3633 -0.2010  0.4644
  546ntf    on5 2516   2.111  -0.027   3.966 -0.1620  0.3599 -0.1108
  546ntf    on5 2517   2.195   0.081   4.169  0.6093  0.8976 -0.7533
  546ntf    fn4 2518   2.135  -0.194   4.207  0.1372 -0.5038 -0.6232
  546ntf    fn4 2519   2.259  -0.268   4.050 -0.2245 -0.3154  0.6286
  546ntf    fn4 2520   2.340  -0.167   4.221  0.3309  0.0527  0.6178
  547ntf    cn1 2521   1.305   0.662   4.464  0.0872  0.0547 -0.3319
  547ntf    sn2 2522   1.441   0.762   4.396  0.0727  0.0515 -0.3651
  547ntf    nn3 2523   1.555   0.655   4.410  0.0886  0.1228  0.0431
  547ntf    sn2 2524   1.627   0.570   4.300  0.3964  0.0701  0.2828
  547ntf    cn1 2525   1.780   0.538   4.392  0.4241  0.2280  0.2922
  547ntf    fn4 2526   1.324   0.637   4.593 -0.0087  0.2714 -0.2745
  547ntf    fn4 2527   1.186   0.717   4.447  0.1272  0.0038 -0.7770
  547ntf    fn4 2528   1.294   0.544   4.406 -0.1007  0.0470 -0.2805
  547ntf    on5 2529   1.405   0.803   4.262 -0.4434  0.1860 -0.1873
  547ntf    on5 2530   1.450   0.872   4.489  0.2535  0.1432 -0.4895
  547ntf    on5 2531   1.684   0.639   4.186 -0.6591 -0.0712 -0.3399
  547ntf    on5 2532   1.571   0.439   4.286  0.2986  0.1008  0.3871
  547ntf    fn4 2533   1.847   0.432   4.351  0.1356 -0.1239  0.7246
  547ntf    fn4 2534   1.859   0.643   4.378  0.4307  0.2515  0.4885
  547ntf    fn4 2535   1.762   0.522   4.523 -0.0392 -0.1379  0.1846
  548ntf    cn1 2536   1.150   0.136   6.816 -0.3522 -0.3260  0.0313
  548ntf    sn2 2537   1.105   0.121   6.992 -0.0835 -0.1146  0.1198
  548ntf    nn3 2538   0.961   0.059   6.983 -0.1552  0.0625  0.0351
  548ntf    sn2 2539   0.906  -0.086   7.007  0.1502 -0.0527  0.0420
  548ntf    cn1 2540   0.839  -0.061   7.174  0.2619 -0.3871  0.1387
  548ntf    fn4 2541   1.071   0.067   6.736  0.0727 -0.7582 -0.0140
  548ntf    fn4 2542   1.137   0.264   6.782  0.0924 -0.3587 -0.2573
  548ntf    fn4 2543   1.276   0.106   6.794 -0.2245  0.2573 -0.0518
  548ntf    on5 2544   1.209   0.033   7.040  0.4527  0.4855  0.0736
  548ntf    on5 2545   1.096   0.258   7.035 -0.5599 -0.2499  0.4632
  548ntf    on5 2546   1.006  -0.190   7.011 -0.1639 -0.3741 -0.3179
  548ntf    on5 2547   0.789  -0.112   6.927  0.1868  0.0103 -0.0322
  548ntf    fn4 2548   0.754   0.040   7.169  0.6051 -0.1225 -0.3642
  548ntf    fn4 2549   0.766  -0.167   7.206  0.0747 -0.2650  0.1178
  548ntf    fn4 2550   0.933  -0.028   7.261 -0.2287  0.1320  0.4824
  549ntf    cn1 2551   2.252   1.489   2.448 -0.3460  0.0374 -0.2534
  549ntf    sn2 2552   2.193   1.343   2.538 -0.0331 -0.2269 -0.4748
  549ntf    nn3 2553   2.097   1.286   2.427  0.3551 -0.3417 -0.7518
  549ntf    sn2 2554   1.957   1.343   2.388  0.2063 -0.1200  0.0841
  549ntf    cn1 2555   1.851   1.233   2.486  0.0698 -0.4412 -0.4185
  549ntf    fn4 2556   2.329   1.567   2.523 -0.5214  0.0897 -0.1285
  549ntf    fn4 2557   2.326   1.455   2.344  0.4306 -0.2498  0.3830
  549ntf    fn4 2558   2.158   1.570   2.404 -0.4103  0.1351  0.0651
  549ntf    on5 2559   2.313   1.265   2.557  0.2398  0.3596  0.2581
  549ntf    on5 2560   2.135   1.400   2.657  0.3705  0.3036 -0.5335
  549ntf    on5 2561   1.923   1.324   2.249 -0.2294 -0.6626  0.2617
  549ntf    on5 2562   1.920   1.474   2.435  0.5395 -0.0922  0.2736
  549ntf    fn4 2563   1.726   1.231   2.442 -0.1214  0.5734  0.0325
  549ntf    fn4 2564   1.884   1.107   2.468  0.1584 -0.4788 -0.0082
  549ntf    fn4 2565   1.855   1.248   2.617  0.3588 -0.3770 -0.4339
  550ntf    cn1 2566   0.356   1.927   1.484 -0.2180  0.1731 -0.3596
  550ntf    sn2 2567   0.234   1.907   1.617  0.3333 -0.1440  0.1059
  550ntf    nn3 2568   0.311   1.982   1.731  0.6491  0.4145 -0.4711
  550ntf    sn2 2569   0.430   1.925   1.815 -0.0276 -0.0988  0.1511
  550ntf    cn1 2570   0.356   1.921   1.981  0.2447 -0.0990  0.2732
  550ntf    fn4 2571   0.316   1.900   1.361  0.2872  0.5368 -0.6105
  550ntf    fn4 2572   0.402   2.051   1.480 -0.4037  0.2421 -0.3583
  550ntf    fn4 2573   0.466   1.857   1.506 -0.0387  0.5470 -0.0544
  550ntf    on5 2574   0.123   1.988   1.574  0.2734 -0.3696 -0.1696
  550ntf    on5 2575   0.211   1.765   1.631  0.4367 -0.1668  0.0461
  550ntf    on5 2576   0.542   2.016   1.816  0.0305 -0.1689  0.1423
  550ntf    on5 2577   0.458   1.784   1.798  0.3311 -0.0188  0.0560
  550ntf    fn4 2578   0.438   1.929   2.085  0.2959  0.5164  0.1867
  550ntf    fn4 2579   0.263   2.013   2.000 -0.4739 -0.6455 -0.5449
  550ntf    fn4 2580   0.299   1.803   1.999 -0.5877  0.1784 -0.4700
  551ntf    cn1 2581   0.214   1.100   6.782 -0.1440 -0.1303  0.1510
  551ntf    sn2 2582   0.187   1.192   6.937  0.0219 -0.2181  0.2318
  551ntf    nn3 2583   0.039   1.238   6.916  0.1883  0.1498 -0.1524
  551ntf    sn2 2584  -0.050   1.338   6.997  0.1057 -0.0090 -0.0470
  551ntf    cn1 2585  -0.059   1.486   6.891  0.2930  0.0892  0.0763
  551ntf    fn4 2586   0.139   0.991   6.776 -0.1686 -0.0959 -0.1672
  551ntf    fn4 2587   0.188   1.171   6.674 -0.1126 -0.5562 -0.1408
  551ntf    fn4 2588   0.339   1.058   6.770 -0.1562 -0.2093  0.2971
  551ntf    on5 2589   0.204   1.100   7.047 -0.2168 -0.7759 -0.1966
  551ntf    on5 2590   0.275   1.306   6.924 -0.4983  0.1082 -0.5167
  551ntf    on5 2591   0.009   1.385   7.120 -0.5286  0.0439  0.2415
  551ntf    on5 2592  -0.186   1.292   7.008 -0.0249  0.3831  0.0138
  551ntf    fn4 2593  -0.135   1.585   6.933 -0.1648 -0.3364  0.2556
  551ntf    fn4 2594   0.060   1.543   6.876  0.3884 -0.1493 -0.0809
  551ntf    fn4 2595  -0.097   1.448   6.771 -0.1606  0.4537  0.1014
  552ntf    cn1 2596   0.284   0.839   0.920  0.2776  0.2079  0.3064
  552ntf    sn2 2597   0.220   0.680   0.860  0.1438  0.3793 -0.0023
  552ntf    nn3 2598   0.119   0.654   0.976  0.2863  0.0863  0.0582
  552ntf    sn2 2599  -0.035   0.686   0.980  0.2750  0.0249  0.1054
  552ntf    cn1 2600  -0.085   0.515   0.942  0.1027 -0.0623  0.7071
  552ntf    fn4 2601   0.295   0.842   1.052 -0.3920 -0.4511  0.3841
  552ntf    fn4 2602   0.404   0.868   0.873  0.3165 -0.7809 -0.2163
  552ntf    fn4 2603   0.209   0.942   0.886  0.3869  0.1414 -0.1418
  552ntf    on5 2604   0.173   0.704   0.725  0.1874 -0.4394 -0.1681
  552ntf    on5 2605   0.327   0.583   0.860 -0.3256 -0.1455 -0.2022
  552ntf    on5 2606  -0.092   0.764   0.873 -0.1344 -0.5902 -0.1314
  552ntf    on5 2607  -0.084   0.699   1.115 -0.2236 -0.1595 -0.0548
  552ntf    fn4 2608  -0.216   0.498   0.932  0.1371  0.1355 -0.1902
  552ntf    fn4 2609  -0.032   0.477   0.827 -0.4569 -0.2642  0.5119
  552ntf    fn4 2610  -0.037   0.428   1.029  0.1770 -0.8018 -0.0612
  553ntf    cn1 2611   0.873   0.013   2.844  0.2701  0.1052 -0.4815
  553ntf    sn2 2612   1.001  -0.051   2.956 -0.3713 -0.1580  0.1072
  553ntf    nn3 2613   1.090   0.077   2.975 -0.3919 -0.0697 -0.3821
  553ntf    sn2 2614   1.217   0.098   3.064 -0.4217 -0.1285 -0.3258
  553ntf    cn1 2615   1.328   0.163   2.935 -0.1692 -0.0377 -0.0652
  553ntf    fn4 2616   0.756  -0.031   2.887  0.6893 -0.3107  0.2608
  553ntf    fn4 2617   0.854   0.143   2.844  0.0772  0.0778 -0.1273
  553ntf    fn4 2618   0.894  -0.023   2.718  0.6044 -0.3063 -0.3110
  553ntf    on5 2619   0.923  -0.075   3.075 -0.6184 -0.6488 -0.1473
  553ntf    on5 2620   1.059  -0.165   2.887 -0.3046 -0.2595  0.3293
  553ntf    on5 2621   1.278  -0.023   3.115 -0.1919  0.0779 -0.1107
  553ntf    on5 2622   1.206   0.206   3.159  0.7639 -0.0055 -0.3102
  553ntf    fn4 2623   1.352   0.060   2.855 -0.1800 -0.2299  0.1773
  553ntf    fn4 2624   1.277   0.259   2.860 -0.0512  0.3657  0.3643
  553ntf    fn4 2625   1.442   0.211   2.981  0.1687 -0.0524 -0.8770
  554ntf    cn1 2626   1.007   0.588   2.323 -0.3264 -0.3149 -0.0116
  554ntf    sn2 2627   0.995   0.460   2.452  0.0367  0.0915  0.4297
  554ntf    nn3 2628   0.973   0.327   2.371  0.2484  0.1577  0.2628
  554ntf    sn2 2629   1.085   0.249   2.294 -0.2327 -0.1588 -0.1203
  554ntf    cn1 2630   1.165   0.140   2.416 -0.2383 -0.3241 -0.2642
  554ntf    fn4 2631   0.997   0.705   2.384  0.0339  0.0069 -0.5567
  554ntf    fn4 2632   1.127   0.585   2.265 -0.2859  0.1029  0.0478
  554ntf    fn4 2633   0.916   0.580   2.228 -0.2125 -0.2914 -0.1242
  554ntf    on5 2634   1.109   0.481   2.536  0.5151  0.5180 -0.3148
  554ntf    on5 2635   0.875   0.501   2.520 -0.0292  0.1491  0.2814
  554ntf    on5 2636   1.193   0.335   2.253 -0.1054 -0.2321  0.0572
  554ntf    on5 2637   1.030   0.156   2.199 -0.2980 -0.0718 -0.1671
  554ntf    fn4 2638   1.279   0.094   2.367  0.1313  0.2754  0.0210
  554ntf    fn4 2639   1.200   0.200   2.528 -0.0000 -0.3008 -0.3520
  554ntf    fn4 2640   1.091   0.037   2.454 -0.2591 -0.1651  0.1304
  555ntf    cn1 2641   0.810   0.933   5.195  0.3324  0.0375 -0.1236
  555ntf    sn2 2642   0.719   1.089   5.177 -0.0271 -0.1615 -0.0414
  555ntf    nn3 2643   0.585   1.043   5.242  0.1446 -0.7116 -0.0732
  555ntf    sn2 2644   0.449   0.998   5.177 -0.1563  0.2883 -0.1454
  555ntf    cn1 2645   0.364   1.159   5.190  0.0299  0.3732  0.0279
  555ntf    fn4 2646   0.838   0.905   5.321  0.3981 -0.2362 -0.1984
  555ntf    fn4 2647   0.741   0.831   5.148  0.7379 -0.2827 -0.0348
  555ntf    fn4 2648   0.924   0.939   5.128  0.5207 -0.2157  0.1729
  555ntf    on5 2649   0.786   1.183   5.264 -0.3137 -0.1110  0.1230
  555ntf    on5 2650   0.719   1.116   5.035 -0.1167  0.3665  0.0581
  555ntf    on5 2651   0.367   0.913   5.260  0.1371 -0.0335 -0.1832
  555ntf    on5 2652   0.450   0.972   5.036  0.0165 -0.0718 -0.0793
  555ntf    fn4 2653   0.354   1.198   5.316  0.4168 -0.1796  0.2351
  555ntf    fn4 2654   0.439   1.248   5.128 -0.1048  0.3949 -0.1037
  555ntf    fn4 2655   0.244   1.162   5.136  0.2158  0.1606 -0.4044
  556ntf    cn1 2656   0.234   0.021   2.615  0.1942  0.0494 -0.5398
  556ntf    sn2 2657   0.319   0.182   2.608  0.1934  0.0776  0.0424
  556ntf    nn3 2658   0.328   0.210   2.454 -0.6894 -0.1758 -0.0582
  556ntf    sn2 2659   0.227   0.279   2.355 -0.4211 -0.0688 -0.2566
  556ntf    cn1 2660   0.252   0.458   2.375  0.1574 -0.1983  0.2160
  556ntf    fn4 2661   0.310  -0.080   2.576  0.8444  0.2359  0.2067
  556ntf    fn4 2662   0.195  -0.002   2.739 -0.2573 -0.3102 -0.7459
  556ntf    fn4 2663   0.125   0.018   2.541 -0.6041  0.5154  0.5836
  556ntf    on5 2664   0.229   0.271   2.676 -0.0172  0.0680 -0.2249
  556ntf    on5 2665   0.444   0.149   2.672  0.1206 -0.4772 -0.0901
  556ntf    on5 2666   0.087   0.264   2.386 -0.2713  0.0083  0.4572
  556ntf    on5 2667   0.255   0.253   2.215  0.1149 -0.0881 -0.1499
  556ntf    fn4 2668   0.218   0.509   2.493 -0.1376 -0.2499  0.1564
  556ntf    fn4 2669   0.380   0.489   2.369  0.0183  0.3533  0.0919
  556ntf    fn4 2670   0.192   0.533   2.284  0.4485  0.1244  0.2889
  557ntf    cn1 2671   1.228   1.280   0.127 -0.2772  0.0692 -0.0156
  557ntf    sn2 2672   1.198   1.459   0.134  0.2239  0.1399  0.3938
  557ntf    nn3 2673   1.302   1.510   0.029 -0.2029 -0.2180 -0.2100
  557ntf    sn2 2674   1.451   1.550   0.061 -0.2161 -0.4319  0.1218
  557ntf    cn1 2675   1.449   1.731   0.051 -0.0788 -0.4517 -0.2900
  557ntf    fn4 2676   1.359   1.261   0.121 -0.2667  0.1098  0.0819
  557ntf    fn4 2677   1.190   1.209   0.232 -0.0581  0.2078  0.1586
  557ntf    fn4 2678   1.183   1.211   0.023  0.0121 -0.3434  0.1311
  557ntf    on5 2679   1.066   1.453   0.075  0.4648 -0.0618 -0.1326
  557ntf    on5 2680   1.216   1.489   0.274 -0.2804  0.4168  0.4038
  557ntf    on5 2681   1.539   1.526  -0.051 -0.2158  0.3452 -0.0499
  557ntf    on5 2682   1.503   1.529   0.194 -0.3457  0.1785  0.2718
  557ntf    fn4 2683   1.389   1.760  -0.064 -0.3678 -0.5670 -0.1695
  557ntf    fn4 2684   1.372   1.776   0.149  0.2304 -0.7189  0.0750
  557ntf    fn4 2685   1.568   1.788   0.044 -0.2323 -0.0740  0.1081
  558ntf    cn1 2686   1.377   1.341   2.564  0.2803 -0.5638 -0.3603
  558ntf    sn2 2687   1.293   1.232   2.684 -0.2357  0.1736 -0.0434
  558ntf    nn3 2688   1.190   1.328   2.753  0.1410  1.0906 -0.7222
  558ntf    sn2 2689   1.172   1.357   2.907  0.4265 -0.1952 -0.4368
  558ntf    cn1 2690   1.311   1.465   2.949  0.1567  0.1028 -0.3120
  558ntf    fn4 2691   1.306   1.380   2.459  0.6846 -0.2580 -0.5202
  558ntf    fn4 2692   1.426   1.450   2.620 -0.1485 -0.1989 -0.6911
  558ntf    fn4 2693   1.479   1.275   2.513  0.6030 -0.1013 -0.3213
  558ntf    on5 2694   1.225   1.138   2.599  0.1864 -0.0354 -0.1498
  558ntf    on5 2695   1.400   1.178   2.764 -0.2384 -0.4141 -0.4280
  558ntf    on5 2696   1.184   1.244   2.996 -0.5932  0.1587  0.1602
  558ntf    on5 2697   1.053   1.435   2.930  0.4534 -0.3279  0.1522
  558ntf    fn4 2698   1.421   1.392   2.942 -0.0499 -0.2562  0.1827
  558ntf    fn4 2699   1.331   1.575   2.878 -0.3273  0.5245  0.1985
  558ntf    fn4 2700   1.318   1.492   3.078  0.9447  0.1728 -0.3663
  559ntf    cn1 2701   0.542   1.223   1.086 -0.2878 -0.0105 -0.3094
  559ntf    sn2 2702   0.460   1.385   1.093 -0.0893  0.0941 -0.4040
  559ntf    nn3 2703   0.425   1.386   1.246  0.0805 -0.0537 -0.3643
  559ntf    sn2 2704   0.501   1.450   1.367  0.2381 -0.5208 -0.2134
  559ntf    cn1 2705   0.371   1.548   1.448  0.5181 -0.1495 -0.2123
  559ntf    fn4 2706   0.467   1.126   1.133 -0.4902  0.3117  0.0345
  559ntf    fn4 2707   0.559   1.196   0.958  0.1316  0.5459 -0.3805
  559ntf    fn4 2708   0.662   1.215   1.141 -0.1607 -0.0436 -0.5883
  559ntf    on5 2709   0.551   1.486   1.042 -0.0806  0.2316 -0.1157
  559ntf    on5 2710   0.345   1.356   1.011  0.0065 -0.0073 -0.5037
  559ntf    on5 2711   0.608   1.541   1.336 -0.3671  0.3805  0.2960
  559ntf    on5 2712   0.533   1.351   1.467 -0.5540 -0.5025  0.0683
  559ntf    fn4 2713   0.424   1.593   1.561 -0.1071 -0.5162  0.2323
  559ntf    fn4 2714   0.337   1.652   1.374 -0.1872 -0.2201  0.0061
  559ntf    fn4 2715   0.259   1.491   1.489  0.5626 -0.2493 -0.2305
  560ntf    cn1 2716   1.148   2.243   2.193 -0.7840 -0.2442 -0.5053
  560ntf    sn2 2717   1.139   2.169   2.028 -0.1682 -0.0258 -0.6387
  560ntf    nn3 2718   1.281   2.106   2.004 -0.1484 -0.2339  0.0060
  560ntf    sn2 2719   1.328   1.960   2.036  0.2841 -0.1208 -0.1084
  560ntf    cn1 2720   1.316   1.885   1.871  0.2247  0.0385 -0.1769
  560ntf    fn4 2721   1.236   2.342   2.192 -0.4633 -0.5105  0.2266
  560ntf    fn4 2722   1.027   2.291   2.219 -0.3399  0.2483  0.7212
  560ntf    fn4 2723   1.177   2.155   2.288 -0.5608  0.5654  0.1893
  560ntf    on5 2724   1.032   2.072   2.035 -0.4877  0.3336 -0.5230
  560ntf    on5 2725   1.114   2.283   1.944 -0.5578  0.6074  0.3206
  560ntf    on5 2726   1.243   1.881   2.121  0.2551  0.1565  0.1230
  560ntf    on5 2727   1.467   1.958   2.076  0.1316 -0.6366  0.4048
  560ntf    fn4 2728   1.192   1.894   1.824  0.1290 -0.2575  0.0126
  560ntf    fn4 2729   1.392   1.951   1.787  0.1525 -0.0346 -0.3006
  560ntf    fn4 2730   1.360   1.760   1.872  0.1569  0.0138 -0.2337
  561ntf    cn1 2731   2.322   1.401   5.395  0.4151 -0.0023 -0.2728
  561ntf    sn2 2732   2.409   1.289   5.281  0.1831 -0.3192 -0.1416
  561ntf    nn3 2733   2.419   1.164   5.375 -0.2676  0.1813  0.5799
  561ntf    sn2 2734   2.377   1.014   5.353  0.3426  0.0168  0.5215
  561ntf    cn1 2735   2.477   0.929   5.478  0.2952 -0.3412  0.3159
  561ntf    fn4 2736   2.198   1.360   5.413  0.4712 -0.1725 -0.2735
  561ntf    fn4 2737   2.385   1.430   5.508  0.3613  0.3980 -0.3438
  561ntf    fn4 2738   2.303   1.516   5.333  0.2882  0.2565  0.2423
  561ntf    on5 2739   2.311   1.278   5.176 -0.1517 -0.5378  0.1905
  561ntf    on5 2740   2.537   1.349   5.252  0.0884 -0.0318  0.0268
  561ntf    on5 2741   2.420   0.952   5.230 -0.4626  0.5927 -0.0656
  561ntf    on5 2742   2.240   0.991   5.391  0.2434  0.7762  0.6334
  561ntf    fn4 2743   2.433   0.954   5.601  0.1851 -0.5598  0.3216
  561ntf    fn4 2744   2.462   0.798   5.463  0.0027 -0.3157  0.3761
  561ntf    fn4 2745   2.606   0.953   5.485  0.2603  0.0595 -0.3992
  562ntf    cn1 2746   0.255   0.992   2.242 -0.0050 -0.0170  0.5593
  562ntf    sn2 2747   0.151   0.917   2.113  0.3315  0.6141 -0.0842
  562ntf    nn3 2748   0.090   1.049   2.052  0.6955  0.4627 -0.7837
  562ntf    sn2 2749  -0.045   1.063   1.974  0.2260 -0.2892 -0.1228
  562ntf    cn1 2750  -0.159   1.110   2.107 -0.1610  0.0110 -0.5612
  562ntf    fn4 2751   0.173   1.041   2.334 -0.4952  0.5087 -0.1494
  562ntf    fn4 2752   0.341   0.910   2.299  0.3147 -0.0477  0.0396
  562ntf    fn4 2753   0.322   1.097   2.199  0.1142 -0.0122  0.7530
  562ntf    on5 2754   0.242   0.849   2.025  0.4461  0.3197  0.2594
  562ntf    on5 2755   0.066   0.830   2.190  0.1490  0.2826 -0.6517
  562ntf    on5 2756  -0.106   0.943   1.921  0.3553 -0.4080 -0.0046
  562ntf    on5 2757  -0.048   1.181   1.892  0.3930 -0.3795 -0.2596
  562ntf    fn4 2758  -0.151   1.237   2.142 -0.3315 -0.1008 -0.1059
  562ntf    fn4 2759  -0.288   1.088   2.086 -0.2052 -0.4288  0.1379
  562ntf    fn4 2760  -0.123   1.043   2.215  0.3433 -0.3738 -0.9646
  563ntf    cn1 2761   0.476   1.455   5.965 -0.4417  0.2955 -0.2510
  563ntf    sn2 2762   0.583   1.601   5.975 -0.1541  0.0714 -0.0172
  563ntf    nn3 2763   0.614   1.611   6.128  0.6552  0.9910 -0.2286
  563ntf    sn2 2764   0.534   1.686   6.239  0.0555 -0.2131  0.1744
  563ntf    cn1 2765   0.645   1.829   6.253  0.1123 -0.2167 -0.2397
  563ntf    fn4 2766   0.387   1.463   5.867 -0.2646  0.3917 -0.4044
  563ntf    fn4 2767   0.538   1.339   5.949 -0.5014  0.3260 -0.7310
  563ntf    fn4 2768   0.409   1.437   6.078  0.0679 -0.7186 -0.0938
  563ntf    on5 2769   0.703   1.559   5.907 -0.2930  0.0934 -0.2788
  563ntf    on5 2770   0.515   1.715   5.918  0.3184  0.1830 -0.3686
  563ntf    on5 2771   0.545   1.622   6.368  0.0851  0.3092  0.4380
  563ntf    on5 2772   0.402   1.741   6.217  0.1874 -0.1257 -0.3930
  563ntf    fn4 2773   0.602   1.921   6.338 -0.5690 -0.7797  0.0263
  563ntf    fn4 2774   0.763   1.789   6.298  0.0695  0.1969  0.2562
  563ntf    fn4 2775   0.665   1.895   6.140 -0.5724 -0.0884 -0.2898
  564ntf    cn1 2776   1.195   2.406   5.603 -0.1137 -0.3711 -0.2561
  564ntf    sn2 2777   1.056   2.493   5.525 -0.0121 -0.1645 -0.2067
  564ntf    nn3 2778   0.961   2.370   5.508 -0.0352 -0.2021  0.1713
  564ntf    sn2 2779   0.905   2.267   5.613  0.0364 -0.3597  0.0555
  564ntf    cn1 2780   0.728   2.300   5.585  0.0798 -0.2558 -0.1015
  564ntf    fn4 2781   1.306   2.478   5.595 -0.3834  0.0495 -0.2464
  564ntf    fn4 2782   1.181   2.384   5.733  0.6791  0.1213 -0.0740
  564ntf    fn4 2783   1.224   2.286   5.554 -0.2127 -0.4945 -0.0153
  564ntf    on5 2784   1.013   2.598   5.615  0.1301 -0.2882  0.0069
  564ntf    on5 2785   1.112   2.537   5.400  0.1313 -0.2244 -0.1640
  564ntf    on5 2786   0.923   2.303   5.751 -0.0061  0.0706 -0.0492
  564ntf    on5 2787   0.907   2.130   5.568 -0.1208 -0.2406 -0.3271
  564ntf    fn4 2788   0.646   2.226   5.658 -0.1681  0.5388  0.4468
  564ntf    fn4 2789   0.699   2.423   5.625 -0.5499 -0.3429 -0.2877
  564ntf    fn4 2790   0.691   2.294   5.459 -0.3237  1.0372 -0.0571
  565ntf    cn1 2791   1.609   1.960   3.664 -0.2366 -0.2608 -0.1055
  565ntf    sn2 2792   1.463   2.067   3.682 -0.1894 -0.2436  0.1825
  565ntf    nn3 2793   1.444   2.061   3.838 -0.0286 -0.3434  0.1986
  565ntf    sn2 2794   1.511   2.140   3.956  0.0604 -0.2969  0.1172
  565ntf    cn1 2795   1.390   2.129   4.091  0.0122 -0.1323  0.0883
  565ntf    fn4 2796   1.721   2.008   3.716 -0.0793 -0.0194 -0.6639
  565ntf    fn4 2797   1.587   1.843   3.721 -0.1924 -0.0316  0.3836
  565ntf    fn4 2798   1.634   1.930   3.538 -0.5271 -0.3955 -0.1313
  565ntf    on5 2799   1.504   2.193   3.626 -0.8452 -0.0036  0.2338
  565ntf    on5 2800   1.356   1.989   3.624 -0.5972  0.1658  0.3819
  565ntf    on5 2801   1.519   2.280   3.921  0.5001 -0.4048 -0.2359
  565ntf    on5 2802   1.630   2.073   4.004  0.1893  0.0262  0.2529
  565ntf    fn4 2803   1.274   2.186   4.062  0.1751  0.2107  0.1057
  565ntf    fn4 2804   1.373   2.006   4.135 -0.0353 -0.1705 -0.0341
  565ntf    fn4 2805   1.449   2.187   4.194  0.2573  0.1851 -0.2289
  566ntf    cn1 2806   1.890   2.060   1.714  0.0435 -0.5992 -0.1767
  566ntf    sn2 2807   2.014   2.094   1.585  0.2300  0.1594  0.1968
  566ntf    nn3 2808   2.070   2.232   1.635  0.0526  0.2214  0.2271
  566ntf    sn2 2809   2.165   2.264   1.756  0.1665 -0.1353  0.2340
  566ntf    cn1 2810   2.324   2.270   1.666 -0.1380  0.8029 -0.2577
  566ntf    fn4 2811   1.820   2.164   1.755  0.4112 -0.4886  0.1759
  566ntf    fn4 2812   1.808   1.969   1.664 -0.3845 -0.0762 -0.4323
  566ntf    fn4 2813   1.941   2.012   1.826 -0.2060 -0.2317  0.0946
  566ntf    on5 2814   2.100   1.978   1.582  0.0441  0.0366 -0.9272
  566ntf    on5 2815   1.928   2.117   1.471  0.4438 -0.0553 -0.0103
  566ntf    on5 2816   2.178   2.158   1.852 -0.4235  0.0577  0.5261
  566ntf    on5 2817   2.152   2.401   1.798 -0.3278  0.0018 -0.3565
  566ntf    fn4 2818   2.333   2.358   1.568 -0.1479  0.4591 -0.5699
  566ntf    fn4 2819   2.416   2.312   1.751  0.3606  0.3744 -0.5821
  566ntf    fn4 2820   2.374   2.157   1.618 -0.6667  0.4910 -0.0916
  567ntf    cn1 2821   1.019   1.829   4.437  0.1292 -0.2826 -0.4000
  567ntf    sn2 2822   1.124   1.743   4.557 -0.0026  0.2420  0.0939
  567ntf    nn3 2823   1.163   1.866   4.647  0.0300  0.1290  0.2350
  567ntf    sn2 2824   1.168   1.895   4.801  0.1392  0.1230  0.2329
  567ntf    cn1 2825   1.346   1.873   4.833  0.1733  0.0067 -0.0368
  567ntf    fn4 2826   1.069   1.947   4.402  0.0858 -0.1866 -0.1403
  567ntf    fn4 2827   1.007   1.764   4.322 -0.0270 -0.1421 -0.4638
  567ntf    fn4 2828   0.901   1.862   4.488  0.3147  0.0705 -0.1964
  567ntf    on5 2829   1.030   1.652   4.618 -0.3383  0.6695  0.2237
  567ntf    on5 2830   1.229   1.689   4.475 -0.1033  0.4611 -0.1806
  567ntf    on5 2831   1.095   1.804   4.887 -0.0148 -0.3990 -0.4401
  567ntf    on5 2832   1.165   2.035   4.834 -0.2038  0.2000 -0.1156
  567ntf    fn4 2833   1.422   1.968   4.781 -0.1988  0.2762 -0.0961
  567ntf    fn4 2834   1.372   1.869   4.962  0.1805 -0.1375 -0.0423
  567ntf    fn4 2835   1.394   1.757   4.791 -0.5418 -0.1310 -0.4957
  568ntf    cn1 2836   0.098   2.270   2.287  0.0352 -0.0984 -0.0708
  568ntf    sn2 2837   0.160   2.118   2.364  0.1819  0.0587  0.1192
  568ntf    nn3 2838   0.046   2.019   2.321  0.0552  0.1723  0.1947
  568ntf    sn2 2839  -0.018   1.896   2.394  0.1037  0.1882  0.2646
  568ntf    cn1 2840   0.069   1.766   2.301 -0.0770  0.4636 -0.2987
  568ntf    fn4 2841   0.003   2.328   2.359  0.0237  0.4615 -0.5270
  568ntf    fn4 2842   0.184   2.370   2.284 -0.5339  0.3923 -0.1042
  568ntf    fn4 2843   0.062   2.251   2.161  0.7063  0.0625 -0.2916
  568ntf    on5 2844   0.286   2.088   2.301 -0.0484 -0.5763 -0.0489
  568ntf    on5 2845   0.164   2.149   2.505 -0.4844 -0.4976  0.2658
  568ntf    on5 2846  -0.154   1.870   2.354  0.0690 -0.1944  0.6256
  568ntf    on5 2847   0.016   1.883   2.533  0.3391  0.9911  0.2849
  568ntf    fn4 2848   0.053   1.641   2.344 -0.6747  0.8309  0.5906
  568ntf    fn4 2849   0.029   1.761   2.175  0.1865  0.1061 -0.3697
  568ntf    fn4 2850   0.200   1.784   2.304 -0.0349  0.1404 -0.1282
  569ntf    cn1 2851   0.697   1.128   4.361  0.0908 -0.1850 -0.2752
  569ntf    sn2 2852   0.779   1.020   4.483 -0.0410 -0.1192 -0.1281
  569ntf    nn3 2853   0.882   1.112   4.556 -0.0983 -0.0356 -0.1525
  569ntf    sn2 2854   1.028   1.150   4.511  0.0527 -0.3636  0.0579
  569ntf    cn1 2855   1.129   1.040   4.615  0.1041 -0.1316  0.2541
  569ntf    fn4 2856   0.615   1.214   4.417  0.0624 -0.2222 -0.2598
  569ntf    fn4 2857   0.792   1.199   4.303  0.1716 -0.4486 -0.4674
  569ntf    fn4 2858   0.640   1.064   4.260  0.5255 -0.1685 -0.5330
  569ntf    on5 2859   0.677   0.986   4.579 -0.2966 -0.0816 -0.3835
  569ntf    on5 2860   0.831   0.912   4.403  0.0058  0.1974 -0.5293
  569ntf    on5 2861   1.061   1.286   4.543 -0.2990 -0.3755  0.4942
  569ntf    on5 2862   1.057   1.106   4.377 -0.1299  0.3400 -0.2147
  569ntf    fn4 2863   1.259   1.040   4.590  0.1472  0.2919  0.4742
  569ntf    fn4 2864   1.113   1.078   4.741 -0.0781 -0.4005  0.3132
  569ntf    fn4 2865   1.081   0.917   4.625  0.6372 -0.3315  0.3750
  570ntf    cn1 2866   0.164   0.273   5.456  0.1726 -0.0917 -0.3627
  570ntf    sn2 2867   0.293   0.283   5.584 -0.1343  0.0268 -0.0635
  570ntf    nn3 2868   0.246   0.392   5.686 -0.0626  0.0949 -0.1040
  570ntf    sn2 2869   0.273   0.547   5.678  0.3723  0.0122 -0.2832
  570ntf    cn1 2870   0.430   0.553   5.768  0.2305 -0.1391 -0.0235
  570ntf    fn4 2871   0.114   0.388   5.415 -0.2448 -0.0423  0.2731
  570ntf    fn4 2872   0.205   0.209   5.347  0.7444 -0.1233 -0.1323
  570ntf    fn4 2873   0.061   0.207   5.505  0.4182 -0.0251  0.2467
  570ntf    on5 2874   0.297   0.153   5.647  0.7152 -0.0008 -0.1687
  570ntf    on5 2875   0.412   0.315   5.509 -0.2424  0.3802 -0.0843
  570ntf    on5 2876   0.190   0.628   5.764  0.1831  0.2870 -0.7201
  570ntf    on5 2877   0.296   0.607   5.549 -0.7674  0.5457 -0.2483
  570ntf    fn4 2878   0.414   0.500   5.889  0.2676 -0.2901 -0.0843
  570ntf    fn4 2879   0.528   0.480   5.716  0.2080 -0.0051 -0.2503
  570ntf    fn4 2880   0.482   0.674   5.779  0.1355 -0.1209  0.2451
  571ntf    cn1 2881   0.904   2.196   3.838 -0.0145 -0.0213 -0.0285
  571ntf    sn2 2882   0.834   2.306   3.712  0.2252  0.0323 -0.1164
  571ntf    nn3 2883   0.726   2.208   3.654  0.1138  0.1389 -0.0910
  571ntf    sn2 2884   0.584   2.257   3.608 -0.0274 -0.0720  0.1192
  571ntf    cn1 2885   0.500   2.302   3.763  0.1959 -0.1371  0.2594
  571ntf    fn4 2886   0.826   2.161   3.939  0.1777 -0.3777 -0.0034
  571ntf    fn4 2887   0.954   2.086   3.784  0.0030  0.1276 -0.3150
  571ntf    fn4 2888   1.004   2.252   3.905 -0.0400  0.2191 -0.1896
  571ntf    on5 2889   0.780   2.418   3.787  0.3513  0.2137 -0.2947
  571ntf    on5 2890   0.937   2.332   3.615  1.0989 -0.1967  0.7430
  571ntf    on5 2891   0.506   2.148   3.555  0.1668 -0.0973 -0.1164
  571ntf    on5 2892   0.585   2.371   3.520  0.3959 -0.2288 -0.0826
  571ntf    fn4 2893   0.535   2.228   3.867  0.0992 -0.5343  0.0139
  571ntf    fn4 2894   0.523   2.427   3.799  0.3099 -0.1261  0.1524
  571ntf    fn4 2895   0.371   2.275   3.748  0.0987  0.4309  0.0593
  572ntf    cn1 2896   1.946   1.777   5.894  0.2461 -0.3001 -0.1773
  572ntf    sn2 2897   1.874   1.682   6.031 -0.0610  0.0432 -0.0979
  572ntf    nn3 2898   2.009   1.648   6.105 -0.0938  0.2451  0.0543
  572ntf    sn2 2899   2.104   1.523   6.108 -0.0832  0.2504 -0.0610
  572ntf    cn1 2900   2.206   1.563   6.253 -0.5354 -0.1006  0.3596
  572ntf    fn4 2901   2.061   1.726   5.852  0.0866 -0.3389 -0.5703
  572ntf    fn4 2902   1.865   1.777   5.789 -0.4149  0.1299  0.3269
  572ntf    fn4 2903   1.972   1.903   5.922  0.1045 -0.3064 -0.0168
  572ntf    on5 2904   1.805   1.781   6.109 -0.0078 -0.1088  0.1448
  572ntf    on5 2905   1.801   1.575   5.968 -0.1723  0.2379 -0.2997
  572ntf    on5 2906   2.196   1.519   5.997 -0.3254  0.1150 -0.2564
  572ntf    on5 2907   2.036   1.403   6.149  0.1713 -0.0257 -0.4407
  572ntf    fn4 2908   2.281   1.669   6.228 -0.5059 -0.1596  0.1971
  572ntf    fn4 2909   2.137   1.592   6.362 -0.2543  0.0248  0.5069
  572ntf    fn4 2910   2.283   1.461   6.287 -0.1218 -0.0394 -0.3579
  573ntf    cn1 2911   0.048   2.224   5.356 -0.1416 -0.2900  0.4348
  573ntf    sn2 2912   0.032   2.111   5.498 -0.2042 -0.1916  0.5064
  573ntf    nn3 2913  -0.120   2.074   5.494 -0.0897 -0.5846 -0.5011
  573ntf    sn2 2914  -0.197   2.003   5.611 -0.1744  0.1657 -0.0936
  573ntf    cn1 2915  -0.327   2.121   5.659 -0.1538  0.0934  0.1382
  573ntf    fn4 2916  -0.040   2.322   5.348  0.0985 -0.0750  0.4232
  573ntf    fn4 2917   0.164   2.288   5.354  0.1841 -0.8874  0.0077
  573ntf    fn4 2918   0.044   2.144   5.251  0.0759 -0.4669  0.5589
  573ntf    on5 2919   0.124   2.005   5.464  0.2604  0.3757 -0.0393
  573ntf    on5 2920   0.064   2.202   5.605  1.0052 -0.2658  0.2310
  573ntf    on5 2921  -0.133   1.980   5.737  0.4969 -0.2391 -0.5033
  573ntf    on5 2922  -0.269   1.888   5.561 -0.0165 -0.3551  0.8642
  573ntf    fn4 2923  -0.412   2.073   5.749 -0.2661  0.3251  0.1554
  573ntf    fn4 2924  -0.278   2.233   5.710  0.3159  0.2224 -0.5864
  573ntf    fn4 2925  -0.414   2.155   5.566 -0.0584  0.1408  0.0671
  574ntf    cn1 2926   0.542   2.316   1.369  0.0963  0.4735 -0.5900
  574ntf    sn2 2927   0.673   2.389   1.471 -0.0438 -0.1565  0.0510
  574ntf    nn3 2928   0.765   2.451   1.359  0.2100  0.2158  0.4589
  574ntf    sn2 2929   0.918   2.481   1.366  0.2415  0.2260 -0.2085
  574ntf    cn1 2930   0.910   2.655   1.315 -0.4142  0.1940 -0.2222
  574ntf    fn4 2931   0.491   2.410   1.291 -0.7674  0.1804 -0.3937
  574ntf    fn4 2932   0.589   2.218   1.294  0.0314 -0.2291  0.2757
  574ntf    fn4 2933   0.450   2.260   1.445  0.2372  0.0266 -0.7478
  574ntf    on5 2934   0.603   2.483   1.555 -0.5845 -0.5837  0.0856
  574ntf    on5 2935   0.733   2.274   1.533 -0.1937 -0.2639 -0.0035
  574ntf    on5 2936   0.985   2.421   1.253  0.4329 -0.4188  0.2428
  574ntf    on5 2937   0.979   2.488   1.497 -0.0210  0.1166 -0.0813
  574ntf    fn4 2938   1.035   2.699   1.307 -0.4292  0.2164 -0.3355
  574ntf    fn4 2939   0.855   2.670   1.196 -0.3150  0.6619 -0.2115
  574ntf    fn4 2940   0.846   2.733   1.400  0.1117 -0.1486  0.5006
  575ntf    cn1 2941   1.803   0.887   1.795  0.4273  0.3663  0.0612
  575ntf    sn2 2942   1.715   1.045   1.775 -0.2754 -0.0071  0.1497
  575ntf    nn3 2943   1.577   0.994   1.720  0.0643 -0.7231 -0.0481
  575ntf    sn2 2944   1.532   0.961   1.573 -0.0536  0.0306 -0.1872
  575ntf    cn1 2945   1.462   1.117   1.513  0.1797  0.0663 -0.3669
  575ntf    fn4 2946   1.810   0.812   1.687  0.6588  0.3821  0.0657
  575ntf    fn4 2947   1.927   0.897   1.838  0.6599  0.2141 -0.5603
  575ntf    fn4 2948   1.741   0.815   1.887 -0.3943  0.0424 -0.7222
  575ntf    on5 2949   1.714   1.101   1.908 -0.0067  0.0947  0.1093
  575ntf    on5 2950   1.778   1.123   1.671 -0.3896 -0.3825 -0.2048
  575ntf    on5 2951   1.420   0.870   1.570  0.1822 -0.2783  0.2552
  575ntf    on5 2952   1.637   0.935   1.478 -0.0653  0.7123 -0.3879
  575ntf    fn4 2953   1.432   1.107   1.384 -0.3675 -0.1631 -0.2262
  575ntf    fn4 2954   1.350   1.152   1.574  0.2880  0.2539 -0.2737
  575ntf    fn4 2955   1.550   1.216   1.519 -0.2809  0.4827 -0.3977
  576ntf    cn1 2956   0.233   1.286   2.786 -0.2573 -0.3582  0.1132
  576ntf    sn2 2957   0.394   1.372   2.784 -0.5157  0.1201 -0.2720
  576ntf    nn3 2958   0.378   1.443   2.923 -0.0131  0.0960 -0.2009
  576ntf    sn2 2959   0.495   1.473   3.022 -0.1407  0.1160 -0.0556
  576ntf    cn1 2960   0.491   1.320   3.120  0.2052  0.1207 -0.0318
  576ntf    fn4 2961   0.230   1.219   2.672  0.5032  0.6353 -0.5068
  576ntf    fn4 2962   0.229   1.200   2.887  0.2142 -0.2248  0.2521
  576ntf    fn4 2963   0.135   1.375   2.790  0.0003 -0.0730  0.1179
  576ntf    on5 2964   0.488   1.263   2.789 -0.1162  0.4855  0.1147
  576ntf    on5 2965   0.394   1.457   2.668 -0.7622  0.2601 -0.1711
  576ntf    on5 2966   0.475   1.581   3.116  0.0790  0.4702 -0.4094
  576ntf    on5 2967   0.624   1.475   2.957 -0.0691 -0.3580  0.0686
  576ntf    fn4 2968   0.463   1.222   3.036 -0.3423  0.1411  0.1240
  576ntf    fn4 2969   0.603   1.284   3.181  0.0303 -0.1859  0.1119
  576ntf    fn4 2970   0.397   1.331   3.212  0.0229  0.0332 -0.2080
  577ntf    cn1 2971   2.141   1.918   4.505 -0.0225  0.2929  0.4343
  577ntf    sn2 2972   2.119   1.808   4.648  0.2805 -0.0265  0.2353
  577ntf    nn3 2973   1.962   1.798   4.652  0.2739 -0.0030  0.0560
  577ntf    sn2 2974   1.864   1.688   4.599  0.3424 -0.0946  0.1206
  577ntf    cn1 2975   1.735   1.697   4.727  0.3421 -0.1948  0.1275
  577ntf    fn4 2976   2.035   1.992   4.474  0.5020  0.7660 -0.2541
  577ntf    fn4 2977   2.238   2.003   4.534  0.3490 -0.0442  0.1716
  577ntf    fn4 2978   2.181   1.851   4.399 -0.1301  0.0941  0.5204
  577ntf    on5 2979   2.195   1.690   4.616  0.3628  0.2871 -0.7641
  577ntf    on5 2980   2.176   1.889   4.753  0.0555 -0.4687  0.7031
  577ntf    on5 2981   1.905   1.550   4.609  0.1070 -0.1384  0.5145
  577ntf    on5 2982   1.794   1.725   4.479 -0.3924 -0.3881  0.4510
  577ntf    fn4 2983   1.670   1.812   4.742 -0.1814 -0.3745 -0.6930
  577ntf    fn4 2984   1.648   1.598   4.717  0.1776 -0.0030 -0.3782
  577ntf    fn4 2985   1.793   1.675   4.844  0.0598  0.0813  0.3212
  578ntf    cn1 2986   0.951   0.308   4.475 -0.1820 -0.3062 -0.0005
  578ntf    sn2 2987   0.870   0.243   4.624 -0.0935  0.1353  0.2427
  578ntf    nn3 2988   0.778   0.125   4.575 -0.0798  0.2899 -0.1583
  578ntf    sn2 2989   0.786  -0.024   4.624 -0.1766  0.3326 -0.0116
  578ntf    cn1 2990   0.702   0.001   4.783  0.3260 -0.2453  0.3479
  578ntf    fn4 2991   1.046   0.394   4.510  0.4827 -0.9698 -0.1534
  578ntf    fn4 2992   1.011   0.215   4.404 -0.2165 -0.0529 -0.3629
  578ntf    fn4 2993   0.863   0.361   4.392  0.0134  0.2840  0.1623
  578ntf    on5 2994   0.980   0.194   4.703  0.1084  0.0729 -0.0787
  578ntf    on5 2995   0.789   0.348   4.681  0.5524  0.7530  0.0338
  578ntf    on5 2996   0.913  -0.089   4.646 -0.5453 -0.3972 -0.0114
  578ntf    on5 2997   0.694  -0.105   4.548 -0.2450  0.1779  0.2383
  578ntf    fn4 2998   0.577   0.044   4.773  0.5657  0.5190  0.5303
  578ntf    fn4 2999   0.704  -0.111   4.854  0.5587 -0.2793  0.2890
  578ntf    fn4 3000   0.766   0.086   4.862  0.0504  0.1819  0.1172
  579ntf    cn1 3001   2.123   0.237   0.642 -0.0999  0.3994 -0.1005
  579ntf    sn2 3002   2.001   0.158   0.532  0.1372 -0.1295  0.0110
  579ntf    nn3 3003   2.053   0.011   0.515  0.8278  0.1278 -0.1130
  579ntf    sn2 3004   2.055  -0.109   0.617  0.1214  0.1553 -0.0681
  579ntf    cn1 3005   1.939  -0.230   0.547  0.1814  0.0531  0.0097
  579ntf    fn4 3006   2.243   0.237   0.586  0.0481  0.1322  0.2089
  579ntf    fn4 3007   2.092   0.363   0.664 -0.3315  0.3639 -0.2142
  579ntf    fn4 3008   2.129   0.171   0.757 -0.5231  0.4020 -0.0751
  579ntf    on5 3009   1.880   0.173   0.609  0.0714  0.1029 -0.1364
  579ntf    on5 3010   2.018   0.230   0.409  0.6884 -0.6420 -0.2153
  579ntf    on5 3011   1.997  -0.081   0.746 -0.3638  0.2371 -0.3008
  579ntf    on5 3012   2.179  -0.180   0.602 -0.0778 -0.2398  0.1605
  579ntf    fn4 3013   1.915  -0.338   0.620  0.2940  0.0199 -0.0029
  579ntf    fn4 3014   1.819  -0.175   0.536  0.0381 -0.2437  0.0584
  579ntf    fn4 3015   1.972  -0.278   0.428 -0.1734 -0.7947  0.2424
  580ntf    cn1 3016   1.370   1.629   5.161 -0.2809 -0.5412 -0.2500
  580ntf    sn2 3017   1.280   1.666   5.315  0.1261  0.2126 -0.1917
  580ntf    nn3 3018   1.397   1.655   5.420  0.1185 -0.0570 -0.2117
  580ntf    sn2 3019   1.517   1.751   5.452 -0.0944  0.1353  0.0195
  580ntf    cn1 3020   1.661   1.648   5.410 -0.3871 -0.2478 -0.0501
  580ntf    fn4 3021   1.294   1.649   5.055 -0.1104  0.1189 -0.2503
  580ntf    fn4 3022   1.471   1.710   5.137 -0.2534 -0.4592  0.1287
  580ntf    fn4 3023   1.415   1.506   5.147 -0.5592 -0.6220 -0.4380
  580ntf    on5 3024   1.235   1.801   5.290 -0.2252  0.0887 -0.2203
  580ntf    on5 3025   1.185   1.558   5.323  0.5379 -0.1681 -0.3911
  580ntf    on5 3026   1.532   1.764   5.595  0.3808 -0.0391 -0.0122
  580ntf    on5 3027   1.532   1.871   5.375  1.0219 -0.2279 -0.3421
  580ntf    fn4 3028   1.775   1.694   5.458 -0.4143 -0.2894  0.0531
  580ntf    fn4 3029   1.645   1.523   5.452 -0.5550 -0.1292  0.2392
  580ntf    fn4 3030   1.682   1.649   5.279 -1.0818  0.4185 -0.1668
  581ntf    cn1 3031   1.070   1.210   2.191  0.1518 -0.0121  0.3421
  581ntf    sn2 3032   0.944   1.145   2.076  0.3260  0.0844  0.0977
  581ntf    nn3 3033   1.032   1.037   2.002  0.0833 -0.0762  0.0442
  581ntf    sn2 3034   1.127   1.064   1.880 -0.0116 -0.5054 -0.1273
  581ntf    cn1 3035   1.281   1.004   1.957  0.2109  0.4174  0.1719
  581ntf    fn4 3036   1.124   1.116   2.267  0.2165 -0.2408  0.0166
  581ntf    fn4 3037   1.159   1.280   2.123 -0.1772  0.2752  0.2016
  581ntf    fn4 3038   1.013   1.299   2.270  0.1031  0.5447 -0.3050
  581ntf    on5 3039   0.842   1.084   2.156  0.2048  0.4078  0.1906
  581ntf    on5 3040   0.896   1.261   2.005 -0.2147 -0.2101 -0.0170
  581ntf    on5 3041   1.150   1.201   1.839  0.3111 -0.4254  0.3111
  581ntf    on5 3042   1.110   0.970   1.772  0.0473 -0.3228 -0.2958
  581ntf    fn4 3043   1.373   0.956   1.875 -0.1504  0.1483 -0.0819
  581ntf    fn4 3044   1.340   1.094   2.034 -0.2091  0.8106  0.0390
  581ntf    fn4 3045   1.255   0.900   2.035  0.0447  0.2359 -0.1245
  582ntf    cn1 3046   0.772   1.443   4.147 -0.1714  0.0068  0.1077
  582ntf    sn2 3047   0.783   1.349   3.992  0.0107 -0.1068  0.1889
  582ntf    nn3 3048   0.635   1.371   3.945  0.0656 -0.2940 -0.0742
  582ntf    sn2 3049   0.502   1.288   3.955 -0.2138  0.1490 -0.0689
  582ntf    cn1 3050   0.394   1.374   3.837  0.3507 -0.0728 -0.7484
  582ntf    fn4 3051   0.667   1.408   4.220 -0.2932 -0.6149 -0.3610
  582ntf    fn4 3052   0.873   1.421   4.229 -0.0526  0.1283 -0.0060
  582ntf    fn4 3053   0.771   1.574   4.127  0.8465  0.0195  0.1196
  582ntf    on5 3054   0.878   1.423   3.913 -0.1328 -0.3108 -0.1769
  582ntf    on5 3055   0.816   1.214   4.031 -0.0396  0.0080  0.6346
  582ntf    on5 3056   0.434   1.311   4.081  0.1822 -0.1268  0.1964
  582ntf    on5 3057   0.510   1.155   3.900  0.2383  0.3656 -0.5267
  582ntf    fn4 3058   0.371   1.500   3.871 -0.3652 -0.3347 -0.2603
  582ntf    fn4 3059   0.426   1.366   3.708  0.4229  0.6794 -0.7829
  582ntf    fn4 3060   0.271   1.327   3.847  0.4085 -0.0259  0.1992
  583ntf    cn1 3061   1.544   0.499   2.756 -0.0984  0.1492 -0.1087
  583ntf    sn2 3062   1.682   0.514   2.874 -0.2474 -0.3175  0.1279
  583ntf    nn3 3063   1.731   0.660   2.842 -0.4224 -0.2815  0.0184
  583ntf    sn2 3064   1.655   0.796   2.861  0.0713  0.0116 -0.0930
  583ntf    cn1 3065   1.633   0.844   2.687 -0.5829  0.2888  0.0660
  583ntf    fn4 3066   1.484   0.616   2.746  0.6804  0.5814  0.1474
  583ntf    fn4 3067   1.596   0.471   2.637  0.3625  0.3644  0.0387
  583ntf    fn4 3068   1.451   0.408   2.778  0.0461 -0.0098 -0.1516
  583ntf    on5 3069   1.616   0.510   3.003  0.0022 -0.1047  0.2629
  583ntf    on5 3070   1.775   0.410   2.839  0.3634  0.4375 -0.5291
  583ntf    on5 3071   1.744   0.899   2.909  0.0107 -0.1222  0.3141
  583ntf    on5 3072   1.524   0.790   2.920  0.2511 -0.0562  0.3060
  583ntf    fn4 3073   1.555   0.950   2.672 -0.3593  0.3552 -0.6533
  583ntf    fn4 3074   1.752   0.875   2.638 -0.7628  0.5444 -0.2153
  583ntf    fn4 3075   1.581   0.748   2.612  0.6191 -0.5447  0.2776
  584ntf    cn1 3076   1.827   1.504   0.933  0.0298  0.2715  0.2899
  584ntf    sn2 3077   1.758   1.663   0.988 -0.2551  0.2006  0.1394
  584ntf    nn3 3078   1.611   1.625   1.026 -0.3452 -0.0573 -0.4491
  584ntf    sn2 3079   1.554   1.606   1.171 -0.1424  0.1736 -0.3377
  584ntf    cn1 3080   1.468   1.449   1.139  0.3154 -0.1662  0.0729
  584ntf    fn4 3081   1.951   1.511   0.886 -0.1209  0.0520 -0.1472
  584ntf    fn4 3082   1.824   1.413   1.029 -0.6863 -0.2080 -0.1803
  584ntf    fn4 3083   1.757   1.452   0.833  0.2350  0.2083  0.1788
  584ntf    on5 3084   1.851   1.706   1.090  0.3874  0.2498 -0.4539
  584ntf    on5 3085   1.755   1.741   0.866 -0.3230  0.7087  0.4627
  584ntf    on5 3086   1.458   1.707   1.207  0.0930  0.3942 -0.3318
  584ntf    on5 3087   1.643   1.562   1.276 -0.4014 -0.5730 -0.4242
  584ntf    fn4 3088   1.380   1.457   1.040  0.2428  0.0195  0.1530
  584ntf    fn4 3089   1.555   1.358   1.099  0.0686 -0.1187 -0.5872
  584ntf    fn4 3090   1.408   1.387   1.239  0.4904 -0.2601  0.1201
  585ntf    cn1 3091   2.412   2.467   4.531  0.4993 -0.0043 -0.3687
  585ntf    sn2 3092   2.392   2.617   4.631  0.4626 -0.0415 -0.3204
  585ntf    nn3 3093   2.506   2.595   4.736  0.2537  0.2087 -0.0392
  585ntf    sn2 3094   2.509   2.496   4.858 -0.2884 -0.1567 -0.3206
  585ntf    cn1 3095   2.662   2.407   4.815 -0.0350  0.1117  0.0137
  585ntf    fn4 3096   2.538   2.429   4.514  0.5119 -0.0483 -0.1768
  585ntf    fn4 3097   2.353   2.369   4.597 -0.0326  0.1427 -0.6245
  585ntf    fn4 3098   2.358   2.475   4.410  0.1453 -0.5115 -0.2475
  585ntf    on5 3099   2.415   2.721   4.533 -0.2405  0.2819 -0.1486
  585ntf    on5 3100   2.259   2.608   4.687  0.4503 -0.3892 -0.4011
  585ntf    on5 3101   2.412   2.390   4.868 -0.2004 -0.1252  1.0462
  585ntf    on5 3102   2.545   2.562   4.981 -0.3217  0.3691 -0.5893
  585ntf    fn4 3103   2.670   2.304   4.898 -0.5325  0.0390 -0.0236
  585ntf    fn4 3104   2.660   2.365   4.689  0.2522  0.4796 -0.1149
  585ntf    fn4 3105   2.775   2.474   4.828 -0.2207  0.2781  0.7806
  586ntf    cn1 3106   2.245   2.108   6.885 -0.3296 -0.0445  0.2694
  586ntf    sn2 3107   2.094   2.206   6.861 -0.1941  0.0680 -0.1217
  586ntf    nn3 3108   2.090   2.237   6.707  0.0759  0.5825 -0.0277
  586ntf    sn2 3109   2.037   2.153   6.585  0.2162 -0.0311  0.3318
  586ntf    cn1 3110   1.868   2.215   6.565  0.0537 -0.5570  0.0574
  586ntf    fn4 3111   2.342   2.170   6.820 -0.2790  0.0136  0.3986
  586ntf    fn4 3112   2.283   2.101   7.012  0.1822  0.1293  0.1268
  586ntf    fn4 3113   2.234   1.983   6.842  0.6662 -0.2489  0.5926
  586ntf    on5 3114   1.992   2.119   6.913  0.3255 -0.1713  0.5048
  586ntf    on5 3115   2.115   2.327   6.936  0.5060 -0.3294  0.3245
  586ntf    on5 3116   2.034   2.011   6.610 -0.3442  0.1052  1.0518
  586ntf    on5 3117   2.104   2.187   6.462 -0.0562 -0.0078  0.1897
  586ntf    fn4 3118   1.799   2.190   6.675  0.4577 -0.2240  0.3904
  586ntf    fn4 3119   1.871   2.346   6.549 -0.3144 -0.5660 -0.1065
  586ntf    fn4 3120   1.796   2.161   6.468 -0.2486 -0.2986  0.1346
  587ntf    cn1 3121   1.924   0.613   6.396 -0.3787 -0.1714  0.0635
  587ntf    sn2 3122   2.090   0.614   6.470 -0.2638 -0.1020 -0.1949
  587ntf    nn3 3123   2.180   0.675   6.357  0.1809  0.1122  0.2727
  587ntf    sn2 3124   2.331   0.719   6.362  0.1693  0.1955 -0.1260
  587ntf    cn1 3125   2.315   0.892   6.414  0.0548  0.2217 -0.2473
  587ntf    fn4 3126   1.837   0.695   6.452  0.2052  0.2763  0.3212
  587ntf    fn4 3127   1.909   0.637   6.267 -0.2536  0.4524  0.1629
  587ntf    fn4 3128   1.862   0.500   6.427 -0.5858 -0.0514  0.0921
  587ntf    on5 3129   2.077   0.704   6.582 -0.6446 -0.4159  0.0201
  587ntf    on5 3130   2.120   0.475   6.493 -0.4281 -0.1183 -0.0782
  587ntf    on5 3131   2.392   0.726   6.232 -0.0055 -0.3775 -0.2443
  587ntf    on5 3132   2.409   0.658   6.466 -0.3020  0.0245  0.1286
  587ntf    fn4 3133   2.270   0.897   6.539 -0.2753  0.0349 -0.3571
  587ntf    fn4 3134   2.430   0.956   6.404  0.0223  0.3114 -0.0571
  587ntf    fn4 3135   2.222   0.956   6.344  0.0262  0.0454 -0.3697
  588ntf    cn1 3136   1.040   1.817   0.696 -0.2456  0.5908  0.2187
  588ntf    sn2 3137   1.064   1.993   0.737 -0.1183  0.6812 -0.2390
  588ntf    nn3 3138   0.931   2.038   0.667  0.0583  1.2041 -0.2430
  588ntf    sn2 3139   0.794   2.075   0.733 -0.2256 -0.0811 -0.0773
  588ntf    cn1 3140   0.701   2.085   0.577  0.1070  0.3619 -0.2506
  588ntf    fn4 3141   0.924   1.772   0.741 -0.0845 -0.6031 -0.5146
  588ntf    fn4 3142   1.038   1.790   0.567 -0.2013 -0.1032  0.3636
  588ntf    fn4 3143   1.137   1.742   0.745 -0.4772  0.2633  0.1782
  588ntf    on5 3144   1.074   2.010   0.880  0.3489  0.0160 -0.1851
  588ntf    on5 3145   1.172   2.038   0.653  0.1753  0.2630 -0.0850
  588ntf    on5 3146   0.788   2.212   0.778  0.3029 -0.1162  0.1057
  588ntf    on5 3147   0.728   1.973   0.810 -0.1970  0.0585  0.1339
  588ntf    fn4 3148   0.576   2.126   0.592  0.0521  0.0793  0.0746
  588ntf    fn4 3149   0.759   2.170   0.495  0.4666  0.4894  0.1362
  588ntf    fn4 3150   0.682   1.971   0.512 -0.2795  0.3093 -0.0501
  589ntf    cn1 3151   2.035   0.637   0.663  0.2399 -0.1169 -0.2862
  589ntf    sn2 3152   1.952   0.797   0.683  0.3007 -0.1389  0.1662
  589ntf    nn3 3153   2.054   0.893   0.613  0.0466  0.2769  0.3586
  589ntf    sn2 3154   2.023   1.040   0.568  0.0908  0.2618  0.2773
  589ntf    cn1 3155   1.969   0.994   0.401 -0.1005 -0.0670  0.4310
  589ntf    fn4 3156   2.154   0.632   0.721 -0.1557 -0.8685  0.4910
  589ntf    fn4 3157   1.963   0.536   0.708  0.5523 -0.2599 -0.1036
  589ntf    fn4 3158   2.054   0.617   0.534  0.6513 -0.0598 -0.2367
  589ntf    on5 3159   1.827   0.783   0.613  0.2630 -0.4265  0.2909
  589ntf    on5 3160   1.949   0.823   0.825  0.0720  0.1664  0.1068
  589ntf    on5 3161   2.138   1.126   0.550 -0.1678  0.5516 -0.0106
  589ntf    on5 3162   1.911   1.111   0.624 -0.0474  0.1497  0.1399
  589ntf    fn4 3163   1.846   0.945   0.401 -0.3989  0.6746  0.4008
  589ntf    fn4 3164   1.965   1.103   0.326  0.6225 -0.1399  0.2821
  589ntf    fn4 3165   2.053   0.910   0.342  0.1603 -0.1777  0.9492
  590ntf    cn1 3166   1.034   0.943   0.528 -0.3941  0.2028 -0.0187
  590ntf    sn2 3167   1.068   0.780   0.455 -0.3098  0.1965  0.0341
  590ntf    nn3 3168   1.224   0.772   0.466 -0.3281 -0.3395 -0.0721
  590ntf    sn2 3169   1.320   0.725   0.351 -0.0450 -0.2456  0.1253
  590ntf    cn1 3170   1.385   0.880   0.281 -0.2201 -0.3963 -0.3753
  590ntf    fn4 3171   1.083   0.945   0.651 -0.2894 -0.4450 -0.0451
  590ntf    fn4 3172   1.103   1.029   0.455  0.1192 -0.0936  0.1082
  590ntf    fn4 3173   0.907   0.979   0.542 -0.2521  0.4311  0.7659
  590ntf    on5 3174   0.998   0.695   0.548 -0.6370  0.0267 -0.3635
  590ntf    on5 3175   1.011   0.795   0.323 -0.2897 -0.0395 -0.0023
  590ntf    on5 3176   1.261   0.656   0.239 -0.2708 -0.2803  0.2656
  590ntf    on5 3177   1.434   0.659   0.411 -0.2665 -0.3499  0.4316
  590ntf    fn4 3178   1.452   0.955   0.366 -0.3907 -0.5976 -0.0618
  590ntf    fn4 3179   1.467   0.867   0.178 -0.0157  0.1530 -0.2824
  590ntf    fn4 3180   1.289   0.959   0.236  0.3506  0.2613 -0.4652
  591ntf    cn1 3181   1.749   1.616   2.932  0.0074  0.3007 -0.5887
  591ntf    sn2 3182   1.799   1.602   3.106 -0.0442  0.2177 -0.5807
  591ntf    nn3 3183   1.944   1.660   3.096  0.0894  0.0210  0.1510
  591ntf    sn2 3184   2.028   1.747   3.197 -0.2592  0.5195  0.0142
  591ntf    cn1 3185   2.132   1.614   3.264 -0.1454  0.4261 -0.3494
  591ntf    fn4 3186   1.812   1.524   2.860  0.7816  0.2732  0.1013
  591ntf    fn4 3187   1.619   1.598   2.920 -0.1126  0.8794 -0.2140
  591ntf    fn4 3188   1.766   1.736   2.880  0.4619  0.4854 -0.0227
  591ntf    on5 3189   1.700   1.690   3.163 -0.2250 -0.3792  0.0510
  591ntf    on5 3190   1.793   1.462   3.140  0.2758  0.5598  0.9518
  591ntf    on5 3191   1.950   1.792   3.310 -0.2526  0.1344  0.1749
  591ntf    on5 3192   2.109   1.846   3.131 -0.3664  0.3601 -0.3611
  591ntf    fn4 3193   2.059   1.507   3.286  0.5802  0.0135  0.0808
  591ntf    fn4 3194   2.227   1.569   3.183  0.1218  0.3141  0.0218
  591ntf    fn4 3195   2.188   1.650   3.378 -0.7451 -0.0025  0.0838
  592ntf    cn1 3196   0.665   1.010   6.344 -0.1790  0.4259  0.1043
  592ntf    sn2 3197   0.713   0.989   6.518  0.1706  0.1048 -0.0280
  592ntf    nn3 3198   0.862   1.036   6.506  0.2066 -0.0059 -0.0150
  592ntf    sn2 3199   0.912   1.184   6.517 -0.2857  0.1910 -0.3801
  592ntf    cn1 3200   0.958   1.193   6.692  0.3278 -0.1754 -0.5185
  592ntf    fn4 3201   0.644   1.136   6.310  0.2856  0.4359 -0.1486
  592ntf    fn4 3202   0.760   0.956   6.269  0.0225  0.6433  0.2020
  592ntf    fn4 3203   0.552   0.946   6.318  0.2443 -0.2048 -0.2241
  592ntf    on5 3204   0.620   1.071   6.593 -0.4417  0.0539 -0.7197
  592ntf    on5 3205   0.699   0.846   6.532 -0.2329  0.1802  0.3696
  592ntf    on5 3206   0.810   1.285   6.505 -0.8093 -0.2364  0.3909
  592ntf    on5 3207   1.034   1.193   6.440 -0.0084 -0.3219 -0.0032
  592ntf    fn4 3208   1.080   1.148   6.718  0.2721  0.2958  0.6312
  592ntf    fn4 3209   0.954   1.319   6.732  0.4622 -0.2683 -0.2063
  592ntf    fn4 3210   0.868   1.128   6.765  0.6340  0.3426  0.3427
  593ntf    cn1 3211   1.995   0.034   5.735  0.1262  0.0490  0.1764
  593ntf    sn2 3212   1.837   0.083   5.660  0.1017  0.0424  0.2240
  593ntf    nn3 3213   1.841   0.238   5.684 -0.2713  0.0879 -0.0032
  593ntf    sn2 3214   1.773   0.324   5.796 -0.2275 -0.0303  0.1146
  593ntf    cn1 3215   1.594   0.308   5.769 -0.2067  0.0275 -0.0622
  593ntf    fn4 3216   2.019   0.093   5.850 -0.2023  0.0913  0.2223
  593ntf    fn4 3217   1.998  -0.096   5.762  0.4712  0.0472  0.1384
  593ntf    fn4 3218   2.099   0.048   5.654  0.0059  0.0503  0.0224
  593ntf    on5 3219   1.842   0.057   5.519  0.1788 -0.1451  0.2605
  593ntf    on5 3220   1.735   0.016   5.738  0.2854 -0.1560  0.2961
  593ntf    on5 3221   1.786   0.464   5.765  0.0278 -0.1602 -0.3903
  593ntf    on5 3222   1.790   0.290   5.935  0.1199 -0.3818 -0.0103
  593ntf    fn4 3223   1.554   0.186   5.802 -0.0711 -0.0862 -0.3106
  593ntf    fn4 3224   1.518   0.383   5.847 -0.1853 -0.1423  0.1230
  593ntf    fn4 3225   1.556   0.314   5.643 -0.0168  0.0111 -0.1210
  594ntf    cn1 3226   1.380   0.922   5.205 -0.2271  0.0860 -0.6723
  594ntf    sn2 3227   1.376   0.789   5.329  0.0483  0.1558 -0.5866
  594ntf    nn3 3228   1.405   0.673   5.227  0.1169  0.2987 -0.7297
  594ntf    sn2 3229   1.531   0.583   5.201  0.0865 -0.0214  0.1873
  594ntf    cn1 3230   1.499   0.426   5.288 -0.1623  0.0715  0.2621
  594ntf    fn4 3231   1.494   0.913   5.139  0.0760  0.2748 -0.1840
  594ntf    fn4 3232   1.286   0.902   5.114 -0.9882 -0.3645  0.1924
  594ntf    fn4 3233   1.367   1.047   5.247 -0.1968 -0.1324  0.0092
  594ntf    on5 3234   1.480   0.818   5.425  0.3013 -0.9931 -0.4949
  594ntf    on5 3235   1.240   0.784   5.378  0.0672 -0.4757 -0.5837
  594ntf    on5 3236   1.654   0.631   5.259  0.0992  0.3311 -0.1320
  594ntf    on5 3237   1.535   0.539   5.064  0.0992 -0.0079  0.1835
  594ntf    fn4 3238   1.412   0.344   5.230 -0.2025  0.3778 -0.1175
  594ntf    fn4 3239   1.609   0.359   5.317 -0.0552  0.1927  0.1389
  594ntf    fn4 3240   1.451   0.456   5.408 -0.7346 -0.1170  0.0865
   2.47546   2.47546   6.91489
