Converted from moscito
 1728
    1SOL     ow    1   0.290   0.638   4.923 -0.7482  0.1725 -0.3361
    1SOL     hw    2   0.306   0.667   4.833 -0.9573  0.5678 -0.2456
    1SOL     hw    3   0.199   0.608   4.923 -1.3738  1.9504  0.1966
    1SOL     vw    4   0.280   0.638   4.911  0.0536 -0.0295 -0.0226
    2SOL     ow    5   2.056   0.521   1.757 -0.6187 -0.0103  0.4206
    2SOL     hw    6   1.990   0.514   1.687  0.4842 -2.6481 -0.4913
    2SOL     hw    7   2.117   0.588   1.726 -0.5415 -0.6415 -0.8720
    2SOL     vw    8   2.055   0.529   1.744  0.0849 -0.0360 -0.0519
    3SOL     ow    9   1.358   0.651   3.974 -0.2008  0.2537 -0.1733
    3SOL     hw   10   1.309   0.569   3.976 -0.0048  0.1276 -0.4274
    3SOL     hw   11   1.446   0.627   4.004  0.4843 -0.0750 -2.2727
    3SOL     vw   12   1.363   0.637   3.978  0.0362  0.0279 -0.0654
    4SOL     ow   13   0.114   0.878   0.201  0.3098 -0.2635  0.8820
    4SOL     hw   14   0.127   0.973   0.198 -0.2118 -0.1711  1.4303
    4SOL     hw   15   0.139   0.853   0.290  0.4714 -0.6486  0.7332
    4SOL     vw   16   0.119   0.887   0.212  0.0575 -0.0665 -0.0372
    5SOL     ow   17   0.501   0.955   3.057  0.4192 -0.6744 -0.6620
    5SOL     hw   18   0.477   0.947   2.964  2.2149 -0.7691 -1.1422
    5SOL     hw   19   0.583   0.908   3.065  1.5388  1.3380  0.4741
    5SOL     vw   20   0.508   0.948   3.045  0.0038  0.0556  0.1281
    6SOL     ow   21   0.590   1.438   1.395 -0.6440 -0.1414 -0.0941
    6SOL     hw   22   0.500   1.457   1.370 -0.4372  3.4608  1.2800
    6SOL     hw   23   0.630   1.403   1.315 -2.9173 -0.6805 -1.0804
    6SOL     vw   24   0.584   1.436   1.381  0.0693 -0.0286 -0.0712
    7SOL     ow   25   0.659   0.509   2.955 -0.2130 -0.3367 -0.1060
    7SOL     hw   26   0.582   0.497   2.900 -0.2647 -1.1088  0.1201
    7SOL     hw   27   0.640   0.458   3.034 -0.7229  1.8233  1.2523
    7SOL     vw   28   0.646   0.501   2.958 -0.1204  0.0734  0.0626
    8SOL     ow   29   1.880   0.780   5.422  0.2509  0.0996  0.3639
    8SOL     hw   30   1.930   0.756   5.343  2.2382 -1.0946  1.8734
    8SOL     hw   31   1.914   0.866   5.445  0.5800 -0.0792  0.5669
    8SOL     vw   32   1.891   0.788   5.415 -0.1044 -0.0089 -0.0186
    9SOL     ow   33   2.125   1.935   5.938 -0.2538  0.4339  0.3369
    9SOL     hw   34   2.061   1.992   5.896 -0.0181 -0.1442 -0.8271
    9SOL     hw   35   2.154   1.876   5.869  0.8922  0.1197  1.0608
    9SOL     vw   36   2.121   1.935   5.924 -0.0536 -0.1135 -0.0067
   10SOL     ow   37  -0.018   0.647   4.345 -0.2527 -0.0586 -0.1161
   10SOL     hw   38   0.031   0.728   4.361 -0.4023 -0.1582  0.9015
   10SOL     hw   39  -0.072   0.667   4.268 -0.1244  0.7386 -0.0124
   10SOL     vw   40  -0.019   0.661   4.337  0.0175  0.0178  0.0081
   11SOL     ow   41   0.957   0.034   3.621 -0.0795  0.3115  0.5174
   11SOL     hw   42   0.983   0.123   3.597 -2.0493  0.1738 -2.7339
   11SOL     hw   43   0.940  -0.010   3.538  0.3717 -3.0473  1.9925
   11SOL     vw   44   0.958   0.040   3.607  0.0641 -0.0650  0.0470
   12SOL     ow   45   0.758   2.236   5.163  0.3879  0.4591  0.0369
   12SOL     hw   46   0.840   2.285   5.156  0.1148  0.7190 -1.6033
   12SOL     hw   47   0.733   2.218   5.073 -0.3840 -1.2877  0.5662
   12SOL     vw   48   0.766   2.240   5.151  0.0004 -0.0147 -0.0398
   13SOL     ow   49   1.742   0.657   0.283  0.1149  0.4300 -0.4704
   13SOL     hw   50   1.830   0.693   0.277 -0.1953  1.0173 -2.5651
   13SOL     hw   51   1.700   0.706   0.354  0.5681  2.3015 -1.4349
   13SOL     vw   52   1.748   0.668   0.291  0.0091 -0.0530 -0.0126
   14SOL     ow   53   0.975   1.094   0.244 -0.2251 -0.4950  0.1106
   14SOL     hw   54   0.896   1.149   0.245 -0.0771 -0.2489 -0.8956
   14SOL     hw   55   0.965   1.039   0.166  0.7174 -0.2817 -0.1670
   14SOL     vw   56   0.963   1.094   0.234  0.0048 -0.0632 -0.0161
   15SOL     ow   57   0.344   0.110   1.247 -0.0176  0.4665  0.0089
   15SOL     hw   58   0.332   0.157   1.329 -0.5594  0.7542 -0.2290
   15SOL     hw   59   0.373   0.022   1.273 -1.4095  0.1445  0.5801
   15SOL     vw   60   0.346   0.104   1.261  0.0694 -0.0038 -0.0221
   16SOL     ow   61   1.869   1.556   4.501  0.0831  0.1906 -0.2952
   16SOL     hw   62   1.886   1.588   4.413 -0.0426 -1.9522 -1.1592
   16SOL     hw   63   1.911   1.470   4.504 -2.5057 -1.1566  0.6291
   16SOL     vw   64   1.877   1.549   4.490 -0.0169  0.0172  0.0076
   17SOL     ow   65   1.948   0.389   1.192  0.2947 -0.7766  0.0055
   17SOL     hw   66   1.979   0.316   1.244 -0.4488 -1.2641 -0.2103
   17SOL     hw   67   1.903   0.446   1.254 -1.2090 -1.7054 -0.1667
   17SOL     vw   68   1.946   0.387   1.207 -0.0298 -0.0021 -0.0890
   18SOL     ow   69   1.586   1.431   4.484 -0.8631  0.1212 -0.4645
   18SOL     hw   70   1.593   1.341   4.452 -0.6388 -0.7350  1.8324
   18SOL     hw   71   1.493   1.444   4.501 -1.0034  0.6294 -1.5428
   18SOL     vw   72   1.575   1.421   4.482  0.0152  0.0315 -0.0212
   19SOL     ow   73   1.357   1.786   0.220  0.4870  0.9558  0.2947
   19SOL     hw   74   1.431   1.815   0.273  1.5087  0.1173 -0.6135
   19SOL     hw   75   1.284   1.779   0.282  1.1882  1.6777  1.2356
   19SOL     vw   76   1.357   1.788   0.235  0.0321  0.0098  0.0118
   20SOL     ow   77   0.491   0.016   5.329  0.9772 -0.0738  0.1991
   20SOL     hw   78   0.445   0.063   5.398 -1.6892 -0.4521 -1.2104
   20SOL     hw   79   0.429  -0.048   5.297  2.2635 -0.2338 -2.2447
   20SOL     vw   80   0.477   0.014   5.334  0.0159  0.0316 -0.0408
   21SOL     ow   81   0.886   0.575   2.714  0.1453 -0.1797 -0.0987
   21SOL     hw   82   0.862   0.667   2.709  0.4019 -0.1170 -0.2291
   21SOL     hw   83   0.981   0.576   2.727 -0.1388 -0.3755  2.3969
   21SOL     vw   84   0.896   0.587   2.715 -0.0809  0.0242 -0.0118
   22SOL     ow   85   1.537   1.563   5.977  0.1007  0.0698 -0.2882
   22SOL     hw   86   1.471   1.499   6.000  0.5516 -1.1678 -2.2408
   22SOL     hw   87   1.593   1.568   6.055 -2.1722  1.1363  1.4000
   22SOL     vw   88   1.536   1.556   5.990  0.0205 -0.0758  0.0296
   23SOL     ow   89   1.666   1.511   2.684 -0.5707 -0.1434  0.4100
   23SOL     hw   90   1.598   1.447   2.667 -1.0344  0.2761  0.6438
   23SOL     hw   91   1.619   1.590   2.712 -0.1552  0.9968 -1.8765
   23SOL     vw   92   1.651   1.513   2.685 -0.0144 -0.0002  0.0005
   24SOL     ow   93   1.526   0.741   2.383  0.0521 -0.6445  0.1464
   24SOL     hw   94   1.458   0.680   2.412 -0.2918 -0.6477 -0.6526
   24SOL     hw   95   1.494   0.826   2.411 -0.3680 -0.6275 -0.3549
   24SOL     vw   96   1.513   0.744   2.391 -0.0371  0.0038 -0.0253
   25SOL     ow   97   0.059   0.466   4.110  0.1040 -0.0556 -0.4200
   25SOL     hw   98  -0.006   0.512   4.057  0.9753  1.1014 -0.5068
   25SOL     hw   99   0.138   0.465   4.056  1.2664  1.8717  1.1144
   25SOL     vw  100   0.061   0.472   4.096 -0.0708 -0.0102  0.0010
   26SOL     ow  101   0.367   1.008   4.073 -0.0901  0.4840 -0.4901
   26SOL     hw  102   0.441   1.009   4.133  0.4222  1.5879 -1.1146
   26SOL     hw  103   0.303   1.067   4.112 -0.6016 -0.3721 -0.0140
   26SOL     vw  104   0.368   1.016   4.086 -0.0130  0.0401 -0.0956
   27SOL     ow  105   0.358   1.272   5.603 -0.1945  0.0672 -0.0431
   27SOL     hw  106   0.357   1.308   5.515 -0.1151 -0.4574 -0.2622
   27SOL     hw  107   0.363   1.348   5.660 -1.0437  0.4523 -0.4637
   27SOL     vw  108   0.359   1.287   5.599  0.0010  0.0364 -0.0234
   28SOL     ow  109   0.545   0.133   4.030 -0.7249  0.0403  0.1400
   28SOL     hw  110   0.559   0.136   3.935  1.4289 -1.4940  0.3515
   28SOL     hw  111   0.607   0.197   4.065 -0.8661 -0.0696  0.5936
   28SOL     vw  112   0.555   0.142   4.022  0.0208  0.1071 -0.0155
   29SOL     ow  113   0.524   0.751   5.091  0.4071  0.5309  0.8815
   29SOL     hw  114   0.509   0.835   5.048 -0.6172  0.3755  0.9046
   29SOL     hw  115   0.596   0.767   5.151  2.0546  0.6895 -1.0302
   29SOL     vw  116   0.532   0.764   5.093 -0.0241 -0.0080  0.0510
   30SOL     ow  117   1.736   1.957   4.984  0.5850 -0.2428  0.0657
   30SOL     hw  118   1.775   2.018   4.921  0.2914  1.4062  1.4005
   30SOL     hw  119   1.642   1.970   4.975  0.4356 -1.5811 -0.6128
   30SOL     vw  120   1.729   1.967   4.975 -0.0125 -0.0383  0.0472
   31SOL     ow  121   1.913   1.723   5.184 -0.4426  0.2675  0.0141
   31SOL     hw  122   1.909   1.655   5.251  5.2088 -0.9966 -0.4706
   31SOL     hw  123   1.905   1.676   5.101 -1.7892  1.0485 -0.3360
   31SOL     vw  124   1.911   1.708   5.182  0.0511  0.0628 -0.0520
   32SOL     ow  125   0.140   2.191   1.736 -0.0723 -0.2279 -0.3194
   32SOL     hw  126   0.196   2.156   1.666 -1.1896  1.1038 -1.9382
   32SOL     hw  127   0.130   2.284   1.715 -0.3679  0.2416  1.6897
   32SOL     vw  128   0.146   2.198   1.724 -0.0036 -0.0241  0.0151
   33SOL     ow  129   2.138   1.371   5.081 -0.2047  0.1285 -0.2871
   33SOL     hw  130   2.049   1.403   5.090  0.7954  2.6814  1.6933
   33SOL     hw  131   2.129   1.285   5.040 -3.4447  0.8174 -1.2757
   33SOL     vw  132   2.125   1.364   5.077  0.1103  0.0123  0.0527
   34SOL     ow  133   1.718   0.146   3.778  0.3526 -0.0327  0.5001
   34SOL     hw  134   1.676   0.129   3.863  1.4151  0.9767  1.2564
   34SOL     hw  135   1.704   0.240   3.763  1.2203  0.0495  0.1563
   34SOL     vw  136   1.711   0.156   3.788  0.0430  0.0073 -0.0089
   35SOL     ow  137   2.178   2.217   5.987 -0.3477 -0.7205 -0.3208
   35SOL     hw  138   2.217   2.195   5.902  0.6944 -0.6638  0.1312
   35SOL     hw  139   2.100   2.268   5.965  0.3872  0.0498 -1.2359
   35SOL     vw  140   2.173   2.221   5.973  0.0094 -0.0188 -0.0203
   36SOL     ow  141   1.837   0.609   0.998 -0.2268  0.6322 -0.1946
   36SOL     hw  142   1.887   0.670   1.052 -0.2717 -0.2584  0.9066
   36SOL     hw  143   1.828   0.652   0.913  1.0381  1.4858  0.0811
   36SOL     vw  144   1.842   0.622   0.994 -0.0189  0.0668 -0.0331
   37SOL     ow  145   1.176   0.895   0.366 -0.0216 -0.2156  0.1500
   37SOL     hw  146   1.234   0.961   0.328 -0.4457 -0.5987 -1.2363
   37SOL     hw  147   1.231   0.846   0.426  0.5932  0.6419  0.3016
   37SOL     vw  148   1.191   0.897   0.369 -0.0334  0.0655 -0.0153
   38SOL     ow  149   1.616   1.441   5.645  0.6194  0.3808 -0.1684
   38SOL     hw  150   1.552   1.475   5.583  1.2592  1.5216 -0.2164
   38SOL     hw  151   1.645   1.358   5.607 -0.9249 -0.2400 -0.0727
   38SOL     vw  152   1.611   1.434   5.632  0.0262  0.0008 -0.0310
   39SOL     ow  153   1.321   1.033   1.056  0.0005 -0.6221  0.1343
   39SOL     hw  154   1.230   1.043   1.084  0.4942 -0.2119  1.6749
   39SOL     hw  155   1.314   1.009   0.964 -1.6314  0.7749 -0.1726
   39SOL     vw  156   1.308   1.031   1.048  0.0173  0.0029  0.0039
   40SOL     ow  157   1.095   1.114   5.461  0.8051  0.0109 -0.2891
   40SOL     hw  158   1.167   1.099   5.400  0.5575  0.8799 -0.8134
   40SOL     hw  159   1.035   1.041   5.445  1.3174 -0.4353 -0.2129
   40SOL     vw  160   1.096   1.102   5.451  0.0370  0.0156 -0.0172
   41SOL     ow  161   0.341   0.440   6.114  0.7504  0.1265  0.1213
   41SOL     hw  162   0.269   0.379   6.131 -0.0895  0.8866 -0.5785
   41SOL     hw  163   0.305   0.502   6.051  1.5458  1.3929  0.8734
   41SOL     vw  164   0.326   0.440   6.108  0.0628  0.0236 -0.0269
   42SOL     ow  165   1.912   1.075   3.231  0.8038 -0.4035  0.2939
   42SOL     hw  166   1.991   1.021   3.229  0.4304 -0.9681 -1.5691
   42SOL     hw  167   1.940   1.157   3.271  1.2059 -2.1633  4.0941
   42SOL     vw  168   1.926   1.079   3.236 -0.0318 -0.0589 -0.0328
   43SOL     ow  169   0.235   1.878   3.572  0.7110 -0.1672 -0.1278
   43SOL     hw  170   0.179   1.884   3.649  0.3791  0.6512 -0.4215
   43SOL     hw  171   0.277   1.793   3.580  1.6105  0.3907  1.5845
   43SOL     vw  172   0.233   1.868   3.583  0.0050  0.0083 -0.0557
   44SOL     ow  173   0.165   1.420   0.551 -0.5791 -0.2867 -0.2790
   44SOL     hw  174   0.219   1.412   0.472  0.1278 -1.2594  0.2878
   44SOL     hw  175   0.131   1.510   0.547  0.9060  0.2862 -0.7688
   44SOL     vw  176   0.168   1.431   0.540 -0.0109 -0.0178 -0.0085
   45SOL     ow  177   0.373   1.463   4.517 -0.0405 -0.4056  0.2148
   45SOL     hw  178   0.341   1.374   4.534  2.2637 -1.9062 -2.3123
   45SOL     hw  179   0.455   1.469   4.566 -1.0330  1.0853  1.7940
   45SOL     vw  180   0.380   1.452   4.525 -0.0018  0.0012 -0.0329
   46SOL     ow  181   2.084   2.207   1.721  0.5377  0.3035 -0.3409
   46SOL     hw  182   2.115   2.297   1.722 -0.2522  0.5850  0.0010
   46SOL     hw  183   2.015   2.206   1.655  1.6719 -0.4613 -1.5465
   46SOL     vw  184   2.079   2.218   1.712  0.0317 -0.0049  0.0724
   47SOL     ow  185   1.945   2.210   3.633 -0.2054  0.1844  0.1191
   47SOL     hw  186   1.884   2.197   3.561  1.4320  1.8314 -1.6653
   47SOL     hw  187   1.956   2.123   3.671 -0.4192 -0.9249 -2.2118
   47SOL     vw  188   1.938   2.197   3.629  0.0662 -0.0471 -0.1237
   48SOL     ow  189   1.752   0.653   2.116 -0.1820  0.3805  0.4087
   48SOL     hw  190   1.696   0.640   2.040  0.2277 -1.2295  0.3462
   48SOL     hw  191   1.807   0.728   2.092  1.2284 -1.2062 -1.7208
   48SOL     vw  192   1.752   0.661   2.103 -0.0247  0.0008  0.1031
   49SOL     ow  193   1.165   1.849   1.202  0.9270 -0.1079  0.2509
   49SOL     hw  194   1.176   1.843   1.297 -0.4433  1.2906  0.5538
   49SOL     hw  195   1.197   1.937   1.179  0.0329  0.0822 -0.3451
   49SOL     vw  196   1.170   1.860   1.211 -0.0666 -0.0563  0.0491
   50SOL     ow  197   0.982   0.847   4.517  0.3323  0.2323 -0.4653
   50SOL     hw  198   0.923   0.798   4.460 -0.8733  2.0752 -0.8725
   50SOL     hw  199   1.003   0.926   4.467  1.3090  0.6948  0.6315
   50SOL     vw  200   0.977   0.851   4.503  0.0148 -0.0551  0.0067
   51SOL     ow  201   1.317   1.446   3.707 -0.0987  0.3273  0.5277
   51SOL     hw  202   1.280   1.383   3.645  1.4191 -1.8941  1.7408
   51SOL     hw  203   1.274   1.529   3.686 -0.6006 -0.5937 -2.5981
   51SOL     vw  204   1.307   1.449   3.696  0.0113 -0.0224 -0.1119
   52SOL     ow  205   1.352   1.926   4.838  0.7155 -0.2137 -0.3471
   52SOL     hw  206   1.332   1.849   4.785 -0.3885  0.1383 -0.4626
   52SOL     hw  207   1.331   1.901   4.928 -1.1308  0.3980 -0.5537
   52SOL     vw  208   1.347   1.913   4.843  0.0077 -0.0115  0.0651
   53SOL     ow  209   1.781   0.567   1.838  0.2132  0.3989  0.2314
   53SOL     hw  210   1.767   0.624   1.762  1.6481 -0.6414 -0.8604
   53SOL     hw  211   1.736   0.486   1.815 -2.2010  1.1212  1.9663
   53SOL     vw  212   1.773   0.564   1.825 -0.0857  0.0126  0.0407
   54SOL     ow  213   1.003   0.240   5.744 -0.5333  0.4900 -0.7973
   54SOL     hw  214   0.945   0.207   5.813 -0.5026  0.1312 -0.9367
   54SOL     hw  215   0.944   0.275   5.678 -0.7918 -2.3473 -2.2277
   54SOL     vw  216   0.988   0.240   5.744  0.0910  0.0332  0.0317
   55poe    c31  217   0.204   1.540   4.182 -0.6994  0.4532 -0.3980
   55poe     o2  218   0.218   1.605   4.307 -0.1103 -0.2293 -0.0992
   55poe    c23  219   0.103   1.674   4.350  0.2502  0.3199 -0.0127
   55poe    c23  220   0.147   1.798   4.431  0.1570  0.4924 -0.2239
   55poe     o2  221   0.242   1.753   4.525 -0.0425  0.3786 -0.0730
   55poe    c23  222   0.307   1.855   4.598  0.3946 -0.2371  0.4070
   55poe    c23  223   0.409   1.793   4.695  0.5730  0.2259  0.5169
   55poe     o2  224   0.485   1.702   4.618  0.0102 -0.0561  0.2923
   55poe    c23  225   0.599   1.676   4.696  0.1098 -0.2479  0.0823
   55poe    c23  226   0.681   1.565   4.628  0.0453 -0.1807 -0.1046
   55poe     o2  227   0.601   1.450   4.615 -0.2223 -0.0186  0.0924
   55poe    c31  228   0.690   1.342   4.593  0.4131  0.6437 -0.6345
   56poe    c31  229   0.362   1.573   0.094  0.2923 -0.0465  0.2960
   56poe     o2  230   0.496   1.591   0.054  0.2767 -0.3726  0.0917
   56poe    c23  231   0.542   1.489  -0.032  0.5557 -0.2909  0.1433
   56poe    c23  232   0.694   1.504  -0.053  0.5343  0.0231  0.2021
   56poe     o2  233   0.746   1.508   0.078 -0.0123  0.3321  0.4110
   56poe    c23  234   0.885   1.486   0.085 -0.0534 -0.0538  0.1054
   56poe    c23  235   0.924   1.566   0.211  0.1779 -0.1929  0.1229
   56poe     o2  236   0.807   1.563   0.291 -0.1294  0.0732 -0.3080
   56poe    c23  237   0.823   1.655   0.397  0.1683 -0.3560  0.0276
   56poe    c23  238   0.691   1.665   0.476 -0.1381  0.0406 -0.5248
   56poe     o2  239   0.574   1.664   0.398 -0.3382 -0.3802 -0.2255
   56poe    c31  240   0.464   1.708   0.474  0.3176  0.1668  0.4189
   57poe    c31  241   0.762   0.220   1.338  0.3145  0.5235  0.3055
   57poe     o2  242   0.884   0.172   1.388  0.4515  0.0922 -0.4159
   57poe    c23  243   0.898   0.039   1.344  0.3745 -0.0073 -0.1446
   57poe    c23  244   1.040  -0.007   1.383  0.3951 -0.2180 -0.4667
   57poe     o2  245   1.130   0.097   1.351 -0.1137  0.1574 -0.6782
   57poe    c23  246   1.258   0.079   1.405 -0.2550  0.5882 -0.1872
   57poe    c23  247   1.317   0.219   1.428  0.2121  0.3056  0.3735
   57poe     o2  248   1.208   0.293   1.478  0.0477  0.2357  0.1212
   57poe    c23  249   1.250   0.423   1.513  0.3699  0.1158  0.1839
   57poe    c23  250   1.119   0.489   1.561  0.2525  0.1200 -0.1370
   57poe     o2  251   1.022   0.439   1.472 -0.2610  0.0063  0.4838
   57poe    c31  252   0.892   0.484   1.503 -0.3732  0.2692 -0.3472
   58poe    c31  253   1.935   2.138   6.186  0.5482  0.2851  0.1709
   58poe     o2  254   2.048   2.053   6.188  0.1820 -0.2141 -0.0631
   58poe    c23  255   2.092   2.054   6.322 -0.4418  0.3879  0.1430
   58poe    c23  256   2.208   1.954   6.337 -0.3678  0.4229 -0.1848
   58poe     o2  257   2.291   2.004   6.234  0.0139 -0.1507 -0.1587
   58poe    c23  258   2.409   1.927   6.243  0.2362  0.2283  0.1872
   58poe    c23  259   2.498   1.973   6.126  0.1428  0.3973  0.1826
   58poe     o2  260   2.407   1.994   6.019 -0.1708 -0.0151  0.3679
   58poe    c23  261   2.475   2.043   5.906 -0.2195 -0.0150  0.3393
   58poe    c23  262   2.395   2.041   5.774 -0.1943 -0.2617  0.3265
   58poe     o2  263   2.288   2.132   5.767  0.1434  0.0808 -0.4511
   58poe    c31  264   2.310   2.247   5.689  0.4865  0.1187 -0.2987
   59poe    c31  265   1.561   1.743   5.269  0.2101 -0.1920  0.6053
   59poe     o2  266   1.639   1.857   5.243  0.0485 -0.1014  0.5157
   59poe    c23  267   1.693   1.913   5.361  1.0587 -0.1326  0.0776
   59poe    c23  268   1.750   2.053   5.330  0.4750  0.1761  0.3711
   59poe     o2  269   1.867   2.038   5.252  0.0788  0.2341 -0.2390
   59poe    c23  270   1.931   2.158   5.219 -0.0901  0.3525 -0.1393
   59poe    c23  271   2.052   2.107   5.137  0.0655  0.1912  0.1918
   59poe     o2  272   2.001   2.006   5.053 -0.5775  0.2713  0.4744
   59poe    c23  273   2.098   1.976   4.955 -0.5244 -0.4069  0.7281
   59poe    c23  274   2.055   1.863   4.860 -0.2621  0.4024 -0.3641
   59poe     o2  275   2.052   1.739   4.927  0.3141  0.1606 -0.7687
   59poe    c31  276   2.037   1.632   4.837  1.0178 -0.0360 -0.6559
   60poe    c31  277   1.041   0.654   4.815 -0.6463 -0.5501 -0.4403
   60poe     o2  278   1.108   0.644   4.692  0.0755  0.0128 -0.0989
   60poe    c23  279   1.162   0.514   4.689 -0.0182 -0.0320  0.1572
   60poe    c23  280   1.165   0.479   4.539  0.4531 -0.1372  0.1882
   60poe     o2  281   1.209   0.593   4.469 -0.1686  0.1838  0.3148
   60poe    c23  282   1.209   0.559   4.333  0.2865 -0.0617  0.3759
   60poe    c23  283   1.238   0.687   4.254  0.0435 -0.1200  0.1900
   60poe     o2  284   1.143   0.783   4.292  0.2859  0.2398 -0.0981
   60poe    c23  285   1.144   0.889   4.199  0.0231  0.3283 -0.0025
   60poe    c23  286   1.120   1.031   4.254 -0.1978  0.4260 -0.3482
   60poe     o2  287   0.991   1.039   4.310 -0.1864  0.5362 -0.3372
   60poe    c31  288   0.955   1.171   4.345 -0.3322  0.2828  0.4809
   61poe    c31  289   1.034   1.870   0.039  0.3261 -0.6176  0.4087
   61poe     o2  290   1.170   1.857   0.003  0.2477 -0.2702 -0.0365
   61poe    c23  291   1.184   1.774  -0.110 -0.3406 -0.2932 -0.0927
   61poe    c23  292   1.303   1.828  -0.191 -0.0210  0.0816  0.6225
   61poe     o2  293   1.404   1.839  -0.093  0.4254  0.1741  0.1555
   61poe    c23  294   1.527   1.881  -0.147  0.1987  0.3860 -0.2014
   61poe    c23  295   1.634   1.860  -0.037  0.1265  0.3520 -0.1374
   61poe     o2  296   1.610   1.942   0.075 -0.2386  0.0533  0.0057
   61poe    c23  297   1.714   1.914   0.166 -0.1054 -0.1713 -0.2125
   61poe    c23  298   1.671   1.964   0.305  0.2332 -0.2974 -0.0632
   61poe     o2  299   1.550   1.902   0.342 -0.1298  0.1753 -0.4519
   61poe    c31  300   1.525   1.941   0.475 -0.3465 -0.4375 -0.3088
   62poe    c31  301   0.122   0.852   3.854 -0.5900 -0.0831 -0.7244
   62poe     o2  302   0.170   0.977   3.811  0.2019 -0.2066 -0.2180
   62poe    c23  303   0.075   1.080   3.827  0.4809  0.1349 -0.7300
   62poe    c23  304   0.144   1.211   3.784  0.0527  0.6325  0.0842
   62poe     o2  305   0.266   1.213   3.854  0.0388 -0.3724  0.1491
   62poe    c23  306   0.324   1.338   3.822 -0.5886 -0.1158 -0.0011
   62poe    c23  307   0.447   1.341   3.915 -0.5181 -0.3709 -0.0840
   62poe     o2  308   0.528   1.226   3.918  0.3574  0.2459  0.4734
   62poe    c23  309   0.622   1.238   4.022 -0.1257  0.9310  0.8386
   62poe    c23  310   0.684   1.107   4.075  0.0012  0.3918 -0.6123
   62poe     o2  311   0.595   1.043   4.163  0.8074 -0.1582 -0.1811
   62poe    c31  312   0.633   0.926   4.231  0.2471 -0.1710  0.1115
   63poe    c31  313   0.441   1.999   2.691  0.8757 -0.0557  0.2477
   63poe     o2  314   0.349   2.104   2.711  0.3047 -0.4207 -0.3802
   63poe    c23  315   0.402   2.194   2.806  0.3402 -0.6851 -0.1476
   63poe    c23  316   0.293   2.293   2.851  0.8689 -0.3788  0.4721
   63poe     o2  317   0.176   2.216   2.863  0.2983  0.3449 -0.3068
   63poe    c23  318   0.053   2.285   2.873  0.2269  0.2383 -0.4428
   63poe    c23  319  -0.055   2.192   2.816 -0.2618  0.6772 -0.2349
   63poe     o2  320  -0.000   2.143   2.695  0.0273 -0.1673  0.2323
   63poe    c23  321  -0.083   2.061   2.616  0.1687 -0.5221  0.4499
   63poe    c23  322  -0.001   2.039   2.488 -0.2524 -0.0868  0.1026
   63poe     o2  323   0.117   1.984   2.543 -0.1626  0.4776  0.4834
   63poe    c31  324   0.198   1.936   2.438  0.1852  0.5989  0.6943
   64poe    c31  325   0.301   0.814   4.637  0.0794 -0.2601 -0.1709
   64poe     o2  326   0.378   0.712   4.698  0.3272 -0.1077 -0.2269
   64poe    c23  327   0.505   0.766   4.725  0.1660  0.1262  0.0754
   64poe    c23  328   0.617   0.662   4.743  0.2940  0.3015  0.2824
   64poe     o2  329   0.580   0.560   4.833 -0.3085  0.2381 -0.0330
   64poe    c23  330   0.689   0.487   4.885 -0.3051  0.3362  0.0980
   64poe    c23  331   0.625   0.371   4.963  0.4332 -0.1627 -0.0197
   64poe     o2  332   0.531   0.432   5.048 -0.4196 -0.4840 -0.7131
   64poe    c23  333   0.457   0.341   5.126 -0.0473 -0.0398  0.1809
   64poe    c23  334   0.330   0.420   5.164  0.2052  0.1482  0.6364
   64poe     o2  335   0.371   0.550   5.199  0.3798 -0.0014  1.0008
   64poe    c31  336   0.265   0.622   5.257 -0.2574 -0.1524  0.0552
   65poe    c31  337   1.878   0.430   0.034  0.1333  0.0902  0.2775
   65poe     o2  338   1.793   0.426   0.147 -0.3744  0.1606 -0.0995
   65poe    c23  339   1.790   0.292   0.190  0.2513  0.0496 -0.3879
   65poe    c23  340   1.669   0.295   0.284  0.3002  0.0418 -0.3251
   65poe     o2  341   1.565   0.373   0.229 -0.1686 -0.0079  0.4611
   65poe    c23  342   1.444   0.390   0.299 -0.1254  0.0581  0.5199
   65poe    c23  343   1.354   0.487   0.220  0.0516 -0.1969 -0.0033
   65poe     o2  344   1.442   0.592   0.184 -0.0620 -0.0352  0.1887
   65poe    c23  345   1.387   0.677   0.087  0.2938 -0.0631 -0.0370
   65poe    c23  346   1.501   0.763   0.030  0.0824  0.3351  0.1308
   65poe     o2  347   1.600   0.667  -0.000  0.2041  0.4560  0.1431
   65poe    c31  348   1.689   0.695  -0.106  0.0449 -0.0198 -0.1194
   66poe    c31  349   1.266   0.379   6.007  1.2399  0.0577 -0.1562
   66poe     o2  350   1.253   0.269   5.919  0.2503  0.2300 -0.2365
   66poe    c23  351   1.228   0.156   6.000  0.2991  0.2264 -0.2269
   66poe    c23  352   1.259   0.033   5.913  0.2915  0.0623  0.0036
   66poe     o2  353   1.227   0.059   5.779  0.0866  0.3248  0.1028
   66poe    c23  354   1.327  -0.009   5.705 -0.3935 -0.0023 -0.2535
   66poe    c23  355   1.288   0.034   5.562 -0.6753 -0.0004 -0.1776
   66poe     o2  356   1.277   0.173   5.584 -0.1121 -0.0116  0.1996
   66poe    c23  357   1.265   0.255   5.469 -0.3100 -0.0526  0.1910
   66poe    c23  358   1.288   0.397   5.524  0.0872 -0.0851  0.1167
   66poe     o2  359   1.228   0.416   5.650 -0.1749 -0.3387  0.0335
   66poe    c31  360   1.231   0.549   5.697 -0.4198 -0.1858 -0.3790
   67poe    c31  361   0.804   0.904   3.222  0.0463  0.0853  0.5531
   67poe     o2  362   0.700   0.834   3.157  0.0532  0.0352  0.5964
   67poe    c23  363   0.664   0.724   3.238 -0.4354 -0.0400  0.2804
   67poe    c23  364   0.512   0.701   3.237 -0.4057 -0.2268  0.0911
   67poe     o2  365   0.430   0.807   3.283  0.0579  0.2418 -0.1523
   67poe    c23  366   0.302   0.757   3.313  0.0291  0.3905 -0.0263
   67poe    c23  367   0.220   0.875   3.368 -0.0099  0.1027  0.5479
   67poe     o2  368   0.241   0.979   3.275  0.2902 -0.3399  0.1134
   67poe    c23  369   0.159   1.091   3.303  0.7658  0.0310  0.0414
   67poe    c23  370   0.188   1.200   3.198  0.1472  0.0036 -0.1591
   67poe     o2  371   0.327   1.189   3.179  0.0941 -0.6398 -0.2027
   67poe    c31  372   0.378   1.284   3.088  0.1961 -0.1863  0.3220
   68poe    c31  373   1.513   0.698   5.401 -0.1403 -0.0581  0.3084
   68poe     o2  374   1.596   0.597   5.455  0.7813  0.3869 -0.2603
   68poe    c23  375   1.618   0.498   5.356 -0.1668 -0.3558  0.2445
   68poe    c23  376   1.729   0.405   5.408  0.1981 -0.0969 -0.0649
   68poe     o2  377   1.835   0.483   5.459  0.1601  0.0902 -0.2688
   68poe    c23  378   1.947   0.406   5.498  0.0743  0.0802 -0.0357
   68poe    c23  379   2.043   0.519   5.541 -0.3398  0.6767 -0.6466
   68poe     o2  380   1.967   0.621   5.602  0.1408  0.4277  0.3876
   68poe    c23  381   1.961   0.604   5.742 -0.3446 -0.2335  0.2898
   68poe    c23  382   1.847   0.699   5.781 -0.4435 -0.1613 -0.1651
   68poe     o2  383   1.736   0.686   5.695 -0.4709 -0.6033 -0.0655
   68poe    c31  384   1.634   0.777   5.728 -0.1007 -0.2273  0.0558
   69poe    c31  385   0.422   0.872   6.234  0.7548 -0.3001 -0.0113
   69poe     o2  386   0.378   0.752   6.293 -0.3546  0.1448  0.0943
   69poe    c23  387   0.449   0.720   6.410 -0.4599 -0.2649  0.0492
   69poe    c23  388   0.395   0.580   6.444 -0.0878 -0.4892 -0.2847
   69poe     o2  389   0.255   0.583   6.423 -0.1238 -0.1028  0.0105
   69poe    c23  390   0.197   0.464   6.472 -0.3866 -0.0221 -0.1031
   69poe    c23  391   0.063   0.460   6.396 -0.1258  0.5113 -0.6005
   69poe     o2  392  -0.007   0.573   6.442 -0.4790  0.0799 -0.0779
   69poe    c23  393  -0.085   0.567   6.560  0.0759  0.2006  0.3012
   69poe    c23  394  -0.158   0.697   6.599 -0.6414 -0.1853  0.2694
   69poe     o2  395  -0.256   0.743   6.509 -0.2461  0.0457 -0.0461
   69poe    c31  396  -0.217   0.872   6.470 -0.2820  0.0741  0.0122
   70poe    c31  397   0.050   1.071   4.903 -0.3772 -0.4379 -0.1874
   70poe     o2  398  -0.039   1.180   4.894  0.3480  0.1616 -0.1883
   70poe    c23  399  -0.037   1.272   4.787  0.1290  0.3744 -0.0128
   70poe    c23  400   0.089   1.360   4.788  0.3528  0.0516  0.2845
   70poe     o2  401   0.088   1.455   4.891  0.0525 -0.2239  0.5380
   70poe    c23  402   0.172   1.563   4.855 -0.5051 -0.0947 -0.3840
   70poe    c23  403   0.135   1.686   4.938 -0.4274 -0.2235 -0.1585
   70poe     o2  404   0.142   1.643   5.072 -0.0024  0.3443  0.0079
   70poe    c23  405   0.075   1.734   5.157  0.8479  0.6026  0.4058
   70poe    c23  406   0.100   1.690   5.303 -0.2645  0.2405  0.4901
   70poe     o2  407   0.063   1.555   5.325  1.3204 -0.2747  0.1259
   70poe    c31  408   0.063   1.537   5.465 -0.1758 -0.4771  0.1113
   71poe    c31  409   1.741   1.330   2.347  0.4750 -0.2294  0.1245
   71poe     o2  410   1.811   1.404   2.444  0.4719 -0.1267  0.0492
   71poe    c23  411   1.939   1.353   2.475  0.4347 -0.4590 -0.3256
   71poe    c23  412   2.030   1.473   2.507 -0.2696 -0.0886  0.3468
   71poe     o2  413   1.963   1.543   2.609 -0.6710  0.1148 -0.0536
   71poe    c23  414   2.047   1.641   2.668 -0.5639  0.1422 -0.2511
   71poe    c23  415   1.946   1.708   2.762  0.1385  0.3374  0.3705
   71poe     o2  416   1.836   1.758   2.689  0.1380  0.1091  0.2153
   71poe    c23  417   1.767   1.836   2.785  0.0766 -0.0605  0.3102
   71poe    c23  418   1.623   1.868   2.741  0.1618  0.2529  0.2607
   71poe     o2  419   1.543   1.753   2.753  0.1329  0.2092 -0.3459
   71poe    c31  420   1.417   1.786   2.698 -0.0643  0.1016  0.0421
   72poe    c31  421   1.743   1.622   0.537  0.1034 -0.3317  0.2901
   72poe     o2  422   1.714   1.565   0.663 -0.5439 -0.3695  0.1267
   72poe    c23  423   1.616   1.464   0.649 -0.2889 -0.7177  0.8018
   72poe    c23  424   1.615   1.365   0.767  0.4053 -0.9676  0.6000
   72poe     o2  425   1.613   1.452   0.878 -0.4706 -0.3567  0.1136
   72poe    c23  426   1.610   1.381   1.000 -0.5916 -0.1941  0.2051
   72poe    c23  427   1.636   1.498   1.097  0.1067 -0.1481 -0.0296
   72poe     o2  428   1.740   1.578   1.046  0.1184 -0.1714 -0.0419
   72poe    c23  429   1.760   1.697   1.119 -0.2238  0.0009 -0.2321
   72poe    c23  430   1.837   1.782   1.016  0.7286 -0.4275  0.1225
   72poe     o2  431   1.788   1.775   0.884 -0.2923  0.1215  0.4605
   72poe    c31  432   1.817   1.891   0.809 -0.6702 -0.4452 -0.5777
   73poe    c31  433   0.851   2.090   3.308  0.2114 -0.5017  0.1737
   73poe     o2  434   0.960   2.137   3.383  0.1081  0.4936 -0.2887
   73poe    c23  435   1.076   2.074   3.333 -0.1308 -0.1044 -0.0959
   73poe    c23  436   1.197   2.166   3.356 -0.2962 -0.0494  0.5568
   73poe     o2  437   1.223   2.184   3.494  0.4381  0.0038  0.4165
   73poe    c23  438   1.312   2.292   3.512  0.2505  0.1803  0.2917
   73poe    c23  439   1.363   2.283   3.657 -0.2156  0.3335  0.4673
   73poe     o2  440   1.253   2.269   3.743 -0.2516 -0.2211  0.3329
   73poe    c23  441   1.305   2.252   3.873 -0.0603  0.3473  0.3336
   73poe    c23  442   1.182   2.229   3.963  0.0010  0.1006  0.3560
   73poe     o2  443   1.082   2.157   3.893  0.1958 -0.0845  0.2668
   73poe    c31  444   0.958   2.152   3.960  0.0807 -0.2546  0.0443
   74poe    c31  445   1.633   1.785   5.744 -0.1210  0.0357 -0.0482
   74poe     o2  446   1.702   1.679   5.806 -0.7222 -0.7728 -0.7376
   74poe    c23  447   1.841   1.682   5.780 -0.5982 -0.5489 -0.0846
   74poe    c23  448   1.910   1.564   5.852  0.1913 -0.3232 -0.4680
   74poe     o2  449   1.815   1.462   5.838 -0.2701 -0.0296  0.4915
   74poe    c23  450   1.856   1.347   5.909 -0.4224 -0.0824  0.4960
   74poe    c23  451   1.753   1.236   5.882 -0.0542 -0.2911 -0.0649
   74poe     o2  452   1.626   1.292   5.902 -0.0811 -0.4987  0.3580
   74poe    c23  453   1.524   1.195   5.909 -0.9871  0.3058 -1.0918
   74poe    c23  454   1.416   1.217   6.017  0.1717  0.4792  0.0536
   74poe     o2  455   1.386   1.353   6.036  0.3973  0.5125  0.1848
   74poe    c31  456   1.310   1.362   6.155  0.0412  0.0598 -0.0055
   75poe    c31  457   1.373   2.195   4.624 -0.0086  0.4992 -0.2259
   75poe     o2  458   1.251   2.146   4.674  0.5024 -0.2403  0.3133
   75poe    c23  459   1.176   2.091   4.568  0.3493  0.1514  0.2156
   75poe    c23  460   1.029   2.081   4.614  0.2630  0.1112 -0.0647
   75poe     o2  461   1.035   2.027   4.744 -0.5485  0.6931  0.2224
   75poe    c23  462   0.910   1.986   4.793 -0.4674 -0.3489 -0.4200
   75poe    c23  463   0.911   1.873   4.899 -0.0166 -0.2197 -0.2861
   75poe     o2  464   1.023   1.916   4.974 -0.0816 -0.5185 -0.0160
   75poe    c23  465   1.043   1.845   5.094 -0.2647 -0.0498  0.2953
   75poe    c23  466   1.153   1.917   5.173 -0.1942  0.2645 -0.0867
   75poe     o2  467   1.269   1.926   5.092  0.1485 -0.4891  0.3082
   75poe    c31  468   1.353   1.999   5.178  0.1929  0.0113 -0.1536
   76poe    c31  469   1.403   0.179   3.178 -0.1753 -0.1664  0.2619
   76poe     o2  470   1.478   0.155   3.061 -0.0211  0.1774  0.2897
   76poe    c23  471   1.405   0.085   2.964  0.6857  0.2993 -0.3372
   76poe    c23  472   1.504   0.020   2.864  0.3850 -0.3770 -0.2028
   76poe     o2  473   1.597   0.118   2.824  0.2553 -0.0542  0.2821
   76poe    c23  474   1.704   0.065   2.751 -0.2685 -0.2655 -0.3427
   76poe    c23  475   1.802   0.182   2.728  0.4099 -0.6821  0.3481
   76poe     o2  476   1.814   0.249   2.852  0.3623 -0.1963  0.0936
   76poe    c23  477   1.819   0.389   2.839  0.5325 -0.2121 -0.0190
   76poe    c23  478   1.800   0.450   2.979  0.0985 -0.2151 -0.0734
   76poe     o2  479   1.714   0.379   3.066  0.3641 -0.0042  0.3641
   76poe    c31  480   1.672   0.471   3.164  0.1273  0.2192  0.0542
   77poe    c31  481   1.671   1.280   1.878 -0.7950  0.2554 -0.2523
   77poe     o2  482   1.699   1.390   1.794  0.5481  0.1931  0.1004
   77poe    c23  483   1.754   1.348   1.671  0.0239  0.1655 -0.1257
   77poe    c23  484   1.867   1.449   1.644  0.4084 -0.1790  0.1870
   77poe     o2  485   1.806   1.573   1.674  0.4391 -0.0704 -0.1961
   77poe    c23  486   1.898   1.679   1.685  0.2703  0.0561 -0.0047
   77poe    c23  487   1.813   1.802   1.722  0.1627  0.0608 -0.2666
   77poe     o2  488   1.717   1.747   1.809  0.1288 -0.0754 -0.3903
   77poe    c23  489   1.635   1.830   1.889  0.3574 -0.0285 -0.2055
   77poe    c23  490   1.496   1.767   1.905  0.3735 -0.0575 -0.1809
   77poe     o2  491   1.519   1.629   1.908  0.2585 -0.0760 -0.1089
   77poe    c31  492   1.397   1.564   1.938 -0.0508  0.9612  0.9222
   78poe    c31  493   0.226   0.459   3.794 -0.1342 -0.0203  0.1920
   78poe     o2  494   0.228   0.475   3.934 -0.1249  0.0053  0.1892
   78poe    c23  495   0.356   0.501   3.986  0.0570 -0.3105 -0.0977
   78poe    c23  496   0.372   0.593   4.108 -1.0115 -0.1355 -0.0836
   78poe     o2  497   0.320   0.533   4.225 -0.3565  0.2489  0.4129
   78poe    c23  498   0.365   0.587   4.347 -0.6475  0.1470  0.5664
   78poe    c23  499   0.333   0.490   4.462 -0.1781 -0.2569  0.3580
   78poe     o2  500   0.196   0.459   4.442 -0.2960  0.6252 -0.2461
   78poe    c23  501   0.149   0.354   4.522  0.3603  0.6396  0.1705
   78poe    c23  502  -0.004   0.346   4.504  0.4213 -0.2030 -0.0364
   78poe     o2  503  -0.022   0.359   4.365 -0.1476 -0.0684  0.0448
   78poe    c31  504  -0.155   0.331   4.329 -0.0312 -0.6566  0.0558
   79poe    c31  505   0.483   1.618   3.666  0.0600  0.3936 -0.0937
   79poe     o2  506   0.370   1.649   3.587 -0.0835 -0.2333 -0.1349
   79poe    c23  507   0.385   1.585   3.462 -0.0239 -0.0207 -0.2367
   79poe    c23  508   0.472   1.668   3.366  0.5586 -0.2613  0.0701
   79poe     o2  509   0.438   1.805   3.361  0.6029 -0.2528  0.0078
   79poe    c23  510   0.502   1.858   3.247  0.0191  0.3600 -0.0378
   79poe    c23  511   0.453   2.003   3.231 -0.5607  0.2399  0.6091
   79poe     o2  512   0.315   2.010   3.260 -0.7356 -0.3982 -0.0454
   79poe    c23  513   0.273   2.142   3.288  0.2847 -0.0606 -0.0650
   79poe    c23  514   0.120   2.147   3.266  0.2775 -0.5335 -0.1311
   79poe     o2  515   0.080   2.038   3.347  0.1177 -0.0346  0.4679
   79poe    c31  516  -0.050   2.037   3.401 -0.1959 -1.1543 -0.2747
   80poe    c31  517   0.804   0.687   0.277 -0.1870 -0.4153  0.3584
   80poe     o2  518   0.865   0.767   0.376 -0.4426  0.6454 -0.3246
   80poe    c23  519   0.769   0.810   0.469 -0.2750 -0.1913  0.2460
   80poe    c23  520   0.848   0.872   0.585 -0.3383  0.6064 -0.1286
   80poe     o2  521   0.917   0.990   0.552  0.2589  0.1926 -0.3618
   80poe    c23  522   1.008   1.023   0.654  0.0192  0.0676 -0.1079
   80poe    c23  523   1.082   1.154   0.621 -0.2475  0.1969 -0.1928
   80poe     o2  524   1.120   1.145   0.485  0.0486  0.3962 -0.1233
   80poe    c23  525   1.220   1.241   0.462  0.1678  0.2461 -0.2357
   80poe    c23  526   1.358   1.186   0.423  0.0034 -0.2263 -0.1487
   80poe     o2  527   1.355   1.120   0.298  0.5231  0.2960 -0.4418
   80poe    c31  528   1.484   1.083   0.254  0.2166 -0.6941 -0.5397
   81poe    c31  529   1.002   1.172   2.231 -0.1641  0.0586 -0.5647
   81poe     o2  530   0.969   1.039   2.198  0.3695 -0.2561  0.1582
   81poe    c23  531   1.045   0.961   2.287  0.0734 -0.2255  0.4375
   81poe    c23  532   1.036   0.817   2.234 -0.6231 -0.2875  0.7051
   81poe     o2  533   0.899   0.805   2.206 -0.4136 -0.2634 -0.4103
   81poe    c23  534   0.862   0.674   2.172 -0.6083 -0.3529  0.1239
   81poe    c23  535   0.721   0.692   2.112 -0.6764  0.1013  0.4202
   81poe     o2  536   0.717   0.819   2.051 -0.2553 -0.0375  0.0920
   81poe    c23  537   0.584   0.861   2.032 -0.1854  0.1518  0.0172
   81poe    c23  538   0.605   1.005   1.980  0.6312  0.0291  0.0036
   81poe     o2  539   0.709   1.058   2.058  0.4356 -0.2748  0.4807
   81poe    c31  540   0.671   1.191   2.088  0.3382 -0.1306 -0.2591
   82poe    c31  541   1.475   0.701   1.895  0.7933 -0.0543 -0.2261
   82poe     o2  542   1.516   0.638   2.015  0.0968 -0.2691 -0.0932
   82poe    c23  543   1.425   0.551   2.078  0.1313  0.0425  0.3903
   82poe    c23  544   1.485   0.436   2.161 -0.3086  0.0011  0.6525
   82poe     o2  545   1.573   0.473   2.265  0.2807  0.1634  0.1066
   82poe    c23  546   1.625   0.356   2.324  0.2211  0.1621  0.1569
   82poe    c23  547   1.762   0.383   2.388  0.2598 -0.1905  0.2228
   82poe     o2  548   1.761   0.513   2.442 -0.3358 -0.0082 -0.2222
   82poe    c23  549   1.895   0.558   2.448 -0.3657 -0.0228  0.5999
   82poe    c23  550   1.886   0.711   2.456  0.2415  0.0462 -0.0008
   82poe     o2  551   1.789   0.763   2.368  0.6639  0.0460 -0.4721
   82poe    c31  552   1.824   0.899   2.359 -0.2631  0.3408  0.2841
   83poe    c31  553   1.878   0.677   4.484  0.2006  0.0152  0.5068
   83poe     o2  554   1.860   0.763   4.594  0.2386  0.2848  0.3032
   83poe    c23  555   1.953   0.867   4.576  0.0756  0.3299 -0.2902
   83poe    c23  556   1.963   0.946   4.707 -0.3988  0.0919 -0.1080
   83poe     o2  557   1.829   0.946   4.752 -0.2948  0.0651  0.2106
   83poe    c23  558   1.824   0.966   4.891 -0.3563  0.5034  0.1450
   83poe    c23  559   1.676   0.945   4.928 -0.3398  0.2838  0.0818
   83poe     o2  560   1.649   0.830   4.850 -0.5261  0.2416  0.2104
   83poe    c23  561   1.526   0.773   4.890 -0.5337  0.1323  0.0305
   83poe    c23  562   1.538   0.637   4.819 -0.2229  0.2832 -0.2084
   83poe     o2  563   1.597   0.655   4.692 -0.4273 -0.3667 -0.4012
   83poe    c31  564   1.598   0.538   4.615 -0.2700 -0.1730 -0.6959
   84poe    c31  565   0.977   1.670   3.362 -0.3433 -0.4852  0.1878
   84poe     o2  566   1.073   1.627   3.269 -0.0878  0.1074  0.1712
   84poe    c23  567   1.179   1.718   3.253  0.3263 -0.3572  0.2474
   84poe    c23  568   1.303   1.662   3.180  0.3898  0.0296  0.0565
   84poe     o2  569   1.243   1.579   3.084 -0.1304  0.3684  0.0841
   84poe    c23  570   1.346   1.506   3.022  0.1605 -0.0671  1.0530
   84poe    c23  571   1.278   1.397   2.937 -0.3428  0.6651  0.5099
   84poe     o2  572   1.175   1.350   3.021  0.4332 -0.7227  0.7018
   84poe    c23  573   1.080   1.269   2.956  0.1771  0.0510  0.0971
   84poe    c23  574   0.953   1.255   3.042 -0.0873 -0.5375 -0.3798
   84poe     o2  575   0.937   1.377   3.111 -0.5167 -0.8804  0.1423
   84poe    c31  576   0.805   1.399   3.156 -0.4381 -0.0138 -0.0360
   85poe    c31  577  -0.014   0.249   1.572 -0.2318  0.5572 -0.0594
   85poe     o2  578   0.052   0.201   1.688 -0.0296 -0.1512 -0.4667
   85poe    c23  579   0.043   0.286   1.800 -0.3465 -0.3242 -0.3599
   85poe    c23  580   0.082   0.222   1.934 -0.3965 -0.0366 -0.2092
   85poe     o2  581   0.011   0.106   1.971 -0.1227 -0.1129  0.0850
   85poe    c23  582   0.081   0.049   2.079  0.0350 -0.1016 -0.0115
   85poe    c23  583   0.017  -0.088   2.108 -0.0877 -0.1569 -0.5341
   85poe     o2  584   0.023  -0.159   1.986 -0.4054 -0.0666 -0.6042
   85poe    c23  585  -0.003  -0.297   2.003  0.7803 -0.1853  0.4312
   85poe    c23  586   0.027  -0.368   1.870 -0.2167  0.1834 -0.0033
   85poe     o2  587  -0.059  -0.303   1.779  0.3703  0.5109 -0.3281
   85poe    c31  588  -0.021  -0.355   1.653 -0.2104  0.1223 -0.3470
   86poe    c31  589   0.591   0.833   0.952 -0.2164 -0.0548  0.0847
   86poe     o2  590   0.509   0.882   1.055  0.0203  0.3497  0.0810
   86poe    c23  591   0.381   0.911   1.005 -0.1885 -0.4400  0.1477
   86poe    c23  592   0.290   0.950   1.123 -0.0363 -0.2409  0.2000
   86poe     o2  593   0.361   1.038   1.207 -0.1628  0.5907 -0.5487
   86poe    c23  594   0.295   1.089   1.320  0.5045 -0.1589  0.1966
   86poe    c23  595   0.407   1.146   1.408 -0.2764  0.2844  0.9224
   86poe     o2  596   0.514   1.054   1.412 -0.8007 -0.3531  0.3188
   86poe    c23  597   0.500   0.963   1.519 -0.4272 -0.4869  0.2529
   86poe    c23  598   0.602   0.854   1.481 -0.3243 -0.4166  0.3227
   86poe     o2  599   0.586   0.819   1.345  0.1443  0.2751  0.0855
   86poe    c31  600   0.670   0.707   1.324 -0.2016 -0.1360  0.8621
   87poe    c31  601   1.663   0.273   1.708  0.9309  0.4583 -0.1959
   87poe     o2  602   1.714   0.321   1.830  0.1990  0.1473  0.2375
   87poe    c23  603   1.806   0.231   1.889 -0.3672 -0.1117  0.7367
   87poe    c23  604   1.858   0.295   2.019  0.4006 -0.1593  0.4574
   87poe     o2  605   1.948   0.402   1.999  0.2271 -0.1168 -0.1202
   87poe    c23  606   2.022   0.413   2.119 -0.2077  0.5669  0.0934
   87poe    c23  607   2.130   0.523   2.113  0.0911  0.2766  0.1092
   87poe     o2  608   2.064   0.635   2.058 -0.3474  0.1768  0.4218
   87poe    c23  609   2.124   0.751   2.111  0.7243  0.0630 -0.5057
   87poe    c23  610   2.065   0.872   2.036 -0.0346 -0.0101 -0.0255
   87poe     o2  611   1.925   0.861   2.056 -0.0179 -0.1236  0.0314
   87poe    c31  612   1.844   0.962   2.001 -0.0967 -0.1778  0.0485
   88poe    c31  613   1.815   0.477   3.627 -0.7178 -0.1753 -0.0516
   88poe     o2  614   1.892   0.372   3.681 -0.3456  0.1716  0.0960
   88poe    c23  615   2.014   0.353   3.613 -0.1426  0.5151  0.3582
   88poe    c23  616   2.131   0.300   3.697  0.1462  0.6484  0.0459
   88poe     o2  617   2.084   0.181   3.756  0.2415  0.5714 -0.0333
   88poe    c23  618   2.166   0.132   3.860 -0.8440 -0.4286  0.3821
   88poe    c23  619   2.072   0.105   3.978 -0.5015  0.0496  0.7704
   88poe     o2  620   1.951   0.050   3.930 -0.2564  0.3571 -0.2103
   88poe    c23  621   1.887  -0.011   4.039  0.1949 -0.0833 -0.1900
   88poe    c23  622   1.742  -0.056   4.013  0.1212 -0.2358  0.4564
   88poe     o2  623   1.637   0.038   4.011 -0.0156 -0.3973 -0.3145
   88poe    c31  624   1.595   0.060   4.143  0.2794  0.2714 -0.3276
   89poe    c31  625   1.938   1.562   4.176 -0.3886  0.0485  0.1283
   89poe     o2  626   1.875   1.650   4.266 -0.3108 -0.1167  0.3435
   89poe    c23  627   1.757   1.697   4.204 -0.3676 -0.9208 -0.1717
   89poe    c23  628   1.677   1.793   4.294 -0.7047 -0.7293 -0.6693
   89poe     o2  629   1.654   1.738   4.422  0.2243 -0.4367 -0.3628
   89poe    c23  630   1.566   1.824   4.491  0.3599 -0.2271 -0.4521
   89poe    c23  631   1.587   1.809   4.643  0.0146  0.2393 -0.3558
   89poe     o2  632   1.613   1.674   4.672 -0.6697  0.2027  0.1230
   89poe    c23  633   1.606   1.637   4.808 -0.2418 -0.0503  0.0783
   89poe    c23  634   1.629   1.485   4.814  0.3771  0.0493  0.3001
   89poe     o2  635   1.762   1.457   4.776  0.2438  0.0246 -0.1558
   89poe    c31  636   1.799   1.321   4.778 -0.4982 -0.1824 -0.2095
   90poe    c31  637   1.463   0.821   3.175 -0.0412  0.6040  0.0949
   90poe     o2  638   1.572   0.904   3.143  0.0827  0.3560 -0.1362
   90poe    c23  639   1.629   0.864   3.021  0.0961  0.1067 -0.0473
   90poe    c23  640   1.647   0.972   2.913  0.2749  0.1851  0.0605
   90poe     o2  641   1.736   1.072   2.958 -0.0506  0.2966  0.4660
   90poe    c23  642   1.754   1.180   2.869  0.0434 -0.1803 -0.1049
   90poe    c23  643   1.882   1.254   2.912 -0.1130 -0.1166  0.2557
   90poe     o2  644   1.854   1.294   3.044  0.0746 -0.3719  0.3740
   90poe    c23  645   1.961   1.374   3.089  0.4557 -0.7587  0.1634
   90poe    c23  646   1.945   1.425   3.234 -0.4038 -0.3632 -0.0635
   90poe     o2  647   1.962   1.307   3.310 -0.4599 -0.5388 -0.3199
   90poe    c31  648   1.936   1.327   3.447  0.8566  0.1776 -0.1562
   91poe    c31  649   0.948   1.525   1.361  0.8086 -0.2959 -0.4253
   91poe     o2  650   0.863   1.523   1.474  0.7550  0.5726 -0.4499
   91poe    c23  651   0.940   1.460   1.574 -0.3086  0.0842  0.0726
   91poe    c23  652   0.867   1.484   1.707  0.1317 -0.3248  0.3895
   91poe     o2  653   0.729   1.471   1.683  0.1444  0.0146  0.1283
   91poe    c23  654   0.644   1.504   1.791 -0.4011  0.2119 -0.3530
   91poe    c23  655   0.501   1.475   1.741 -0.4162 -0.4075  0.0359
   91poe     o2  656   0.493   1.525   1.609  0.1694 -0.2316  0.0603
   91poe    c23  657   0.355   1.540   1.580  0.2183  0.0063 -0.0485
   91poe    c23  658   0.311   1.564   1.435  0.2159  0.1260 -0.0284
   91poe     o2  659   0.354   1.469   1.340  0.6230  0.4403 -0.1640
   91poe    c31  660   0.281   1.485   1.220  0.1580  0.5196  0.1281
   92poe    c31  661   0.752   1.684   2.471  0.3437  0.3128  0.5478
   92poe     o2  662   0.872   1.739   2.422  0.1391  0.0027 -0.3141
   92poe    c23  663   0.957   1.741   2.534  0.0033 -0.0414 -0.2109
   92poe    c23  664   1.097   1.782   2.487  0.0934  0.0113  0.1013
   92poe     o2  665   1.075   1.857   2.370  0.0030 -0.0701  0.0667
   92poe    c23  666   1.195   1.885   2.301 -0.1835 -0.3897 -0.3957
   92poe    c23  667   1.161   1.969   2.176 -0.2262  0.7079  0.3413
   92poe     o2  668   1.046   1.903   2.131  0.2947 -0.2052  0.3266
   92poe    c23  669   1.075   1.819   2.021  0.0484 -0.2585  0.3001
   92poe    c23  670   0.969   1.707   2.020 -0.2578  0.0342 -0.5578
   92poe     o2  671   0.947   1.673   2.155  0.2906  0.3743 -0.3760
   92poe    c31  672   0.887   1.546   2.166  0.0421  0.5025 -0.2207
   93poe    c31  673   0.857   0.494   5.648 -0.3841 -0.5709 -0.5790
   93poe     o2  674   0.868   0.369   5.583  0.0610 -0.7111 -0.2360
   93poe    c23  675   0.802   0.360   5.459 -0.9748 -0.0324  0.2521
   93poe    c23  676   0.839   0.237   5.375 -0.2440  0.1980  0.2343
   93poe     o2  677   0.781   0.121   5.429  0.0240 -0.1801 -0.2841
   93poe    c23  678   0.852   0.060   5.535 -0.3598 -0.0344  0.0555
   93poe    c23  679   0.771  -0.060   5.588 -0.5642  0.1082  0.0702
   93poe     o2  680   0.732  -0.128   5.471 -0.3056  0.3631 -0.1672
   93poe    c23  681   0.656  -0.239   5.515  0.2652  0.1110  0.1960
   93poe    c23  682   0.632  -0.336   5.398  0.5774  0.0146  0.2096
   93poe     o2  683   0.610  -0.247   5.292  0.1028 -0.4871 -0.1180
   93poe    c31  684   0.582  -0.310   5.169 -0.2248 -0.0169 -0.2917
   94poe    c31  685   1.681   1.026   1.012  0.3945 -0.1517  0.0649
   94poe     o2  686   1.588   0.969   1.101 -0.1562 -0.1798 -0.5229
   94poe    c23  687   1.636   0.841   1.133  0.1615  0.1516  0.3372
   94poe    c23  688   1.518   0.754   1.181  0.3857 -0.2871  0.0997
   94poe     o2  689   1.457   0.843   1.272  0.2997 -0.3165  0.0713
   94poe    c23  690   1.342   0.788   1.330  0.5481  0.0206  0.8921
   94poe    c23  691   1.297   0.911   1.411 -0.2711 -0.0035  0.4834
   94poe     o2  692   1.322   1.022   1.327 -0.1703 -0.0824  0.4094
   94poe    c23  693   1.311   1.145   1.394  0.0085  0.1355  0.0407
   94poe    c23  694   1.452   1.202   1.421 -0.0236  0.2250  0.0196
   94poe     o2  695   1.530   1.179   1.306 -0.1347  0.0304 -0.0159
   94poe    c31  696   1.664   1.204   1.339 -0.1971  0.5501 -0.1536
   95poe    c31  697   0.980   1.304   3.888  0.7259 -0.4168 -0.1146
   95poe     o2  698   1.095   1.285   3.967  0.3923 -0.4967  0.3519
   95poe    c23  699   1.139   1.393   4.046  0.0709 -0.1169  0.0174
   95poe    c23  700   1.287   1.369   4.080  0.0432 -0.3880 -0.0538
   95poe     o2  701   1.394   1.378   3.988 -0.1457 -0.4273 -0.2771
   95poe    c23  702   1.510   1.387   4.067 -0.3438 -0.2786 -0.0025
   95poe    c23  703   1.630   1.364   3.974 -0.3767 -0.2880 -0.0424
   95poe     o2  704   1.602   1.457   3.872 -0.2891 -0.0113  0.1856
   95poe    c23  705   1.713   1.448   3.785  0.1717  0.2328  0.7449
   95poe    c23  706   1.712   1.588   3.721  0.0208  0.1628  0.5931
   95poe     o2  707   1.583   1.631   3.683 -0.0946 -0.7834 -0.1307
   95poe    c31  708   1.574   1.767   3.645  0.3472 -0.6191  0.3328
   96poe    c31  709   0.801   0.192   0.448 -0.4329 -0.0732  0.2997
   96poe     o2  710   0.907   0.099   0.456 -0.4511 -0.1105  0.1167
   96poe    c23  711   0.859  -0.018   0.518 -0.2944 -0.1231  0.2143
   96poe    c23  712   0.971  -0.121   0.487 -0.0272  0.2508 -0.0789
   96poe     o2  713   1.090  -0.054   0.522  0.0475  0.2752 -0.3778
   96poe    c23  714   1.170  -0.103   0.627 -0.0584  0.0666 -0.3937
   96poe    c23  715   1.256   0.018   0.669  0.2439 -0.3143  0.0827
   96poe     o2  716   1.183   0.136   0.648  0.1936 -0.3673 -0.0359
   96poe    c23  717   1.266   0.245   0.681 -0.1151 -0.3369  0.6562
   96poe    c23  718   1.171   0.358   0.638  0.2499 -0.1020  0.4543
   96poe     o2  719   1.127   0.338   0.505 -0.1835 -0.0838  0.5936
   96poe    c31  720   1.065   0.453   0.451 -0.0745  0.0626  0.7764
   97poe    c31  721   0.628   0.609   6.015  0.1113  0.2122  0.6421
   97poe     o2  722   0.653   0.497   6.097  0.0839  0.2949  0.7636
   97poe    c23  723   0.751   0.513   6.196  1.2888 -0.4434 -0.2821
   97poe    c23  724   0.742   0.375   6.264  0.1674  0.0838  0.6745
   97poe     o2  725   0.607   0.345   6.292 -0.0868  0.1242 -0.4716
   97poe    c23  726   0.597   0.218   6.353 -0.1542  0.2105 -0.3049
   97poe    c23  727   0.447   0.193   6.378 -0.1588  0.6177  0.0986
   97poe     o2  728   0.377   0.190   6.255 -0.2032  0.2484  0.1331
   97poe    c23  729   0.250   0.130   6.263 -0.3601  0.5734  0.0685
   97poe    c23  730   0.172   0.138   6.131 -0.2171  0.0052 -0.0526
   97poe     o2  731   0.139   0.275   6.118 -0.2213  0.0326  0.2492
   97poe    c31  732   0.055   0.303   6.009 -0.5825  0.3660  0.6093
   98poe    c31  733   0.137   0.934   2.600 -0.2829  0.2911 -0.0078
   98poe     o2  734   0.173   1.070   2.593  0.5524  0.0727 -0.0516
   98poe    c23  735   0.114   1.129   2.706  0.0965  0.3735 -0.4431
   98poe    c23  736   0.162   1.274   2.726  0.7904  0.0492  0.3055
   98poe     o2  737   0.217   1.313   2.602  0.4142  0.1084  0.1552
   98poe    c23  738   0.265   1.446   2.607  0.5965  0.0758 -0.6032
   98poe    c23  739   0.338   1.491   2.480  0.0637 -0.4593 -1.1013
   98poe     o2  740   0.369   1.364   2.424 -0.2707 -1.0695  0.0739
   98poe    c23  741   0.345   1.360   2.285  0.2785  0.1154 -0.0666
   98poe    c23  742   0.351   1.214   2.239  0.1310 -0.0011  0.2791
   98poe     o2  743   0.292   1.133   2.338 -0.8776  0.3263 -0.0450
   98poe    c31  744   0.252   1.014   2.275  0.5505 -0.1074 -0.1738
   99poe    c31  745   0.943   0.617   3.069 -0.5227 -0.3541  0.3604
   99poe     o2  746   0.940   0.507   2.980 -0.1479 -0.3311  0.3150
   99poe    c23  747   0.979   0.389   3.046 -0.2447 -0.1536  0.6915
   99poe    c23  748   0.968   0.265   2.956  0.1933  0.3146 -0.0122
   99poe     o2  749   0.844   0.286   2.893 -0.0790 -0.0798  0.3827
   99poe    c23  750   0.829   0.191   2.790 -0.1355 -0.2789  0.5744
   99poe    c23  751   0.718   0.237   2.693  0.2806 -0.0254  0.2159
   99poe     o2  752   0.688   0.370   2.728  0.1255 -0.1396  0.5284
   99poe    c23  753   0.595   0.428   2.639  0.1004  0.2871  0.8269
   99poe    c23  754   0.449   0.419   2.685 -0.1320  0.0695  0.0627
   99poe     o2  755   0.426   0.485   2.807 -0.1819  0.1377  0.0166
   99poe    c31  756   0.292   0.467   2.845 -0.0764  0.1803  0.4129
  100poe    c31  757   1.598   0.398   1.069 -1.0016  0.6493 -0.1688
  100poe     o2  758   1.723   0.375   1.007 -0.9436 -0.0954  0.2118
  100poe    c23  759   1.715   0.289   0.895  0.1438 -0.0429  0.0888
  100poe    c23  760   1.852   0.238   0.847 -0.0089  0.2454 -0.6738
  100poe     o2  761   1.950   0.331   0.886 -0.2974  0.3052 -0.0785
  100poe    c23  762   2.080   0.304   0.839 -0.5254 -0.1464 -0.4529
  100poe    c23  763   2.148   0.440   0.817 -0.1828 -0.2437 -0.0041
  100poe     o2  764   2.112   0.512   0.933  0.4106 -0.1308  0.1165
  100poe    c23  765   2.148   0.646   0.911  0.2147 -0.0915  0.0292
  100poe    c23  766   2.144   0.725   1.043  0.2484  0.2699 -0.1847
  100poe     o2  767   2.017   0.778   1.074  0.1772 -0.0659  0.0978
  100poe    c31  768   2.025   0.873   1.178  0.3063  0.2990 -0.2432
  101poe    c31  769   0.820   2.013   1.792 -0.6658 -0.0888 -0.2805
  101poe     o2  770   0.724   2.094   1.857 -0.1971 -0.0230  0.3517
  101poe    c23  771   0.620   2.115   1.764 -0.0001 -0.6626 -0.0262
  101poe    c23  772   0.511   2.192   1.841  0.0481 -0.4235 -0.1945
  101poe     o2  773   0.580   2.304   1.893 -0.3843 -0.0934 -0.3206
  101poe    c23  774   0.498   2.374   1.984  0.0757 -0.5449  0.4594
  101poe    c23  775   0.569   2.491   2.054 -0.1402  0.0273 -0.2572
  101poe     o2  776   0.675   2.436   2.129 -0.7396 -0.2423  0.4049
  101poe    c23  777   0.746   2.520   2.218 -0.1425 -0.4352  0.1119
  101poe    c23  778   0.865   2.440   2.275  0.5133  0.4896  0.0661
  101poe     o2  779   0.821   2.353   2.377  0.2021  0.5894  0.0197
  101poe    c31  780   0.925   2.262   2.408 -0.5387 -0.0079  0.8122
  102poe    c31  781   0.050   1.149   5.712  0.4220  0.6657 -0.1329
  102poe     o2  782   0.148   1.096   5.625  0.3709  0.4195 -0.0422
  102poe    c23  783   0.095   1.016   5.523  0.1915 -0.0761  0.4335
  102poe    c23  784   0.220   0.975   5.442 -0.1918 -0.2951 -0.0589
  102poe     o2  785   0.336   0.963   5.522  0.0129  0.0870 -0.2928
  102poe    c23  786   0.455   0.920   5.461  0.1372 -0.0160  0.0221
  102poe    c23  787   0.562   0.899   5.570  0.1855 -0.0733 -0.0362
  102poe     o2  788   0.548   1.010   5.656  1.1085 -0.0949  0.1573
  102poe    c23  789   0.558   0.971   5.791 -0.6821 -0.4383  0.2143
  102poe    c23  790   0.503   1.082   5.882  0.1782  0.0985  0.0891
  102poe     o2  791   0.380   1.126   5.830  0.0788 -0.1337  0.1254
  102poe    c31  792   0.315   1.214   5.919 -0.2801  0.7879 -1.0098
  103poe    c31  793   1.198   1.495   1.105 -0.1881 -0.0704 -0.1236
  103poe     o2  794   1.104   1.583   1.047 -0.3508  0.1422  0.4598
  103poe    c23  795   0.986   1.520   1.003 -0.2540  0.1477  0.1921
  103poe    c23  796   0.883   1.618   0.945 -0.0670  0.0879 -0.2443
  103poe     o2  797   0.910   1.737   1.015 -0.3287  0.1039 -0.1700
  103poe    c23  798   0.846   1.842   0.946 -0.1231  0.1389 -0.3088
  103poe    c23  799   0.872   1.974   1.021 -0.2985  0.1398 -0.2478
  103poe     o2  800   1.012   1.989   1.037 -0.2928  0.0477 -0.2076
  103poe    c23  801   1.037   2.126   1.055 -0.0832 -0.0720  0.4407
  103poe    c23  802   1.189   2.146   1.045 -0.1108  0.0538  0.2495
  103poe     o2  803   1.254   2.074   1.148 -0.2383  0.1605  0.4062
  103poe    c31  804   1.394   2.075   1.132 -0.2800  0.3417  0.0315
  104poe    c31  805   1.383   1.061   5.282 -0.1696 -0.5816  0.1897
  104poe     o2  806   1.283   1.159   5.296  0.8322  0.4930 -0.0585
  104poe    c23  807   1.278   1.237   5.179  0.0084 -0.0719 -0.4081
  104poe    c23  808   1.225   1.377   5.213 -0.0284 -0.2151  0.1273
  104poe     o2  809   1.088   1.352   5.232 -0.1083 -0.0626 -0.2547
  104poe    c23  810   1.016   1.473   5.239  0.7494  0.4489 -0.1734
  104poe    c23  811   0.872   1.433   5.274  0.9373  0.1857  0.2997
  104poe     o2  812   0.886   1.361   5.394 -0.0688 -0.9677 -0.2466
  104poe    c23  813   0.760   1.323   5.444 -0.1915 -0.1186  0.1118
  104poe    c23  814   0.773   1.326   5.597 -0.3907 -0.4904  0.1377
  104poe     o2  815   0.900   1.280   5.635  0.0614  0.1581 -0.5569
  104poe    c31  816   0.933   1.321   5.766 -0.1690 -0.0309 -0.4379
  105poe    c31  817   0.440   0.385   1.071 -0.1591  0.2521  0.7401
  105poe     o2  818   0.327   0.300   1.065 -0.2781  0.4323  0.4290
  105poe    c23  819   0.221   0.392   1.077 -0.3933  0.3052  0.3835
  105poe    c23  820   0.103   0.321   1.145 -0.2311 -0.1756  0.1674
  105poe     o2  821   0.104   0.199   1.075 -0.0636  0.1646 -0.4212
  105poe    c23  822   0.009   0.108   1.124  0.0199  0.4078  0.1946
  105poe    c23  823   0.026  -0.021   1.042  0.1462  0.3314  0.3384
  105poe     o2  824   0.165  -0.037   1.051  0.1089 -0.2621 -0.0451
  105poe    c23  825   0.216  -0.112   0.943 -0.3135 -0.3254 -0.2006
  105poe    c23  826   0.369  -0.094   0.934 -0.3017 -0.0285  0.5258
  105poe     o2  827   0.399   0.042   0.953  0.1758 -0.0659  0.0670
  105poe    c31  828   0.515   0.073   0.880 -0.0538  0.7657  0.0440
  106poe    c31  829   1.586   0.909   3.832  0.5301 -0.3414 -0.0430
  106poe     o2  830   1.452   0.886   3.796  0.4621 -0.0152  0.0019
  106poe    c23  831   1.378   1.003   3.823  0.6365  0.0603  0.1485
  106poe    c23  832   1.234   0.979   3.774  1.0585 -0.7558 -0.7030
  106poe     o2  833   1.190   0.854   3.821  0.3968 -0.2955 -0.0808
  106poe    c23  834   1.052   0.827   3.811  0.2601  0.2884  0.2515
  106poe    c23  835   1.013   0.711   3.904  0.8013  0.0325  0.1607
  106poe     o2  836   1.073   0.589   3.865  0.1218 -0.0917 -0.5307
  106poe    c23  837   1.036   0.479   3.945  0.2362  0.2682  0.0226
  106poe    c23  838   1.151   0.378   3.959  0.4549  0.5692  0.4407
  106poe     o2  839   1.263   0.416   4.036  0.6378  0.3261  0.2981
  106poe    c31  840   1.351   0.310   4.067 -0.0267 -0.4324 -0.3536
  107poe    c31  841   0.456   0.149   4.392  0.4916 -0.0515 -0.1232
  107poe     o2  842   0.400   0.074   4.287  0.2420 -0.1362  0.0686
  107poe    c23  843   0.286   0.003   4.328 -0.4043  0.5087 -0.5791
  107poe    c23  844   0.235  -0.066   4.200 -0.0159  0.7319 -0.8540
  107poe     o2  845   0.340  -0.127   4.128 -0.1010  0.0417 -0.3998
  107poe    c23  846   0.287  -0.178   4.007  0.1575 -0.3835 -0.3329
  107poe    c23  847   0.389  -0.197   3.894  0.4085  0.0224 -0.1752
  107poe     o2  848   0.441  -0.068   3.867  0.0356  0.3476  0.6225
  107poe    c23  849   0.533  -0.055   3.761 -0.7762 -0.7229 -0.2396
  107poe    c23  850   0.517   0.079   3.687 -0.2860 -0.4206  0.1970
  107poe     o2  851   0.549   0.190   3.768  0.0309 -0.3127 -0.0712
  107poe    c31  852   0.557   0.310   3.693  0.0400 -0.1367  0.2115
  108poe    c31  853   0.106   1.755   0.627 -0.1138 -0.1284 -0.5879
  108poe     o2  854   0.064   1.661   0.531  0.0402 -0.3836 -0.4091
  108poe    c23  855  -0.072   1.680   0.499 -0.0612  0.0515  0.2522
  108poe    c23  856  -0.114   1.570   0.399 -0.0687  0.1168  0.1837
  108poe     o2  857  -0.119   1.450   0.473  0.4620  0.0742  0.1562
  108poe    c23  858  -0.166   1.348   0.389  0.1050  0.3101  0.0657
  108poe    c23  859  -0.169   1.219   0.472  0.0371 -0.0026 -0.4186
  108poe     o2  860  -0.050   1.195   0.542 -0.3200  0.4793  0.3679
  108poe    c23  861  -0.072   1.081   0.623 -0.0141 -0.1042 -0.3528
  108poe    c23  862   0.061   1.065   0.699 -0.1988  0.5893  0.1287
  108poe     o2  863   0.080   1.195   0.749 -0.1739  0.5765  0.1526
  108poe    c31  864   0.191   1.210   0.836 -0.1467 -0.3280  0.2839
  109lim     li  865   0.674   2.213   5.326  0.1302  0.4827 -1.4367
  110lim     li  866   1.868   1.905   5.124 -0.0841 -0.4698  0.0498
  111lim     li  867   0.727   0.001   1.978  0.0469  0.0899  0.1813
  112lim     li  868   0.637   1.592   0.214  0.0621 -1.4022 -0.5829
  113lim     li  869   0.439   0.587   5.026 -0.3440 -0.4089 -0.2372
  114lim     li  870   1.641   0.531   0.183  0.1351  0.2519 -0.0036
  115lim     li  871   0.485  -0.004   4.131 -0.4546 -0.7519  0.1432
  116lim     li  872   0.401   0.991   3.227 -0.6246 -0.5416  0.7870
  117lim     li  873   1.684   1.595   4.527 -0.5441 -0.7030 -1.0733
  118lim     li  874   1.794   1.556   2.549  0.0899  0.0499  0.1887
  119lim     li  875   0.285   1.176   2.504  0.0144 -0.0604 -0.0356
  120lim     li  876   1.902   0.102   3.759 -0.2775  0.8123  0.1754
  121lim     li  877   0.848   0.956   2.102 -0.2393 -0.4284  0.6124
  122lim     li  878   1.140   0.732   4.544  1.4350  0.8034 -0.2713
  123lim     li  879   1.014   1.001   0.399 -0.5910 -0.2219 -0.8349
  124lim     li  880   1.109   2.177   3.705 -1.0209 -0.8562 -0.4461
  125lim     li  881   1.706   0.791   4.677  0.7042 -1.6676 -0.3817
  126lim     li  882   1.750   1.575   0.848 -0.4347  1.0672 -0.4740
  127lim     li  883   1.335   1.899   0.074  0.2381 -1.0634 -0.4223
  128lim     li  884   0.316   1.101   5.670 -0.3643  0.4330 -0.8344
  129lim     li  885   1.189   2.027   4.839  0.4883  0.2205  1.1731
  130lim     li  886   0.225   1.916   3.380 -0.4259  0.5955  0.1555
  131lim     li  887   1.635   1.512   5.825  0.8111  0.6950  0.5019
  132lim     li  888   1.751   1.118   3.131 -0.8221 -0.4162  0.3110
  133lim     li  889   0.662   1.544   1.529 -0.4709  0.2262 -0.6091
  134lim     li  890   0.281   0.132   1.064  1.1016  0.7551  0.4689
  135lim     li  891   1.086   1.789   1.039  0.1126  0.0641 -0.6009
  136lim     li  892   0.926   1.804   2.267 -0.1731 -0.6710 -0.6639
  137lim     li  893   1.889   0.426   1.009  0.9930 -0.4503  0.6451
  138lim     li  894   1.073   0.124   0.481  1.2695 -0.7648 -1.4183
  139lim     li  895   1.645   0.218   2.980 -0.2633 -0.5333  0.4222
  140lim     li  896   1.775   0.635   5.519 -0.2451  0.7729 -0.7859
  141lim     li  897   1.655   1.585   1.773  0.7992  0.1194  0.4430
  142lim     li  898   1.426   1.491   3.844 -0.4510  0.1310  0.1216
  143lim     li  899   1.665   0.636   2.307 -1.4775  0.9632  1.0703
  144lim     li  900   0.166   2.084   2.703  0.3975 -0.3090  0.6097
  145lim     li  901   1.332   0.752   3.807  0.3348  0.4156  0.3915
  146lim     li  902  -0.017   2.109   1.822  0.1190 -0.1025  0.5519
  147lim     li  903   2.207   2.044   6.069  1.1342  0.5411  1.4468
  148lim     li  904   0.180   0.722   0.087  0.8583  0.5566 -0.9713
  149lim     li  905   0.361   1.634   4.435 -0.7626  1.2679 -0.1346
  150lim     li  906   0.794   0.461   2.838 -0.7805 -0.4981 -1.0327
  151lim     li  907   1.095   1.468   3.126 -0.5281 -0.7547  0.2853
  152lim     li  908   0.537   0.976   1.241 -0.4244  1.4440 -0.4762
  153lim     li  909   1.454   1.011   1.199  0.4534  0.4347 -0.3514
  154lim     li  910   0.372   1.069   3.884 -0.7529  1.1384 -0.5404
  155lim     li  911   1.949   0.564   1.909  0.1813  0.1966 -0.0729
  156lim     li  912   1.046   0.270   1.410 -0.5208  1.2846 -0.3508
  157lim     li  913   1.210   0.250   5.738  0.7439 -0.5491 -0.9718
  158lim     li  914   0.511   0.374   6.151 -1.8337 -0.2740  0.5779
  159lim     li  915   0.015   1.328   0.626 -0.3176 -0.6270  0.4785
  160lim     li  916   0.064   1.475   5.077 -1.1829  0.3796 -0.4069
  161lim     li  917   1.013   1.273   5.487 -0.0084 -1.7419 -0.2397
  162lim     li  918   0.076   0.477   4.298 -0.0322  0.2310  0.9026
  163ntf    cn1  919   0.236   1.908   1.368 -0.1693 -0.2289 -0.0458
  163ntf    sn2  920   0.380   1.990   1.443 -0.3267 -0.0935  0.1093
  163ntf    nn3  921   0.466   1.858   1.448  0.1584  0.2085 -0.1461
  163ntf    sn2  922   0.611   1.836   1.395  0.0699  0.2512 -0.4064
  163ntf    cn1  923   0.577   1.809   1.218 -0.2821 -0.0912 -0.2872
  163ntf    fn4  924   0.147   2.005   1.360  0.3637  0.2448 -0.2550
  163ntf    fn4  925   0.251   1.861   1.246  0.3284 -0.3668  0.0651
  163ntf    fn4  926   0.173   1.813   1.435  0.0316 -0.1722  0.2296
  163ntf    on5  927   0.415   2.087   1.342 -0.6336 -0.2878 -0.1847
  163ntf    on5  928   0.334   2.047   1.567 -0.3995  0.0297  0.0259
  163ntf    on5  929   0.662   1.711   1.446  0.1195  0.1934 -0.5947
  163ntf    on5  930   0.695   1.953   1.400 -0.2198  0.4282  0.4125
  163ntf    fn4  931   0.473   1.729   1.202 -0.3978  0.0254 -0.1379
  163ntf    fn4  932   0.541   1.925   1.165  0.3185  0.2872  0.1219
  163ntf    fn4  933   0.680   1.762   1.151  0.2119  0.0865  0.3380
  164ntf    cn1  934   1.581   1.537   0.220  0.0508 -0.0367 -0.1489
  164ntf    sn2  935   1.724   1.426   0.205 -0.1118 -0.2408 -0.1952
  164ntf    nn3  936   1.842   1.529   0.193 -0.7833  0.5313 -0.2134
  164ntf    sn2  937   1.885   1.590   0.055 -0.0006  0.0011 -0.2065
  164ntf    cn1  938   2.018   1.478   0.001  0.1628  0.0460  0.0977
  164ntf    fn4  939   1.470   1.470   0.246 -0.0336  0.1451 -0.0377
  164ntf    fn4  940   1.600   1.635   0.306  0.2457  0.0809 -0.3243
  164ntf    fn4  941   1.562   1.596   0.103  0.2766 -0.6031 -0.4762
  164ntf    on5  942   1.725   1.361   0.334  0.6092  0.6323  0.2543
  164ntf    on5  943   1.695   1.339   0.094 -0.7843 -0.3635  0.0717
  164ntf    on5  944   1.961   1.710   0.082  0.7255 -0.4650 -0.1244
  164ntf    on5  945   1.786   1.590  -0.049 -0.0250 -0.2381 -0.1842
  164ntf    fn4  946   2.125   1.490   0.078  0.0045 -0.3371  0.3829
  164ntf    fn4  947   1.987   1.349   0.005  0.0330  0.0970  0.8387
  164ntf    fn4  948   2.052   1.503  -0.124 -0.4029  0.6159  0.0514
  165ntf    cn1  949   1.736   0.138   1.350 -0.0749  0.2550  0.3342
  165ntf    sn2  950   1.898   0.075   1.404  0.0453  0.0944 -0.2051
  165ntf    nn3  951   1.883  -0.069   1.343  0.2815 -0.1681  0.3503
  165ntf    sn2  952   1.929  -0.206   1.404  0.4439 -0.1686  0.2264
  165ntf    cn1  953   2.098  -0.215   1.338  0.3771  0.0572  0.0222
  165ntf    fn4  954   1.640   0.091   1.428 -0.2653 -0.0776 -0.1029
  165ntf    fn4  955   1.729   0.270   1.359 -0.3808  0.2945 -0.4010
  165ntf    fn4  956   1.698   0.113   1.226 -0.7266  0.0016  0.5774
  165ntf    on5  957   1.986   0.154   1.322  0.2560  0.2027  0.1209
  165ntf    on5  958   1.895   0.094   1.547 -0.8128  0.1268 -0.2170
  165ntf    on5  959   1.867  -0.321   1.341  0.1944  0.2604 -0.3217
  165ntf    on5  960   1.948  -0.199   1.546  0.0807 -0.2707  0.2816
  165ntf    fn4  961   2.157  -0.329   1.371  0.2000 -0.0004  0.1391
  165ntf    fn4  962   2.091  -0.201   1.207  0.3159 -0.4124 -0.0280
  165ntf    fn4  963   2.174  -0.117   1.384  0.0746  0.3077 -0.0085
  166ntf    cn1  964   0.699   1.191   3.520 -0.4255 -0.2136 -0.1603
  166ntf    sn2  965   0.552   1.085   3.506 -0.2647 -0.4544 -0.0465
  166ntf    nn3  966   0.616   0.949   3.552  0.3413 -0.2995 -0.4183
  166ntf    sn2  967   0.597   0.885   3.694 -0.0906 -0.0791 -0.3733
  166ntf    cn1  968   0.513   0.731   3.647 -0.4257 -0.0476  0.1227
  166ntf    fn4  969   0.671   1.310   3.472  0.3197  0.1222  0.2213
  166ntf    fn4  970   0.739   1.210   3.645 -0.0217 -0.3922 -0.2593
  166ntf    fn4  971   0.812   1.151   3.463 -0.5036 -0.4049 -0.1830
  166ntf    on5  972   0.451   1.149   3.588 -0.3730 -0.5135 -0.1337
  166ntf    on5  973   0.526   1.087   3.364 -0.3361 -0.1848 -0.0300
  166ntf    on5  974   0.502   0.946   3.784  0.5972 -0.7429  0.8281
  166ntf    on5  975   0.726   0.846   3.745 -0.2434 -0.3366 -0.1808
  166ntf    fn4  976   0.592   0.640   3.593 -0.2370  0.0767  0.1873
  166ntf    fn4  977   0.456   0.675   3.752 -0.0155 -0.2032  0.2635
  166ntf    fn4  978   0.416   0.758   3.561 -0.2201 -0.1689 -0.1486
  167ntf    cn1  979   1.707   1.240   5.130  0.0994  0.7318 -0.3174
  167ntf    sn2  980   1.807   1.349   5.235  0.0087  0.3777  0.1410
  167ntf    nn3  981   1.898   1.240   5.303 -0.2161  0.3278  0.3603
  167ntf    sn2  982   1.900   1.177   5.447 -0.0854  0.0290  0.2265
  167ntf    cn1  983   2.016   1.290   5.529  0.3733 -0.3019  0.0417
  167ntf    fn4  984   1.598   1.294   5.078 -0.5760 -0.6254 -0.3595
  167ntf    fn4  985   1.778   1.195   5.028 -0.7085 -0.0334 -0.5478
  167ntf    fn4  986   1.658   1.135   5.194  0.1739  0.4836 -0.6666
  167ntf    on5  987   1.889   1.429   5.146 -0.0087 -0.0459 -0.2580
  167ntf    on5  988   1.715   1.421   5.319 -0.6428 -0.2692 -0.0167
  167ntf    on5  989   1.962   1.047   5.454 -0.0633  0.0676  0.7815
  167ntf    on5  990   1.782   1.197   5.527 -0.2378 -0.2544  0.0767
  167ntf    fn4  991   1.976   1.416   5.525  0.3340 -0.3191 -0.1073
  167ntf    fn4  992   2.023   1.267   5.659 -0.0491 -0.1378  0.0984
  167ntf    fn4  993   2.139   1.278   5.482  0.3053  0.7805 -0.4443
  168ntf    cn1  994   1.223   1.142   1.937 -0.0351  0.2687  0.0557
  168ntf    sn2  995   1.112   1.195   1.804 -0.1641 -0.2345 -0.0403
  168ntf    nn3  996   1.072   1.056   1.745 -0.3696 -0.0642 -0.3080
  168ntf    sn2  997   0.960   0.952   1.781 -0.1528 -0.1532  0.1176
  168ntf    cn1  998   1.057   0.806   1.735  0.0759  0.0558 -0.0681
  168ntf    fn4  999   1.337   1.098   1.886 -0.2712 -0.2537 -0.0323
  168ntf    fn4 1000   1.264   1.243   2.012  0.0553 -0.0628  0.4595
  168ntf    fn4 1001   1.170   1.045   2.010  0.0111 -0.0622 -0.3475
  168ntf    on5 1002   1.005   1.262   1.874  0.0286 -0.8534  0.8505
  168ntf    on5 1003   1.201   1.266   1.715 -0.1416 -0.0894  0.0970
  168ntf    on5 1004   0.846   0.955   1.692 -0.0462 -0.0918 -0.0168
  168ntf    on5 1005   0.947   0.939   1.924  0.4905 -0.1011  0.1832
  168ntf    fn4 1006   0.997   0.697   1.781  0.1670  0.0256 -0.0204
  168ntf    fn4 1007   1.076   0.783   1.606  0.3034  0.4686 -0.1081
  168ntf    fn4 1008   1.175   0.794   1.794 -0.0313  0.2872  0.1948
  169ntf    cn1 1009   1.270   1.787   4.133  0.1212  0.8019  0.4439
  169ntf    sn2 1010   1.333   1.812   3.964  0.0994 -0.0594  0.3047
  169ntf    nn3 1011   1.208   1.870   3.890  0.3196 -0.3603 -0.3085
  169ntf    sn2 1012   1.161   1.857   3.741  0.0569  0.1566 -0.2729
  169ntf    cn1 1013   1.003   1.773   3.774 -0.0375  0.2037 -0.5907
  169ntf    fn4 1014   1.360   1.741   4.219  0.2270 -0.0567 -0.1139
  169ntf    fn4 1015   1.209   1.890   4.188 -0.2074  0.6264  0.4099
  169ntf    fn4 1016   1.182   1.689   4.142  0.3367  0.5929  0.2974
  169ntf    on5 1017   1.442   1.906   3.973 -0.1376  0.2867 -0.3635
  169ntf    on5 1018   1.359   1.676   3.923 -0.1746 -0.0812  0.2052
  169ntf    on5 1019   1.228   1.761   3.656 -0.3180 -0.0182 -0.3750
  169ntf    on5 1020   1.115   1.980   3.680 -0.3670  0.2944  0.3159
  169ntf    fn4 1021   0.938   1.835   3.872  0.0331  0.3173 -0.6155
  169ntf    fn4 1022   0.920   1.769   3.672 -0.2297  0.5849 -0.4502
  169ntf    fn4 1023   1.021   1.646   3.807 -0.0113  0.3327 -0.0863
  170ntf    cn1 1024   1.163   0.884   5.825 -0.2771 -0.0602  0.0667
  170ntf    sn2 1025   1.122   0.872   6.002  0.3184 -0.2564  0.1935
  170ntf    nn3 1026   0.987   0.951   6.009 -0.1388 -1.0012 -0.0159
  170ntf    sn2 1027   0.893   0.983   6.131  0.1442  0.0724 -0.0706
  170ntf    cn1 1028   0.921   1.162   6.145  0.2253  0.0591 -0.0594
  170ntf    fn4 1029   1.082   0.807   5.754  0.5282 -0.2811 -0.6299
  170ntf    fn4 1030   1.164   1.006   5.776 -0.6913  0.0213  0.2487
  170ntf    fn4 1031   1.283   0.833   5.807 -0.1558  0.3868 -0.4074
  170ntf    on5 1032   1.104   0.735   6.045 -0.8977 -0.0900  0.2741
  170ntf    on5 1033   1.236   0.938   6.059 -0.3159  0.8011  0.2492
  170ntf    on5 1034   0.942   0.936   6.258 -0.0145 -0.3962 -0.1801
  170ntf    on5 1035   0.751   0.973   6.111  0.1079 -0.0851  0.2668
  170ntf    fn4 1036   0.862   1.239   6.054  0.0731  0.2437  0.1927
  170ntf    fn4 1037   0.876   1.211   6.259  0.1609 -0.3141  0.0734
  170ntf    fn4 1038   1.048   1.196   6.131  0.1047  0.4206 -0.3100
  171ntf    cn1 1039   1.498   0.020   0.008  0.0759 -0.6367 -0.1150
  171ntf    sn2 1040   1.372  -0.012   0.135  0.0252 -0.1966 -0.0508
  171ntf    nn3 1041   1.241   0.052   0.078  0.1379  0.2824  0.2284
  171ntf    sn2 1042   1.132   0.138   0.152 -0.2557 -0.2068  0.2149
  171ntf    cn1 1043   0.983   0.036   0.128 -0.2875 -0.1281  0.0773
  171ntf    fn4 1044   1.523   0.150  -0.003 -0.2385 -0.6165 -0.6183
  171ntf    fn4 1045   1.612  -0.039   0.040  0.1881 -0.2825  0.1485
  171ntf    fn4 1046   1.469  -0.032  -0.110 -0.0067 -0.0944 -0.3375
  171ntf    on5 1047   1.344  -0.153   0.123  0.4545 -0.2967  0.0873
  171ntf    on5 1048   1.423   0.036   0.261  0.2469 -0.0281 -0.2031
  171ntf    on5 1049   1.110   0.265   0.087  0.2723 -0.2780 -0.1092
  171ntf    on5 1050   1.139   0.144   0.296  0.3030  0.0029  0.1797
  171ntf    fn4 1051   0.992  -0.085   0.178 -0.0631  0.1234  0.6499
  171ntf    fn4 1052   0.878   0.093   0.186 -0.2408 -0.3847  0.4151
  171ntf    fn4 1053   0.954   0.024  -0.001  0.1842 -0.7753  0.0274
  172ntf    cn1 1054   0.801   0.531   4.172 -0.0639  0.0021 -0.3826
  172ntf    sn2 1055   0.807   0.492   4.349 -0.1356  0.0742 -0.3650
  172ntf    nn3 1056   0.912   0.376   4.358 -0.0197  0.1276 -1.0117
  172ntf    sn2 1057   0.882   0.223   4.340 -0.1951  0.0027  0.2268
  172ntf    cn1 1058   0.865   0.165   4.511  0.2361  0.0116  0.2719
  172ntf    fn4 1059   0.688   0.590   4.138 -0.0291  0.1860 -0.1758
  172ntf    fn4 1060   0.902   0.608   4.135  0.3174 -0.3373 -0.0560
  172ntf    fn4 1061   0.804   0.417   4.103  0.1900  0.1542 -0.6267
  172ntf    on5 1062   0.868   0.610   4.405  0.2421 -0.5431  0.5534
  172ntf    on5 1063   0.674   0.456   4.394 -0.0474  0.0685 -0.1067
  172ntf    on5 1064   0.999   0.163   4.282  0.0149  0.3644  0.2692
  172ntf    on5 1065   0.760   0.185   4.272  0.2538 -0.0300 -0.5762
  172ntf    fn4 1066   0.844   0.035   4.515 -0.0645  0.0414 -0.3072
  172ntf    fn4 1067   0.971   0.183   4.589  0.5665 -0.2718 -0.1037
  172ntf    fn4 1068   0.766   0.227   4.572 -0.3909  0.0334 -0.7437
  173ntf    cn1 1069   1.923   0.772   3.932 -0.0160 -0.1032  0.0691
  173ntf    sn2 1070   1.986   0.627   4.022 -0.1545 -0.2776 -0.1120
  173ntf    nn3 1071   1.864   0.589   4.114 -0.3754 -0.0522 -0.3124
  173ntf    sn2 1072   1.760   0.474   4.089 -0.0894 -0.3075 -0.3318
  173ntf    cn1 1073   1.703   0.458   4.261  0.2132  0.5378 -0.1481
  173ntf    fn4 1074   1.845   0.733   3.832  0.2144  0.3853 -0.3076
  173ntf    fn4 1075   1.858   0.855   4.010 -0.0251  0.0261 -0.0746
  173ntf    fn4 1076   2.019   0.841   3.873 -0.1909 -0.2165 -0.3529
  173ntf    on5 1077   2.026   0.542   3.913 -0.0889  0.1633 -0.4353
  173ntf    on5 1078   2.093   0.690   4.096  0.4079  0.1099 -1.2389
  173ntf    on5 1079   1.815   0.345   4.057  0.4399 -0.3099  0.5585
  173ntf    on5 1080   1.648   0.522   4.013 -0.2557  0.0729  0.1456
  173ntf    fn4 1081   1.609   0.366   4.265  0.3719  0.3964  0.3275
  173ntf    fn4 1082   1.797   0.414   4.343  0.2251 -0.0101 -0.4491
  173ntf    fn4 1083   1.658   0.570   4.316 -0.6150  0.0595  0.1603
  174ntf    cn1 1084   2.029   0.653   3.279 -0.1825  0.0301 -0.0928
  174ntf    sn2 1085   2.134   0.745   3.162 -0.3046  0.4567  0.1276
  174ntf    nn3 1086   2.069   0.698   3.027 -0.3306  0.7089  0.0526
  174ntf    sn2 1087   2.060   0.778   2.892 -0.5772  0.2197 -0.2241
  174ntf    cn1 1088   2.105   0.655   2.766 -0.3462 -0.1829  0.2463
  174ntf    fn4 1089   1.900   0.669   3.253 -0.1275  0.4962 -0.0968
  174ntf    fn4 1090   2.055   0.524   3.270 -0.0615 -0.0024  0.6312
  174ntf    fn4 1091   2.048   0.687   3.406  0.1174 -0.1203 -0.0992
  174ntf    on5 1092   2.107   0.883   3.191 -0.2841  0.5312 -0.2063
  174ntf    on5 1093   2.265   0.691   3.190 -0.5287 -0.1579  0.0232
  174ntf    on5 1094   2.159   0.882   2.879 -0.2512 -0.1075 -0.3575
  174ntf    on5 1095   1.923   0.803   2.855 -0.8491 -0.2523  0.4513
  174ntf    fn4 1096   2.231   0.617   2.764 -0.3291 -0.1129 -0.1445
  174ntf    fn4 1097   2.040   0.540   2.774  0.4957 -0.6895 -0.1619
  174ntf    fn4 1098   2.089   0.699   2.642  0.2656  0.0871  0.2620
  175ntf    cn1 1099   1.304   1.507   5.749 -0.1822  0.0605  0.1756
  175ntf    sn2 1100   1.243   1.523   5.579 -0.0116 -0.0099  0.1077
  175ntf    nn3 1101   1.210   1.677   5.580  0.5173  0.1109 -0.2605
  175ntf    sn2 1102   1.071   1.751   5.583  0.3987 -0.1305  0.4391
  175ntf    cn1 1103   1.131   1.911   5.644  0.4425 -0.0520  0.1937
  175ntf    fn4 1104   1.425   1.560   5.752  0.0204 -0.3931  0.0373
  175ntf    fn4 1105   1.227   1.564   5.840  0.0573 -0.0119  0.4255
  175ntf    fn4 1106   1.311   1.379   5.781  0.4001 -0.0025 -0.1950
  175ntf    on5 1107   1.367   1.507   5.506 -0.3103 -0.5177 -0.2971
  175ntf    on5 1108   1.130   1.437   5.555 -0.0214  0.0341 -0.0039
  175ntf    on5 1109   0.990   1.697   5.689  0.0050 -0.0978  0.1567
  175ntf    on5 1110   1.010   1.784   5.456  0.4691  0.5301  0.5753
  175ntf    fn4 1111   1.035   2.002   5.641 -0.1515 -0.6525  0.5975
  175ntf    fn4 1112   1.166   1.912   5.772 -0.2167 -0.0720  0.3769
  175ntf    fn4 1113   1.237   1.962   5.584 -0.3560  0.3637 -0.9050
  176ntf    cn1 1114   1.796   0.943   0.625 -0.4356  0.0082  0.3429
  176ntf    sn2 1115   1.675   0.812   0.658 -0.3434 -0.1194  0.1770
  176ntf    nn3 1116   1.554   0.890   0.721 -0.0914  0.0225  0.4844
  176ntf    sn2 1117   1.400   0.872   0.700 -0.0499 -0.0843  0.2694
  176ntf    cn1 1118   1.361   0.713   0.780  0.0365 -0.3269 -0.1696
  176ntf    fn4 1119   1.888   0.886   0.549 -0.1962  0.6470  0.1515
  176ntf    fn4 1120   1.752   1.046   0.555 -0.3200 -0.3356 -0.2408
  176ntf    fn4 1121   1.855   0.999   0.730 -0.1588 -0.1619  0.2797
  176ntf    on5 1122   1.653   0.740   0.535  0.1899 -0.3479  0.2143
  176ntf    on5 1123   1.733   0.748   0.773  0.0140  0.0585  0.0959
  176ntf    on5 1124   1.360   0.847   0.564  0.2632 -0.6656  0.2798
  176ntf    on5 1125   1.329   0.972   0.776 -0.4224  0.0719 -0.2848
  176ntf    fn4 1126   1.405   0.704   0.905 -0.3530 -0.0079 -0.0086
  176ntf    fn4 1127   1.232   0.686   0.783  0.1271 -0.7701 -0.1056
  176ntf    fn4 1128   1.414   0.609   0.718  0.1533  0.1403 -0.8625
  177ntf    cn1 1129   1.772   0.035   0.560  0.2077  0.1433  0.5353
  177ntf    sn2 1130   1.939  -0.038   0.566  0.1575 -0.0266 -0.0413
  177ntf    nn3 1131   1.988   0.018   0.428  0.0457  0.1150 -0.0239
  177ntf    sn2 1132   2.088   0.134   0.394  0.1243  0.1251  0.2395
  177ntf    cn1 1133   2.247   0.059   0.441  0.0307 -0.2023  0.0337
  177ntf    fn4 1134   1.684   0.004   0.653 -0.2261  0.5571  0.2658
  177ntf    fn4 1135   1.790   0.166   0.563 -0.4027  0.2344  0.2890
  177ntf    fn4 1136   1.711   0.010   0.445 -0.0455  0.4128  0.6121
  177ntf    on5 1137   2.001   0.023   0.681 -0.3579  0.2207  0.1094
  177ntf    on5 1138   1.908  -0.179   0.570  0.3905 -0.0759  0.0476
  177ntf    on5 1139   2.077   0.255   0.472  0.7912  0.2701  0.1201
  177ntf    on5 1140   2.104   0.149   0.251 -0.9586 -0.4418  0.0468
  177ntf    fn4 1141   2.276  -0.044   0.363 -0.2053  0.1666 -0.5502
  177ntf    fn4 1142   2.343   0.150   0.442  0.1412 -0.3184  0.0220
  177ntf    fn4 1143   2.255   0.023   0.568  0.1850  0.7526  0.3033
  178ntf    cn1 1144   1.125   0.514   5.210  0.3085  0.4235  0.1136
  178ntf    sn2 1145   1.134   0.695   5.201 -0.0505  0.4330 -0.0615
  178ntf    nn3 1146   0.982   0.730   5.178 -0.3122 -0.5866  0.0846
  178ntf    sn2 1147   0.894   0.834   5.255 -0.0822 -0.4274  0.1329
  178ntf    cn1 1148   0.901   0.965   5.129  0.5476  0.0016  0.6055
  178ntf    fn4 1149   1.071   0.452   5.106  0.4066 -0.2668  0.4705
  178ntf    fn4 1150   1.243   0.457   5.226  0.2331  0.2585  0.0790
  178ntf    fn4 1151   1.049   0.470   5.309  0.0222  0.3506 -0.1384
  178ntf    on5 1152   1.190   0.724   5.331  0.1267  0.0807 -0.0588
  178ntf    on5 1153   1.220   0.734   5.092  0.5322 -0.2125  0.1626
  178ntf    on5 1154   0.949   0.892   5.375 -0.0172 -0.2787  0.0330
  178ntf    on5 1155   0.755   0.798   5.260 -0.0620 -0.5544 -0.2164
  178ntf    fn4 1156   0.853   1.077   5.179 -1.1754 -0.3356 -0.2442
  178ntf    fn4 1157   1.024   0.984   5.083  0.3385  0.4091  0.2091
  178ntf    fn4 1158   0.827   0.936   5.024 -0.0956  1.1204  0.7358
  179ntf    cn1 1159   0.222   0.582   2.410 -0.6122 -0.4907  0.3410
  179ntf    sn2 1160   0.212   0.423   2.322 -0.1471 -0.0062 -0.6023
  179ntf    nn3 1161   0.070   0.378   2.373  0.3058  0.3075  0.9902
  179ntf    sn2 1162   0.028   0.245   2.446  0.0966 -0.1851 -0.0078
  179ntf    cn1 1163  -0.040   0.315   2.599 -0.1126 -0.1797 -0.1038
  179ntf    fn4 1164   0.321   0.658   2.365 -0.7821 -0.3570  0.1937
  179ntf    fn4 1165   0.112   0.654   2.397  0.0138  0.4626  0.2420
  179ntf    fn4 1166   0.233   0.564   2.541  0.3266 -0.2951  0.2975
  179ntf    on5 1167   0.208   0.466   2.185  0.0025 -0.1952 -0.6657
  179ntf    on5 1168   0.326   0.346   2.365  0.1936  0.6909 -0.2294
  179ntf    on5 1169   0.130   0.159   2.501  0.0689 -0.2219 -0.0146
  179ntf    on5 1170  -0.088   0.188   2.382  0.1780 -0.8241  0.4104
  179ntf    fn4 1171  -0.111   0.232   2.673  0.1642 -0.2963  0.0308
  179ntf    fn4 1172   0.055   0.366   2.675 -0.2166 -0.2327  0.0621
  179ntf    fn4 1173  -0.124   0.413   2.567  0.2537  0.1640 -0.0193
  180ntf    cn1 1174   0.052   1.318   1.760 -0.4565 -0.3694  0.3157
  180ntf    sn2 1175   0.104   1.402   1.912  0.1054  0.1854 -0.1726
  180ntf    nn3 1176   0.023   1.303   2.004  1.1316 -0.1552  0.3797
  180ntf    sn2 1177  -0.058   1.336   2.134  0.2038  0.1958 -0.2763
  180ntf    cn1 1178  -0.223   1.367   2.063  0.0429  0.2309  0.1118
  180ntf    fn4 1179   0.107   1.200   1.738 -0.3073 -0.2772  0.1910
  180ntf    fn4 1180  -0.078   1.294   1.761 -0.5574  0.1138 -0.1576
  180ntf    fn4 1181   0.075   1.390   1.651 -0.3272 -0.2589  0.4152
  180ntf    on5 1182   0.246   1.386   1.928  0.0386  0.6712  1.0459
  180ntf    on5 1183   0.055   1.538   1.901  0.7727  0.4508  0.0996
  180ntf    on5 1184  -0.028   1.462   2.198  0.4837 -0.1671  0.3087
  180ntf    on5 1185  -0.078   1.218   2.214 -0.1514  0.0463 -0.5817
  180ntf    fn4 1186  -0.308   1.415   2.152  0.0330  0.3097  0.0595
  180ntf    fn4 1187  -0.218   1.466   1.975 -0.4762 -0.0822 -0.2720
  180ntf    fn4 1188  -0.282   1.272   1.993  0.3676  0.3942 -0.3865
  181ntf    cn1 1189   1.179   1.546   0.570 -0.0713  0.3659 -0.1681
  181ntf    sn2 1190   1.153   1.725   0.586 -0.0592  0.3449  0.0957
  181ntf    nn3 1191   1.291   1.756   0.654  0.1586 -0.3943  0.0035
  181ntf    sn2 1192   1.321   1.801   0.802  0.0253 -0.1320 -0.0484
  181ntf    cn1 1193   1.429   1.662   0.847  0.0155 -0.0321  0.2811
  181ntf    fn4 1194   1.135   1.481   0.677  0.8414  0.1198  0.0714
  181ntf    fn4 1195   1.100   1.501   0.475  0.5374 -0.2719 -0.3805
  181ntf    fn4 1196   1.300   1.500   0.541 -0.2329  0.3395 -0.8091
  181ntf    on5 1197   1.164   1.763   0.447 -0.5010  0.0545 -0.0190
  181ntf    on5 1198   1.026   1.739   0.652 -0.2415 -0.0000 -0.1807
  181ntf    on5 1199   1.214   1.797   0.898  0.2529 -0.0955  0.2061
  181ntf    on5 1200   1.412   1.913   0.796  0.2807 -0.3382 -0.0668
  181ntf    fn4 1201   1.379   1.553   0.792  0.3736 -0.1703  0.2280
  181ntf    fn4 1202   1.555   1.675   0.808 -0.1246 -0.3006 -0.2664
  181ntf    fn4 1203   1.439   1.647   0.978  0.4698 -0.5500  0.1882
  182ntf    cn1 1204   1.331   0.010   1.989  0.0459  0.0765 -0.1813
  182ntf    sn2 1205   1.276   0.136   1.870 -0.1547 -0.0133 -0.1843
  182ntf    nn3 1206   1.129   0.158   1.920 -0.1347 -0.0549 -0.1061
  182ntf    sn2 1207   0.990   0.172   1.847 -0.1119 -0.0349 -0.1455
  182ntf    cn1 1208   0.957   0.348   1.882 -0.1074  0.0528 -0.5716
  182ntf    fn4 1209   1.261  -0.101   1.975  0.0362  0.0427  0.1187
  182ntf    fn4 1210   1.462  -0.008   1.988 -0.0057 -0.4942  1.0125
  182ntf    fn4 1211   1.299   0.054   2.110 -0.1516 -0.1007 -0.1671
  182ntf    on5 1212   1.359   0.250   1.900  0.0017 -0.1742  0.0009
  182ntf    on5 1213   1.293   0.065   1.746  0.5259  0.1314 -0.1765
  182ntf    on5 1214   0.877   0.111   1.911 -0.6375  0.5946 -0.4590
  182ntf    on5 1215   0.996   0.174   1.703  0.1932  0.2963 -0.1301
  182ntf    fn4 1216   1.039   0.441   1.837 -0.2118  0.6013  0.3431
  182ntf    fn4 1217   0.833   0.385   1.853 -0.2381  0.0355 -0.0577
  182ntf    fn4 1218   0.966   0.350   2.014 -0.0700  0.2278 -0.5770
  183ntf    cn1 1219   0.652   1.292   2.663 -0.0228  0.2237 -0.3725
  183ntf    sn2 1220   0.600   1.149   2.564  0.1917 -0.2195  0.1444
  183ntf    nn3 1221   0.678   1.041   2.646  0.8585 -0.0090 -0.2069
  183ntf    sn2 1222   0.629   0.902   2.700  0.0540  0.2788 -0.1939
  183ntf    cn1 1223   0.561   0.828   2.548 -0.2645  0.1191  0.0237
  183ntf    fn4 1224   0.784   1.297   2.670 -0.0198  0.2276 -0.4304
  183ntf    fn4 1225   0.604   1.405   2.616 -0.2403  0.2392 -0.1128
  183ntf    fn4 1226   0.605   1.288   2.787 -0.0159  0.1898 -0.3708
  183ntf    on5 1227   0.457   1.146   2.585  0.1065  0.0606 -0.3646
  183ntf    on5 1228   0.650   1.166   2.429  0.2501 -0.0671  0.1856
  183ntf    on5 1229   0.524   0.906   2.799 -0.6762  0.5341 -0.9656
  183ntf    on5 1230   0.746   0.821   2.718  0.1452  0.4365 -0.0793
  183ntf    fn4 1231   0.462   0.896   2.494 -0.3300 -0.0253 -0.0385
  183ntf    fn4 1232   0.648   0.806   2.451  0.0894 -0.0729  0.3799
  183ntf    fn4 1233   0.500   0.714   2.575  0.0836  0.0349  0.4703
  184ntf    cn1 1234   1.400   0.606   2.886 -0.1571 -0.3372 -0.2974
  184ntf    sn2 1235   1.367   0.446   2.806 -0.0781 -0.2769 -0.4506
  184ntf    nn3 1236   1.358   0.483   2.654  0.6156  0.5620 -0.2910
  184ntf    sn2 1237   1.235   0.536   2.573  0.2380  0.1650  0.0207
  184ntf    cn1 1238   1.143   0.384   2.535 -0.0348  0.2231  0.4397
  184ntf    fn4 1239   1.302   0.690   2.856 -0.1845 -0.0124  0.6631
  184ntf    fn4 1240   1.403   0.596   3.018 -0.1571 -0.1847 -0.2857
  184ntf    fn4 1241   1.511   0.665   2.845  0.0818 -0.4458  0.1765
  184ntf    on5 1242   1.493   0.380   2.829  0.0445 -0.0411 -0.4464
  184ntf    on5 1243   1.252   0.385   2.869  0.0672  0.1033  0.1894
  184ntf    on5 1244   1.276   0.589   2.445 -0.7575  0.0783 -0.3425
  184ntf    on5 1245   1.146   0.623   2.646 -0.0944 -0.4193  0.3146
  184ntf    fn4 1246   1.127   0.306   2.641  0.6749  0.4387  0.7113
  184ntf    fn4 1247   1.024   0.413   2.486  0.0658  0.1025  0.1192
  184ntf    fn4 1248   1.198   0.305   2.444  0.2926  0.1074  0.7347
  185ntf    cn1 1249   0.966   1.139   1.355  0.1114  0.0575  0.0061
  185ntf    sn2 1250   0.917   1.071   1.194 -0.1615 -0.4707  0.3074
  185ntf    nn3 1251   0.855   1.198   1.124 -0.5458 -0.9058 -0.1474
  185ntf    sn2 1252   0.706   1.246   1.114 -0.2514  0.0401 -0.0866
  185ntf    cn1 1253   0.683   1.221   0.936  0.2974 -0.4289 -0.0954
  185ntf    fn4 1254   1.055   1.237   1.350 -0.3588  0.5057  0.2330
  185ntf    fn4 1255   0.859   1.198   1.408  0.3411  0.0083  0.5275
  185ntf    fn4 1256   0.997   1.045   1.443 -0.1729 -0.1652 -0.1318
  185ntf    on5 1257   1.040   1.031   1.129 -0.2194  0.0129 -0.1147
  185ntf    on5 1258   0.822   0.967   1.222 -0.4969 -0.3694 -0.4193
  185ntf    on5 1259   0.684   1.386   1.138 -0.0810  0.0242  0.1781
  185ntf    on5 1260   0.613   1.148   1.166 -0.3082  0.4790  0.6561
  185ntf    fn4 1261   0.725   1.105   0.887 -0.2679 -0.5817 -0.2259
  185ntf    fn4 1262   0.557   1.237   0.899  0.2689  0.1387  0.2501
  185ntf    fn4 1263   0.750   1.310   0.865  0.4713 -0.0335  0.5620
  186ntf    cn1 1264   2.044   1.324   1.243  0.1354  0.2750 -0.0835
  186ntf    sn2 1265   2.043   1.284   1.066 -0.1934  0.1876 -0.0633
  186ntf    nn3 1266   2.088   1.426   1.016 -0.0262  0.1416 -0.0444
  186ntf    sn2 1267   2.070   1.490   0.873 -0.1218  0.2040 -0.0048
  186ntf    cn1 1268   2.170   1.640   0.897 -0.3385  0.3951 -0.2973
  186ntf    fn4 1269   2.160   1.344   1.304  0.0722  0.7002 -0.1001
  186ntf    fn4 1270   1.987   1.441   1.268 -0.3164  0.0801 -0.1923
  186ntf    fn4 1271   1.972   1.234   1.308  0.0154 -0.0174 -0.6148
  186ntf    on5 1272   2.146   1.184   1.052  0.0124  0.4255 -0.2684
  186ntf    on5 1273   1.905   1.248   1.047 -0.1778  0.1495 -0.1053
  186ntf    on5 1274   1.936   1.535   0.847 -0.1976  0.0875  0.1840
  186ntf    on5 1275   2.131   1.418   0.764 -0.9062  0.0464 -0.3408
  186ntf    fn4 1276   2.299   1.611   0.891 -0.3859  0.0211  0.3597
  186ntf    fn4 1277   2.138   1.735   0.811 -0.4624  0.2133 -0.4542
  186ntf    fn4 1278   2.149   1.691   1.018 -0.0579  0.2304 -0.1789
  187ntf    cn1 1279   0.311   1.206   0.112  0.0367  0.0228  0.0770
  187ntf    sn2 1280   0.330   1.209   0.293  0.0444 -0.0818  0.0782
  187ntf    nn3 1281   0.481   1.167   0.301  0.0503 -0.1199 -0.2172
  187ntf    sn2 1282   0.607   1.258   0.321 -0.1481  0.1397 -0.1586
  187ntf    cn1 1283   0.616   1.251   0.503 -0.0054 -0.0955 -0.1752
  187ntf    fn4 1284   0.262   1.090   0.071  0.1822  0.1128 -0.3500
  187ntf    fn4 1285   0.226   1.298   0.071 -0.2671 -0.3636 -0.1744
  187ntf    fn4 1286   0.422   1.227   0.043  0.2796 -0.5984  0.2651
  187ntf    on5 1287   0.295   1.347   0.316  0.5392  0.2012 -0.7964
  187ntf    on5 1288   0.239   1.106   0.337  0.1573 -0.3817 -0.3784
  187ntf    on5 1289   0.591   1.399   0.291 -0.3088 -0.0098 -0.7776
  187ntf    on5 1290   0.725   1.187   0.280 -0.0077 -0.0196  0.5005
  187ntf    fn4 1291   0.639   1.131   0.552  0.0636 -0.0756 -0.1591
  187ntf    fn4 1292   0.715   1.327   0.547  0.0477  0.0113 -0.4729
  187ntf    fn4 1293   0.501   1.287   0.558  0.3472  0.2586  0.3333
  188ntf    cn1 1294   1.684   1.847   3.262 -0.1270  0.3825 -0.1031
  188ntf    sn2 1295   1.645   2.008   3.336  0.0513  0.2610  0.2553
  188ntf    nn3 1296   1.687   2.099   3.215 -0.1000  0.1753  0.1384
  188ntf    sn2 1297   1.779   2.225   3.228  0.0328  0.0894  0.0244
  188ntf    cn1 1298   1.931   2.173   3.142 -0.1200 -0.0036 -0.1906
  188ntf    fn4 1299   1.816   1.836   3.254 -0.1267  0.2047  0.1479
  188ntf    fn4 1300   1.632   1.746   3.329  0.0393  0.3778  0.0194
  188ntf    fn4 1301   1.640   1.842   3.137  0.4495 -0.0974 -0.2931
  188ntf    on5 1302   1.501   2.010   3.344 -0.0030 -0.0515 -0.5638
  188ntf    on5 1303   1.730   1.996   3.452  0.1812 -0.3762  0.0949
  188ntf    on5 1304   1.807   2.267   3.363  0.3407  0.1978 -0.0706
  188ntf    on5 1305   1.740   2.322   3.129  0.0296 -0.3027 -0.3650
  188ntf    fn4 1306   1.976   2.052   3.171 -0.0879  0.1490  0.3993
  188ntf    fn4 1307   1.925   2.172   3.010 -0.0973 -0.4682 -0.1890
  188ntf    fn4 1308   2.034   2.249   3.175  0.1012 -0.2862 -0.2249
  189ntf    cn1 1309   2.139   1.777   3.167  0.3839  0.0520 -0.4708
  189ntf    sn2 1310   2.316   1.734   3.155  0.4720  0.3022 -0.0756
  189ntf    nn3 1311   2.360   1.827   3.036  0.6865  0.2684 -0.0222
  189ntf    sn2 1312   2.407   1.786   2.892 -0.0437 -0.0323 -0.1783
  189ntf    cn1 1313   2.583   1.746   2.914 -0.0747  0.2491  0.6276
  189ntf    fn4 1314   2.075   1.743   3.056 -0.8431  0.3623  0.1391
  189ntf    fn4 1315   2.075   1.714   3.264  0.2220 -0.5807 -0.9731
  189ntf    fn4 1316   2.113   1.904   3.192 -0.4619 -0.2393  0.1404
  189ntf    on5 1317   2.375   1.767   3.282 -0.4876 -0.2624  0.5220
  189ntf    on5 1318   2.308   1.592   3.130 -0.2652  0.4471 -0.6990
  189ntf    on5 1319   2.398   1.901   2.805 -0.4575  0.0131 -0.0757
  189ntf    on5 1320   2.348   1.667   2.837 -0.9936  0.1403  0.4539
  189ntf    fn4 1321   2.607   1.648   2.999  0.5297  0.0420  0.2275
  189ntf    fn4 1322   2.633   1.697   2.802 -0.5045  0.1501  0.4791
  189ntf    fn4 1323   2.665   1.844   2.949  0.4674  0.0719 -0.1096
  190ntf    cn1 1324   0.403   0.877   0.576 -0.3547 -0.1209  0.1943
  190ntf    sn2 1325   0.290   0.736   0.548 -0.2241 -0.2144  0.1357
  190ntf    nn3 1326   0.385   0.617   0.509  0.3189  0.0480  0.6335
  190ntf    sn2 1327   0.468   0.520   0.600  0.2348 -0.5476  0.0776
  190ntf    cn1 1328   0.362   0.374   0.576  0.0275 -0.3807 -0.0260
  190ntf    fn4 1329   0.491   0.864   0.674  0.2060  0.7612 -0.1805
  190ntf    fn4 1330   0.483   0.902   0.474 -0.4757  0.1053  0.1550
  190ntf    fn4 1331   0.335   0.987   0.603  0.1062  0.2028  0.0372
  190ntf    on5 1332   0.218   0.718   0.671 -0.5143  0.1117  0.0153
  190ntf    on5 1333   0.218   0.777   0.430 -0.8776  0.3946  0.7364
  190ntf    on5 1334   0.475   0.541   0.742  0.8860 -0.4956  0.0413
  190ntf    on5 1335   0.590   0.474   0.539  0.4096  0.0928 -0.0571
  190ntf    fn4 1336   0.354   0.358   0.445 -0.5932  0.2338 -0.0716
  190ntf    fn4 1337   0.404   0.263   0.634  0.1618 -0.4464 -0.2485
  190ntf    fn4 1338   0.237   0.398   0.613  0.1213 -0.4518  0.3506
  191ntf    cn1 1339   1.129   1.306   4.829 -0.0650  0.2728  0.1046
  191ntf    sn2 1340   1.085   1.482   4.818  0.0808  0.3330  0.4888
  191ntf    nn3 1341   1.120   1.513   4.668 -0.0876 -0.7647  0.2111
  191ntf    sn2 1342   1.233   1.602   4.605 -0.1194 -0.7181  0.2188
  191ntf    cn1 1343   1.134   1.692   4.482  0.6517 -0.1650 -0.0111
  191ntf    fn4 1344   1.074   1.244   4.725 -0.4009  0.0135  0.4338
  191ntf    fn4 1345   1.260   1.288   4.824 -0.0079  0.6798  0.0914
  191ntf    fn4 1346   1.080   1.244   4.935 -0.0413 -0.2321 -0.1744
  191ntf    on5 1347   0.945   1.491   4.850  0.1614  0.5963  0.7752
  191ntf    on5 1348   1.185   1.539   4.905  0.6828 -0.0996  0.0871
  191ntf    on5 1349   1.326   1.528   4.522  0.5983  0.6385 -0.2123
  191ntf    on5 1350   1.284   1.710   4.686 -0.1572 -0.1546 -0.4942
  191ntf    fn4 1351   1.067   1.621   4.392 -0.0454  0.0207  0.3536
  191ntf    fn4 1352   1.045   1.767   4.544  0.3136 -0.5620 -0.0061
  191ntf    fn4 1353   1.209   1.774   4.411 -0.1956  0.1587 -0.5487
  192ntf    cn1 1354   1.204   1.084   3.308 -0.0424 -0.2456  0.3615
  192ntf    sn2 1355   1.240   1.255   3.359 -0.2329  0.0056 -0.3322
  192ntf    nn3 1356   1.373   1.276   3.278  0.0416 -0.3561  0.0184
  192ntf    sn2 1357   1.523   1.267   3.324  0.1786  0.1345 -0.3317
  192ntf    cn1 1358   1.558   1.445   3.341  0.2073  0.1266 -0.3077
  192ntf    fn4 1359   1.091   1.033   3.357 -0.4039  0.0642 -0.1430
  192ntf    fn4 1360   1.195   1.062   3.178 -0.3848  1.0093  0.1540
  192ntf    fn4 1361   1.292   0.995   3.349  0.1001 -0.2923 -0.0439
  192ntf    on5 1362   1.136   1.333   3.297  0.3906  0.5403 -0.7140
  192ntf    on5 1363   1.247   1.255   3.503 -0.0035 -0.9483 -0.3323
  192ntf    on5 1364   1.623   1.226   3.229 -0.5925 -0.2395 -0.9912
  192ntf    on5 1365   1.541   1.221   3.459 -0.3225  0.6312 -0.0893
  192ntf    fn4 1366   1.563   1.519   3.232 -0.0567  0.1925 -0.2761
  192ntf    fn4 1367   1.469   1.498   3.423  0.3485  0.1496 -0.1684
  192ntf    fn4 1368   1.675   1.461   3.401 -0.3232  0.2713  0.7165
  193ntf    cn1 1369   0.480   0.376   5.681 -0.2398 -0.0333 -0.1018
  193ntf    sn2 1370   0.444   0.198   5.688  0.0831 -0.1054 -0.2480
  193ntf    nn3 1371   0.580   0.154   5.754  0.0633 -0.0192 -0.1475
  193ntf    sn2 1372   0.625   0.160   5.904 -0.2996  0.2378 -0.0476
  193ntf    cn1 1373   0.591  -0.008   5.963  0.3643  0.1068 -0.0263
  193ntf    fn4 1374   0.477   0.416   5.554  0.0461 -0.5375 -0.2695
  193ntf    fn4 1375   0.403   0.448   5.761 -0.2141 -0.1405  0.0190
  193ntf    fn4 1376   0.601   0.416   5.718 -0.1396 -0.2553 -0.1881
  193ntf    on5 1377   0.329   0.188   5.774  0.4183  0.0575  0.2293
  193ntf    on5 1378   0.420   0.165   5.550  0.2147  0.1192 -0.3264
  193ntf    on5 1379   0.548   0.245   5.992 -0.4495 -0.1609  0.2057
  193ntf    on5 1380   0.769   0.168   5.907 -0.2790 -0.0238 -0.3340
  193ntf    fn4 1381   0.490  -0.056   5.892  0.1635  0.3464  0.0928
  193ntf    fn4 1382   0.696  -0.088   5.958  0.2491 -0.0493  0.0368
  193ntf    fn4 1383   0.559  -0.014   6.091 -0.5317  0.3293 -0.2317
  194ntf    cn1 1384   1.031   2.069   2.928  0.0993  0.2229 -0.1263
  194ntf    sn2 1385   0.872   2.000   2.872  0.3414 -0.2195 -0.2714
  194ntf    nn3 1386   0.908   1.847   2.867  0.5125 -0.1824 -0.1723
  194ntf    sn2 1387   0.863   1.742   2.974 -0.3892  0.2305 -0.1352
  194ntf    cn1 1388   0.715   1.671   2.895 -0.5284  0.3361  0.0294
  194ntf    fn4 1389   1.044   2.199   2.906  0.7194  0.2245  0.2256
  194ntf    fn4 1390   1.047   2.050   3.058 -0.3544 -0.2237 -0.1319
  194ntf    fn4 1391   1.132   2.017   2.861 -0.0059  0.2068 -0.2723
  194ntf    on5 1392   0.773   2.044   2.967  0.3762 -0.0984 -0.2910
  194ntf    on5 1393   0.856   2.057   2.740 -0.3994 -0.3666 -0.2497
  194ntf    on5 1394   0.808   1.790   3.098  0.6945 -0.2999  0.5687
  194ntf    on5 1395   0.955   1.632   2.985  0.0243  0.6341  0.4948
  194ntf    fn4 1396   0.627   1.761   2.856 -0.4946  0.1716 -0.4280
  194ntf    fn4 1397   0.746   1.603   2.786  0.4733  0.4314  0.2440
  194ntf    fn4 1398   0.658   1.580   2.973 -0.2800 -0.2984 -0.5228
  195ntf    cn1 1399   1.402   0.567   3.418 -0.1219 -0.0677  0.2845
  195ntf    sn2 1400   1.346   0.511   3.582 -0.0021 -0.2130  0.2761
  195ntf    nn3 1401   1.192   0.498   3.557 -0.1238  0.4682  0.6520
  195ntf    sn2 1402   1.101   0.379   3.511  0.3455  0.3979 -0.1195
  195ntf    cn1 1403   0.951   0.474   3.473 -0.2896 -0.6223 -0.1999
  195ntf    fn4 1404   1.528   0.605   3.410 -0.3705  0.7075  0.0410
  195ntf    fn4 1405   1.388   0.466   3.334 -0.0862  0.2807 -0.1415
  195ntf    fn4 1406   1.336   0.672   3.374  0.1512  0.0161  0.0699
  195ntf    on5 1407   1.421   0.390   3.606  0.5199  0.0609  0.0517
  195ntf    on5 1408   1.377   0.624   3.666 -0.2947 -0.0892  0.2159
  195ntf    on5 1409   1.070   0.281   3.613  0.4560  0.4459 -0.0386
  195ntf    on5 1410   1.134   0.319   3.384 -0.2420  0.0154 -0.0954
  195ntf    fn4 1411   0.899   0.533   3.579 -0.3346 -0.5395 -0.2684
  195ntf    fn4 1412   0.975   0.568   3.384 -1.2931 -0.1342  0.0265
  195ntf    fn4 1413   0.857   0.404   3.412 -0.6701 -0.0698 -0.2512
  196ntf    cn1 1414   0.016   0.582   1.369 -0.0343 -0.1700  0.0012
  196ntf    sn2 1415   0.132   0.617   1.504  0.3412  0.0491 -0.3758
  196ntf    nn3 1416   0.201   0.476   1.516 -0.5291 -0.3460  0.1166
  196ntf    sn2 1417   0.348   0.427   1.490 -0.5378 -0.2182 -0.1780
  196ntf    cn1 1418   0.425   0.442   1.654 -0.2286  0.0137 -0.3445
  196ntf    fn4 1419  -0.066   0.684   1.349 -0.0678 -0.2862 -0.4647
  196ntf    fn4 1420   0.086   0.559   1.259 -0.2225  0.3864 -0.2409
  196ntf    fn4 1421  -0.060   0.473   1.368 -0.4925  0.1468 -0.1884
  196ntf    on5 1422   0.215   0.721   1.450  0.4381  0.0718 -0.1830
  196ntf    on5 1423   0.050   0.655   1.616 -0.5553 -0.2835 -0.9074
  196ntf    on5 1424   0.424   0.512   1.402  0.2923 -0.4476  0.3110
  196ntf    on5 1425   0.367   0.290   1.449 -0.3858 -0.2308 -0.0677
  196ntf    fn4 1426   0.546   0.394   1.673 -0.0079  0.8018  0.3321
  196ntf    fn4 1427   0.424   0.568   1.695 -0.4388 -0.0890 -0.0313
  196ntf    fn4 1428   0.351   0.382   1.745 -0.0179  0.4310  0.1088
  197ntf    cn1 1429   0.834   2.008   4.315  0.1686  0.0991 -0.2062
  197ntf    sn2 1430   0.657   1.981   4.285  0.0975  0.0560  0.2448
  197ntf    nn3 1431   0.656   1.862   4.182 -0.1511  0.1474  0.1424
  197ntf    sn2 1432   0.574   1.728   4.182 -0.2455  0.2005 -0.3140
  197ntf    cn1 1433   0.701   1.599   4.195 -0.1617  0.3267  0.1761
  197ntf    fn4 1434   0.866   2.137   4.320  0.3420  0.0525 -0.1025
  197ntf    fn4 1435   0.879   1.957   4.428 -0.1060 -0.0346 -0.1565
  197ntf    fn4 1436   0.907   1.954   4.219  0.1041 -0.0432 -0.1747
  197ntf    on5 1437   0.606   1.971   4.419  0.2249 -0.3276  0.2658
  197ntf    on5 1438   0.612   2.100   4.218 -0.2365  0.1168  0.5739
  197ntf    on5 1439   0.516   1.701   4.053 -0.2474  0.1721 -0.3072
  197ntf    on5 1440   0.501   1.690   4.301  0.1719 -0.6127 -0.3137
  197ntf    fn4 1441   0.817   1.621   4.136 -0.1559 -0.8238 -0.2806
  197ntf    fn4 1442   0.720   1.565   4.321  0.7098 -0.0883 -0.0567
  197ntf    fn4 1443   0.649   1.486   4.148  1.0209 -0.2105  0.1219
  198ntf    cn1 1444   0.444   1.487   5.133 -0.0050  0.4063  0.1326
  198ntf    sn2 1445   0.352   1.346   5.202  0.4679  0.0274 -0.0064
  198ntf    nn3 1446   0.450   1.230   5.161  0.7063  0.2632 -0.1034
  198ntf    sn2 1447   0.454   1.156   5.023  0.1794  0.2085 -0.0913
  198ntf    cn1 1448   0.621   1.206   4.971  0.1739 -0.1737 -0.4803
  198ntf    fn4 1449   0.394   1.532   5.019 -0.0934 -0.2710 -0.0996
  198ntf    fn4 1450   0.435   1.597   5.205 -0.0841  0.4066  0.1223
  198ntf    fn4 1451   0.574   1.463   5.124 -0.1004 -0.2203  0.3292
  198ntf    on5 1452   0.353   1.374   5.344 -0.4601  0.0531 -0.0024
  198ntf    on5 1453   0.223   1.359   5.139  0.3175  0.1933  0.3304
  198ntf    on5 1454   0.371   1.210   4.918 -0.9489 -0.5370  0.4033
  198ntf    on5 1455   0.464   1.013   5.038  0.4587  0.3030  0.6820
  198ntf    fn4 1456   0.659   1.142   4.861 -0.2850 -1.0229 -0.1498
  198ntf    fn4 1457   0.628   1.337   4.953 -0.1476 -0.0653  0.1763
  198ntf    fn4 1458   0.703   1.176   5.070  0.0875  0.4750 -0.2043
  199ntf    cn1 1459   0.216   0.360   3.255  0.2797  0.1849 -0.1141
  199ntf    sn2 1460   0.326   0.297   3.385 -0.0976  0.2461  0.2367
  199ntf    nn3 1461   0.420   0.196   3.311  0.1161  0.3194  0.4043
  199ntf    sn2 1462   0.544   0.231   3.220 -0.0650 -0.1957 -0.0487
  199ntf    cn1 1463   0.685   0.183   3.325 -0.0242  0.1781  0.0684
  199ntf    fn4 1464   0.108   0.414   3.309  0.2301  0.3025 -0.3299
  199ntf    fn4 1465   0.273   0.444   3.171  0.0198  0.5021  0.0279
  199ntf    fn4 1466   0.161   0.267   3.178 -0.5244  0.3399  0.2582
  199ntf    on5 1467   0.394   0.414   3.437  0.6622  0.1331 -0.4770
  199ntf    on5 1468   0.230   0.237   3.474 -0.1676  0.2562  0.1680
  199ntf    on5 1469   0.573   0.367   3.183  1.5865 -0.5721 -0.1962
  199ntf    on5 1470   0.555   0.139   3.110  0.6616 -0.2877  0.0953
  199ntf    fn4 1471   0.805   0.199   3.272  0.1325 -0.9609  0.0481
  199ntf    fn4 1472   0.693   0.247   3.440  0.5053 -0.0531  0.1625
  199ntf    fn4 1473   0.679   0.052   3.344 -0.0132  0.1779  0.0702
  200ntf    cn1 1474   2.013   1.956   4.467  0.4290 -0.1851 -0.1445
  200ntf    sn2 1475   2.072   2.123   4.511 -0.1106 -0.0378  0.0317
  200ntf    nn3 1476   1.990   2.155   4.641  0.0707  0.0080  0.1358
  200ntf    sn2 1477   1.837   2.188   4.657  0.0379 -0.0707 -0.0134
  200ntf    cn1 1478   1.827   2.367   4.690  0.2888 -0.0845  0.1418
  200ntf    fn4 1479   2.021   1.880   4.575  0.2609 -0.5312 -0.3752
  200ntf    fn4 1480   1.886   1.948   4.430  0.3787 -0.2255  0.0360
  200ntf    fn4 1481   2.089   1.896   4.377  0.5990 -0.1746 -0.0095
  200ntf    on5 1482   2.211   2.103   4.543  0.0364  0.2685 -0.4107
  200ntf    on5 1483   2.033   2.196   4.393  0.2040 -0.1221 -0.1269
  200ntf    on5 1484   1.795   2.121   4.777 -0.4465  0.3059  0.0295
  200ntf    on5 1485   1.755   2.154   4.543  0.0885  0.1989 -0.1323
  200ntf    fn4 1486   1.853   2.389   4.818  0.3213  0.7274 -0.0007
  200ntf    fn4 1487   1.909   2.433   4.611  0.2318 -0.4675 -0.2432
  200ntf    fn4 1488   1.704   2.410   4.667  0.2412 -0.1877  0.1970
  201ntf    cn1 1489   1.077   0.161   4.859  0.0440 -0.0014 -0.0452
  201ntf    sn2 1490   1.136   0.074   5.007 -0.0978 -0.0461 -0.0145
  201ntf    nn3 1491   1.245   0.180   5.045 -0.0774 -0.0576 -0.0418
  201ntf    sn2 1492   1.399   0.153   5.051 -0.0203  0.2974  0.1492
  201ntf    cn1 1493   1.459   0.280   4.936  0.2267  0.0278 -0.0220
  201ntf    fn4 1494   1.171   0.178   4.768  0.0802  0.1130  0.0144
  201ntf    fn4 1495   0.978   0.096   4.798 -0.0160 -0.2302  0.2963
  201ntf    fn4 1496   1.024   0.279   4.886 -0.6796 -0.3452  0.0797
  201ntf    on5 1497   1.017   0.092   5.087  0.1813 -0.5282  0.5136
  201ntf    on5 1498   1.170  -0.057   4.957  0.0099  0.1958 -0.5767
  201ntf    on5 1499   1.445   0.026   4.999  0.1143  0.4615 -0.1311
  201ntf    on5 1500   1.460   0.196   5.174  0.4763  0.4663 -0.1538
  201ntf    fn4 1501   1.378   0.281   4.831  0.0319  0.1411  0.1296
  201ntf    fn4 1502   1.469   0.402   4.986  0.1138  0.0477 -0.0461
  201ntf    fn4 1503   1.577   0.251   4.884  0.0925  0.4505 -0.5780
  202ntf    cn1 1504   1.164   0.527   1.061 -0.6140  0.0073 -0.4746
  202ntf    sn2 1505   1.130   0.348   1.055 -0.0467 -0.1046 -0.3795
  202ntf    nn3 1506   1.031   0.345   0.933  0.1155 -0.0828 -0.5122
  202ntf    sn2 1507   0.905   0.253   0.917 -0.0102 -0.0001 -0.0150
  202ntf    cn1 1508   0.796   0.351   0.809  0.1899 -0.3576 -0.5431
  202ntf    fn4 1509   1.063   0.608   1.033 -0.0194  0.7838 -0.3983
  202ntf    fn4 1510   1.195   0.558   1.186 -0.3773 -0.5722 -0.3856
  202ntf    fn4 1511   1.265   0.555   0.980 -0.5998  0.3856 -0.3244
  202ntf    on5 1512   1.256   0.284   1.027  0.0971 -0.0029  0.0327
  202ntf    on5 1513   1.074   0.322   1.185 -0.6647  0.1984 -0.5813
  202ntf    on5 1514   0.815   0.236   1.029  0.0456 -0.7306 -0.0780
  202ntf    on5 1515   0.937   0.141   0.832 -0.4983 -0.2473  0.1252
  202ntf    fn4 1516   0.740   0.450   0.876  0.5470 -0.4946 -0.0327
  202ntf    fn4 1517   0.852   0.388   0.695  0.0139  0.1703 -0.4606
  202ntf    fn4 1518   0.685   0.291   0.769 -0.2196  0.2562 -0.3337
  203ntf    cn1 1519   2.113   1.939   3.962 -0.6478 -0.3677 -0.2611
  203ntf    sn2 1520   2.138   1.874   3.794 -0.0860  0.0864 -0.3575
  203ntf    nn3 1521   2.078   1.729   3.806  0.4503 -0.1095  0.0206
  203ntf    sn2 1522   2.157   1.594   3.807  0.4086 -0.1340  0.0217
  203ntf    cn1 1523   2.220   1.579   3.637  0.3723  0.5249 -0.0527
  203ntf    fn4 1524   2.179   2.052   3.980 -0.2707 -0.5506 -0.4679
  203ntf    fn4 1525   1.986   1.967   3.989 -0.4162  0.2637  0.1980
  203ntf    fn4 1526   2.153   1.854   4.055 -0.3929  0.1211  0.0811
  203ntf    on5 1527   2.052   1.959   3.716 -0.1620  0.4450  0.1116
  203ntf    on5 1528   2.281   1.875   3.774  0.1424  0.1736  1.1576
  203ntf    on5 1529   2.072   1.479   3.823 -0.3489  0.2789 -0.9248
  203ntf    on5 1530   2.281   1.600   3.881  0.5944 -0.2323 -0.2795
  203ntf    fn4 1531   2.295   1.683   3.603  0.5881  0.2707 -0.3627
  203ntf    fn4 1532   2.295   1.474   3.608  0.1960  0.3798  0.0159
  203ntf    fn4 1533   2.117   1.591   3.556  0.0807  0.1405  0.2589
  204ntf    cn1 1534   0.260   1.144   4.533 -0.0828  0.3549 -0.0158
  204ntf    sn2 1535   0.171   1.097   4.382  0.0257  0.0169  0.0246
  204ntf    nn3 1536   0.025   1.142   4.419 -0.1471 -0.2574 -0.3178
  204ntf    sn2 1537  -0.088   1.219   4.342 -0.2511 -0.5029 -0.4136
  204ntf    cn1 1538  -0.156   1.083   4.243  0.0156 -0.6073 -0.4546
  204ntf    fn4 1539   0.212   1.093   4.646  0.0608 -0.1530 -0.1839
  204ntf    fn4 1540   0.389   1.117   4.529 -0.1574  0.0038 -0.0615
  204ntf    fn4 1541   0.245   1.275   4.544 -0.5582  0.2827  0.2513
  204ntf    on5 1542   0.238   1.168   4.276 -0.2665 -0.3241 -0.3930
  204ntf    on5 1543   0.187   0.954   4.381 -0.1919 -0.0075 -0.0118
  204ntf    on5 1544  -0.044   1.329   4.259 -0.0001  0.1624  0.5829
  204ntf    on5 1545  -0.197   1.259   4.427  0.5841 -0.2823  0.5732
  204ntf    fn4 1546  -0.214   0.991   4.318 -0.1188 -0.2410 -0.1042
  204ntf    fn4 1547  -0.256   1.125   4.167 -0.1765 -0.7955 -0.3079
  204ntf    fn4 1548  -0.073   1.020   4.162  0.0419 -0.5824 -0.4470
  205ntf    cn1 1549   1.864   1.735   2.153 -0.0638 -0.4372  0.0707
  205ntf    sn2 1550   1.858   1.815   2.316 -0.1611 -0.2086 -0.0443
  205ntf    nn3 1551   1.745   1.922   2.295 -0.3437 -0.3713  0.1057
  205ntf    sn2 1552   1.710   2.051   2.378  0.4211 -0.1783  0.1368
  205ntf    cn1 1553   1.775   2.164   2.251 -0.0836 -0.0062  0.0289
  205ntf    fn4 1554   1.911   1.813   2.056 -0.9789 -0.1126 -0.1241
  205ntf    fn4 1555   1.936   1.624   2.152  0.8184  0.1207  0.5976
  205ntf    fn4 1556   1.745   1.692   2.115 -0.2022  0.0595 -0.0673
  205ntf    on5 1557   1.821   1.704   2.400  0.1966 -0.5119 -0.2834
  205ntf    on5 1558   1.988   1.873   2.336 -0.7468  0.9267  0.5694
  205ntf    on5 1559   1.787   2.077   2.497 -0.0041  0.2745  0.3163
  205ntf    on5 1560   1.573   2.094   2.381  0.2982 -0.5350 -0.2507
  205ntf    fn4 1561   1.704   2.151   2.141  0.1554  0.2981 -0.1639
  205ntf    fn4 1562   1.763   2.292   2.283 -0.0538  0.0785 -0.2956
  205ntf    fn4 1563   1.905   2.144   2.233 -0.0194  0.0209  0.4497
  206ntf    cn1 1564   1.266   1.113   2.617  0.0128  0.0723  0.0516
  206ntf    sn2 1565   1.413   1.181   2.535  0.0229  0.0640  0.0625
  206ntf    nn3 1566   1.346   1.272   2.426 -0.4087 -0.1685  0.1354
  206ntf    sn2 1567   1.302   1.421   2.445  0.2775  0.0763 -0.2001
  206ntf    cn1 1568   1.395   1.496   2.307  0.0510  0.0598 -0.3608
  206ntf    fn4 1569   1.189   1.045   2.534  0.2909  0.1084 -0.2371
  206ntf    fn4 1570   1.298   1.032   2.717 -0.2938  0.2356  0.2843
  206ntf    fn4 1571   1.190   1.209   2.667 -0.0289 -0.1263  0.3714
  206ntf    on5 1572   1.478   1.250   2.644 -0.2677  0.2102  0.1446
  206ntf    on5 1573   1.472   1.066   2.470 -0.3948 -0.0929 -0.0379
  206ntf    on5 1574   1.354   1.495   2.559 -0.0427  0.2243 -0.1495
  206ntf    on5 1575   1.166   1.438   2.403  0.2323 -0.4871 -0.2804
  206ntf    fn4 1576   1.371   1.432   2.194  0.1623 -0.1811 -0.2498
  206ntf    fn4 1577   1.369   1.625   2.291 -0.3068  0.0556  0.1580
  206ntf    fn4 1578   1.525   1.485   2.324 -0.0432 -0.5793  0.0083
  207ntf    cn1 1579   1.628   0.569   1.494  0.5390  0.0122  0.4545
  207ntf    sn2 1580   1.788   0.636   1.440  0.2867  0.1029 -0.1840
  207ntf    nn3 1581   1.757   0.789   1.461 -0.2466 -0.0622  0.2542
  207ntf    sn2 1582   1.784   0.876   1.588  0.2171  0.4470 -0.1884
  207ntf    cn1 1583   1.952   0.933   1.550  0.4168  0.0427  0.0818
  207ntf    fn4 1584   1.613   0.438   1.486 -0.1133  0.0647  0.7289
  207ntf    fn4 1585   1.603   0.593   1.622  0.1422  0.1183  0.3589
  207ntf    fn4 1586   1.525   0.612   1.423  0.3250 -0.1196  0.6840
  207ntf    on5 1587   1.881   0.576   1.532  0.2676 -0.0371 -0.2559
  207ntf    on5 1588   1.797   0.585   1.305  0.5133 -0.3278 -0.0060
  207ntf    on5 1589   1.795   0.809   1.716 -0.2054  0.2201 -0.2690
  207ntf    on5 1590   1.700   0.992   1.573 -0.0157  0.2674 -0.2849
  207ntf    fn4 1591   2.025   0.828   1.515  0.0145 -0.3430  0.3909
  207ntf    fn4 1592   1.955   1.008   1.441  0.5601 -0.3683 -0.2005
  207ntf    fn4 1593   2.023   1.007   1.634  0.1798  0.6964 -0.2899
  208ntf    cn1 1594   0.143   1.571   6.028  0.0343  0.0295  0.0089
  208ntf    sn2 1595   0.134   1.604   5.850 -0.1939 -0.0509  0.0058
  208ntf    nn3 1596   0.262   1.692   5.831 -0.3346 -0.0394 -0.9404
  208ntf    sn2 1597   0.408   1.650   5.792  0.0476 -0.0085  0.4008
  208ntf    cn1 1598   0.404   1.681   5.612  0.4932 -0.4340  0.3141
  208ntf    fn4 1599   0.044   1.492   6.066 -0.3267  0.5625  0.1919
  208ntf    fn4 1600   0.257   1.513   6.061  0.0945  0.2633  0.2180
  208ntf    fn4 1601   0.140   1.685   6.096  0.6998 -0.2080  0.4544
  208ntf    on5 1602   0.130   1.475   5.784 -0.1408 -0.3713  0.6176
  208ntf    on5 1603   0.016   1.685   5.833  0.0779  0.3752  0.1588
  208ntf    on5 1604   0.439   1.510   5.803 -0.4604 -0.2259 -0.7463
  208ntf    on5 1605   0.502   1.749   5.839  0.6754 -0.2508 -0.3094
  208ntf    fn4 1606   0.315   1.600   5.558 -0.0120  0.0376  0.4277
  208ntf    fn4 1607   0.363   1.802   5.578  0.1586 -0.5560  0.2830
  208ntf    fn4 1608   0.520   1.667   5.550  0.0497  0.0892 -0.6558
  209ntf    cn1 1609   0.316   2.093   0.400 -0.0078  0.1179 -0.2679
  209ntf    sn2 1610   0.497   2.082   0.393  0.0143  0.1300  0.2479
  209ntf    nn3 1611   0.517   1.977   0.278  0.0420  0.2728  0.1223
  209ntf    sn2 1612   0.647   1.941   0.198 -0.1546 -0.2068  0.0172
  209ntf    cn1 1613   0.611   2.017   0.037 -0.3196  0.1521  0.2228
  209ntf    fn4 1614   0.276   2.176   0.495  0.1490 -0.2923  0.1644
  209ntf    fn4 1615   0.262   2.139   0.288 -0.1356  0.0569 -0.2316
  209ntf    fn4 1616   0.263   1.973   0.422  0.3256  0.0579  0.2166
  209ntf    on5 1617   0.537   2.215   0.355 -0.3384  0.2203  0.1904
  209ntf    on5 1618   0.531   2.034   0.525 -0.0546 -0.2201  0.1396
  209ntf    on5 1619   0.660   1.802   0.160  0.0327 -0.0418 -0.5289
  209ntf    on5 1620   0.771   1.999   0.243 -0.0139 -0.6390  0.1935
  209ntf    fn4 1621   0.598   2.149   0.039 -0.2630  0.1761 -0.5534
  209ntf    fn4 1622   0.700   1.978  -0.053 -0.1799 -0.1287  0.4845
  209ntf    fn4 1623   0.498   1.966  -0.010  0.0375 -0.2345 -0.2373
  210ntf    cn1 1624   0.176   0.615   5.715 -0.2311 -0.4455 -0.0112
  210ntf    sn2 1625   0.174   0.720   5.863  0.0437 -0.3191 -0.0976
  210ntf    nn3 1626   0.030   0.689   5.918 -0.1649 -0.3721 -0.6651
  210ntf    sn2 1627  -0.020   0.703   6.066  0.1862  0.1869 -0.5966
  210ntf    cn1 1628  -0.077   0.874   6.037  0.0021  0.3108  0.4413
  210ntf    fn4 1629   0.081   0.649   5.629 -0.0052  0.5358  0.1164
  210ntf    fn4 1630   0.290   0.618   5.649 -0.2005  0.2085  0.0696
  210ntf    fn4 1631   0.159   0.486   5.741  0.0668 -0.4617  0.0982
  210ntf    on5 1632   0.271   0.654   5.946 -0.7222 -0.6404  0.5528
  210ntf    on5 1633   0.193   0.850   5.804 -0.5160 -0.4378 -0.5418
  210ntf    on5 1634   0.075   0.718   6.173  0.1643  0.0262 -0.5538
  210ntf    on5 1635  -0.140   0.628   6.095  0.7131 -0.3860  0.1152
  210ntf    fn4 1636  -0.144   0.892   5.924  0.5296 -0.2315  0.0318
  210ntf    fn4 1637  -0.153   0.900   6.141  0.3871  0.2000  0.7526
  210ntf    fn4 1638   0.021   0.963   6.029  0.2189  0.0312 -0.0902
  211ntf    cn1 1639   0.421   1.721   2.161 -0.1121  0.1034 -0.0186
  211ntf    sn2 1640   0.518   1.815   2.038 -0.1141  0.1187 -0.0086
  211ntf    nn3 1641   0.537   1.943   2.127 -0.2076 -0.0988  0.3305
  211ntf    sn2 1642   0.657   2.010   2.203 -0.2697  0.0774  0.2733
  211ntf    cn1 1643   0.569   2.054   2.356  0.1674  0.0454  0.5366
  211ntf    fn4 1644   0.462   1.742   2.285  0.2095 -0.0017 -0.1062
  211ntf    fn4 1645   0.292   1.746   2.157 -0.1103  0.0332 -0.7024
  211ntf    fn4 1646   0.434   1.592   2.135 -0.2747  0.1164 -0.1652
  211ntf    on5 1647   0.641   1.742   2.018 -0.4014 -0.4788  0.3527
  211ntf    on5 1648   0.433   1.839   1.925  0.3220  0.7641 -0.2011
  211ntf    on5 1649   0.699   2.133   2.140 -0.2639  0.2710  0.6541
  211ntf    on5 1650   0.766   1.924   2.241 -0.2397 -0.1946 -0.4174
  211ntf    fn4 1651   0.547   1.947   2.431 -0.4994 -0.3685 -0.2271
  211ntf    fn4 1652   0.623   2.147   2.433  0.3789  0.4140 -0.0445
  211ntf    fn4 1653   0.447   2.101   2.331 -0.0804 -1.0116 -0.3349
  212ntf    cn1 1654   1.641   2.162   5.895 -0.2256  0.2924  0.0850
  212ntf    sn2 1655   1.793   2.153   5.795 -0.1819  0.0152  0.1745
  212ntf    nn3 1656   1.885   2.269   5.848 -0.2002  0.0030  0.2342
  212ntf    sn2 1657   1.890   2.418   5.798 -0.1279 -0.0262  0.1538
  212ntf    cn1 1658   1.904   2.500   5.959  0.3207  0.0163  0.0947
  212ntf    fn4 1659   1.548   2.084   5.843 -0.1810  0.3523 -0.0839
  212ntf    fn4 1660   1.656   2.119   6.019  0.0616  0.2757  0.0444
  212ntf    fn4 1661   1.593   2.285   5.902  0.0799  0.4262 -0.1596
  212ntf    on5 1662   1.853   2.029   5.836  0.3549  0.4095  0.5845
  212ntf    on5 1663   1.750   2.161   5.657 -0.1167  0.3816  0.1741
  212ntf    on5 1664   1.767   2.465   5.739  0.1603  0.4473 -0.0682
  212ntf    on5 1665   2.015   2.441   5.731 -0.0076  0.4055  0.5238
  212ntf    fn4 1666   1.995   2.440   6.033  0.8623 -0.1367 -0.6853
  212ntf    fn4 1667   1.957   2.618   5.931  0.2699 -0.1239 -0.5930
  212ntf    fn4 1668   1.791   2.506   6.028  0.2127  0.1039 -0.0908
  213ntf    cn1 1669   2.205   0.811   5.139 -0.0654 -0.0474  0.0669
  213ntf    sn2 1670   2.100   0.667   5.103 -0.1973  0.0656 -0.0030
  213ntf    nn3 1671   2.081   0.680   4.948  0.3089 -0.2150 -0.0889
  213ntf    sn2 1672   2.162   0.603   4.837  0.2744 -0.1979 -0.1256
  213ntf    cn1 1673   2.050   0.463   4.807  0.2676 -0.1614 -0.2743
  213ntf    fn4 1674   2.311   0.828   5.062 -0.0783  0.1966  0.1010
  213ntf    fn4 1675   2.148   0.929   5.121  0.0447  0.0023  0.0463
  213ntf    fn4 1676   2.245   0.815   5.265 -0.0635  0.5128  0.0502
  213ntf    on5 1677   2.188   0.564   5.152 -0.5516 -0.1672  0.1521
  213ntf    on5 1678   1.982   0.701   5.179 -0.3893 -0.4373 -0.0722
  213ntf    on5 1679   2.284   0.542   4.881  0.2602 -0.0785  0.0794
  213ntf    on5 1680   2.179   0.671   4.710 -0.2702 -0.3578 -0.2869
  213ntf    fn4 1681   2.022   0.387   4.912  0.0813  0.1888 -0.0681
  213ntf    fn4 1682   1.931   0.514   4.783  0.3611 -0.0622 -0.5292
  213ntf    fn4 1683   2.076   0.387   4.702 -0.1609 -0.1808 -0.3665
  214ntf    cn1 1684   0.180   0.024   4.976  0.0416 -0.1720  0.0540
  214ntf    sn2 1685   0.300  -0.108   5.011 -0.2373 -0.4766 -0.1324
  214ntf    nn3 1686   0.429  -0.028   4.972 -0.3912 -0.1974 -0.0753
  214ntf    sn2 1687   0.531  -0.043   4.854 -0.0228 -0.0263  0.2161
  214ntf    cn1 1688   0.476   0.086   4.738  0.0040 -0.1003  0.1215
  214ntf    fn4 1689   0.221   0.146   5.005 -0.2947 -0.0546  0.0381
  214ntf    fn4 1690   0.144   0.030   4.849  0.4699 -0.1455 -0.0671
  214ntf    fn4 1691   0.067   0.012   5.043  0.3234 -0.0653  0.5542
  214ntf    on5 1692   0.295  -0.131   5.154 -0.5682  0.2849 -0.0173
  214ntf    on5 1693   0.258  -0.212   4.921  0.3754 -0.4442 -0.4546
  214ntf    on5 1694   0.524  -0.169   4.784 -0.1033  0.0029  0.1710
  214ntf    on5 1695   0.664   0.000   4.887 -0.0549 -0.0896  0.4270
  214ntf    fn4 1696   0.422   0.024   4.634 -0.0027  0.1778 -0.0437
  214ntf    fn4 1697   0.375   0.158   4.786  0.2991  0.1051  0.4396
  214ntf    fn4 1698   0.564   0.178   4.703 -0.5485  0.2429 -0.3958
  215ntf    cn1 1699   1.504   1.804   1.480  0.1536 -0.3341  0.2558
  215ntf    sn2 1700   1.407   1.664   1.544 -0.5849  0.0815  0.0556
  215ntf    nn3 1701   1.308   1.734   1.643  0.0800  0.4077  0.4946
  215ntf    sn2 1702   1.173   1.809   1.612  0.1497  0.0840 -0.6394
  215ntf    cn1 1703   1.231   1.973   1.664  0.0831 -0.0154 -0.2489
  215ntf    fn4 1704   1.429   1.886   1.408  0.3515 -0.0385  0.3890
  215ntf    fn4 1705   1.562   1.867   1.580 -0.0053  0.4657 -0.1480
  215ntf    fn4 1706   1.597   1.764   1.395 -0.3714 -0.7522 -0.1316
  215ntf    on5 1707   1.356   1.598   1.426  0.3667 -0.2418 -0.1791
  215ntf    on5 1708   1.503   1.593   1.625 -0.5603  0.2201  0.1475
  215ntf    on5 1709   1.067   1.784   1.707  0.4460  0.4212 -0.2197
  215ntf    on5 1710   1.140   1.824   1.473  0.0064  0.4223 -0.5698
  215ntf    fn4 1711   1.262   1.973   1.793  0.0723  0.3419 -0.2467
  215ntf    fn4 1712   1.345   2.004   1.604  0.0735  0.2827 -0.1156
  215ntf    fn4 1713   1.147   2.070   1.636 -0.0764 -0.0452  0.1199
  216ntf    cn1 1714   1.393   1.093   4.602 -0.0467 -0.1797 -0.0422
  216ntf    sn2 1715   1.440   0.943   4.511  0.2601 -0.2232  0.1857
  216ntf    nn3 1716   1.422   0.989   4.362  0.0311 -0.1152  0.2456
  216ntf    sn2 1717   1.535   1.051   4.273 -0.1013  0.1743  0.2792
  216ntf    cn1 1718   1.628   0.898   4.241  0.0481  0.3571 -0.1731
  216ntf    fn4 1719   1.469   1.193   4.559  0.7219 -0.6884  0.1049
  216ntf    fn4 1720   1.266   1.128   4.590  0.0929  0.2055 -0.4063
  216ntf    fn4 1721   1.414   1.083   4.732  0.4865  0.5060 -0.0686
  216ntf    on5 1722   1.576   0.921   4.552  0.5102  0.5890 -0.2041
  216ntf    on5 1723   1.342   0.846   4.553 -0.4193  0.3127 -0.1432
  216ntf    on5 1724   1.619   1.149   4.337  0.5218  0.1230 -0.4467
  216ntf    on5 1725   1.484   1.090   4.144 -0.2343  0.3820  0.3935
  216ntf    fn4 1726   1.539   0.801   4.228  0.3753  0.0045  0.1964
  216ntf    fn4 1727   1.711   0.913   4.139  0.9951  0.2306  0.5642
  216ntf    fn4 1728   1.712   0.869   4.339  0.0338 -0.3779 -0.3775
   2.23816   2.23816   6.25197
