Converted from moscito
19440
    1SOL     ow    1   4.402   3.095   6.492  0.2635 -0.4244  0.0929
    1SOL     hw    2   4.421   3.086   6.586  2.1151 -1.0316 -0.3074
    1SOL     hw    3   4.366   3.184   6.484 -2.4117 -1.2437  1.7013
    1SOL     vw    4   4.400   3.106   6.504  0.1547 -0.6126  0.2525
    2SOL     ow    5   0.572   4.359   4.831 -0.3245 -0.0858 -0.1497
    2SOL     hw    6   0.542   4.347   4.741  0.5550 -0.3222 -0.4275
    2SOL     hw    7   0.589   4.270   4.863  2.1926  0.0910 -0.7766
    2SOL     vw    8   0.570   4.346   4.823  0.1236 -0.0935 -0.2692
    3SOL     ow    9   4.299   0.102   5.618  0.3922  0.1783 -0.5878
    3SOL     hw   10   4.210   0.136   5.607 -1.1384 -2.8505  0.9157
    3SOL     hw   11   4.356   0.176   5.600 -2.4976  3.1286  1.1941
    3SOL     vw   12   4.294   0.116   5.614 -0.1910  0.1679 -0.1543
    4SOL     ow   13   5.779   6.151   3.985 -0.7275 -0.3854  0.0819
    4SOL     hw   14   5.854   6.179   4.038  0.7024  0.3389 -2.1796
    4SOL     hw   15   5.739   6.080   4.036  0.2069  0.6158  2.3397
    4SOL     vw   16   5.784   6.145   3.999 -0.4153 -0.1576  0.0815
    5SOL     ow   17   4.124   5.125   1.786  0.1534  0.2939 -0.1127
    5SOL     hw   18   4.035   5.161   1.791  0.9281  2.1152  2.1670
    5SOL     hw   19   4.145   5.126   1.693 -2.6999 -1.6220 -0.9177
    5SOL     vw   20   4.115   5.130   1.774 -0.1209  0.2813  0.0819
    6SOL     ow   21   6.714   0.959   1.753 -0.5950 -0.1226 -0.0793
    6SOL     hw   22   6.787   1.020   1.760  0.2792 -1.1084 -0.3954
    6SOL     hw   23   6.753   0.878   1.719 -1.5223 -1.2190  1.3609
    6SOL     vw   24   6.728   0.957   1.749 -0.6018 -0.3973  0.0690
    7SOL     ow   25   0.648   6.525   0.415  0.4651  0.4711  0.7002
    7SOL     hw   26   0.585   6.481   0.472  2.1738 -3.0540  0.1035
    7SOL     hw   27   0.690   6.590   0.472 -2.0236  1.3445  1.6899
    7SOL     vw   28   0.645   6.528   0.430  0.3622  0.1211  0.7521
    8SOL     ow   29   4.658   5.017   6.296  0.1873  0.0988  0.5450
    8SOL     hw   30   4.584   4.974   6.255 -0.2333  0.1743  1.2127
    8SOL     hw   31   4.723   5.024   6.226 -1.5612  2.8530 -0.9999
    8SOL     vw   32   4.657   5.012   6.281 -0.0989  0.4721  0.4292
    9SOL     ow   33   6.819   0.235   5.337  0.0215 -0.0332  1.0950
    9SOL     hw   34   6.864   0.191   5.409 -1.6657 -0.3419  2.0303
    9SOL     hw   35   6.748   0.175   5.313  1.2247 -0.5048 -1.6896
    9SOL     vw   36   6.815   0.221   5.343 -0.0427 -0.1362  0.8512
   10SOL     ow   37   1.293   3.682   6.817  0.5814  0.1451  0.5254
   10SOL     hw   38   1.244   3.653   6.741  2.0045  0.6616 -0.6342
   10SOL     hw   39   1.333   3.765   6.790  0.2971  0.8735  2.1874
   10SOL     vw   40   1.292   3.689   6.804  0.7317  0.3093  0.5915
   11SOL     ow   41   0.377   6.028   2.906  0.0597 -0.2962 -0.7452
   11SOL     hw   42   0.389   6.024   3.001 -2.0718  1.6134 -0.3092
   11SOL     hw   43   0.436   6.097   2.877 -1.8940  1.7820 -0.1426
   11SOL     vw   44   0.386   6.037   2.915 -0.4793  0.2301 -0.6082
   12SOL     ow   45   5.099   6.032   6.914 -0.2404  0.1538  0.1471
   12SOL     hw   46   5.109   6.128   6.919  0.8103  0.1956 -1.6463
   12SOL     hw   47   5.055   6.008   6.995  2.4162  1.7701  2.2283
   12SOL     vw   48   5.094   6.042   6.925  0.2487  0.3726  0.1853
   13SOL     ow   49   0.049   1.598   0.645 -0.0066 -0.5358 -0.0089
   13SOL     hw   50  -0.019   1.534   0.622 -0.3244 -0.4599  0.6874
   13SOL     hw   51   0.055   1.593   0.740 -0.6836  1.0991  0.1620
   13SOL     vw   52   0.041   1.589   0.655 -0.1380 -0.3101  0.1055
   14SOL     ow   53   2.243   0.761   6.471 -0.7296  0.1623 -0.0255
   14SOL     hw   54   2.315   0.810   6.510 -0.5943  0.7371 -0.9656
   14SOL     hw   55   2.241   0.678   6.519  2.2049 -0.9416 -1.5641
   14SOL     vw   56   2.252   0.756   6.483 -0.3246  0.0925 -0.3526
   15SOL     ow   57   5.523   4.210   6.140  0.2150 -0.0140 -0.7742
   15SOL     hw   58   5.617   4.222   6.124  0.4656 -1.1958 -0.2628
   15SOL     hw   59   5.480   4.254   6.067  1.1012  2.2763 -0.0036
   15SOL     vw   60   5.530   4.218   6.129  0.3648  0.1323 -0.6051
   16SOL     ow   61   2.036   3.365   0.434 -0.7269 -0.3953 -0.0710
   16SOL     hw   62   2.115   3.339   0.386 -0.9050 -0.3642 -0.3767
   16SOL     hw   63   1.983   3.286   0.437 -1.2790 -0.0654 -1.0199
   16SOL     vw   64   2.040   3.351   0.428 -0.8233 -0.3476 -0.2365
   17SOL     ow   65   4.032   3.322   0.038  0.4201  0.1964 -0.1459
   17SOL     hw   66   4.110   3.269   0.023  0.0237 -0.6922  0.7961
   17SOL     hw   67   4.065   3.407   0.066  1.0541 -0.0582 -0.1142
   17SOL     vw   68   4.046   3.326   0.040  0.4511  0.0455 -0.0174
   18SOL     ow   69   3.657   1.277   2.807 -0.6258 -0.0309  0.6286
   18SOL     hw   70   3.710   1.314   2.878 -0.2928 -1.0310  0.9075
   18SOL     hw   71   3.600   1.349   2.781  1.2269  1.2775 -0.0563
   18SOL     vw   72   3.656   1.292   2.813 -0.3375  0.0097  0.5749
   19SOL     ow   73   1.914   3.642   0.613 -0.5805  0.0402 -0.1051
   19SOL     hw   74   1.937   3.728   0.647 -1.9078  0.3725  0.0193
   19SOL     hw   75   1.824   3.628   0.642 -0.4375 -1.3275 -0.2548
   19SOL     vw   76   1.905   3.652   0.621 -0.7368 -0.0963 -0.1084
   20SOL     ow   77   3.708   1.525   0.613  0.0732  0.0007  0.2589
   20SOL     hw   78   3.774   1.541   0.680  0.2025 -0.9519  0.3627
   20SOL     hw   79   3.667   1.611   0.599 -0.5861  0.0396  2.2016
   20SOL     vw   80   3.712   1.539   0.620  0.0032 -0.1199  0.5290
   21SOL     ow   81   2.922   0.071   0.095 -0.0642 -0.0179 -0.0880
   21SOL     hw   82   2.926   0.005   0.164  0.5735  0.0749 -0.0338
   21SOL     hw   83   2.991   0.046   0.034  1.1269  1.3891  0.6420
   21SOL     vw   84   2.931   0.059   0.096  0.1770  0.1800  0.0155
   22SOL     ow   85   3.350   1.318   1.725 -0.1568  0.0392 -0.1184
   22SOL     hw   86   3.399   1.246   1.765  0.5498 -0.3075 -1.5509
   22SOL     hw   87   3.281   1.338   1.788 -0.5333 -2.0754  0.2061
   22SOL     vw   88   3.347   1.311   1.739 -0.1131 -0.2855 -0.2646
   23SOL     ow   89   3.695   0.594   0.279  0.0572  0.8174  0.1655
   23SOL     hw   90   3.719   0.632   0.363  1.9109  1.7269 -0.7138
   23SOL     hw   91   3.758   0.632   0.217 -1.3993  0.3682 -1.6735
   23SOL     vw   92   3.707   0.604   0.282  0.1096  0.8782 -0.1931
   24SOL     ow   93   1.361   4.932   5.551  0.2251 -0.5003  0.3324
   24SOL     hw   94   1.454   4.931   5.528  0.3616 -0.0975  0.8656
   24SOL     hw   95   1.346   4.848   5.594  0.1502 -0.9171 -0.4862
   24SOL     vw   96   1.372   4.921   5.553  0.2332 -0.5023  0.2949
   25SOL     ow   97   0.103   6.291   2.194  0.3050 -0.0033  0.2258
   25SOL     hw   98   0.112   6.274   2.288  0.2659 -1.0566  0.0499
   25SOL     hw   99   0.171   6.355   2.174 -1.1601  2.0465  1.4069
   25SOL     vw  100   0.113   6.298   2.204  0.1066  0.1283  0.3582
   26SOL     ow  101   0.132   0.272   5.232  0.3509  0.2219 -0.9710
   26SOL     hw  102   0.200   0.288   5.167  0.7270 -0.7195 -0.8378
   26SOL     hw  103   0.180   0.257   5.314 -0.1529  2.3037 -0.2464
   26SOL     vw  104   0.147   0.272   5.235  0.3340  0.3723 -0.8578
   27SOL     ow  105   0.653   5.744   6.232  0.6719 -0.3939 -0.8042
   27SOL     hw  106   0.621   5.654   6.227  1.6411 -0.6910 -2.2740
   27SOL     hw  107   0.735   5.737   6.280 -0.4573  0.1097  1.3287
   27SOL     vw  108   0.659   5.731   6.238  0.6508 -0.3664 -0.7167
   28SOL     ow  109   3.147   3.328   4.338 -0.4466  0.2391  0.0747
   28SOL     hw  110   3.117   3.270   4.268 -0.0693  1.5673 -1.2556
   28SOL     hw  111   3.179   3.269   4.406 -0.7810 -1.1128 -0.8907
   28SOL     vw  112   3.147   3.313   4.338 -0.4408  0.2359 -0.2284
   29SOL     ow  113   1.267   0.897   2.556 -0.5961 -0.4502 -0.3565
   29SOL     hw  114   1.196   0.842   2.523 -0.5980 -0.0095 -1.1119
   29SOL     hw  115   1.248   0.984   2.521 -0.8870  0.1687  1.2567
   29SOL     vw  116   1.255   0.902   2.547 -0.6348 -0.3104 -0.2434
   30SOL     ow  117   4.668   2.009   0.664  0.2573  0.5043  0.4452
   30SOL     hw  118   4.573   2.004   0.678  0.4275 -0.6355  1.3685
   30SOL     hw  119   4.693   2.093   0.701 -0.2622  0.3754  1.1087
   30SOL     vw  120   4.659   2.019   0.671  0.2112  0.3368  0.6546
   31SOL     ow  121   0.639   0.784   3.742 -0.3862  0.7768 -0.1159
   31SOL     hw  122   0.563   0.727   3.732 -1.1869  1.7157  0.3413
   31SOL     hw  123   0.664   0.773   3.834  0.7791 -0.3928 -0.5359
   31SOL     vw  124   0.632   0.775   3.753 -0.3381  0.7464 -0.1110
   32SOL     ow  125   6.465   3.105   3.125 -0.3528  0.7043  0.0997
   32SOL     hw  126   6.456   3.153   3.207  0.6653  1.9980 -0.5012
   32SOL     hw  127   6.537   3.043   3.141 -1.8437 -0.8938  0.9621
   32SOL     vw  128   6.473   3.103   3.138 -0.4153  0.6641  0.1342
   33SOL     ow  129   0.542   3.401   2.974  0.1749 -0.0805 -0.5783
   33SOL     hw  130   0.449   3.409   2.950 -0.1641  0.1226  0.7160
   33SOL     hw  131   0.541   3.363   3.062  1.3031  0.4229 -0.3293
   33SOL     vw  132   0.529   3.397   2.982  0.2790  0.0128 -0.3748
   34SOL     ow  133   1.657   5.005   0.346  0.1555  0.2842 -0.0287
   34SOL     hw  134   1.607   4.924   0.352 -0.6118  0.5210 -2.3766
   34SOL     hw  135   1.689   5.008   0.256  0.5806  2.3301  0.1275
   34SOL     vw  136   1.654   4.995   0.335  0.1104  0.5853 -0.3179
   35SOL     ow  137   5.238   2.983   1.572 -0.5455 -0.1878  0.3230
   35SOL     hw  138   5.175   3.054   1.560 -0.6961  0.1940  2.7890
   35SOL     hw  139   5.184   2.907   1.594 -0.2644  0.1681  2.5631
   35SOL     vw  140   5.222   2.982   1.574 -0.5279 -0.0905  0.9440
   36SOL     ow  141   6.746   5.054   2.503  0.1804  0.2222  0.3290
   36SOL     hw  142   6.711   5.028   2.418 -0.6055 -0.6397  0.8943
   36SOL     hw  143   6.707   4.993   2.565 -0.0546  1.4564  1.4499
   36SOL     vw  144   6.737   5.043   2.500  0.0458  0.2713  0.5515
   37SOL     ow  145   6.369   5.814   6.703  0.2963 -0.2723  0.3836
   37SOL     hw  146   6.307   5.843   6.770  1.4619  0.4996  1.1690
   37SOL     hw  147   6.422   5.892   6.684  1.3412 -1.0248  0.1139
   37SOL     vw  148   6.368   5.828   6.710  0.5879 -0.2697  0.4513
   38SOL     ow  149   3.051   1.135   5.775  0.0797 -0.2930 -0.1707
   38SOL     hw  150   3.016   1.074   5.710 -0.1678 -0.6502  0.2868
   38SOL     hw  151   2.981   1.142   5.840 -0.4153  1.4623 -0.8326
   38SOL     vw  152   3.037   1.128   5.775 -0.0182 -0.1084 -0.1976
   39SOL     ow  153   4.696   4.904   3.154  0.0093 -0.2393 -0.1371
   39SOL     hw  154   4.749   4.983   3.159 -0.0678 -0.1426 -0.7270
   39SOL     hw  155   4.725   4.860   3.074 -0.2382 -0.5914 -0.0384
   39SOL     vw  156   4.707   4.908   3.144 -0.0336 -0.2728 -0.2019
   40SOL     ow  157   4.897   4.910   1.343 -0.1537 -0.5136 -0.0099
   40SOL     hw  158   4.853   4.834   1.380  0.3581 -0.0049  1.7433
   40SOL     hw  159   4.986   4.906   1.378  0.1567  0.3743 -0.6549
   40SOL     vw  160   4.903   4.899   1.353 -0.0453 -0.3290  0.1363
   41SOL     ow  161   5.773   4.203   6.013 -0.0940  0.7731 -0.7709
   41SOL     hw  162   5.757   4.114   5.981 -0.4208  0.6741 -0.3430
   41SOL     hw  163   5.835   4.191   6.085 -0.3444  0.8599 -0.5371
   41SOL     vw  164   5.779   4.189   6.018 -0.1700  0.7718 -0.6838
   42SOL     ow  165   5.115   0.860   2.497 -0.5306  0.0190  0.2163
   42SOL     hw  166   5.081   0.947   2.516  0.4429  0.8083 -1.4130
   42SOL     hw  167   5.176   0.842   2.569 -0.3811  0.9019  0.3215
   42SOL     vw  168   5.119   0.869   2.509 -0.3822  0.2396  0.0151
   43SOL     ow  169   5.849   0.585   0.817  0.3093 -0.6835  0.1866
   43SOL     hw  170   5.919   0.648   0.798  0.5811 -1.6442 -2.3903
   43SOL     hw  171   5.796   0.628   0.884  0.7050  2.1277 -1.1446
   43SOL     vw  172   5.851   0.599   0.823  0.3977 -0.4394 -0.3290
   44SOL     ow  173   0.329   1.059   5.141  0.0022 -0.0906 -0.1225
   44SOL     hw  174   0.308   1.120   5.070 -0.6352  0.1724  0.2800
   44SOL     hw  175   0.269   0.986   5.130  0.8822 -0.7471 -0.7051
   44SOL     vw  176   0.318   1.058   5.130  0.0342 -0.1425 -0.1462
   45SOL     ow  177   1.381   4.580   0.241  0.3043  0.5976  0.4185
   45SOL     hw  178   1.346   4.645   0.180  1.5632  0.9162  0.0053
   45SOL     hw  179   1.433   4.631   0.304  1.0004  0.0391  0.3115
   45SOL     vw  180   1.383   4.595   0.241  0.5622  0.5658  0.3498
   46SOL     ow  181   3.330   5.660   6.556  0.4203 -0.1236  0.0581
   46SOL     hw  182   3.357   5.674   6.647  0.7292  0.4793 -0.1193
   46SOL     hw  183   3.338   5.566   6.543 -1.0653 -0.4426  1.1046
   46SOL     vw  184   3.335   5.649   6.566  0.2651 -0.0861  0.1729
   47SOL     ow  185   6.195   1.517   5.868 -0.7727  0.3589 -0.2863
   47SOL     hw  186   6.282   1.476   5.874  0.5570  2.7692 -1.3687
   47SOL     hw  187   6.145   1.461   5.810 -0.0291 -1.2059  0.5339
   47SOL     vw  188   6.200   1.504   5.861 -0.4990  0.4705 -0.3209
   48SOL     ow  189   6.375   4.627   2.156  0.9662  0.2001 -0.2597
   48SOL     hw  190   6.411   4.621   2.245  3.3998 -0.4141 -1.1820
   48SOL     hw  191   6.344   4.717   2.149 -1.2354 -0.3057  1.8379
   48SOL     vw  192   6.376   4.638   2.167  0.9968  0.0525 -0.1047
   49SOL     ow  193   4.725   1.372   2.111  0.0407  0.4174  0.1177
   49SOL     hw  194   4.659   1.403   2.173 -2.0588  1.9953 -2.6616
   49SOL     hw  195   4.808   1.381   2.158 -1.5209  0.0114  3.1721
   49SOL     vw  196   4.727   1.377   2.125 -0.4423  0.5721  0.1541
   50SOL     ow  197   6.143   2.974   5.960  0.0706  0.2763  0.4718
   50SOL     hw  198   6.161   3.068   5.953 -3.5276  1.0027 -2.7336
   50SOL     hw  199   6.167   2.938   5.874 -0.7840 -1.2383  0.8186
   50SOL     vw  200   6.148   2.981   5.948 -0.5169  0.1723  0.0947
   51SOL     ow  201   0.524   1.983   4.363 -0.1429  0.1195  0.2322
   51SOL     hw  202   0.440   1.984   4.317 -0.5022 -2.2870  0.7229
   51SOL     hw  203   0.507   2.028   4.445 -0.4179  1.3209 -0.4507
   51SOL     vw  204   0.511   1.989   4.367 -0.2266 -0.0395  0.2072
   52SOL     ow  205   4.973   1.372   1.281 -0.2295 -0.3355 -0.3225
   52SOL     hw  206   5.003   1.312   1.212  0.5310  0.4177 -0.6633
   52SOL     hw  207   5.054   1.402   1.323 -0.6670 -0.6313  0.7824
   52SOL     vw  208   4.988   1.368   1.278 -0.1872 -0.2751 -0.2217
   53SOL     ow  209   5.016   1.093   6.502 -0.6995  0.3265 -0.0309
   53SOL     hw  210   4.926   1.077   6.532  0.0391 -1.3289  1.5223
   53SOL     hw  211   5.037   1.181   6.533 -1.1220 -0.0694  1.4716
   53SOL     vw  212   5.007   1.103   6.510 -0.6578  0.0558  0.3724
   54SOL     ow  213   0.711   3.346   4.011 -0.3914  0.2362 -0.5955
   54SOL     hw  214   0.643   3.318   4.071 -0.4975 -0.8243 -1.1986
   54SOL     hw  215   0.666   3.360   3.928  0.0665 -0.1912 -0.9229
   54SOL     vw  216   0.696   3.344   4.008 -0.3449  0.0399 -0.7184
   55SOL     ow  217   6.521   1.864   0.875  0.4910 -0.3585 -0.2543
   55SOL     hw  218   6.545   1.949   0.840  1.9119 -0.0979  1.2186
   55SOL     hw  219   6.588   1.845   0.941 -1.4597 -1.2123  1.6181
   55SOL     vw  220   6.533   1.872   0.879  0.4210 -0.4368  0.1871
   56SOL     ow  221   2.667   5.681   6.806  0.1145 -0.3086 -0.1975
   56SOL     hw  222   2.729   5.631   6.858  0.8135  0.4189 -0.3117
   56SOL     hw  223   2.605   5.616   6.773  0.6343 -1.0021  0.1625
   56SOL     vw  224   2.667   5.666   6.809  0.2753 -0.3040 -0.1650
   57SOL     ow  225   4.160   1.362   0.318  0.7348  0.1850 -0.5165
   57SOL     hw  226   4.217   1.412   0.375  0.9003 -1.7481  1.1242
   57SOL     hw  227   4.194   1.272   0.322 -1.8956 -0.8819 -0.0970
   57SOL     vw  228   4.172   1.357   0.326  0.4094 -0.2108 -0.2447
   58SOL     ow  229   6.822   0.037   4.124  0.2379  0.3882 -0.3360
   58SOL     hw  230   6.817  -0.057   4.142 -1.2051  0.0340 -2.1847
   58SOL     hw  231   6.731   0.063   4.111  0.5925  2.1299  0.4188
   58SOL     vw  232   6.809   0.028   4.124  0.0944  0.5712 -0.4804
   59SOL     ow  233   6.023   4.084   3.031 -0.1859 -0.6868 -0.7644
   59SOL     hw  234   6.118   4.089   3.040 -0.1341  0.4202 -1.6668
   59SOL     hw  235   5.991   4.063   3.119  0.8589 -0.4877 -0.3305
   59SOL     vw  236   6.031   4.082   3.044 -0.0412 -0.5147 -0.8262
   60SOL     ow  237   1.235   6.817   2.538 -0.1655  0.6813  0.1001
   60SOL     hw  238   1.276   6.889   2.586  0.8347  0.5939 -0.5809
   60SOL     hw  239   1.258   6.834   2.446  2.1141 -1.7008  0.0926
   60SOL     vw  240   1.244   6.829   2.532  0.2673  0.3557  0.0093
   61SOL     ow  241   4.851   4.630   5.190  0.1491  0.5203  0.5632
   61SOL     hw  242   4.867   4.571   5.264 -0.8346  1.2760  1.4063
   61SOL     hw  243   4.817   4.573   5.121  0.3751 -0.0830  0.9385
   61SOL     vw  244   4.848   4.615   5.191  0.0491  0.5403  0.7241
   62SOL     ow  245   5.755   6.801   4.333  0.0619 -0.2791  0.8785
   62SOL     hw  246   5.674   6.793   4.383 -0.2931  0.4078  0.4346
   62SOL     hw  247   5.731   6.853   4.256  0.6870 -0.9877  0.1870
   62SOL     vw  248   5.741   6.807   4.330  0.0975 -0.2820  0.7291
   63SOL     ow  249   4.899   0.376   3.719  0.1686  0.7205  0.3259
   63SOL     hw  250   4.888   0.405   3.628  2.8030  1.0395  0.0198
   63SOL     hw  251   4.976   0.319   3.716 -0.0342  0.2893  2.2828
   63SOL     vw  252   4.908   0.372   3.707  0.4895  0.7057  0.5436
   64SOL     ow  253   2.157   5.219   5.253 -0.5793  0.2324  0.0829
   64SOL     hw  254   2.241   5.231   5.298 -0.1824 -0.3641 -0.4851
   64SOL     hw  255   2.129   5.131   5.277  0.3614 -0.6969 -1.9710
   64SOL     vw  256   2.164   5.209   5.262 -0.4027  0.0312 -0.2630
   65SOL     ow  257   1.779   6.376   2.010 -0.8422  0.7673  0.4017
   65SOL     hw  258   1.793   6.441   1.941  1.6240  0.2594  0.3316
   65SOL     hw  259   1.684   6.370   2.018 -1.2191  4.2884  0.3507
   65SOL     vw  260   1.768   6.384   2.002 -0.5665  1.1647  0.3858
   66SOL     ow  261   3.930   6.810   0.903 -0.4024 -0.3127  0.1450
   66SOL     hw  262   3.836   6.802   0.887  0.0172  0.5726 -3.6617
   66SOL     hw  263   3.941   6.899   0.936 -0.7782  0.1759 -1.0110
   66SOL     vw  264   3.919   6.820   0.905 -0.3966 -0.1314 -0.5097
   67SOL     ow  265   4.611   3.527   0.568  0.0338 -0.1067  0.3829
   67SOL     hw  266   4.644   3.615   0.590  0.4485 -0.7126  2.3864
   67SOL     hw  267   4.680   3.489   0.513  0.9961 -0.0102  1.4673
   67SOL     vw  268   4.625   3.534   0.564  0.2155 -0.1738  0.7903
   68SOL     ow  269   6.751   6.581   6.570  0.2088  0.6410  0.1552
   68SOL     hw  270   6.814   6.521   6.531  0.2897  1.4184 -0.9684
   68SOL     hw  271   6.732   6.545   6.657  4.5711  2.0080  1.9286
   68SOL     vw  272   6.757   6.568   6.576  0.7949  0.9239  0.2408
   69SOL     ow  273   5.494   1.542   5.043 -0.2828  0.2095  0.4033
   69SOL     hw  274   5.501   1.527   5.137 -0.4163  1.6693  0.6767
   69SOL     hw  275   5.582   1.571   5.017  0.1697 -1.5910 -0.2357
   69SOL     vw  276   5.507   1.544   5.052 -0.2408  0.1646  0.3552
   70SOL     ow  277   2.299   0.833   6.165 -0.3461 -0.7195 -0.4460
   70SOL     hw  278   2.387   0.856   6.194 -0.8864 -0.6710  1.2951
   70SOL     hw  279   2.313   0.774   6.091  1.1464 -0.8830 -0.0690
   70SOL     vw  280   2.313   0.828   6.159 -0.2204 -0.7347 -0.1664
   71SOL     ow  281   2.898   4.422   4.995  0.4881 -0.0772  0.4300
   71SOL     hw  282   2.868   4.478   4.924  0.8583 -1.7577 -1.1108
   71SOL     hw  283   2.898   4.334   4.958  1.6924 -0.8774  2.2060
   71SOL     vw  284   2.894   4.418   4.981  0.6957 -0.4046  0.4613
   72SOL     ow  285   0.753   4.034   0.771  0.7742 -0.2712 -0.2230
   72SOL     hw  286   0.831   3.990   0.737  0.9550 -0.5343  0.5152
   72SOL     hw  287   0.788   4.108   0.821  0.5040  0.2406 -0.7789
   72SOL     vw  288   0.768   4.038   0.773  0.7624 -0.2384 -0.1989
   73SOL     ow  289   3.246   6.267   5.052 -0.2966  0.0452  0.3924
   73SOL     hw  290   3.278   6.226   4.972  1.7273  0.7050  0.7841
   73SOL     hw  291   3.223   6.195   5.109 -1.0378 -0.4440 -0.5062
   73SOL     vw  292   3.247   6.252   5.049 -0.1274  0.0675  0.3254
   74SOL     ow  293   3.813   4.769   1.061  0.3941  0.2246  0.4008
   74SOL     hw  294   3.743   4.833   1.077 -0.3341  0.2484 -2.4415
   74SOL     hw  295   3.781   4.688   1.101  0.0954  0.9367  1.6592
   74SOL     vw  296   3.799   4.767   1.068  0.2586  0.3216  0.1919
   75SOL     ow  297   3.208   2.691   4.083 -0.7061  0.0950 -0.1802
   75SOL     hw  298   3.236   2.671   4.173 -1.1206  1.3550  0.2485
   75SOL     hw  299   3.127   2.740   4.094 -0.7578  0.2636 -1.2487
   75SOL     vw  300   3.201   2.695   4.096 -0.7677  0.2834 -0.2646
   76SOL     ow  301   3.108   3.476   6.463  0.2233  0.1668  0.4540
   76SOL     hw  302   3.029   3.498   6.415  0.3413 -1.9726 -0.8689
   76SOL     hw  303   3.158   3.557   6.466 -1.3295  1.1867 -0.0027
   76SOL     vw  304   3.104   3.489   6.457  0.0340  0.0191  0.2196
   77SOL     ow  305   3.581   5.947   2.688 -0.4439  0.5119 -0.0956
   77SOL     hw  306   3.662   5.896   2.687 -2.1226 -2.4546 -2.3719
   77SOL     hw  307   3.541   5.927   2.773 -0.0282 -0.1825 -0.0568
   77SOL     vw  308   3.587   5.938   2.699 -0.6106  0.0286 -0.3908
   78SOL     ow  309   6.568   1.312   2.416  0.0851  0.0468  0.3210
   78SOL     hw  310   6.581   1.235   2.471 -0.3823  0.0657  0.4595
   78SOL     hw  311   6.655   1.353   2.412 -0.0422  0.5309  1.7860
   78SOL     vw  312   6.581   1.307   2.423  0.0067  0.1132  0.5326
   79SOL     ow  313   5.793   6.506   0.007 -0.5242 -0.1019  0.9057
   79SOL     hw  314   5.792   6.588   0.057  1.9562  1.9881 -2.1219
   79SOL     hw  315   5.812   6.533  -0.083 -0.0659 -3.9982 -0.3262
   79SOL     vw  316   5.795   6.521   0.002 -0.1366 -0.3400  0.3438
   80SOL     ow  317   4.536   3.728   1.861 -0.5004 -0.0275  0.3138
   80SOL     hw  318   4.456   3.775   1.885  0.0354  2.2475 -1.9020
   80SOL     hw  319   4.599   3.752   1.929 -1.1117 -0.1726  0.9445
   80SOL     vw  320   4.534   3.737   1.873 -0.5105  0.2536  0.1047
   81SOL     ow  321   3.006   4.030   0.536  0.6787  0.2708  0.2899
   81SOL     hw  322   3.044   4.110   0.499  1.8074 -0.5790 -0.4668
   81SOL     hw  323   3.079   3.969   0.541  0.0468 -0.3986  1.8220
   81SOL     vw  324   3.021   4.033   0.531  0.7442  0.0703  0.3922
   82SOL     ow  325   1.499   4.321   6.090 -0.5926  0.0311 -0.3767
   82SOL     hw  326   1.567   4.388   6.100 -1.8053  1.2394  0.1639
   82SOL     hw  327   1.426   4.368   6.049 -1.9823 -0.5767  1.2775
   82SOL     vw  328   1.499   4.336   6.086 -0.9359  0.1101 -0.0870
   83SOL     ow  329   6.393   6.072   1.812 -0.6961  0.1317 -0.5657
   83SOL     hw  330   6.346   6.118   1.881 -0.6541  0.7408 -0.9451
   83SOL     hw  331   6.470   6.036   1.856 -0.3441  1.0435 -0.4181
   83SOL     vw  332   6.397   6.073   1.827 -0.6442  0.3321 -0.5963
   84SOL     ow  333   6.933   2.293   3.432  0.5009  0.1597  0.2835
   84SOL     hw  334   6.885   2.323   3.354 -1.5722 -3.7503 -0.1838
   84SOL     hw  335   6.868   2.294   3.502  1.4714  0.5757  1.1981
   84SOL     vw  336   6.918   2.297   3.431  0.3555 -0.3014  0.3424
   85SOL     ow  337   6.537   6.416   4.560  0.1354  0.0266  0.4248
   85SOL     hw  338   6.519   6.504   4.593  0.0837 -0.4700  1.7768
   85SOL     hw  339   6.451   6.375   4.552  0.2677 -0.4796  1.4924
   85SOL     vw  340   6.523   6.422   4.563  0.1462 -0.1056  0.7443
   86SOL     ow  341   5.634   2.907   2.834 -0.3780 -0.9556  0.1642
   86SOL     hw  342   5.611   2.889   2.925  3.3872 -0.5156  1.3865
   86SOL     hw  343   5.721   2.870   2.824 -0.0605  0.3247 -2.8359
   86SOL     vw  344   5.642   2.900   2.845  0.1609 -0.7287 -0.0705
   87SOL     ow  345   4.999   6.579   1.854  0.6676 -0.4556 -0.1551
   87SOL     hw  346   5.014   6.671   1.876 -0.2049 -0.1355 -0.8615
   87SOL     hw  347   4.904   6.567   1.861  0.6767 -1.0640 -0.9539
   87SOL     vw  348   4.989   6.590   1.858  0.5538 -0.4935 -0.3536
   88SOL     ow  349   1.916   6.543   2.207  0.0658  0.2012 -0.4506
   88SOL     hw  350   1.995   6.590   2.236  2.8591 -2.9522 -2.2097
   88SOL     hw  351   1.877   6.510   2.287  0.3882  1.9348  0.4829
   88SOL     vw  352   1.922   6.545   2.221  0.4770  0.0136 -0.5594
   89SOL     ow  353   6.176   1.751   2.844 -0.0893 -0.1459 -0.3340
   89SOL     hw  354   6.107   1.742   2.911  0.0536  1.0892  0.0082
   89SOL     hw  355   6.163   1.676   2.786 -2.1009  0.3639 -0.6056
   89SOL     vw  356   6.165   1.740   2.845 -0.3359  0.0843 -0.3248
   90SOL     ow  357   4.042   0.160   1.853  0.1665  0.5623 -0.6615
   90SOL     hw  358   4.041   0.252   1.880  1.6604  0.6553 -0.8189
   90SOL     hw  359   3.966   0.121   1.896 -0.1914  1.7578 -0.1769
   90SOL     vw  360   4.032   0.167   1.862  0.3164  0.7323 -0.6183
   91SOL     ow  361   3.980   0.788   2.253 -0.0467 -0.4855 -0.0728
   91SOL     hw  362   3.932   0.712   2.219  0.3421 -0.7156 -0.1183
   91SOL     hw  363   3.957   0.859   2.194  1.5504 -1.1511 -1.5901
   91SOL     vw  364   3.970   0.787   2.241  0.2152 -0.6037 -0.2789
   92SOL     ow  365   1.324   4.318   5.036  0.0158 -0.2481 -0.1291
   92SOL     hw  366   1.241   4.349   5.072  0.5452  0.6650  0.3459
   92SOL     hw  367   1.389   4.380   5.069  0.9400 -1.1443 -0.2116
   92SOL     vw  368   1.321   4.330   5.045  0.2075 -0.2458 -0.0775
   93SOL     ow  369   2.414   6.146   4.136 -0.0297 -0.4116 -0.4389
   93SOL     hw  370   2.490   6.118   4.085  0.7551 -2.4471  1.6578
   93SOL     hw  371   2.446   6.219   4.190  0.0639 -0.3917 -0.5223
   93SOL     vw  372   2.428   6.152   4.137  0.0862 -0.6776 -0.1731
   94SOL     ow  373   0.707   1.328   0.797 -0.3636  0.3219  0.2292
   94SOL     hw  374   0.753   1.291   0.721 -0.6852  0.1955  0.0960
   94SOL     hw  375   0.777   1.352   0.857  0.0728  2.7215 -1.0975
   94SOL     vw  376   0.722   1.326   0.794 -0.3484  0.6217  0.0365
   95SOL     ow  377   4.464   5.481   0.296  0.1119 -0.0567 -0.0731
   95SOL     hw  378   4.420   5.457   0.214 -1.1360  1.8637 -0.0202
   95SOL     hw  379   4.469   5.577   0.293  0.0690  0.0509  2.0685
   95SOL     vw  380   4.459   5.491   0.285 -0.0584  0.2110  0.2164
   96SOL     ow  381   4.107   4.761   1.047  0.1535 -0.5620 -0.8370
   96SOL     hw  382   4.201   4.774   1.039 -0.0433  1.5492 -0.3305
   96SOL     hw  383   4.094   4.737   1.139  0.0798  0.7927 -0.4721
   96SOL     vw  384   4.117   4.760   1.058  0.1175 -0.1049 -0.7221
   97SOL     ow  385   4.881   3.016   0.006 -0.5881  0.0182  0.1773
   97SOL     hw  386   4.798   2.975   0.030  0.2247 -1.3752  0.7428
   97SOL     hw  387   4.912   3.057   0.087 -0.6583  0.4318 -0.0020
   97SOL     vw  388   4.874   3.016   0.020 -0.4900 -0.1111  0.2283
   98SOL     ow  389   3.158   4.436   5.818 -0.4067 -0.1557  0.4431
   98SOL     hw  390   3.181   4.427   5.725  0.2653 -0.4946  0.6319
   98SOL     hw  391   3.102   4.513   5.822  1.3650  1.2278  0.0496
   98SOL     vw  392   3.154   4.445   5.806 -0.0844 -0.0179  0.4163
   99SOL     ow  393   3.341   3.972   4.679 -0.6282 -0.0580 -0.5542
   99SOL     hw  394   3.383   4.036   4.737  1.3011 -1.0096 -0.8285
   99SOL     hw  395   3.280   4.024   4.627 -0.1373  1.3234  0.1904
   99SOL     vw  396   3.338   3.988   4.680 -0.3088 -0.0012 -0.4919
  100SOL     ow  397   5.583   2.380   6.766 -0.0317 -0.2550  0.3633
  100SOL     hw  398   5.581   2.465   6.722 -0.4374 -1.0430 -1.2232
  100SOL     hw  399   5.567   2.400   6.858 -1.7264  1.2468 -0.2018
  100SOL     vw  400   5.581   2.393   6.772 -0.3088 -0.1607  0.0794
  101SOL     ow  401   6.091   4.299   5.591 -0.3752 -0.3722  0.1733
  101SOL     hw  402   6.033   4.309   5.515 -1.4167  0.2160  1.0266
  101SOL     hw  403   6.154   4.371   5.582 -0.9432  0.1416  0.2538
  101SOL     vw  404   6.091   4.310   5.580 -0.5875 -0.2272  0.2964
  102SOL     ow  405   0.010   6.140   1.100 -0.3199 -1.0032 -0.1778
  102SOL     hw  406   0.053   6.054   1.098 -1.5426 -1.6383 -1.0435
  102SOL     hw  407  -0.064   6.130   1.040  0.1901  1.0396 -1.2220
  102SOL     vw  408   0.006   6.127   1.092 -0.4139 -0.8173 -0.4298
  103SOL     ow  409   5.998   5.040   0.459  0.2871 -0.5487  0.8369
  103SOL     hw  410   6.035   5.004   0.378 -0.4314 -0.5438  0.5061
  103SOL     hw  411   5.915   5.078   0.433 -0.3425 -1.2751  1.7199
  103SOL     vw  412   5.992   5.040   0.445  0.1094 -0.6437  0.9098
  104SOL     ow  413   3.625   4.405   1.775  0.0314  0.5135 -0.6440
  104SOL     hw  414   3.544   4.433   1.732  0.0696 -0.4017 -1.3413
  104SOL     hw  415   3.691   4.406   1.706  0.6999  1.5348 -0.0158
  104SOL     vw  416   3.623   4.409   1.760  0.1246  0.5276 -0.6531
  105SOL     ow  417   2.685   5.805   3.448 -0.2667  0.4132  0.9160
  105SOL     hw  418   2.773   5.840   3.434  0.5294 -1.9678 -0.8214
  105SOL     hw  419   2.634   5.839   3.374 -0.4934  0.8672  1.2811
  105SOL     vw  420   2.690   5.814   3.436 -0.1916  0.1588  0.7349
  106SOL     ow  421   5.694   2.130   2.615  0.5453  0.0339  1.0098
  106SOL     hw  422   5.674   2.057   2.557  1.0045  2.3618 -2.3815
  106SOL     hw  423   5.782   2.111   2.648  1.4839 -0.0997 -1.3950
  106SOL     vw  424   5.703   2.118   2.612  0.7298  0.3234  0.2451
  107SOL     ow  425   6.069   3.934   5.657 -0.3251 -0.0049  0.2890
  107SOL     hw  426   6.000   3.886   5.703  0.0568 -0.1635  0.7088
  107SOL     hw  427   6.089   3.880   5.581 -2.8491  1.5520 -1.6466
  107SOL     vw  428   6.063   3.921   5.653 -0.6075  0.1796  0.0889
  108SOL     ow  429   3.260   1.019   6.414 -0.3049 -0.5658 -0.2502
  108SOL     hw  430   3.247   1.010   6.508 -0.8551 -0.9188 -0.3557
  108SOL     hw  431   3.354   1.034   6.404 -0.0999 -1.4330  0.2946
  108SOL     vw  432   3.271   1.020   6.425 -0.3504 -0.7268 -0.1919
  109SOL     ow  433   6.635   0.494   4.865  0.3354  0.2319  0.6954
  109SOL     hw  434   6.561   0.493   4.926 -0.2707 -0.2453 -0.0239
  109SOL     hw  435   6.707   0.454   4.913  0.3056  1.2041  1.6009
  109SOL     vw  436   6.635   0.489   4.879  0.2511  0.2972  0.7200
  110SOL     ow  437   6.758   3.603   2.815  0.0941 -0.0623 -0.2095
  110SOL     hw  438   6.843   3.561   2.802  1.1677  2.1799 -1.0361
  110SOL     hw  439   6.714   3.595   2.730  0.1278  0.0598 -0.2401
  110SOL     vw  440   6.764   3.596   2.802  0.2403  0.2497 -0.3226
  111SOL     ow  441   1.746   3.297   6.735  0.0491  0.0386 -0.1214
  111SOL     hw  442   1.738   3.391   6.718 -0.7481  0.1984  1.0083
  111SOL     hw  443   1.698   3.256   6.663 -0.8897  0.5783  0.1706
  111SOL     vw  444   1.739   3.304   6.723 -0.1799  0.1309  0.0663
  112SOL     ow  445   5.420   1.149   1.954 -0.4531 -0.2253  0.0898
  112SOL     hw  446   5.343   1.097   1.933 -0.3127 -1.1792  1.7819
  112SOL     hw  447   5.414   1.225   1.896 -0.5037 -2.2022 -2.7255
  112SOL     vw  448   5.409   1.152   1.943 -0.4413 -0.6120 -0.0584
  113SOL     ow  449   6.732   0.183   1.996  0.4500 -0.2447 -0.0904
  113SOL     hw  450   6.729   0.265   1.948 -0.9225 -0.1407  0.1436
  113SOL     hw  451   6.678   0.198   2.074 -0.5158 -1.6153 -0.4589
  113SOL     vw  452   6.724   0.196   2.000  0.1414 -0.4118 -0.1081
  114SOL     ow  453   1.333   1.797   1.789 -0.3554 -0.1240  0.5363
  114SOL     hw  454   1.308   1.705   1.788 -0.0945 -0.2063 -0.7941
  114SOL     hw  455   1.250   1.845   1.798 -0.4647 -0.4807  1.4932
  114SOL     vw  456   1.319   1.791   1.790 -0.3353 -0.1819  0.4870
  115SOL     ow  457   2.600   0.127   5.061  0.3393 -0.5283  0.3307
  115SOL     hw  458   2.689   0.095   5.078  0.3114 -0.1919  1.1302
  115SOL     hw  459   2.573   0.081   4.981  1.1687 -0.7563  0.1724
  115SOL     vw  460   2.608   0.117   5.053  0.4450 -0.5140  0.4153
  116SOL     ow  461   1.326   2.064   6.078  0.1332  0.2910  0.4874
  116SOL     hw  462   1.260   2.131   6.097 -0.3463 -0.0548  0.0773
  116SOL     hw  463   1.284   1.982   6.104  0.7630  0.1550  1.1045
  116SOL     vw  464   1.312   2.062   6.084  0.1531  0.2275  0.5147
  117SOL     ow  465   3.638   0.135   6.509 -0.2288 -0.3320  0.4727
  117SOL     hw  466   3.543   0.127   6.520 -0.2658 -1.4323 -0.4468
  117SOL     hw  467   3.651   0.141   6.414  0.5525  1.1018  0.6407
  117SOL     vw  468   3.627   0.135   6.498 -0.1305 -0.2880  0.3738
  118SOL     ow  469   6.263   3.981   0.879 -0.2295 -0.3587 -0.4834
  118SOL     hw  470   6.225   4.058   0.836 -2.0011 -0.8533  0.0911
  118SOL     hw  471   6.335   4.016   0.931 -1.4175  1.0644  0.2935
  118SOL     vw  472   6.267   3.996   0.880 -0.6199 -0.2362 -0.3051
  119SOL     ow  473   4.907   5.515   2.381  0.2241 -0.2106  0.4991
  119SOL     hw  474   4.855   5.461   2.441 -1.1385 -0.8387 -1.1194
  119SOL     hw  475   4.982   5.544   2.432 -0.0367 -2.0139  2.0289
  119SOL     vw  476   4.910   5.512   2.395  0.0100 -0.5314  0.4873
  120SOL     ow  477   5.496   3.493   1.512 -0.3744  0.2918  0.3768
  120SOL     hw  478   5.403   3.489   1.533 -0.4662  0.3393 -0.0103
  120SOL     hw  479   5.498   3.509   1.417  0.0193  1.1318  0.5190
  120SOL     vw  480   5.484   3.495   1.502 -0.3345  0.4089  0.3446
  121SOL     ow  481   4.515   2.530   5.304 -1.2631  0.0828  0.4283
  121SOL     hw  482   4.436   2.491   5.343 -1.1494 -0.0286  0.5476
  121SOL     hw  483   4.579   2.459   5.302  0.1515  1.0246  3.9209
  121SOL     vw  484   4.513   2.516   5.309 -1.0614  0.1923  0.9048
  122SOL     ow  485   4.240   6.438   2.496 -0.0376  0.1084 -0.0855
  122SOL     hw  486   4.312   6.501   2.502  0.9812 -0.9118 -1.0567
  122SOL     hw  487   4.268   6.365   2.552 -0.6345 -0.0161  0.0617
  122SOL     vw  488   4.253   6.437   2.504  0.0181 -0.0427 -0.1942
  123SOL     ow  489   1.653   2.297   2.350 -0.7040  0.1035 -0.2704
  123SOL     hw  490   1.661   2.208   2.316  0.1532  0.6643 -1.6361
  123SOL     hw  491   1.736   2.314   2.394 -0.5831  0.4645 -0.6332
  123SOL     vw  492   1.665   2.288   2.351 -0.5750  0.2251 -0.4984
  124SOL     ow  493   4.382   3.105   2.419  0.2144 -0.3495  0.2110
  124SOL     hw  494   4.333   3.157   2.355 -1.3111 -0.1865  1.4550
  124SOL     hw  495   4.439   3.169   2.463 -0.7971  0.0675  0.9345
  124SOL     vw  496   4.383   3.121   2.416 -0.1202 -0.2729  0.4705
  125SOL     ow  497   0.162   3.221   5.946 -0.3499  0.4794  0.3333
  125SOL     hw  498   0.131   3.204   5.857  0.6077 -1.1763  0.2565
  125SOL     hw  499   0.180   3.315   5.948 -0.8049  0.6252 -1.0822
  125SOL     vw  500   0.160   3.231   5.934 -0.2836  0.2801  0.1366
  126SOL     ow  501   3.580   0.569   1.145 -0.2002 -0.1594  0.4558
  126SOL     hw  502   3.667   0.598   1.115  0.1369  0.1025  1.6265
  126SOL     hw  503   3.533   0.548   1.064  1.3918 -1.6170 -0.1818
  126SOL     vw  504   3.586   0.570   1.130  0.0542 -0.3171  0.5261
  127SOL     ow  505   5.631   3.996   2.263  0.3282  0.7140  0.1914
  127SOL     hw  506   5.710   3.988   2.317  2.0857 -1.7437 -2.4450
  127SOL     hw  507   5.663   4.028   2.179 -1.6444  0.5135 -0.6849
  127SOL     vw  508   5.646   3.999   2.259  0.3002  0.3632 -0.2720
  128SOL     ow  509   6.482   5.122   2.583  0.0766 -0.0697 -0.3853
  128SOL     hw  510   6.449   5.127   2.493  2.5028 -0.5566 -1.3891
  128SOL     hw  511   6.537   5.200   2.592 -0.1439 -0.0239  0.7055
  128SOL     vw  512   6.485   5.133   2.572  0.3679 -0.1278 -0.3738
  129SOL     ow  513   1.423   5.403   4.586 -0.4310 -0.1705 -0.1163
  129SOL     hw  514   1.505   5.444   4.616  0.1456  0.2021 -2.0454
  129SOL     hw  515   1.369   5.477   4.559 -0.2193 -0.5349 -1.6238
  129SOL     vw  516   1.427   5.418   4.587 -0.3271 -0.1693 -0.5701
  130SOL     ow  517   5.797   5.993   5.143  0.8744  0.2461  0.7885
  130SOL     hw  518   5.817   6.087   5.146  2.7730  0.0001 -1.0786
  130SOL     hw  519   5.883   5.951   5.146  0.3251 -1.2530 -1.6607
  130SOL     vw  520   5.811   6.000   5.144  1.0521  0.0157  0.2186
  131SOL     ow  521   5.880   1.320   1.242  1.1934  0.7091  0.2099
  131SOL     hw  522   5.920   1.405   1.256  4.1094 -0.5346  0.1509
  131SOL     hw  523   5.910   1.293   1.155  1.4136 -0.9038  0.7530
  131SOL     vw  524   5.889   1.327   1.232  1.6072  0.3322  0.2738
  132SOL     ow  525   3.986   3.269   2.459 -0.4365 -0.0542 -0.1822
  132SOL     hw  526   3.898   3.239   2.479  0.3998 -1.7828  1.1592
  132SOL     hw  527   4.019   3.208   2.394  0.8525 -1.5122  1.7010
  132SOL     vw  528   3.979   3.257   2.453 -0.1560 -0.4746  0.2432
  133SOL     ow  529   0.634   4.651   4.785 -0.7352  0.2184 -0.5688
  133SOL     hw  530   0.697   4.707   4.831  0.2568 -1.3540  0.0753
  133SOL     hw  531   0.580   4.711   4.735  0.0028  1.7760  0.4425
  133SOL     vw  532   0.635   4.666   4.784 -0.5069  0.2167 -0.3505
  134SOL     ow  533   2.756   6.502   1.020 -0.0515  0.5854 -0.1483
  134SOL     hw  534   2.831   6.476   1.074 -0.9157  0.0100  0.7939
  134SOL     hw  535   2.724   6.583   1.060 -0.9777 -0.0907  0.5072
  134SOL     vw  536   2.762   6.509   1.032 -0.2878  0.4201  0.0625
  135SOL     ow  537   6.651   5.398   0.839  0.5972 -0.2249 -0.2349
  135SOL     hw  538   6.639   5.387   0.745  1.2830  2.9640 -0.8271
  135SOL     hw  539   6.744   5.417   0.850  0.2796  0.8382  0.8765
  135SOL     vw  540   6.661   5.399   0.828  0.6461  0.3359 -0.1664
  136SOL     ow  541   5.911   3.545   3.823 -0.3508  0.4494 -0.4899
  136SOL     hw  542   5.937   3.505   3.740 -0.2677 -0.1420 -0.1867
  136SOL     hw  543   5.847   3.612   3.799  1.6342  2.1695 -1.2853
  136SOL     vw  544   5.906   3.549   3.809 -0.0780  0.5982 -0.5549
  137SOL     ow  545   0.798   4.840   3.756  0.5329  0.4816  0.2075
  137SOL     hw  546   0.764   4.906   3.817 -0.8458 -0.9569  1.0716
  137SOL     hw  547   0.893   4.848   3.764  0.4258  2.4930  0.1103
  137SOL     vw  548   0.806   4.850   3.765  0.3369  0.5574  0.3088
  138SOL     ow  549   3.298   5.433   2.345  0.4594 -0.7921 -0.2032
  138SOL     hw  550   3.335   5.432   2.433  1.2503  0.4125 -0.5000
  138SOL     hw  551   3.241   5.511   2.344 -0.3353 -1.3585 -0.4550
  138SOL     vw  552   3.295   5.443   2.357  0.4588 -0.7081 -0.2756
  139SOL     ow  553   4.519   2.785   1.216 -0.7357  0.8734 -0.2296
  139SOL     hw  554   4.521   2.872   1.255 -1.3189  1.2983 -1.1051
  139SOL     hw  555   4.460   2.794   1.141 -2.7789 -0.8737  1.0684
  139SOL     vw  556   4.512   2.798   1.211 -1.0822  0.6990 -0.1739
  140SOL     ow  557   5.415   3.726   5.398  0.0076 -0.7840  0.0292
  140SOL     hw  558   5.370   3.663   5.342  0.8852 -0.2326 -1.3710
  140SOL     hw  559   5.507   3.698   5.396  0.3314  0.2558 -0.2510
  140SOL     vw  560   5.421   3.714   5.390  0.1662 -0.5740 -0.1926
  141SOL     ow  561   1.208   1.469   3.064 -0.0561  0.3103  0.1688
  141SOL     hw  562   1.279   1.405   3.068  1.6544  2.1572  2.8166
  141SOL     hw  563   1.241   1.538   3.006 -0.5435  0.2901 -0.1424
  141SOL     vw  564   1.222   1.470   3.057  0.1053  0.5514  0.4771
  142SOL     ow  565   1.708   2.283   5.215  0.5165  0.3336  0.7077
  142SOL     hw  566   1.655   2.332   5.279  0.2946  0.1525  0.6654
  142SOL     hw  567   1.645   2.254   5.149  0.2857 -1.6753  1.7240
  142SOL     vw  568   1.692   2.285   5.215  0.4568  0.0447  0.8361
  143SOL     ow  569   6.274   5.184   2.836 -0.5026  0.0797 -0.4901
  143SOL     hw  570   6.231   5.268   2.819 -1.5471 -0.7237 -2.1214
  143SOL     hw  571   6.219   5.142   2.902 -1.2003 -0.1688 -1.2100
  143SOL     vw  572   6.261   5.190   2.842 -0.7327 -0.0591 -0.8003
  144SOL     ow  573   6.880   1.552   3.073 -0.0463  0.3628  0.0555
  144SOL     hw  574   6.958   1.535   3.125 -0.2006  2.6030  1.1502
  144SOL     hw  575   6.808   1.547   3.136 -0.8312 -1.6028 -0.9272
  144SOL     vw  576   6.881   1.549   3.088 -0.1702  0.3990  0.0702
  145SOL     ow  577   5.702   5.429   4.944 -0.2453  0.0894 -0.0031
  145SOL     hw  578   5.683   5.502   4.884  1.5393  1.8733  1.4738
  145SOL     hw  579   5.797   5.429   4.953 -0.0663 -3.1596 -0.7187
  145SOL     vw  580   5.712   5.439   4.937  0.0138 -0.1040  0.0973
  146SOL     ow  581   0.531   4.421   3.133 -0.4343  0.3310  0.9154
  146SOL     hw  582   0.481   4.343   3.107 -0.2401  0.1863  0.9816
  146SOL     hw  583   0.622   4.396   3.124 -0.3616  0.2899  1.7108
  146SOL     vw  584   0.536   4.408   3.128 -0.3991  0.3066  1.0291
  147SOL     ow  585   4.421   6.341   6.770  0.3908 -0.3473 -0.3269
  147SOL     hw  586   4.395   6.347   6.862  2.7278 -1.0545  0.4392
  147SOL     hw  587   4.343   6.368   6.721 -1.8244 -2.5113  1.7416
  147SOL     vw  588   4.407   6.345   6.776  0.4070 -0.7265  0.0472
  148SOL     ow  589   4.604   5.695   5.675 -1.0460 -0.7099  0.1722
  148SOL     hw  590   4.532   5.633   5.681 -0.5224 -1.4030 -0.6735
  148SOL     hw  591   4.652   5.671   5.596  1.0152 -1.2444  1.4851
  148SOL     vw  592   4.601   5.684   5.666 -0.7052 -0.8717  0.2339
  149SOL     ow  593   4.088   2.664   1.628 -0.1266 -0.5472  0.6091
  149SOL     hw  594   4.061   2.604   1.559 -0.7775 -0.1249  0.4937
  149SOL     hw  595   4.007   2.688   1.672 -0.1178  1.5498 -0.3963
  149SOL     vw  596   4.074   2.659   1.625 -0.2115 -0.2148  0.4612
  150SOL     ow  597   3.353   6.532   4.954  0.2027  0.7215  0.1885
  150SOL     hw  598   3.427   6.514   4.896  1.1305  0.9073  1.2717
  150SOL     hw  599   3.277   6.535   4.896  0.6282 -2.0506 -0.6650
  150SOL     vw  600   3.352   6.530   4.939  0.3814  0.3803  0.2189
  151SOL     ow  601   6.513   0.346   4.633  0.2228 -0.0434  0.1292
  151SOL     hw  602   6.553   0.263   4.661 -3.0302 -1.0491  2.4130
  151SOL     hw  603   6.436   0.319   4.581 -0.0274  1.6064 -0.4100
  151SOL     vw  604   6.508   0.331   4.630 -0.2396  0.0415  0.3595
  152SOL     ow  605   6.085   0.162   1.454 -0.1054  0.2109  0.7435
  152SOL     hw  606   6.080   0.180   1.548  0.0744  0.3939  0.7171
  152SOL     hw  607   5.996   0.177   1.422 -0.4663 -1.0599  1.1020
  152SOL     vw  608   6.073   0.166   1.462 -0.1295  0.0673  0.7873
  153SOL     ow  609   2.133   4.927   1.031 -0.3323 -0.0008 -0.4616
  153SOL     hw  610   2.183   4.918   1.112  0.7393 -1.6000 -1.2604
  153SOL     hw  611   2.180   4.874   0.967 -1.4979  0.7235 -1.9937
  153SOL     vw  612   2.146   4.919   1.034 -0.3448 -0.1163 -0.7691
  154SOL     ow  613   5.712   5.050   0.210  0.9503 -0.6181  0.2261
  154SOL     hw  614   5.711   5.056   0.114  0.0696 -1.2725  0.1739
  154SOL     hw  615   5.669   4.967   0.229  0.5245 -0.1910  1.2111
  154SOL     vw  616   5.706   5.040   0.200  0.7780 -0.6483  0.3491
  155SOL     ow  617   3.854   6.458   1.574  0.3893 -0.1371  0.3057
  155SOL     hw  618   3.772   6.471   1.621  0.1153  0.3607 -0.3147
  155SOL     hw  619   3.912   6.417   1.639 -0.7478 -1.7442  0.3704
  155SOL     vw  620   3.851   6.454   1.589  0.2031 -0.2835  0.2323
  156SOL     ow  621   5.610   1.471   1.286 -0.3487  0.1485  0.2890
  156SOL     hw  622   5.574   1.454   1.199 -1.0441 -0.2039  0.6422
  156SOL     hw  623   5.534   1.474   1.344  0.1928 -0.7212  1.0611
  156SOL     vw  624   5.595   1.469   1.282 -0.3691 -0.0128  0.4375
  157SOL     ow  625   2.293   1.236   4.190  0.1211  0.1125  0.7932
  157SOL     hw  626   2.384   1.264   4.189  0.1756 -0.0504  1.0807
  157SOL     hw  627   2.247   1.306   4.237 -0.2560  1.2316 -1.1520
  157SOL     vw  628   2.299   1.249   4.196  0.0784  0.2387  0.5744
  158SOL     ow  629   3.212   0.890   2.617  0.2430  0.4000  0.3396
  158SOL     hw  630   3.138   0.937   2.656  1.4521  1.0612  1.9463
  158SOL     hw  631   3.175   0.847   2.540 -2.1562 -0.4793  1.8592
  158SOL     vw  632   3.197   0.891   2.612  0.0859  0.3712  0.7521
  159SOL     ow  633   4.730   5.724   4.774 -0.0802  0.3138 -0.5815
  159SOL     hw  634   4.761   5.663   4.841 -0.0382  0.7881 -0.1649
  159SOL     hw  635   4.801   5.788   4.765 -0.7482  1.1722  0.0869
  159SOL     vw  636   4.743   5.724   4.782 -0.1626  0.4897 -0.4382
  160SOL     ow  637   3.535   2.627   3.122  0.4683 -0.0144  0.3222
  160SOL     hw  638   3.526   2.534   3.139  0.1092  0.2051  1.3856
  160SOL     hw  639   3.537   2.668   3.208 -0.2242  1.0420 -0.1395
  160SOL     vw  640   3.534   2.620   3.135  0.3295  0.1539  0.4016
  161SOL     ow  641   0.999   0.115   6.187  0.1701  0.3264 -0.7996
  161SOL     hw  642   1.017   0.138   6.096  3.5637 -0.0760 -0.3512
  161SOL     hw  643   1.083   0.125   6.232 -0.6777 -2.2591  1.6943
  161SOL     vw  644   1.013   0.119   6.181  0.5059 -0.0678 -0.4115
  162SOL     ow  645   6.257   2.129   4.485 -0.5371  0.0431  0.2069
  162SOL     hw  646   6.278   2.136   4.392 -1.3128 -1.1068 -0.0755
  162SOL     hw  647   6.164   2.152   4.490 -0.3967  0.5102  0.7588
  162SOL     vw  648   6.247   2.133   4.474 -0.6208 -0.0471  0.2427
  163SOL     ow  649   5.866   4.231   2.808  0.0155 -0.0501 -0.1229
  163SOL     hw  650   5.888   4.174   2.734  0.7334 -0.0178  0.0515
  163SOL     hw  651   5.839   4.313   2.766  1.5588  0.3742 -0.3752
  163SOL     vw  652   5.866   4.235   2.793  0.3138  0.0103 -0.1332
  164SOL     ow  653   4.652   1.578   2.939  0.4953  0.5929  0.0691
  164SOL     hw  654   4.718   1.513   2.915 -0.8615 -0.1126 -2.0360
  164SOL     hw  655   4.667   1.650   2.878 -0.8362  0.2877 -0.6523
  164SOL     vw  656   4.663   1.579   2.927  0.1407  0.4595 -0.3040
  165SOL     ow  657   3.107   1.771   6.528  0.3454 -0.1169 -0.5559
  165SOL     hw  658   3.187   1.744   6.482 -0.1898 -0.9045 -1.0484
  165SOL     hw  659   3.126   1.750   6.620 -0.5930 -3.8920 -1.0321
  165SOL     vw  660   3.120   1.764   6.534  0.1509 -0.7189 -0.6835
  166SOL     ow  661   4.898   1.611   1.168 -0.4311 -0.4099  0.0864
  166SOL     hw  662   4.899   1.560   1.087 -0.8443 -1.1611  0.5541
  166SOL     hw  663   4.924   1.550   1.236 -1.8927 -0.2794  0.8070
  166SOL     vw  664   4.902   1.596   1.166 -0.6785 -0.4918  0.2432
  167SOL     ow  665   5.551   6.279   3.856 -0.1863 -0.0144 -0.1516
  167SOL     hw  666   5.457   6.279   3.842 -0.0818 -1.2198 -1.0089
  167SOL     hw  667   5.585   6.212   3.796  1.0005 -0.9690  1.4905
  167SOL     vw  668   5.543   6.270   3.846 -0.0157 -0.2992 -0.0480
  168SOL     ow  669   4.522   1.908   5.980 -0.7658 -0.0518  0.0363
  168SOL     hw  670   4.531   1.971   5.909  0.0294 -0.9632 -0.7048
  168SOL     hw  671   4.605   1.860   5.980 -0.9679 -0.4350  1.2226
  168SOL     vw  672   4.534   1.910   5.971 -0.6876 -0.2226  0.0949
  169SOL     ow  673   3.570   2.257   5.532  0.2492 -0.2046  0.4882
  169SOL     hw  674   3.524   2.301   5.460  1.1519 -0.1139 -0.0453
  169SOL     hw  675   3.567   2.320   5.604  0.4567  0.2397  0.1198
  169SOL     vw  676   3.563   2.271   5.532  0.3958 -0.1340  0.3693
  170SOL     ow  677   2.453   2.693   3.158 -0.0070  0.0265 -0.5292
  170SOL     hw  678   2.521   2.672   3.093  1.1383 -0.1584  0.6993
  170SOL     hw  679   2.458   2.788   3.168 -0.6701  0.1437 -1.2095
  170SOL     vw  680   2.463   2.703   3.150  0.0565  0.0175 -0.4569
  171SOL     ow  681   3.023   2.782   5.100 -0.3913 -0.1069 -0.1392
  171SOL     hw  682   3.111   2.820   5.104 -1.5276  2.6684  1.8206
  171SOL     hw  683   3.012   2.739   5.185 -1.6775  1.6258  0.6335
  171SOL     vw  684   3.033   2.781   5.112 -0.7110  0.4877  0.2210
  172SOL     ow  685   4.720   5.747   1.663 -0.5659 -0.4437 -0.0480
  172SOL     hw  686   4.753   5.836   1.665  0.8755 -0.9552 -0.1217
  172SOL     hw  687   4.778   5.700   1.603 -1.4515 -1.3795 -0.2122
  172SOL     vw  688   4.732   5.752   1.655 -0.4926 -0.6349 -0.0795
  173SOL     ow  689   4.780   1.704   1.416  0.5794 -0.4576 -0.5091
  173SOL     hw  690   4.839   1.646   1.463  0.5442 -0.5669 -0.5993
  173SOL     hw  691   4.788   1.788   1.461  0.7402 -0.4942 -0.4706
  173SOL     vw  692   4.789   1.708   1.428  0.5958 -0.4768 -0.5159
  174SOL     ow  693   5.936   4.196   5.807 -0.3079  0.2696 -0.0849
  174SOL     hw  694   5.909   4.224   5.894 -0.4471 -0.6132  0.1682
  174SOL     hw  695   5.909   4.104   5.802  1.2928 -0.2077 -0.3938
  174SOL     vw  696   5.929   4.187   5.818 -0.1152  0.0904 -0.0920
  175SOL     ow  697   6.774   0.130   3.203 -0.1169 -0.0182 -0.5265
  175SOL     hw  698   6.730   0.057   3.158  1.4021 -1.4285  0.1679
  175SOL     hw  699   6.867   0.115   3.189  0.2567  1.5246  0.0765
  175SOL     vw  700   6.780   0.118   3.195  0.1326 -0.0007 -0.3555
  176SOL     ow  701   3.393   1.385   1.416 -0.2992  0.3048 -0.2339
  176SOL     hw  702   3.310   1.341   1.396  1.0245 -1.3919 -2.2667
  176SOL     hw  703   3.390   1.465   1.363 -0.4730  0.0739 -0.5759
  176SOL     vw  704   3.381   1.390   1.406 -0.1475  0.0504 -0.5472
  177SOL     ow  705   6.638   6.366   4.852  0.0446  0.4037  0.0659
  177SOL     hw  706   6.613   6.453   4.882 -0.1666  0.0005  1.1277
  177SOL     hw  707   6.653   6.317   4.933 -1.6998 -1.0809 -0.4463
  177SOL     vw  708   6.637   6.371   4.867 -0.2131  0.1547  0.1388
  178SOL     ow  709   4.845   6.765   4.616  0.1874  0.3385 -0.3385
  178SOL     hw  710   4.839   6.749   4.710  0.8462 -0.6233 -0.4454
  178SOL     hw  711   4.882   6.685   4.580  3.3400  1.9219 -0.9899
  178SOL     vw  712   4.849   6.753   4.624  0.6902  0.4206 -0.4385
  179SOL     ow  713   0.469   5.303   4.306  0.5196 -0.3496  0.3176
  179SOL     hw  714   0.510   5.274   4.387  0.9025  2.6107  1.2647
  179SOL     hw  715   0.535   5.285   4.239  0.6984 -1.6305  0.7968
  179SOL     vw  716   0.483   5.297   4.308  0.5937 -0.1280  0.5057
  180SOL     ow  717   5.947   2.538   3.365  0.1973  0.1349  0.3161
  180SOL     hw  718   6.013   2.597   3.328  1.1696  0.3623  2.2805
  180SOL     hw  719   5.867   2.591   3.368  0.9714  1.2951  1.7088
  180SOL     vw  720   5.945   2.553   3.360  0.4280  0.3181  0.7590
  181SOL     ow  721   3.394   0.491   1.372  0.1395 -0.1758 -0.3786
  181SOL     hw  722   3.392   0.398   1.348 -0.6012 -0.3767  0.4336
  181SOL     hw  723   3.425   0.492   1.463 -0.1835  0.3442 -0.2672
  181SOL     vw  724   3.398   0.479   1.381 -0.0008 -0.1337 -0.2567
  182SOL     ow  725   2.688   3.385   5.886  0.3396  0.4355  0.4764
  182SOL     hw  726   2.692   3.462   5.942  1.5027  1.5816 -1.0775
  182SOL     hw  727   2.777   3.350   5.885 -0.2645 -1.2496  1.5188
  182SOL     vw  728   2.700   3.390   5.893  0.4135  0.3643  0.4089
  183SOL     ow  729   4.010   1.395   1.417  0.1307 -0.0396 -0.2758
  183SOL     hw  730   4.067   1.472   1.418  0.6241 -0.3054 -2.6117
  183SOL     hw  731   3.941   1.417   1.355 -0.7471 -0.8288  0.3807
  183SOL     vw  732   4.009   1.408   1.409  0.0801 -0.1788 -0.4975
  184SOL     ow  733   1.191   2.606   4.725 -0.4365  0.9478 -0.5669
  184SOL     hw  734   1.187   2.621   4.820  1.5337 -0.5620 -0.1737
  184SOL     hw  735   1.164   2.689   4.686 -0.0617  2.0182  1.3221
  184SOL     vw  736   1.187   2.619   4.733 -0.1271  0.8899 -0.2661
  185SOL     ow  737   2.614   6.722   3.982  0.3481  0.4683 -0.1993
  185SOL     hw  738   2.520   6.730   3.994  0.1826 -0.5965 -0.6256
  185SOL     hw  739   2.644   6.812   3.965 -1.1471  0.4840 -3.7447
  185SOL     vw  740   2.606   6.735   3.981  0.1290  0.3297 -0.7234
  186SOL     ow  741   4.002   1.208   1.175  0.3553 -0.6288 -0.1173
  186SOL     hw  742   4.057   1.144   1.130  0.5205 -0.0394 -0.7605
  186SOL     hw  743   3.915   1.168   1.176  0.1084 -0.1869 -1.9368
  186SOL     vw  744   3.998   1.194   1.169  0.3443 -0.4928 -0.4423
  187SOL     ow  745   4.734   2.528   4.038 -0.2487  0.0015 -0.1140
  187SOL     hw  746   4.769   2.476   3.966 -0.8119  0.0790 -0.4514
  187SOL     hw  747   4.757   2.618   4.016  0.9441 -0.1071  0.5942
  187SOL     vw  748   4.742   2.533   4.026 -0.1655 -0.0027 -0.0651
  188SOL     ow  749   4.400   2.782   5.317 -0.1362 -0.2604 -0.1615
  188SOL     hw  750   4.461   2.821   5.380  1.3840  0.5061 -2.0126
  188SOL     hw  751   4.324   2.841   5.317  0.6480  0.7776 -0.3761
  188SOL     vw  752   4.398   2.795   5.325  0.1676 -0.0223 -0.4339
  189SOL     ow  753   5.325   1.874   0.549  0.3277 -0.2930  0.0050
  189SOL     hw  754   5.257   1.855   0.484  1.7615 -0.1616 -1.6217
  189SOL     hw  755   5.390   1.926   0.501  2.5389 -2.0656  0.9178
  189SOL     vw  756   5.325   1.879   0.534  0.8085 -0.5096 -0.0892
  190SOL     ow  757   1.174   2.002   1.824  0.2501  0.9053 -0.5088
  190SOL     hw  758   1.103   2.005   1.888  0.7130 -0.6437  0.1139
  190SOL     hw  759   1.146   2.062   1.755 -0.3304  2.5154  1.0423
  190SOL     vw  760   1.161   2.011   1.823  0.2346  0.9133 -0.2220
  191SOL     ow  761   3.825   1.719   6.284 -0.0515 -1.0324 -0.3368
  191SOL     hw  762   3.892   1.786   6.268 -0.5072  0.2096  2.3899
  191SOL     hw  763   3.764   1.728   6.211  0.5120  0.7766 -0.6457
  191SOL     vw  764   3.826   1.729   6.273 -0.0372 -0.6300 -0.0176
  192SOL     ow  765   2.981   6.901   6.800 -0.0871 -0.9265  0.4351
  192SOL     hw  766   3.025   6.954   6.733  1.5193  0.6623  2.6255
  192SOL     hw  767   2.890   6.929   6.795  0.8343  3.1835  2.2615
  192SOL     vw  768   2.975   6.912   6.790  0.2465 -0.1748  0.9651
  193SOL     ow  769   4.391   1.889   3.349  0.0325 -0.3563  0.2217
  193SOL     hw  770   4.305   1.895   3.390 -0.3892  1.8546 -0.8778
  193SOL     hw  771   4.450   1.867   3.421 -1.2810 -0.8524  1.1809
  193SOL     vw  772   4.387   1.887   3.364 -0.1962 -0.1301  0.2033
  194SOL     ow  773   4.206   1.503   0.029 -0.4582  0.5497  0.1784
  194SOL     hw  774   4.205   1.593  -0.003  0.3898  0.3188 -0.5442
  194SOL     hw  775   4.215   1.450  -0.050  1.5236 -0.0573  0.7534
  194SOL     vw  776   4.207   1.508   0.014 -0.0849  0.4392  0.1590
  195SOL     ow  777   3.854   3.782   5.809  0.1366  0.0801 -0.5644
  195SOL     hw  778   3.833   3.874   5.826  0.3266 -0.1433  1.0117
  195SOL     hw  779   3.830   3.769   5.718  1.6396  2.1323 -1.3504
  195SOL     vw  780   3.848   3.793   5.799  0.3601  0.3215 -0.4604
  196SOL     ow  781   4.291   3.774   4.595 -0.5742 -0.0245 -0.1742
  196SOL     hw  782   4.247   3.696   4.561 -2.7208  0.0554  2.1533
  196SOL     hw  783   4.226   3.843   4.589  0.9055  1.3646 -1.0872
  196SOL     vw  784   4.277   3.772   4.589 -0.6623  0.1693  0.0124
  197SOL     ow  785   6.203   6.394   0.312  0.3492 -0.2868  0.4392
  197SOL     hw  786   6.163   6.405   0.398 -0.5835  2.2965 -0.2399
  197SOL     hw  787   6.136   6.351   0.259 -0.4642  1.3175  0.1085
  197SOL     vw  788   6.189   6.390   0.316  0.1187  0.2656  0.3060
  198SOL     ow  789   1.707   1.072   2.127 -0.2760 -0.7741 -0.1681
  198SOL     hw  790   1.780   1.012   2.111  0.2211 -0.3798  0.5823
  198SOL     hw  791   1.744   1.142   2.180 -0.4176  1.0964 -2.3496
  198SOL     vw  792   1.721   1.073   2.132 -0.2291 -0.4753 -0.3570
  199SOL     ow  793   3.357   5.520   5.855 -0.3269 -0.0260  0.4223
  199SOL     hw  794   3.427   5.575   5.819 -0.3652 -1.4118 -1.9914
  199SOL     hw  795   3.276   5.559   5.821 -0.5505 -0.0164  0.9542
  199SOL     vw  796   3.355   5.532   5.845 -0.3614 -0.2074  0.1738
  200SOL     ow  797   6.432   1.839   2.881  0.3445 -0.6772  0.0955
  200SOL     hw  798   6.339   1.819   2.875  0.4007 -1.7692  1.9558
  200SOL     hw  799   6.465   1.825   2.792 -1.5100  1.4053 -1.0148
  200SOL     vw  800   6.424   1.834   2.868  0.1068 -0.5465  0.1944
  201SOL     ow  801   6.211   1.054   6.602 -0.0192  0.3691  0.0814
  201SOL     hw  802   6.148   1.125   6.610 -1.1485 -0.7171  1.4256
  201SOL     hw  803   6.239   1.037   6.693  4.1845  2.4422 -0.5659
  201SOL     vw  804   6.206   1.061   6.615  0.3862  0.4993  0.1733
  202SOL     ow  805   3.050   2.232   3.737  0.3797 -0.2263 -0.0436
  202SOL     hw  806   3.070   2.268   3.651  1.9978  1.1137  0.8422
  202SOL     hw  807   3.133   2.237   3.785 -0.0722 -2.4644  1.0916
  202SOL     vw  808   3.064   2.237   3.732  0.5336 -0.3449  0.2230
  203SOL     ow  809   3.981   5.035   1.100  0.9639  0.1220 -0.1836
  203SOL     hw  810   4.021   5.121   1.098  2.3090 -0.3826  1.8946
  203SOL     hw  811   3.929   5.034   1.181  3.3124 -1.8905  1.4601
  203SOL     vw  812   3.979   5.046   1.111  1.4511 -0.2100  0.3074
  204SOL     ow  813   6.136   5.647   5.698 -0.6332 -0.3680  0.9361
  204SOL     hw  814   6.086   5.676   5.774 -0.5164  0.8254  0.5869
  204SOL     hw  815   6.073   5.644   5.627  0.0508  3.5780 -0.1218
  204SOL     vw  816   6.121   5.651   5.699 -0.5276  0.3099  0.7501
  205SOL     ow  817   4.504   5.815   6.340 -0.1082  0.2269 -0.1736
  205SOL     hw  818   4.426   5.798   6.289 -0.8581 -2.6548  1.7038
  205SOL     hw  819   4.554   5.733   6.338  0.7329  0.5797  2.0995
  205SOL     vw  820   4.501   5.802   6.333 -0.0961 -0.1066  0.3741
  206SOL     ow  821   3.349   3.737   4.798 -0.4055  0.0374 -0.6870
  206SOL     hw  822   3.344   3.821   4.752 -0.6937 -0.9017 -2.4713
  206SOL     hw  823   3.278   3.741   4.862 -1.2239  0.7074 -1.5966
  206SOL     vw  824   3.339   3.748   4.800 -0.5516  0.0018 -1.0426
  207SOL     ow  825   0.823   2.155   4.316  0.5428 -0.7466 -0.8648
  207SOL     hw  826   0.754   2.199   4.266 -0.6787 -2.8176 -1.0698
  207SOL     hw  827   0.825   2.202   4.400 -0.9154 -0.4806 -0.9558
  207SOL     vw  828   0.814   2.167   4.320  0.1892 -0.9847 -0.9041
  208SOL     ow  829   6.936   6.584   0.475  0.0759  0.4957 -0.0095
  208SOL     hw  830   6.878   6.562   0.403 -0.7472  0.1633  0.7349
  208SOL     hw  831   6.990   6.506   0.488 -0.8108 -0.0192  0.7011
  208SOL     vw  832   6.936   6.571   0.468 -0.1497  0.3841  0.1825
  209SOL     ow  833   1.457   2.658   0.719 -0.6259  0.1012 -0.3674
  209SOL     hw  834   1.475   2.707   0.799  0.1447  0.3363 -0.6692
  209SOL     hw  835   1.436   2.570   0.749  1.9102 -0.4505  0.0442
  209SOL     vw  836   1.457   2.653   0.733 -0.1897  0.0595 -0.3529
  210SOL     ow  837   4.273   2.782   1.403  0.0746  0.0557  0.1287
  210SOL     hw  838   4.320   2.865   1.412  0.6683 -0.3111  0.5179
  210SOL     hw  839   4.323   2.733   1.338 -0.9194  0.4305 -0.9503
  210SOL     vw  840   4.286   2.786   1.396  0.0219  0.0567  0.0377
  211SOL     ow  841   1.200   3.101   0.630  0.3749 -0.1696  0.1515
  211SOL     hw  842   1.159   3.080   0.546  2.1906  0.6090 -0.9881
  211SOL     hw  843   1.244   3.184   0.616 -0.6771  0.8821  2.4291
  211SOL     vw  844   1.200   3.109   0.617  0.4756  0.0720  0.3016
  212SOL     ow  845   3.988   0.227   3.914  0.2852  0.2947 -0.5678
  212SOL     hw  846   4.001   0.157   3.850  1.9256  1.7210 -1.9135
  212SOL     hw  847   4.018   0.306   3.869 -3.1629  2.2442  0.2080
  212SOL     vw  848   3.994   0.228   3.899  0.0468  0.7401 -0.6429
  213SOL     ow  849   0.101   5.951   0.268  0.1069 -0.0071 -0.5145
  213SOL     hw  850   0.115   6.029   0.321  0.2573  0.4118 -1.1620
  213SOL     hw  851   0.155   5.964   0.190  0.8899 -1.1986 -0.1950
  213SOL     vw  852   0.110   5.963   0.265  0.2300 -0.1090 -0.5578
  214SOL     ow  853   0.771   6.326   2.431 -0.0159  0.0955 -0.2971
  214SOL     hw  854   0.745   6.417   2.440 -0.1107 -0.0319  0.8240
  214SOL     hw  855   0.753   6.286   2.516  2.3831 -0.3620  0.0740
  214SOL     vw  856   0.765   6.332   2.443  0.2881  0.0184 -0.1003
  215SOL     ow  857   5.748   5.748   4.993  0.6403 -0.6455  0.5207
  215SOL     hw  858   5.704   5.664   4.983  0.2684 -0.3883 -0.0131
  215SOL     hw  859   5.836   5.734   4.959  0.1457 -0.4477 -0.9040
  215SOL     vw  860   5.754   5.735   4.987  0.5260 -0.5853  0.2623
  216SOL     ow  861   3.828   2.405   0.554 -0.8943 -0.2618  0.2811
  216SOL     hw  862   3.815   2.500   0.547  0.9777  0.1603  1.5977
  216SOL     hw  863   3.740   2.368   0.550 -1.5570  1.3559 -1.9728
  216SOL     vw  864   3.815   2.413   0.553 -0.7346  0.0073  0.1575
  217SOL     ow  865   6.794   5.318   0.126 -0.8781 -0.1459 -0.0676
  217SOL     hw  866   6.721   5.368   0.163 -0.5638 -0.3266  0.8403
  217SOL     hw  867   6.864   5.382   0.116 -0.5784 -0.3192  0.7974
  217SOL     vw  868   6.794   5.333   0.130 -0.7970 -0.1926  0.1663
  218SOL     ow  869   1.235   6.022   0.437 -0.5520  0.3330  0.4348
  218SOL     hw  870   1.280   6.029   0.353 -0.1203 -0.1841  0.6115
  218SOL     hw  871   1.196   6.108   0.451 -0.7282  0.3905 -0.3468
  218SOL     vw  872   1.236   6.034   0.428 -0.5183  0.2723  0.3550
  219SOL     ow  873   4.129   4.225   3.882 -0.2995  0.4685 -0.7623
  219SOL     hw  874   4.189   4.164   3.838  0.8946 -0.1473  1.5341
  219SOL     hw  875   4.053   4.229   3.825  0.9981 -0.5005 -2.6852
  219SOL     vw  876   4.127   4.218   3.869  0.0293  0.2594 -0.7131
  220SOL     ow  877   0.874   4.964   2.113 -0.7056 -0.4117 -0.3299
  220SOL     hw  878   0.945   5.009   2.067  0.1563 -0.2489  1.0858
  220SOL     hw  879   0.823   5.034   2.154  0.5725 -0.6173  1.7854
  220SOL     vw  880   0.877   4.979   2.112 -0.4233 -0.4172  0.1360
  221SOL     ow  881   6.743   4.958   1.431  0.1415 -0.5182  0.3996
  221SOL     hw  882   6.729   4.922   1.343  0.7253 -0.4537  0.2773
  221SOL     hw  883   6.694   4.899   1.489 -1.3108  0.1692 -0.0886
  221SOL     vw  884   6.734   4.945   1.427  0.0272 -0.4189  0.3191
  222SOL     ow  885   5.452   5.215   0.162  0.4318 -0.5084  0.3277
  222SOL     hw  886   5.465   5.254   0.075 -1.4735  1.2274  0.7452
  222SOL     hw  887   5.380   5.154   0.150  1.1231 -1.3573  0.4144
  222SOL     vw  888   5.445   5.212   0.149  0.2718 -0.3915  0.3942
  223SOL     ow  889   0.208   5.168   2.402 -0.1566  0.0849  0.3565
  223SOL     hw  890   0.286   5.223   2.408 -0.1098 -0.0505  1.1245
  223SOL     hw  891   0.204   5.141   2.310  0.6201  0.2086  0.2828
  223SOL     vw  892   0.217   5.171   2.390 -0.0479  0.0832  0.4481
  224SOL     ow  893   4.971   5.285   4.124 -0.1382  0.3515  0.0748
  224SOL     hw  894   4.929   5.206   4.091  0.3681  0.6129 -1.2853
  224SOL     hw  895   5.003   5.261   4.212  1.0021 -1.3377 -0.7360
  224SOL     vw  896   4.970   5.271   4.131  0.0792  0.1628 -0.2120
  225SOL     ow  897   3.057   6.409   3.335 -0.8203 -0.2490  0.2022
  225SOL     hw  898   3.010   6.373   3.411 -0.5027 -0.3708  0.3434
  225SOL     hw  899   3.122   6.467   3.374 -1.1197  0.2338 -0.0116
  225SOL     vw  900   3.059   6.412   3.350 -0.8180 -0.2012  0.1926
  226SOL     ow  901   4.643   5.855   3.056  0.9719 -0.2960 -0.6173
  226SOL     hw  902   4.629   5.950   3.054 -1.3299 -0.3695  2.5991
  226SOL     hw  903   4.736   5.845   3.076  1.1892  1.3048 -0.6563
  226SOL     vw  904   4.653   5.866   3.058  0.6969 -0.0944 -0.1981
  227SOL     ow  905   3.197   4.881   1.061  0.4825 -0.5293 -0.1995
  227SOL     hw  906   3.247   4.957   1.032  1.4392 -1.0261  0.1239
  227SOL     hw  907   3.245   4.847   1.137  1.2908 -2.7239 -1.6091
  227SOL     vw  908   3.210   4.886   1.067  0.7154 -0.8843 -0.3429
  228SOL     ow  909   4.040   3.546   2.344 -0.0401 -0.2461 -0.1624
  228SOL     hw  910   3.956   3.553   2.299  0.7795 -0.1180 -1.7755
  228SOL     hw  911   4.061   3.636   2.370 -0.3064 -0.2444  0.0408
  228SOL     vw  912   4.032   3.559   2.341  0.0327 -0.2290 -0.3483
  229SOL     ow  913   4.795   0.533   1.190 -0.4443  0.6348  0.4157
  229SOL     hw  914   4.789   0.455   1.135  1.2919  0.2409  0.7309
  229SOL     hw  915   4.706   0.568   1.191 -0.4713  1.0079 -3.0898
  229SOL     vw  916   4.782   0.527   1.183 -0.2186  0.6320 -0.0052
  230SOL     ow  917   2.409   6.778   3.151 -0.2647  0.3856 -0.0193
  230SOL     hw  918   2.414   6.695   3.197  0.3487 -0.4494 -1.5532
  230SOL     hw  919   2.500   6.808   3.144 -0.2578  0.0689 -1.4368
  230SOL     vw  920   2.422   6.771   3.156 -0.1829  0.2337 -0.4085
  231SOL     ow  921   2.962   3.928   5.658  0.0385  0.0197  0.2697
  231SOL     hw  922   2.923   3.905   5.743  0.2849 -0.2431  0.3112
  231SOL     hw  923   3.055   3.913   5.670  0.1403  0.5189  0.1245
  231SOL     vw  924   2.969   3.923   5.671  0.0843  0.0509  0.2561
  232SOL     ow  925   5.370   2.838   1.283  0.3926  0.1562 -0.2022
  232SOL     hw  926   5.333   2.774   1.222  0.5120 -1.7643  1.5826
  232SOL     hw  927   5.462   2.812   1.291  0.5658  0.8724  0.1816
  232SOL     vw  928   5.378   2.826   1.276  0.4311 -0.0026  0.0840
  233SOL     ow  929   3.441   2.909   2.270 -0.0392 -0.3490 -0.1415
  233SOL     hw  930   3.515   2.925   2.211 -0.4573  1.2604 -0.2900
  233SOL     hw  931   3.477   2.924   2.358  0.3274 -1.7273 -0.0370
  233SOL     vw  932   3.456   2.913   2.274 -0.0460 -0.3184 -0.1473
  234SOL     ow  933   2.719   1.839   5.535  0.2215  0.1441 -0.8365
  234SOL     hw  934   2.647   1.822   5.596  1.3368 -0.4578  0.3601
  234SOL     hw  935   2.687   1.911   5.480 -0.9610  0.4771  0.2221
  234SOL     vw  936   2.705   1.846   5.536  0.2126  0.1086 -0.5391
  235SOL     ow  937   5.525   6.611   5.406  0.2636 -0.2505 -0.0596
  235SOL     hw  938   5.526   6.642   5.496  0.5821 -1.6214  0.4264
  235SOL     hw  939   5.524   6.691   5.353  1.3789  0.5815  1.1263
  235SOL     vw  940   5.525   6.625   5.411  0.4528 -0.3214  0.1609
  236SOL     ow  941   6.024   1.779   5.836 -0.0809  0.2573 -0.4624
  236SOL     hw  942   5.941   1.775   5.884  0.1663  3.6333  0.4955
  236SOL     hw  943   5.999   1.793   5.745 -0.5971  0.4970 -0.2882
  236SOL     vw  944   6.010   1.780   5.830 -0.1161  0.7343 -0.3130
  237SOL     ow  945   6.680   5.797   3.952 -0.2773 -0.0178  0.7140
  237SOL     hw  946   6.643   5.790   3.865  0.7273  0.4892  0.2341
  237SOL     hw  947   6.605   5.805   4.010 -0.9127  1.1772 -0.2484
  237SOL     vw  948   6.665   5.797   3.948 -0.2284  0.2067  0.5237
  238SOL     ow  949   1.214   1.179   0.277 -0.3830 -0.4014  0.3140
  238SOL     hw  950   1.263   1.188   0.359 -0.6362 -1.1057  0.5517
  238SOL     hw  951   1.133   1.135   0.303 -1.2810  1.0186 -0.0265
  238SOL     vw  952   1.210   1.174   0.291 -0.5350 -0.3070  0.3005
  239SOL     ow  953   1.742   0.345   2.156 -0.4489  0.2641  0.4268
  239SOL     hw  954   1.776   0.435   2.151 -0.4617  0.1927 -2.4975
  239SOL     hw  955   1.649   0.356   2.173 -0.5823  0.8583 -0.6322
  239SOL     vw  956   1.734   0.359   2.158 -0.4681  0.3331 -0.0988
  240SOL     ow  957   0.894   4.906   3.494  0.4121  0.0431 -0.4042
  240SOL     hw  958   0.917   4.969   3.426 -0.3146 -0.0652 -0.7563
  240SOL     hw  959   0.940   4.826   3.470  2.6772  0.8687  0.9300
  240SOL     vw  960   0.903   4.904   3.482  0.6150  0.1378 -0.2745
  241SOL     ow  961   6.819   1.670   4.284  0.2439 -0.3586  0.0371
  241SOL     hw  962   6.812   1.677   4.379 -0.3505  1.7481 -0.1185
  241SOL     hw  963   6.906   1.706   4.264  1.1174 -2.3949 -0.1382
  241SOL     vw  964   6.830   1.676   4.294  0.2809 -0.3493 -0.0067
  242SOL     ow  965   3.618   3.633   2.843  0.3973 -0.1501 -0.2205
  242SOL     hw  966   3.598   3.720   2.808  0.4811  0.4396  1.1323
  242SOL     hw  967   3.605   3.574   2.769  1.4077  1.1224 -1.4557
  242SOL     vw  968   3.613   3.636   2.829  0.5416  0.0956 -0.2050
  243SOL     ow  969   1.374   5.977   5.023 -0.5979 -0.8118  0.2611
  243SOL     hw  970   1.337   5.914   4.962  0.8830 -0.6406 -0.8724
  243SOL     hw  971   1.325   5.963   5.104 -1.5234 -2.1584 -0.4826
  243SOL     vw  972   1.363   5.967   5.026 -0.5246 -0.9665  0.0136
  244SOL     ow  973   5.242   4.064   0.533 -0.2928 -0.1199 -0.0862
  244SOL     hw  974   5.243   4.011   0.453  1.3023 -1.0059  0.4824
  244SOL     hw  975   5.334   4.073   0.557 -0.7441  0.0193  1.7330
  244SOL     vw  976   5.254   4.058   0.525 -0.1419 -0.2184  0.2288
  245SOL     ow  977   1.275   5.931   1.403 -0.5192  0.1083  0.2253
  245SOL     hw  978   1.227   5.852   1.377  1.3904 -1.0183 -0.0729
  245SOL     hw  979   1.300   5.972   1.320  0.2195 -0.0872  0.3455
  245SOL     vw  980   1.272   5.926   1.388 -0.1698 -0.0663  0.2018
  246SOL     ow  981   5.932   0.410   2.721 -0.4568 -0.5817 -0.1323
  246SOL     hw  982   5.880   0.464   2.780  0.7396 -0.3552  0.7563
  246SOL     hw  983   5.871   0.384   2.652 -1.8922 -0.8265  1.1812
  246SOL     vw  984   5.917   0.414   2.719 -0.4885 -0.5841  0.1583
  247SOL     ow  985   0.420   2.487   2.418 -0.4374  0.2236  0.6493
  247SOL     hw  986   0.343   2.442   2.384  0.8747 -2.4068  0.9157
  247SOL     hw  987   0.452   2.430   2.488  3.0222  0.0009 -0.9210
  247SOL     vw  988   0.414   2.474   2.423  0.1921 -0.1529  0.4773
  248SOL     ow  989   4.019   2.504   4.770 -0.1013  0.0269  0.6635
  248SOL     hw  990   4.101   2.518   4.723  0.0426 -1.0921  0.5360
  248SOL     hw  991   3.981   2.427   4.727 -1.1459  0.4386  0.8206
  248SOL     vw  992   4.025   2.495   4.758 -0.2201 -0.0665  0.6671
  249SOL     ow  993   1.434   0.149   3.589  0.5373  0.1872  0.6574
  249SOL     hw  994   1.406   0.136   3.679 -1.0133  0.6985  0.2998
  249SOL     hw  995   1.352   0.158   3.540  1.2979 -1.2148 -0.9941
  249SOL     vw  996   1.419   0.148   3.594  0.4331  0.0697  0.3923
  250SOL     ow  997   6.835   5.861   4.196  0.0237 -0.4080 -0.1065
  250SOL     hw  998   6.765   5.895   4.253 -0.6745 -1.3517 -0.3797
  250SOL     hw  999   6.901   5.828   4.257  0.7023  1.3587  0.1649
  250SOL     vw 1000   6.834   5.861   4.212  0.0212 -0.2997 -0.1070
  251SOL     ow 1001   1.934   2.120   5.062  0.9518 -0.4116 -0.0553
  251SOL     hw 1002   1.936   2.028   5.086  1.3584 -0.0530  1.3613
  251SOL     hw 1003   1.972   2.122   4.974 -2.0708 -1.9471 -1.5371
  251SOL     vw 1004   1.940   2.108   5.053  0.6067 -0.5670 -0.0639
  252SOL     ow 1005   0.261   5.505   4.416 -0.3651  0.4418  0.5073
  252SOL     hw 1006   0.283   5.596   4.395  0.1727  0.5202  1.3604
  252SOL     hw 1007   0.203   5.510   4.491  1.3136  0.0497  1.9126
  252SOL     vw 1008   0.256   5.517   4.423 -0.0727  0.4003  0.8051
  253SOL     ow 1009   5.575   5.096   3.166  0.1429 -0.4543  0.0188
  253SOL     hw 1010   5.582   5.049   3.249  0.5426  0.7907  0.7235
  253SOL     hw 1011   5.645   5.059   3.111  0.8133 -0.2989  0.7542
  253SOL     vw 1012   5.586   5.085   3.170  0.2840 -0.2697  0.2089
  254SOL     ow 1013   0.450   4.586   2.876  0.3166  0.2004  0.6164
  254SOL     hw 1014   0.442   4.496   2.845  1.2573  0.4400 -0.3891
  254SOL     hw 1015   0.526   4.621   2.829 -1.2434  2.1520 -0.5854
  254SOL     vw 1016   0.459   4.579   2.866  0.2349  0.4892  0.3251
  255SOL     ow 1017   2.872   2.651   0.086 -0.1859 -0.1392  0.8939
  255SOL     hw 1018   2.842   2.602   0.009  0.7435 -0.3667  0.6676
  255SOL     hw 1019   2.963   2.673   0.066 -0.7238  2.2301  0.7063
  255SOL     vw 1020   2.880   2.647   0.073 -0.1342  0.1433  0.8393
  256SOL     ow 1021   6.625   0.672   0.102 -0.3737  0.2468  0.5373
  256SOL     hw 1022   6.625   0.655   0.196 -0.3674  0.0522  0.5026
  256SOL     hw 1023   6.540   0.712   0.085 -0.8453 -0.7664  0.4430
  256SOL     vw 1024   6.614   0.675   0.112 -0.4349  0.0875  0.5203
  257SOL     ow 1025   4.029   1.262   3.281 -0.5386  0.1914 -0.0608
  257SOL     hw 1026   4.017   1.334   3.343 -0.0153 -0.5996  0.9856
  257SOL     hw 1027   4.004   1.183   3.330  1.0849 -0.5908 -0.4274
  257SOL     vw 1028   4.024   1.261   3.295 -0.2553 -0.0162  0.0288
  258SOL     ow 1029   1.258   1.637   0.307  0.3240 -0.3216  0.1056
  258SOL     hw 1030   1.333   1.594   0.266 -0.4054 -0.6610 -0.9180
  258SOL     hw 1031   1.295   1.710   0.355  1.2257  0.1799 -1.2972
  258SOL     vw 1032   1.272   1.641   0.308  0.3467 -0.3002 -0.2145
  259SOL     ow 1033   6.236   0.220   1.206 -0.9254  0.4797 -0.2183
  259SOL     hw 1034   6.148   0.249   1.183 -0.2165  2.3494 -0.8056
  259SOL     hw 1035   6.267   0.173   1.128 -1.4213 -0.2704  0.0279
  259SOL     vw 1036   6.229   0.218   1.192 -0.8974  0.6274 -0.2633
  260SOL     ow 1037   0.724   4.871   1.193  0.4979 -0.5802 -0.0316
  260SOL     hw 1038   0.766   4.784   1.194 -1.1720 -1.4189  0.0676
  260SOL     hw 1039   0.634   4.853   1.168  0.3942  1.2833 -1.1238
  260SOL     vw 1040   0.718   4.857   1.190  0.2639 -0.4451 -0.1626
  261SOL     ow 1041   1.353   2.335   2.409  0.1548  0.1568 -0.1764
  261SOL     hw 1042   1.270   2.380   2.391  1.7631  3.2910 -0.6288
  261SOL     hw 1043   1.374   2.359   2.499 -0.1448 -1.9678  0.4938
  261SOL     vw 1044   1.345   2.344   2.418  0.3275  0.2902 -0.1477
  262SOL     ow 1045   5.070   3.172   4.696  0.0835  0.2681 -0.1921
  262SOL     hw 1046   5.158   3.195   4.725 -0.0813  0.5875  0.0548
  262SOL     hw 1047   5.075   3.173   4.601  0.7224 -1.1193 -0.1998
  262SOL     vw 1048   5.083   3.175   4.688  0.1464  0.1272 -0.1602
  263SOL     ow 1049   4.864   4.426   2.535  0.5884  0.6048  0.3801
  263SOL     hw 1050   4.822   4.471   2.463  0.6582  1.4681  0.8722
  263SOL     hw 1051   4.895   4.495   2.593  0.8427 -0.0640  1.0680
  263SOL     vw 1052   4.863   4.441   2.533  0.6309  0.6304  0.5358
  264SOL     ow 1053   6.116   6.273   3.452  0.7288  0.3768 -0.5160
  264SOL     hw 1054   6.028   6.300   3.479  1.4037  1.9212  0.3053
  264SOL     hw 1055   6.161   6.355   3.432  1.2799 -0.4866 -3.3702
  264SOL     vw 1056   6.111   6.288   3.453  0.8907  0.4668 -0.7842
  265SOL     ow 1057   2.043   1.726   0.437 -0.3717 -0.1370 -0.2388
  265SOL     hw 1058   2.106   1.727   0.510  0.5602 -0.9109 -1.0113
  265SOL     hw 1059   2.076   1.791   0.376 -0.2135 -0.6870 -0.7407
  265SOL     vw 1060   2.055   1.735   0.439 -0.2278 -0.3117 -0.4070
  266SOL     ow 1061   0.449   5.509   5.369  0.3467 -0.2754 -0.1180
  266SOL     hw 1062   0.354   5.500   5.377 -0.0273  3.1424  0.9354
  266SOL     hw 1063   0.482   5.487   5.456  0.1283  1.4598  0.4447
  266SOL     vw 1064   0.441   5.505   5.382  0.2686  0.4046  0.0951
  267SOL     ow 1065   0.774   0.116   0.337  0.0929  0.0818 -0.0609
  267SOL     hw 1066   0.766   0.114   0.433 -1.6791  2.6989 -0.0367
  267SOL     hw 1067   0.867   0.106   0.320  0.5118  0.1357  1.9649
  267SOL     vw 1068   0.785   0.114   0.348 -0.0856  0.4342  0.2096
  268SOL     ow 1069   1.691   3.308   2.430 -0.3807 -0.1066  0.7424
  268SOL     hw 1070   1.720   3.370   2.497  0.9225 -0.2675  0.3633
  268SOL     hw 1071   1.674   3.363   2.353  3.0039 -0.3183 -0.3295
  268SOL     vw 1072   1.692   3.324   2.429  0.2378 -0.1558  0.5509
  269SOL     ow 1073   1.164   6.952   1.400  0.5488  0.5844 -0.1516
  269SOL     hw 1074   1.158   7.047   1.393 -1.2055  0.4175 -2.0459
  269SOL     hw 1075   1.180   6.922   1.310 -0.2149 -0.9585  0.1826
  269SOL     vw 1076   1.165   6.960   1.387  0.2166  0.3588 -0.3574
  270SOL     ow 1077   1.016   5.954   0.644 -0.3423  0.0721 -0.4121
  270SOL     hw 1078   0.922   5.959   0.626 -0.3731  0.4712 -0.1686
  270SOL     hw 1079   1.022   5.956   0.740 -0.1616 -1.5173 -0.3615
  270SOL     vw 1080   1.004   5.955   0.654 -0.3226 -0.0849 -0.3733
  271SOL     ow 1081   4.771   3.564   1.710 -0.3641  0.2638  0.4127
  271SOL     hw 1082   4.793   3.470   1.713  0.8642  0.5412  1.0884
  271SOL     hw 1083   4.841   3.606   1.761  0.0315  1.7221 -1.2401
  271SOL     vw 1084   4.783   3.557   1.717 -0.1497  0.4928  0.2838
  272SOL     ow 1085   1.508   1.154   1.906  0.0979 -0.5046  0.1692
  272SOL     hw 1086   1.435   1.200   1.866  0.5528  1.3354  1.3448
  272SOL     hw 1087   1.496   1.062   1.880 -2.5746 -0.2567  0.2701
  272SOL     vw 1088   1.497   1.148   1.897 -0.1947 -0.2291  0.3375
  273SOL     ow 1089   6.925   3.762   0.189  0.1322  0.0089 -0.0055
  273SOL     hw 1090   6.998   3.813   0.154 -1.7717  2.3692 -0.8613
  273SOL     hw 1091   6.897   3.707   0.117 -0.1244  0.5488 -0.3271
  273SOL     vw 1092   6.931   3.762   0.175 -0.1528  0.3915 -0.1608
  274SOL     ow 1093   6.726   4.386   3.414  0.6349  0.4564  0.0211
  274SOL     hw 1094   6.779   4.307   3.413  1.5654  0.9514  2.5748
  274SOL     hw 1095   6.759   4.436   3.489 -2.2194  1.6690  0.5897
  274SOL     vw 1096   6.738   4.382   3.424  0.3810  0.6816  0.4331
  275SOL     ow 1097   3.827   1.846   4.335 -0.0623  0.2366  0.2894
  275SOL     hw 1098   3.921   1.856   4.350 -0.2742  0.9587  1.3015
  275SOL     hw 1099   3.789   1.848   4.423 -1.0649  0.5017 -0.1383
  275SOL     vw 1100   3.835   1.848   4.348 -0.2228  0.3667  0.3664
  276SOL     ow 1101   2.448   0.381   4.674  0.4541  0.3968  0.1930
  276SOL     hw 1102   2.368   0.401   4.722  1.3419  3.5047  0.6238
  276SOL     hw 1103   2.421   0.319   4.606 -1.9772  0.2562  1.1759
  276SOL     vw 1104   2.434   0.375   4.672  0.2505  0.7883  0.3793
  277SOL     ow 1105   1.555   1.832   4.601 -0.0850 -0.5717  0.9519
  277SOL     hw 1106   1.561   1.921   4.567  2.9064 -0.0826  2.4448
  277SOL     hw 1107   1.623   1.784   4.555  1.6153 -0.7891  3.5209
  277SOL     vw 1108   1.565   1.837   4.590  0.5340 -0.5358  1.4877
  278SOL     ow 1109   6.908   5.925   2.801 -0.3094  0.0001  0.4680
  278SOL     hw 1110   6.824   5.950   2.762  0.4089  1.5742 -0.1323
  278SOL     hw 1111   6.929   5.996   2.862 -0.2609 -1.2717  2.0320
  278SOL     vw 1112   6.899   5.937   2.804 -0.2084  0.0398  0.5951
  279SOL     ow 1113   1.018   5.828   0.363  0.2312 -0.2863 -0.4334
  279SOL     hw 1114   0.973   5.892   0.309  0.6651  0.5720  0.2085
  279SOL     hw 1115   0.958   5.753   0.366 -1.1112  0.7725  0.2920
  279SOL     vw 1116   1.004   5.826   0.357  0.1113 -0.0334 -0.2530
  280SOL     ow 1117   5.294   2.431   6.847  0.3017 -0.7202  0.5524
  280SOL     hw 1118   5.255   2.387   6.922 -0.3728 -1.5011 -0.2456
  280SOL     hw 1119   5.343   2.504   6.885  0.1577 -1.2401  1.7638
  280SOL     vw 1120   5.295   2.435   6.862  0.1936 -0.8919  0.6068
  281SOL     ow 1121   1.540   6.164   4.240  0.3719 -0.0108 -0.3235
  281SOL     hw 1122   1.552   6.162   4.335  4.3047 -0.7448 -0.6590
  281SOL     hw 1123   1.508   6.252   4.222 -1.3348 -0.1275  1.6779
  281SOL     vw 1124   1.537   6.175   4.250  0.6656 -0.1233 -0.1040
  282SOL     ow 1125   0.855   6.863   1.466  0.0119  0.3018 -0.0173
  282SOL     hw 1126   0.834   6.787   1.412  0.7499  0.2152 -0.1979
  282SOL     hw 1127   0.770   6.902   1.487 -0.2857  0.8463 -1.9821
  282SOL     vw 1128   0.841   6.858   1.462  0.0700  0.3622 -0.3003
  283SOL     ow 1129   5.468   1.888   4.194 -0.1073 -0.5566  0.5024
  283SOL     hw 1130   5.502   1.879   4.283 -1.2040  1.1951  1.1520
  283SOL     hw 1131   5.520   1.958   4.155  0.1779 -1.1189 -0.1440
  283SOL     vw 1132   5.479   1.896   4.200 -0.2143 -0.3997  0.5028
  284SOL     ow 1133   4.302   6.486   2.185  0.2119 -0.3210  0.6463
  284SOL     hw 1134   4.306   6.580   2.201 -1.8646 -0.4328  2.3415
  284SOL     hw 1135   4.233   6.476   2.120 -0.7012 -0.7255  1.6434
  284SOL     vw 1136   4.293   6.497   2.179 -0.1824 -0.3891  1.0015
  285SOL     ow 1137   1.355   5.616   3.361  0.3473  0.0192  0.3856
  285SOL     hw 1138   1.441   5.633   3.400 -0.3553  0.5134  1.7789
  285SOL     hw 1139   1.293   5.635   3.431 -0.9799  0.9116 -0.9809
  285SOL     vw 1140   1.358   5.621   3.375  0.0795  0.2022  0.3892
  286SOL     ow 1141   6.478   3.418   5.550 -0.0195 -0.1929  0.0357
  286SOL     hw 1142   6.559   3.390   5.591 -0.7678  0.8778  2.4223
  286SOL     hw 1143   6.505   3.454   5.465  2.2230  1.3916  1.3149
  286SOL     vw 1144   6.492   3.419   5.544  0.1776  0.1575  0.5193
  287SOL     ow 1145   2.971   6.660   6.926  0.4773 -0.0676  0.2837
  287SOL     hw 1146   2.928   6.662   7.011 -0.9736  0.4003 -0.4351
  287SOL     hw 1147   2.939   6.738   6.881  2.1278  0.3303 -0.2869
  287SOL     vw 1148   2.961   6.671   6.931  0.5037  0.0465  0.1137
  288SOL     ow 1149   5.342   3.936   6.074  0.4453 -0.2216 -0.1823
  288SOL     hw 1150   5.277   3.953   6.006 -0.1729 -1.8848 -0.0468
  288SOL     hw 1151   5.385   3.855   6.047  0.6796 -0.5342  1.0476
  288SOL     vw 1152   5.339   3.928   6.062  0.3946 -0.4823 -0.0024
  289SOL     ow 1153   3.141   6.863   6.320  0.4800  0.2565 -0.3324
  289SOL     hw 1154   3.165   6.770   6.319 -0.1669  0.0787 -0.1639
  289SOL     hw 1155   3.222   6.909   6.299  0.6692 -0.3827 -1.0684
  289SOL     vw 1156   3.155   6.857   6.317  0.4196  0.1490 -0.4075
  290SOL     ow 1157   4.100   6.906   4.783  0.0325 -0.3514  0.2549
  290SOL     hw 1158   4.012   6.871   4.777 -0.4309 -0.3558  4.3003
  290SOL     hw 1159   4.096   6.988   4.732 -1.6779 -1.2514 -1.1907
  290SOL     vw 1160   4.088   6.912   4.775 -0.2544 -0.4709  0.5980
  291SOL     ow 1161   0.091   3.173   1.381  0.1748 -0.1591  0.4766
  291SOL     hw 1162   0.142   3.232   1.437 -0.6755  0.2454  0.8543
  291SOL     hw 1163   0.046   3.114   1.443  1.1696 -1.3484  0.0916
  291SOL     vw 1164   0.092   3.173   1.397  0.1939 -0.2625  0.4756
  292SOL     ow 1165   6.491   1.073   1.941  0.0003 -0.4454 -0.0722
  292SOL     hw 1166   6.512   1.153   1.893 -1.5902 -0.0277 -0.1231
  292SOL     hw 1167   6.399   1.057   1.922  0.8469 -3.7861 -2.2110
  292SOL     vw 1168   6.482   1.081   1.932 -0.0978 -0.8310 -0.3611
  293SOL     ow 1169   4.974   4.174   0.612 -0.1927  0.1602 -0.3518
  293SOL     hw 1170   4.968   4.201   0.520 -0.9756  0.3622 -0.2473
  293SOL     hw 1171   5.000   4.253   0.659  2.0519 -0.3539 -0.6042
  293SOL     vw 1172   4.976   4.188   0.606  0.0002  0.1192 -0.3713
  294SOL     ow 1173   1.514   0.631   4.631 -0.1001 -0.6850 -0.1609
  294SOL     hw 1174   1.586   0.574   4.656  0.0369 -1.0906 -1.4484
  294SOL     hw 1175   1.438   0.597   4.679  0.0804 -1.6440 -0.5540
  294SOL     vw 1176   1.513   0.619   4.641 -0.0582 -0.8650 -0.3824
  295SOL     ow 1177   3.726   6.205   2.548  0.2435 -0.1294 -0.2641
  295SOL     hw 1178   3.694   6.279   2.600  0.8819  0.8483 -1.2225
  295SOL     hw 1179   3.808   6.179   2.591  0.4385  0.2617 -0.3915
  295SOL     vw 1180   3.733   6.211   2.561  0.3535  0.0510 -0.4073
  296SOL     ow 1181   0.736   6.077   5.080  0.1873 -0.0937  0.0315
  296SOL     hw 1182   0.765   6.107   5.166  0.3222 -0.3506  0.0777
  296SOL     hw 1183   0.753   5.982   5.081  3.1947  0.3168 -1.4276
  296SOL     vw 1184   0.742   6.068   5.092  0.6019 -0.0732 -0.1550
  297SOL     ow 1185   5.637   2.889   2.551 -0.0089  0.5536 -0.0065
  297SOL     hw 1186   5.728   2.862   2.562  0.0640 -0.4615 -2.3625
  297SOL     hw 1187   5.618   2.872   2.458 -2.2966  1.6910  0.1694
  297SOL     vw 1188   5.646   2.884   2.540 -0.3014  0.5696 -0.2942
  298SOL     ow 1189   4.630   1.484   4.083  0.8652 -0.0605 -0.9442
  298SOL     hw 1190   4.550   1.522   4.119  0.7794 -0.3376 -0.8416
  298SOL     hw 1191   4.694   1.556   4.085  0.4211  0.3780 -1.6975
  298SOL     vw 1192   4.628   1.499   4.088  0.7951 -0.0392 -1.0304
  299SOL     ow 1193   1.643   0.711   4.350  0.1704  0.2521 -0.0817
  299SOL     hw 1194   1.713   0.648   4.372 -0.4851  0.1527  1.9472
  299SOL     hw 1195   1.636   0.706   4.255  2.0155 -0.7155 -0.2278
  299SOL     vw 1196   1.652   0.702   4.341  0.3274  0.1113  0.1664
  300SOL     ow 1197   3.980   5.232   5.828  0.3028 -0.7827  0.0528
  300SOL     hw 1198   3.953   5.205   5.740 -2.2672 -0.2054  0.5756
  300SOL     hw 1199   4.060   5.282   5.815 -0.5885  0.2006 -2.1320
  300SOL     vw 1200   3.987   5.235   5.815 -0.1538 -0.5767 -0.1664
  301SOL     ow 1201   2.191   1.093   4.402  0.0610 -0.0014  0.5818
  301SOL     hw 1202   2.124   1.047   4.453 -0.2365 -0.9201 -0.5969
  301SOL     hw 1203   2.183   1.184   4.430 -1.7162 -0.0758  0.4742
  301SOL     vw 1204   2.181   1.099   4.413 -0.2127 -0.1325  0.4120
  302SOL     ow 1205   2.909   5.656   2.784 -0.3730 -0.0224  0.4892
  302SOL     hw 1206   2.894   5.695   2.870 -2.7665  1.0237 -0.3207
  302SOL     hw 1207   2.986   5.703   2.750 -1.2793  1.8098  0.8459
  302SOL     vw 1208   2.917   5.668   2.791 -0.8085  0.3574  0.4293
  303SOL     ow 1209   2.059   1.832   2.919  0.4762 -0.3887 -0.3495
  303SOL     hw 1210   2.087   1.906   2.866  0.1400  0.2088  0.2894
  303SOL     hw 1211   2.111   1.758   2.887  1.3639  0.2812 -0.4900
  303SOL     vw 1212   2.070   1.832   2.908  0.5491 -0.2214 -0.2837
  304SOL     ow 1213   5.446   0.737   3.643  0.0078 -0.0026 -0.3353
  304SOL     hw 1214   5.404   0.655   3.669 -0.3625  0.5816  1.0141
  304SOL     hw 1215   5.540   0.720   3.650  0.0274 -1.0092 -2.3847
  304SOL     vw 1216   5.453   0.724   3.647 -0.0386 -0.0583 -0.4276
  305SOL     ow 1217   0.485   1.772   5.877 -0.0569 -0.3537  0.3473
  305SOL     hw 1218   0.539   1.749   5.801 -0.2044 -0.7149  0.3520
  305SOL     hw 1219   0.467   1.866   5.866  1.6914  0.0953  1.0472
  305SOL     vw 1220   0.490   1.782   5.866  0.1543 -0.3421  0.4406
  306SOL     ow 1221   2.356   2.661   4.030  0.4040 -0.1732 -0.4247
  306SOL     hw 1222   2.361   2.587   3.969  1.9731  1.0554 -1.9115
  306SOL     hw 1223   2.306   2.727   3.982 -1.8484 -0.5617  1.2789
  306SOL     vw 1224   2.350   2.660   4.016  0.3139 -0.0622 -0.3958
  307SOL     ow 1225   0.863   3.527   2.886  0.6876 -0.5509 -0.4651
  307SOL     hw 1226   0.882   3.548   2.978  3.0337  0.8721 -1.1700
  307SOL     hw 1227   0.892   3.604   2.838 -0.9728 -1.0608 -2.3945
  307SOL     vw 1228   0.869   3.540   2.892  0.7780 -0.4303 -0.8125
  308SOL     ow 1229   5.532   5.197   4.923  0.5101 -0.4541 -0.2529
  308SOL     hw 1230   5.488   5.233   4.846 -1.5198 -0.4288  0.8557
  308SOL     hw 1231   5.501   5.107   4.929  0.6465 -0.4593  0.5172
  308SOL     vw 1232   5.522   5.190   4.914  0.2601 -0.4513 -0.0050
  309SOL     ow 1233   0.329   4.583   5.858  0.1260 -0.3833 -0.7685
  309SOL     hw 1234   0.238   4.562   5.881  0.5114 -1.7654 -0.4262
  309SOL     hw 1235   0.343   4.538   5.775  0.9256 -1.3518 -0.1181
  309SOL     vw 1236   0.319   4.575   5.850  0.2824 -0.6936 -0.6375
  310SOL     ow 1237   6.085   0.861   1.542  0.9061 -0.1957  0.1912
  310SOL     hw 1238   6.066   0.923   1.612 -0.6817 -0.6838  0.2335
  310SOL     hw 1239   6.134   0.912   1.477  0.0681  0.9657  0.4536
  310SOL     vw 1240   6.089   0.876   1.542  0.5860 -0.1068  0.2313
  311SOL     ow 1241   3.403   3.697   3.892 -0.4925  0.3656  0.5257
  311SOL     hw 1242   3.322   3.734   3.855 -0.7228 -0.6702 -0.0408
  311SOL     hw 1243   3.374   3.646   3.967 -0.7467 -2.2550 -1.2494
  311SOL     vw 1244   3.388   3.695   3.897 -0.5565 -0.1168  0.2168
  312SOL     ow 1245   5.727   4.598   2.081  0.9229 -0.4659 -0.0271
  312SOL     hw 1246   5.787   4.542   2.130  0.8969 -0.9825 -0.5710
  312SOL     hw 1247   5.684   4.539   2.019  0.8524  0.1425 -0.5761
  312SOL     vw 1248   5.729   4.583   2.079  0.9100 -0.4539 -0.1713
  313SOL     ow 1249   2.763   3.749   2.866  0.0300  0.0627 -0.4076
  313SOL     hw 1250   2.849   3.729   2.902 -0.9718 -0.2595  2.0343
  313SOL     hw 1251   2.763   3.844   2.856  1.0621 -0.0414 -1.6516
  313SOL     vw 1252   2.774   3.759   2.869  0.0340  0.0064 -0.2495
  314SOL     ow 1253   1.888   0.206   5.381  1.1269  1.1484  0.3675
  314SOL     hw 1254   1.795   0.187   5.372  1.0667  0.8421  1.4810
  314SOL     hw 1255   1.925   0.128   5.422  2.0012  0.9993 -0.6674
  314SOL     vw 1256   1.881   0.193   5.385  1.2343  1.0883  0.3779
  315SOL     ow 1257   6.204   2.043   4.777 -0.0783 -0.2468  0.1640
  315SOL     hw 1258   6.226   1.994   4.856  0.5313 -0.4844 -0.1444
  315SOL     hw 1259   6.139   1.988   4.732  1.9229 -1.7390 -1.0993
  315SOL     vw 1260   6.198   2.029   4.782  0.2666 -0.4750 -0.0436
  316SOL     ow 1261   5.961   0.904   4.113  0.1510 -1.0807 -0.5566
  316SOL     hw 1262   5.969   0.977   4.174  2.0818 -0.4657 -1.4569
  316SOL     hw 1263   5.905   0.937   4.043  0.2618 -0.7906 -0.5096
  316SOL     vw 1264   5.955   0.918   4.112  0.4208 -0.9613 -0.6692
  317SOL     ow 1265   5.265   6.223   3.851 -0.3152  0.0093  0.1067
  317SOL     hw 1266   5.199   6.290   3.837 -0.8578 -0.3677  0.7918
  317SOL     hw 1267   5.275   6.181   3.766 -2.5099 -1.3260  0.4369
  317SOL     vw 1268   5.258   6.226   3.838 -0.6764 -0.2167  0.2408
  318SOL     ow 1269   5.495   1.890   0.758  0.3910 -0.2977 -0.5388
  318SOL     hw 1270   5.430   1.883   0.689  0.3430 -0.1870 -0.5050
  318SOL     hw 1271   5.569   1.837   0.727  1.5618  2.0344 -2.0427
  318SOL     vw 1272   5.496   1.882   0.745  0.5391  0.0246 -0.7327
  319SOL     ow 1273   4.793   1.253   3.931  0.9223 -0.7187  0.3834
  319SOL     hw 1274   4.780   1.180   3.871  0.9028 -0.3098 -0.1162
  319SOL     hw 1275   4.888   1.266   3.933  0.8170  1.8338 -2.7436
  319SOL     vw 1276   4.804   1.245   3.923  0.9058 -0.3279 -0.0950
  320SOL     ow 1277   5.203   0.815   6.523 -0.3849  0.4130  0.0284
  320SOL     hw 1278   5.257   0.779   6.453  1.5736  1.2162  1.0516
  320SOL     hw 1279   5.163   0.738   6.564  1.3344 -0.3704  0.2888
  320SOL     vw 1280   5.205   0.800   6.519  0.1004  0.4156  0.1976
  321SOL     ow 1281   2.515   4.205   5.287 -0.2590  0.0435  0.2766
  321SOL     hw 1282   2.527   4.172   5.198 -1.0898 -0.6347  0.4053
  321SOL     hw 1283   2.533   4.130   5.343  0.0738  0.4185  0.6759
  321SOL     vw 1284   2.519   4.191   5.282 -0.3248  0.0033  0.3462
  322SOL     ow 1285   0.535   1.349   4.075  0.7681 -0.5384 -0.2323
  322SOL     hw 1286   0.523   1.441   4.052  0.7066 -0.3899  0.3769
  322SOL     hw 1287   0.624   1.345   4.111  1.2744 -0.9733 -1.4954
  322SOL     vw 1288   0.545   1.361   4.077  0.8269 -0.5763 -0.3185
  323SOL     ow 1289   0.694   1.679   3.121  0.2720  0.1040  0.1686
  323SOL     hw 1290   0.694   1.694   3.216  0.4955  1.0761  0.0248
  323SOL     hw 1291   0.693   1.584   3.112 -0.6506  0.0026  1.1472
  323SOL     vw 1292   0.694   1.669   3.133  0.1798  0.2189  0.2788
  324SOL     ow 1293   6.149   3.452   6.783  0.1521 -0.5384  0.1552
  324SOL     hw 1294   6.225   3.511   6.774  0.6559 -0.9642  1.3404
  324SOL     hw 1295   6.087   3.502   6.836 -0.7128  0.0705 -1.3692
  324SOL     vw 1296   6.151   3.467   6.789  0.1047 -0.5141  0.1106
  325SOL     ow 1297   4.607   5.998   5.537  0.1946  0.5630  0.4872
  325SOL     hw 1298   4.529   5.963   5.494  0.5469 -0.2587  0.4915
  325SOL     hw 1299   4.593   6.092   5.539  0.6977  0.8032 -2.5147
  325SOL     vw 1300   4.595   6.006   5.532  0.3076  0.4864  0.0916
  326SOL     ow 1301   0.209   4.052   4.917 -0.3312  0.6074  0.1175
  326SOL     hw 1302   0.171   4.127   4.962 -0.8457  1.4711 -1.6544
  326SOL     hw 1303   0.303   4.057   4.936 -0.5942  0.6484  1.4667
  326SOL     vw 1304   0.216   4.063   4.925 -0.4338  0.7267  0.0615
  327SOL     ow 1305   1.487   3.463   4.039  0.4018  0.1023 -1.1076
  327SOL     hw 1306   1.477   3.453   3.944 -1.6295  0.1503 -0.9496
  327SOL     hw 1307   1.461   3.554   4.056 -0.0180 -0.1371 -0.4402
  327SOL     vw 1308   1.482   3.474   4.028  0.0785  0.0771 -0.9990
  328SOL     ow 1309   2.321   2.930   4.977  0.1806 -0.6237  0.5184
  328SOL     hw 1310   2.238   2.888   5.002 -0.6412  0.7495  0.1544
  328SOL     hw 1311   2.385   2.858   4.979 -1.6006 -2.5342 -2.5798
  328SOL     vw 1312   2.319   2.915   4.981 -0.1630 -0.6946  0.0615
  329SOL     ow 1313   6.692   1.488   4.043  0.9261  0.2869 -0.8146
  329SOL     hw 1314   6.671   1.400   4.013 -1.0289  0.6618 -0.6793
  329SOL     hw 1315   6.736   1.529   3.968 -0.1225 -0.1179 -1.6623
  329SOL     vw 1316   6.695   1.482   4.029  0.5298  0.2830 -0.9084
  330SOL     ow 1317   6.041   5.980   0.940 -0.1089  0.0932  0.3019
  330SOL     hw 1318   6.128   5.945   0.921  0.0356 -0.1724  1.3619
  330SOL     hw 1319   6.056   6.073   0.957  0.0267 -0.0100  0.7778
  330SOL     vw 1320   6.055   5.987   0.940 -0.0720  0.0446  0.5046
  331SOL     ow 1321   2.018   4.509   3.458 -0.0882 -0.4639  0.1338
  331SOL     hw 1322   1.940   4.501   3.402  0.5196 -1.2072 -0.6206
  331SOL     hw 1323   2.091   4.511   3.397  0.4392  1.5575  0.7600
  331SOL     vw 1324   2.017   4.508   3.443  0.0616 -0.2954  0.1168
  332SOL     ow 1325   3.435   4.376   5.847  0.2278  0.5959 -0.0552
  332SOL     hw 1326   3.343   4.402   5.848 -0.2371 -0.9802  0.3623
  332SOL     hw 1327   3.452   4.352   5.756 -0.0690 -0.0652  0.0578
  332SOL     vw 1328   3.425   4.377   5.835  0.1273  0.3006  0.0145
  333SOL     ow 1329   0.906   6.078   0.258  0.1570  0.5221  0.2726
  333SOL     hw 1330   0.891   6.147   0.194 -1.7915  0.0493  0.1423
  333SOL     hw 1331   0.907   6.123   0.342 -0.3177  0.8024  0.1306
  333SOL     vw 1332   0.904   6.093   0.261 -0.1628  0.4966  0.2367
  334SOL     ow 1333   1.096   0.540   3.365 -0.1977 -0.1333 -0.1189
  334SOL     hw 1334   1.065   0.627   3.392  0.1908 -0.0294 -0.0065
  334SOL     hw 1335   1.117   0.550   3.272 -1.6599 -0.5250 -0.5185
  334SOL     vw 1336   1.095   0.553   3.357 -0.3393 -0.1712 -0.1569
  335SOL     ow 1337   2.138   2.554   1.751 -0.1981 -0.0758 -1.0034
  335SOL     hw 1338   2.141   2.497   1.828  0.3021  2.0961  0.6708
  335SOL     hw 1339   2.212   2.525   1.697  0.4466 -0.5858  0.1196
  335SOL     vw 1340   2.148   2.543   1.754 -0.0471  0.1435 -0.6343
  336SOL     ow 1341   0.703   1.685   1.438  0.0473  0.6889 -0.0315
  336SOL     hw 1342   0.649   1.636   1.501 -1.1995 -0.8506 -2.1892
  336SOL     hw 1343   0.767   1.621   1.407  0.9724  1.5732 -0.0059
  336SOL     vw 1344   0.704   1.670   1.443  0.0048  0.6024 -0.3128
  337SOL     ow 1345   2.176   4.144   4.327 -0.3273  0.2583 -0.4737
  337SOL     hw 1346   2.246   4.082   4.346 -0.3048  0.1343 -0.9490
  337SOL     hw 1347   2.098   4.106   4.368 -0.3482 -0.1705 -0.9090
  337SOL     vw 1348   2.175   4.131   4.335 -0.3271  0.1853 -0.5939
  338SOL     ow 1349   6.484   4.548   1.892 -0.4838 -0.3690  0.3463
  338SOL     hw 1350   6.503   4.487   1.822 -0.6581 -0.0283 -0.0008
  338SOL     hw 1351   6.569   4.565   1.933  0.6632  3.4031 -3.0237
  338SOL     vw 1352   6.498   4.542   1.888 -0.3555  0.1733 -0.1441
  339SOL     ow 1353   3.154   5.154   2.324  0.6783 -0.1025  0.2283
  339SOL     hw 1354   3.106   5.100   2.388  1.0216 -0.1149  0.4814
  339SOL     hw 1355   3.099   5.153   2.246 -0.7866  1.6355  1.1723
  339SOL     vw 1356   3.141   5.146   2.322  0.5302  0.1254  0.3861
  340SOL     ow 1357   1.786   0.137   0.006 -0.0167  0.5907 -0.2363
  340SOL     hw 1358   1.840   0.065   0.039 -1.0938  0.2625  0.9036
  340SOL     hw 1359   1.700   0.097  -0.008 -0.5644  1.5959  0.1565
  340SOL     vw 1360   1.781   0.122   0.008 -0.2310  0.6800 -0.0341
  341SOL     ow 1361   5.969   4.726   6.940  0.1891  0.0684  0.2975
  341SOL     hw 1362   6.063   4.742   6.929  0.0585  0.6634  0.0006
  341SOL     hw 1363   5.947   4.773   7.021  0.2146 -0.3673  0.5603
  341SOL     vw 1364   5.979   4.734   6.949  0.1755  0.0892  0.2930
  342SOL     ow 1365   4.827   4.789   6.396  0.0655  0.0212 -0.8953
  342SOL     hw 1366   4.845   4.882   6.413 -2.3003  0.1489  1.4200
  342SOL     hw 1367   4.765   4.790   6.322  1.9503  0.0564 -2.5676
  342SOL     vw 1368   4.821   4.802   6.388  0.0021  0.0427 -0.8106
  343SOL     ow 1369   4.768   6.892   6.422 -0.4946 -0.1327  0.0910
  343SOL     hw 1370   4.773   6.955   6.493  2.5844  0.8235 -0.8137
  343SOL     hw 1371   4.825   6.928   6.354 -1.6740 -2.0269 -2.0580
  343SOL     vw 1372   4.776   6.905   6.422 -0.2441 -0.2563 -0.3123
  344SOL     ow 1373   0.529   6.456   6.840  0.5501 -0.0420 -0.3240
  344SOL     hw 1374   0.507   6.368   6.808  0.3103 -0.0246 -0.2063
  344SOL     hw 1375   0.616   6.474   6.802  0.3819 -0.1275 -0.7562
  344SOL     vw 1376   0.538   6.447   6.831  0.4962 -0.0510 -0.3655
  345SOL     ow 1377   4.636   6.335   3.468  0.1506 -0.1610 -0.4354
  345SOL     hw 1378   4.659   6.425   3.445 -0.7990 -0.3760 -2.4864
  345SOL     hw 1379   4.652   6.285   3.388  0.5409 -1.8141  0.6312
  345SOL     vw 1380   4.641   6.340   3.454  0.0768 -0.4075 -0.5653
  346SOL     ow 1381   6.695   0.045   1.764  0.8035  0.2958 -0.2368
  346SOL     hw 1382   6.775   0.045   1.711  2.4130 -3.4605  1.7562
  346SOL     hw 1383   6.641  -0.024   1.725  0.3107  0.1472  0.6851
  346SOL     vw 1384   6.699   0.036   1.752  0.9511 -0.2194  0.1478
  347SOL     ow 1385   1.786   3.546   4.120  0.2641 -0.5043  0.1737
  347SOL     hw 1386   1.879   3.553   4.100  0.5511 -1.4953  1.0501
  347SOL     hw 1387   1.772   3.607   4.192  0.5187 -1.2352  0.8605
  347SOL     vw 1388   1.796   3.555   4.127  0.3356 -0.7315  0.3798
  348SOL     ow 1389   4.352   6.329   4.541  0.0073 -1.0671  0.1510
  348SOL     hw 1390   4.437   6.373   4.548  0.7025 -2.4221  0.7771
  348SOL     hw 1391   4.310   6.344   4.626 -0.4078 -0.3780 -0.1662
  348SOL     vw 1392   4.358   6.337   4.553  0.0441 -1.1551  0.1919
  349SOL     ow 1393   5.793   4.899   1.990  0.2159 -0.4289  0.1397
  349SOL     hw 1394   5.821   4.886   1.900 -1.4934  1.8014 -0.8283
  349SOL     hw 1395   5.765   4.991   1.993 -2.4767 -1.1839  2.1481
  349SOL     vw 1396   5.793   4.910   1.979 -0.3648 -0.2344  0.2769
  350SOL     ow 1397   4.167   4.786   2.575  0.3673 -0.7381  0.0442
  350SOL     hw 1398   4.089   4.743   2.538 -1.2894  1.9378  0.1513
  350SOL     hw 1399   4.232   4.780   2.505 -1.7368  1.5968 -2.3547
  350SOL     vw 1400   4.165   4.780   2.561 -0.1292 -0.0770 -0.2582
  351SOL     ow 1401   5.883   0.621   6.802 -0.0325 -0.3320  0.1011
  351SOL     hw 1402   5.866   0.714   6.784 -2.7039 -0.2284  2.5348
  351SOL     hw 1403   5.936   0.622   6.882  2.0626 -0.9587 -1.1917
  351SOL     vw 1404   5.888   0.634   6.810 -0.1087 -0.4010  0.2515
  352SOL     ow 1405   1.402   5.193   1.878 -0.5052  0.2303 -0.6162
  352SOL     hw 1406   1.325   5.168   1.826  0.1441  0.0519 -1.5233
  352SOL     hw 1407   1.398   5.137   1.955  0.6565 -2.4847 -2.3828
  352SOL     vw 1408   1.391   5.182   1.881 -0.2663 -0.1514 -0.9690
  353SOL     ow 1409   0.607   1.481   6.331  0.3592  0.3916 -0.0948
  353SOL     hw 1410   0.590   1.531   6.411  2.7008 -0.6287  1.1265
  353SOL     hw 1411   0.609   1.546   6.261 -0.3197  1.4801  0.8726
  353SOL     vw 1412   0.605   1.496   6.332  0.5786  0.4005  0.1941
  354SOL     ow 1413   6.748   0.980   5.772 -0.0217  0.5202 -0.1598
  354SOL     hw 1414   6.741   1.072   5.748  0.3707  0.5403 -0.2074
  354SOL     hw 1415   6.842   0.963   5.776 -0.0794 -0.1024 -1.0511
  354SOL     vw 1416   6.760   0.990   5.769  0.0224  0.4407 -0.2835
  355SOL     ow 1417   4.171   1.001   2.446  0.7318 -0.2469  0.0243
  355SOL     hw 1418   4.104   1.070   2.453 -0.3790 -1.3152  0.2738
  355SOL     hw 1419   4.254   1.047   2.461 -0.1236  0.6795  2.4218
  355SOL     vw 1420   4.173   1.017   2.449  0.4725 -0.2657  0.3735
  356SOL     ow 1421   2.198   0.967   1.740 -0.1678  0.1233  0.6812
  356SOL     hw 1422   2.217   0.917   1.819 -0.7372  0.2434  0.8997
  356SOL     hw 1423   2.229   0.913   1.668  0.4895  0.0781  0.9964
  356SOL     vw 1424   2.204   0.953   1.741 -0.1562  0.1332  0.7517
  357SOL     ow 1425   4.875   1.386   1.836  0.6412  0.0575  0.0507
  357SOL     hw 1426   4.943   1.320   1.849  1.7436  0.6503 -2.1912
  357SOL     hw 1427   4.923   1.468   1.823 -0.6338  1.0000  1.0348
  357SOL     vw 1428   4.890   1.388   1.836  0.6185  0.2602 -0.1152
  358SOL     ow 1429   6.140   0.729   3.922 -0.7518 -0.3720  0.0121
  358SOL     hw 1430   6.081   0.693   3.856 -1.1608 -3.8101  2.0499
  358SOL     hw 1431   6.215   0.670   3.922 -0.0755  0.4238  1.6076
  358SOL     vw 1432   6.142   0.717   3.913 -0.7164 -0.7206  0.4914
  359SOL     ow 1433   5.139   4.159   4.338 -0.8522  0.3880 -0.3777
  359SOL     hw 1434   5.100   4.194   4.258 -0.3760  1.9725  0.0506
  359SOL     hw 1435   5.221   4.207   4.348 -1.5595  1.2707  1.8094
  359SOL     vw 1436   5.145   4.170   4.329 -0.8831  0.7133 -0.0327
  360SOL     ow 1437   5.102   4.791   5.241  0.4722  0.0130  0.8430
  360SOL     hw 1438   5.109   4.715   5.298 -0.5293  0.3311  1.4119
  360SOL     hw 1439   5.191   4.804   5.207  0.4780 -1.9910 -0.0546
  360SOL     vw 1440   5.115   4.783   5.244  0.3409 -0.2093  0.7997
  361SOL     ow 1441   3.824   3.465   6.774  0.3322 -0.6502  0.5622
  361SOL     hw 1442   3.807   3.559   6.784 -2.1578 -0.8080 -1.2534
  361SOL     hw 1443   3.903   3.461   6.721  1.1289  0.3659  1.6165
  361SOL     vw 1444   3.832   3.477   6.768  0.1087 -0.5370  0.4613
  362SOL     ow 1445   0.093   6.536   1.473  0.6948  0.7651  0.2706
  362SOL     hw 1446   0.004   6.527   1.505  1.0417  0.4915  1.1868
  362SOL     hw 1447   0.140   6.581   1.544  1.5603 -0.1589  0.3033
  362SOL     vw 1448   0.087   6.541   1.487  0.8548  0.6068  0.3957
  363SOL     ow 1449   0.194   5.212   4.436 -0.1535 -0.3328 -0.2357
  363SOL     hw 1450   0.104   5.181   4.443  0.1982 -1.0520  1.9022
  363SOL     hw 1451   0.246   5.147   4.483  1.0203  1.8280  1.6622
  363SOL     vw 1452   0.189   5.199   4.443  0.0478 -0.1428  0.2966
  364SOL     ow 1453   1.919   6.414   4.775  0.5402  0.3509  0.1706
  364SOL     hw 1454   1.965   6.354   4.716 -0.4329 -0.5048  0.2492
  364SOL     hw 1455   1.828   6.411   4.746  0.2658  0.8516  0.9556
  364SOL     vw 1456   1.913   6.406   4.763  0.3756  0.3042  0.2844
  365SOL     ow 1457   0.626   2.772   1.255  0.1162  0.0880 -0.0993
  365SOL     hw 1458   0.641   2.678   1.247  2.9066  0.4650 -0.1815
  365SOL     hw 1459   0.601   2.800   1.167 -1.2343 -0.6212  0.0393
  365SOL     vw 1460   0.625   2.763   1.242  0.3062  0.0441 -0.0919
  366SOL     ow 1461   1.470   6.357   3.477 -0.4952  0.0073  0.3256
  366SOL     hw 1462   1.484   6.397   3.562 -2.2067 -1.3779  1.3406
  366SOL     hw 1463   1.545   6.299   3.465 -0.2645  0.1797  0.9163
  366SOL     vw 1464   1.482   6.354   3.487 -0.6906 -0.1526  0.5375
  367SOL     ow 1465   3.379   4.119   3.771  0.3176  0.3311  0.3444
  367SOL     hw 1466   3.444   4.155   3.711 -0.4599  2.8098  0.8586
  367SOL     hw 1467   3.349   4.039   3.729  2.1141  0.2770 -0.9453
  367SOL     vw 1468   3.384   4.113   3.758  0.4522  0.6509  0.2421
  368SOL     ow 1469   2.532   2.251   3.489  0.7655  0.1671  0.2594
  368SOL     hw 1470   2.513   2.176   3.433  0.3100 -0.0010  0.6378
  368SOL     hw 1471   2.490   2.231   3.573  0.1751  1.0698  0.2021
  368SOL     vw 1472   2.524   2.238   3.493  0.6275  0.2642  0.3017
  369SOL     ow 1473   5.460   3.509   1.938 -0.4014 -0.3934  0.8407
  369SOL     hw 1474   5.366   3.508   1.959 -1.4130 -0.0612 -2.9660
  369SOL     hw 1475   5.481   3.601   1.925 -0.5176 -0.6532 -1.6447
  369SOL     vw 1476   5.450   3.521   1.939 -0.5500 -0.3837  0.0106
  370SOL     ow 1477   1.595   5.143   1.620 -0.6196  0.7277  0.8078
  370SOL     hw 1478   1.578   5.176   1.532 -2.5380  0.0717  0.8848
  370SOL     hw 1479   1.617   5.050   1.606 -0.6893  0.6815  1.0086
  370SOL     vw 1480   1.596   5.135   1.606 -0.8819  0.6351  0.8444
  371SOL     ow 1481   6.171   2.598   4.320  0.6879  0.5519  0.0915
  371SOL     hw 1482   6.146   2.513   4.284  0.9660  0.1192  0.9163
  371SOL     hw 1483   6.098   2.656   4.296  0.8531  0.2764 -1.1436
  371SOL     vw 1484   6.158   2.594   4.312  0.7463  0.4585  0.0372
  372SOL     ow 1485   2.651   6.282   5.141  0.1225 -0.1830  0.5274
  372SOL     hw 1486   2.618   6.209   5.194  1.9990  0.2621  2.4181
  372SOL     hw 1487   2.618   6.360   5.185 -0.8916  0.1855 -0.8106
  372SOL     vw 1488   2.642   6.283   5.154  0.2363 -0.0758  0.6008
  373SOL     ow 1489   0.171   3.904   6.238  0.0725  0.1090  0.3175
  373SOL     hw 1490   0.215   3.987   6.251 -0.7021  0.5422  0.2446
  373SOL     hw 1491   0.230   3.854   6.182  0.6188  0.5429  0.4974
  373SOL     vw 1492   0.184   3.908   6.232  0.0424  0.2234  0.3316
  374SOL     ow 1493   2.730   3.896   5.494 -0.0354 -0.0197  0.3433
  374SOL     hw 1494   2.768   3.823   5.446  0.7220  0.5974 -0.0045
  374SOL     hw 1495   2.635   3.880   5.491 -0.1071  0.5469 -2.2539
  374SOL     vw 1496   2.722   3.884   5.487  0.0550  0.1365 -0.0451
  375SOL     ow 1497   5.911   6.959   3.658 -0.0837  0.9866 -0.3042
  375SOL     hw 1498   5.908   6.968   3.562 -1.0385  0.1526 -0.3722
  375SOL     hw 1499   5.821   6.969   3.686  0.2731  1.8093  0.5911
  375SOL     vw 1500   5.899   6.961   3.649 -0.1624  0.9851 -0.1953
  376SOL     ow 1501   5.755   3.299   3.990  0.3026 -0.0641 -0.6669
  376SOL     hw 1502   5.765   3.210   3.957  2.3605 -0.2175  0.2083
  376SOL     hw 1503   5.699   3.291   4.067 -0.5477 -0.3828 -1.2970
  376SOL     vw 1504   5.749   3.286   3.996  0.4621 -0.1264 -0.6347
  377SOL     ow 1505   3.304   5.276   2.093 -0.1945  0.0519 -0.1706
  377SOL     hw 1506   3.393   5.304   2.071  0.4967  0.2672  2.5933
  377SOL     hw 1507   3.249   5.348   2.061  0.3663 -0.6763 -3.1405
  377SOL     vw 1508   3.309   5.289   2.086 -0.0293 -0.0157 -0.1978
  378SOL     ow 1509   6.161   0.549   2.766  0.7452  0.5615 -0.1919
  378SOL     hw 1510   6.103   0.622   2.744 -0.9416 -0.8603 -0.6927
  378SOL     hw 1511   6.177   0.558   2.860  1.9830  2.5001 -0.5296
  378SOL     vw 1512   6.155   0.560   2.775  0.6859  0.6297 -0.3027
  379SOL     ow 1513   6.076   2.871   6.221 -0.3274  0.2409  0.3162
  379SOL     hw 1514   6.066   2.886   6.315 -0.1931  1.9036  0.0906
  379SOL     hw 1515   6.168   2.891   6.203 -0.2531 -0.4537 -0.1171
  379SOL     vw 1516   6.087   2.875   6.231 -0.2995  0.3687  0.2294
  380SOL     ow 1517   1.368   2.583   3.722  0.0403 -0.1407 -0.2035
  380SOL     hw 1518   1.393   2.673   3.698 -1.5231  0.2358 -0.5759
  380SOL     hw 1519   1.437   2.528   3.684  1.3699  0.9289  0.5743
  380SOL     vw 1520   1.380   2.588   3.714  0.0095  0.0501 -0.1500
  381SOL     ow 1521   3.108   6.544   5.901 -0.4661  0.2678 -0.2753
  381SOL     hw 1522   3.128   6.451   5.913  1.2680  0.6948  0.4735
  381SOL     hw 1523   3.014   6.546   5.883 -0.4216 -1.6850 -1.0592
  381SOL     vw 1524   3.099   6.532   5.900 -0.2313  0.0665 -0.2799
  382SOL     ow 1525   3.660   1.221   1.378  0.0560 -0.9405 -0.0632
  382SOL     hw 1526   3.584   1.279   1.387  0.1640 -0.9069  0.8065
  382SOL     hw 1527   3.660   1.193   1.287 -2.0100 -2.3182  0.3131
  382SOL     vw 1528   3.650   1.225   1.367 -0.2023 -1.1178  0.1012
  383SOL     ow 1529   5.329   6.084   6.699 -0.0669 -0.2552 -0.3644
  383SOL     hw 1530   5.362   6.163   6.741 -1.8731  1.3053 -1.7117
  383SOL     hw 1531   5.407   6.042   6.662  0.8328  1.4094 -0.4378
  383SOL     vw 1532   5.344   6.089   6.699 -0.1867  0.1702 -0.5519
  384SOL     ow 1533   0.617   5.153   1.174  0.3930 -0.3195  0.3473
  384SOL     hw 1534   0.533   5.118   1.145 -0.2336 -0.6821  2.4132
  384SOL     hw 1535   0.641   5.217   1.107 -2.9418  1.8738  0.9802
  384SOL     vw 1536   0.609   5.157   1.161 -0.1296 -0.0780  0.7034
  385SOL     ow 1537   4.524   2.206   3.324 -0.5637 -0.2738 -0.1945
  385SOL     hw 1538   4.590   2.203   3.393  0.9709 -0.2243 -1.5987
  385SOL     hw 1539   4.458   2.267   3.356  1.7995  2.4720 -0.1694
  385SOL     vw 1540   4.524   2.213   3.337 -0.0494  0.0950 -0.3766
  386SOL     ow 1541   2.081   0.624   6.209 -0.1379  0.1491 -0.4087
  386SOL     hw 1542   1.990   0.601   6.191 -0.3513  0.3820  0.3400
  386SOL     hw 1543   2.127   0.610   6.125 -0.8071 -0.2123 -0.7188
  386SOL     vw 1544   2.075   0.619   6.195 -0.2543  0.1321 -0.3510
  387SOL     ow 1545   3.056   6.860   6.053  0.1628 -0.0883  0.0628
  387SOL     hw 1546   3.075   6.944   6.010  1.4444 -0.9338 -1.1421
  387SOL     hw 1547   3.026   6.804   5.982 -0.0727 -0.8236  0.7399
  387SOL     vw 1548   3.055   6.864   6.038  0.3009 -0.2968 -0.0067
  388SOL     ow 1549   1.484   1.467   1.087  0.3507 -0.4662  0.1845
  388SOL     hw 1550   1.481   1.552   1.043  0.2550  0.2416  1.4757
  388SOL     hw 1551   1.393   1.437   1.087  0.6679 -1.6452 -2.1673
  388SOL     vw 1552   1.472   1.474   1.081  0.3799 -0.5283  0.0446
  389SOL     ow 1553   3.970   0.849   6.246  0.1148  0.3140 -0.2384
  389SOL     hw 1554   3.910   0.923   6.256 -1.8042 -1.3619  1.5880
  389SOL     hw 1555   4.043   0.869   6.304 -0.5210  0.6516  0.4524
  389SOL     vw 1556   3.972   0.861   6.255 -0.2224  0.1374  0.0937
  390SOL     ow 1557   5.345   0.266   4.703  0.5578 -0.4369  0.0583
  390SOL     hw 1558   5.359   0.182   4.746 -0.3826 -0.2292  0.8155
  390SOL     hw 1559   5.278   0.309   4.756  2.4424  1.6624  0.9102
  390SOL     vw 1560   5.338   0.261   4.716  0.6824 -0.1325  0.2708
  391SOL     ow 1561   0.032   4.998   2.596  0.1139  0.6160 -0.4108
  391SOL     hw 1562  -0.051   5.023   2.556 -1.1905 -0.2031  1.6402
  391SOL     hw 1563   0.018   4.910   2.630  1.7616  0.5332  0.1772
  391SOL     vw 1564   0.019   4.990   2.595  0.1593  0.4971 -0.0627
  392SOL     ow 1565   2.918   2.193   0.583 -0.5986 -0.0851  0.6812
  392SOL     hw 1566   2.861   2.269   0.591 -2.7799 -1.5222 -0.0674
  392SOL     hw 1567   2.928   2.181   0.488  0.1288 -0.4296  0.7975
  392SOL     vw 1568   2.912   2.201   0.571 -0.7905 -0.3202  0.5978
  393SOL     ow 1569   2.582   6.489   1.853  0.1285  0.3425  0.3950
  393SOL     hw 1570   2.523   6.562   1.874  0.4070  0.3215  1.2815
  393SOL     hw 1571   2.607   6.454   1.938  2.3161  1.0580  0.1034
  393SOL     vw 1572   2.578   6.494   1.867  0.4538  0.4342  0.4734
  394SOL     ow 1573   1.913   4.742   0.919  0.2533  0.2546  0.0034
  394SOL     hw 1574   1.892   4.667   0.864 -2.8573  1.6410 -0.8889
  394SOL     hw 1575   1.904   4.709   1.009  0.5003 -0.7848 -0.3365
  394SOL     vw 1576   1.909   4.728   0.924 -0.1245  0.3004 -0.1592
  395SOL     ow 1577   1.552   4.208   6.417 -0.1042  0.2644  0.1009
  395SOL     hw 1578   1.586   4.288   6.458 -1.7328  0.5372  0.9771
  395SOL     hw 1579   1.597   4.138   6.464  0.3113  0.6360  0.2730
  395SOL     vw 1580   1.563   4.210   6.429 -0.2642  0.3493  0.2391
  396SOL     ow 1581   2.284   3.552   1.464 -0.4165  0.4028 -0.0984
  396SOL     hw 1582   2.200   3.515   1.436 -0.8703  1.6005 -0.3904
  396SOL     hw 1583   2.326   3.580   1.382 -0.4521  1.2578  0.1650
  396SOL     vw 1584   2.279   3.551   1.449 -0.4810  0.6737 -0.1022
  397SOL     ow 1585   2.297   6.728   2.881 -0.0565  0.0098 -0.0936
  397SOL     hw 1586   2.222   6.685   2.839  1.6723 -3.7841  0.3001
  397SOL     hw 1587   2.355   6.751   2.809 -0.3640  0.4037 -0.2206
  397SOL     vw 1588   2.295   6.725   2.866  0.1310 -0.4389 -0.0584
  398SOL     ow 1589   1.677   6.689   5.461 -0.5121 -0.5765  0.0374
  398SOL     hw 1590   1.758   6.735   5.442 -0.6964 -0.7175 -1.1725
  398SOL     hw 1591   1.622   6.753   5.506 -0.6105  0.2914 -1.2646
  398SOL     vw 1592   1.680   6.703   5.464 -0.5494 -0.4807 -0.2944
  399SOL     ow 1593   0.154   1.944   5.010 -0.3252  0.7612  0.7102
  399SOL     hw 1594   0.103   1.867   4.985  1.5188  0.2303 -1.6864
  399SOL     hw 1595   0.181   1.926   5.100 -0.9673 -0.7937  0.6253
  399SOL     vw 1596   0.151   1.931   5.019 -0.1666  0.4860  0.3829
  400SOL     ow 1597   4.420   3.119   3.811  0.7224  0.0879 -0.0037
  400SOL     hw 1598   4.452   3.200   3.853  0.0409 -0.1917  1.0781
  400SOL     hw 1599   4.495   3.088   3.760  2.1357 -0.3542  2.2006
  400SOL     vw 1600   4.434   3.126   3.810  0.8187 -0.0073  0.4301
  401SOL     ow 1601   1.255   4.876   4.403 -0.1969  0.3405 -0.1925
  401SOL     hw 1602   1.331   4.822   4.425  0.7234  1.2220 -1.1221
  401SOL     hw 1603   1.182   4.834   4.449  0.5853 -1.3488 -0.4045
  401SOL     vw 1604   1.255   4.863   4.412  0.0277  0.2339 -0.3431
  402SOL     ow 1605   0.378   0.335   2.783 -0.1913  0.2700 -0.3357
  402SOL     hw 1606   0.415   0.309   2.867 -0.2497 -0.9385 -0.6739
  402SOL     hw 1607   0.357   0.428   2.794 -0.1433  0.1419  0.9551
  402SOL     vw 1608   0.380   0.344   2.795 -0.1927  0.0937 -0.2100
  403SOL     ow 1609   5.370   2.854   2.715  0.0410  0.0528 -0.3255
  403SOL     hw 1610   5.293   2.903   2.746  0.7239  2.4217 -2.1449
  403SOL     hw 1611   5.334   2.791   2.653 -0.5529  0.3299 -0.2775
  403SOL     vw 1612   5.355   2.852   2.711  0.0525  0.4019 -0.5592
  404SOL     ow 1613   0.040   3.456   2.014  0.2280  0.1319  0.1796
  404SOL     hw 1614   0.032   3.551   2.024  1.6973  0.2977 -0.0140
  404SOL     hw 1615   0.093   3.444   1.935 -0.8085 -0.8887 -0.3885
  404SOL     vw 1616   0.046   3.467   2.005  0.2851  0.0192  0.0790
  405SOL     ow 1617   3.988   5.571   4.835  0.3284  0.7231  0.3865
  405SOL     hw 1618   4.026   5.619   4.908 -0.6772 -1.4051  2.4576
  405SOL     hw 1619   3.927   5.633   4.795 -0.1478  1.5511  2.2689
  405SOL     vw 1620   3.985   5.585   4.839  0.1329  0.5515  0.9081
  406SOL     ow 1621   4.589   2.134   5.352  0.0623 -0.8720 -0.0675
  406SOL     hw 1622   4.611   2.220   5.318  0.8986 -0.9015  0.3700
  406SOL     hw 1623   4.494   2.134   5.358  0.0750  0.1700  0.3228
  406SOL     vw 1624   4.580   2.145   5.348  0.1743 -0.7385  0.0417
  407SOL     ow 1625   5.450   2.304   0.477  0.1744 -0.7135 -0.3343
  407SOL     hw 1626   5.371   2.348   0.444  1.0243  0.7276 -0.5312
  407SOL     hw 1627   5.507   2.376   0.504  1.4824 -1.7321 -0.3241
  407SOL     vw 1628   5.447   2.319   0.477  0.4594 -0.6578 -0.3589
  408SOL     ow 1629   3.325   1.176   3.951 -0.5461 -0.1407 -0.3768
  408SOL     hw 1630   3.277   1.126   3.885 -2.0709  1.8877 -0.9106
  408SOL     hw 1631   3.402   1.122   3.972 -1.3878 -2.0140 -1.8823
  408SOL     vw 1632   3.329   1.162   3.945 -0.8582 -0.1202 -0.6458
  409SOL     ow 1633   4.656   2.573   4.324 -0.2112  0.5883 -0.5144
  409SOL     hw 1634   4.616   2.655   4.296 -1.3398  1.1440  2.3281
  409SOL     hw 1635   4.608   2.549   4.403  1.1904 -1.9627 -0.3270
  409SOL     vw 1636   4.645   2.581   4.331 -0.1750  0.3250 -0.1144
  410SOL     ow 1637   4.139   1.097   5.946 -0.8331 -0.4322  0.0374
  410SOL     hw 1638   4.151   1.131   6.035 -2.2126  0.5217 -0.0993
  410SOL     hw 1639   4.056   1.050   5.949 -0.6394 -0.8367 -0.6278
  410SOL     vw 1640   4.129   1.095   5.958 -0.9897 -0.3597 -0.0684
  411SOL     ow 1641   2.002   6.911   5.883  0.2672  1.2200 -0.1990
  411SOL     hw 1642   2.020   6.934   5.792  0.7187  0.6748 -0.2520
  411SOL     hw 1643   1.930   6.969   5.908 -1.0817  0.1630 -1.4446
  411SOL     vw 1644   1.994   6.922   5.874  0.1488  1.0085 -0.3703
  412SOL     ow 1645   6.688   1.223   4.018 -0.5808  0.3303 -0.2990
  412SOL     hw 1646   6.767   1.184   4.055 -0.5256  1.1254  0.4362
  412SOL     hw 1647   6.617   1.191   4.074 -0.3344  2.8129  1.6030
  412SOL     vw 1648   6.689   1.214   4.030 -0.5407  0.7628  0.0489
  413SOL     ow 1649   1.755   6.084   4.003  0.7356 -0.0452  0.5696
  413SOL     hw 1650   1.818   6.014   3.985  0.9592  0.2680  0.0846
  413SOL     hw 1651   1.794   6.161   3.961  0.6865  0.4611  1.4329
  413SOL     vw 1652   1.769   6.085   3.995  0.7585  0.0632  0.6194
  414SOL     ow 1653   2.673   3.586   5.593 -0.2476 -0.3257 -0.4442
  414SOL     hw 1654   2.744   3.609   5.533 -0.0785  1.6240  0.4095
  414SOL     hw 1655   2.597   3.634   5.560 -0.3794  0.0385  0.3392
  414SOL     vw 1656   2.672   3.596   5.581 -0.2426 -0.0204 -0.2282
  415SOL     ow 1657   1.402   0.150   3.847 -0.1971  0.0717 -0.4943
  415SOL     hw 1658   1.457   0.216   3.890  0.4329 -1.0183  0.4350
  415SOL     hw 1659   1.313   0.184   3.854 -0.0120  0.3210  0.9653
  415SOL     vw 1660   1.398   0.163   3.854 -0.0895 -0.0392 -0.1792
  416SOL     ow 1661   0.668   0.904   3.469 -0.7098  0.0463 -0.3729
  416SOL     hw 1662   0.719   0.937   3.395 -0.4158  1.1532  0.2928
  416SOL     hw 1663   0.629   0.823   3.437  0.1384  0.0298 -1.4389
  416SOL     vw 1664   0.670   0.898   3.455 -0.5591  0.1902 -0.4257
  417SOL     ow 1665   2.126   0.689   0.180 -0.2445 -0.3095  0.1634
  417SOL     hw 1666   2.086   0.668   0.264 -0.1069 -0.1550  0.2670
  417SOL     hw 1667   2.100   0.617   0.123 -2.5174  0.8709 -0.3983
  417SOL     vw 1668   2.117   0.676   0.183 -0.5263 -0.1334  0.1030
  418SOL     ow 1669   2.411   3.106   2.501  0.3572 -0.2832 -0.0493
  418SOL     hw 1670   2.347   3.172   2.525 -0.4159 -1.2078  0.5085
  418SOL     hw 1671   2.383   3.027   2.547  2.6941 -0.3859  1.4064
  418SOL     vw 1672   2.399   3.104   2.510  0.5636 -0.4185  0.2164
  419SOL     ow 1673   1.159   4.356   0.130 -0.2200  0.1208 -0.3489
  419SOL     hw 1674   1.077   4.390   0.165 -0.1466 -0.2928  0.2248
  419SOL     hw 1675   1.132   4.298   0.058 -0.3181  2.0052 -1.9274
  419SOL     vw 1676   1.145   4.353   0.125 -0.2232  0.3150 -0.4815
  420SOL     ow 1677   4.217   0.783   0.607 -0.0275  0.1599  0.4488
  420SOL     hw 1678   4.256   0.858   0.652  1.8352  0.1535 -1.0537
  420SOL     hw 1679   4.187   0.819   0.523 -0.6536 -0.4421  0.4095
  420SOL     vw 1680   4.218   0.798   0.602  0.1357  0.0796  0.2454
  421SOL     ow 1681   1.260   0.527   4.624  0.3647  0.3369  0.3110
  421SOL     hw 1682   1.276   0.439   4.656 -0.4069  0.1910  0.3134
  421SOL     hw 1683   1.167   0.543   4.642  0.4454  1.0652  0.1189
  421SOL     vw 1684   1.249   0.518   4.630  0.2735  0.4138  0.2856
  422SOL     ow 1685   0.087   4.217   5.092 -0.0475  0.4062 -0.2662
  422SOL     hw 1686   0.089   4.266   5.174 -0.0924  1.3091 -0.7914
  422SOL     hw 1687   0.042   4.275   5.030 -1.8814 -1.0949 -0.4120
  422SOL     vw 1688   0.082   4.231   5.094 -0.2954  0.3276 -0.3550
  423SOL     ow 1689   6.821   2.705   0.030  0.0993 -0.2785  0.8371
  423SOL     hw 1690   6.789   2.795   0.023  0.3458 -0.2386  0.1199
  423SOL     hw 1691   6.773   2.657  -0.038 -0.0467 -0.6962  1.2311
  423SOL     vw 1692   6.811   2.710   0.020  0.1125 -0.3284  0.7944
  424SOL     ow 1693   3.592   2.067   1.035 -0.6268 -0.0577  0.3451
  424SOL     hw 1694   3.519   2.016   1.070 -1.6191 -0.7056 -2.3924
  424SOL     hw 1695   3.585   2.057   0.940  2.4068  0.7759 -0.0777
  424SOL     vw 1696   3.581   2.059   1.027 -0.3575 -0.0331 -0.0719
  425SOL     ow 1697   2.315   4.344   1.439  0.4486  0.3131  0.4109
  425SOL     hw 1698   2.323   4.425   1.489 -0.4280  0.8627 -0.3188
  425SOL     hw 1699   2.228   4.311   1.460  0.4055  0.1014 -0.0817
  425SOL     vw 1700   2.304   4.350   1.449  0.3272  0.3579  0.2497
  426SOL     ow 1701   0.740   6.662   3.989  0.4056  0.5001 -0.1027
  426SOL     hw 1702   0.781   6.593   3.938 -1.8642 -0.5475 -0.6557
  426SOL     hw 1703   0.681   6.706   3.928  0.6060  1.8639  0.6495
  426SOL     vw 1704   0.737   6.659   3.974  0.1326  0.5419 -0.0765
  427SOL     ow 1705   2.912   5.906   0.535  0.4874  0.3835  0.1721
  427SOL     hw 1706   2.978   5.931   0.469  0.1345 -1.6058 -1.0211
  427SOL     hw 1707   2.829   5.909   0.488 -0.1423  1.5250  1.2972
  427SOL     vw 1708   2.910   5.910   0.520  0.3576  0.2713  0.1631
  428SOL     ow 1709   2.734   0.370   2.809 -0.3833  0.2443  0.7433
  428SOL     hw 1710   2.741   0.321   2.891 -0.2474  0.5664  0.9232
  428SOL     hw 1711   2.739   0.462   2.835 -2.9683  0.4850  0.6871
  428SOL     vw 1712   2.735   0.376   2.823 -0.7064  0.3185  0.7597
  429SOL     ow 1713   0.699   4.138   3.812 -0.4016 -0.1393 -0.1768
  429SOL     hw 1714   0.630   4.200   3.833  0.5941  0.5619  1.1550
  429SOL     hw 1715   0.745   4.123   3.895  0.7383 -0.9750 -0.9189
  429SOL     vw 1716   0.696   4.144   3.826 -0.1198 -0.1571 -0.0989
  430SOL     ow 1717   5.593   0.663   5.725  0.3644 -0.7218  0.2370
  430SOL     hw 1718   5.609   0.751   5.758  0.1755 -0.3757 -0.5779
  430SOL     hw 1719   5.548   0.618   5.797 -1.4641  0.4913 -0.0784
  430SOL     vw 1720   5.589   0.668   5.739  0.0982 -0.5161  0.0880
  431SOL     ow 1721   1.836   3.660   3.595  0.4014 -0.1863  0.3158
  431SOL     hw 1722   1.870   3.696   3.513 -1.5912  1.4225  0.1244
  431SOL     hw 1723   1.745   3.637   3.576  0.9935 -3.6955  0.9985
  431SOL     vw 1724   1.828   3.662   3.582  0.2166 -0.4370  0.3809
  432SOL     ow 1725   3.720   6.424   1.308 -0.4581  0.0025 -0.4273
  432SOL     hw 1726   3.704   6.411   1.214 -0.9938 -1.4271 -0.1633
  432SOL     hw 1727   3.632   6.437   1.345 -0.4106 -1.0243  0.0794
  432SOL     vw 1728   3.706   6.424   1.300 -0.5225 -0.3214 -0.3256
  433SOL     ow 1729   3.255   4.609   4.398  0.3959  0.0413  0.4653
  433SOL     hw 1730   3.234   4.577   4.485  0.8729 -0.6345  0.3333
  433SOL     hw 1731   3.292   4.696   4.413  0.7673 -0.1980  0.9586
  433SOL     vw 1732   3.257   4.616   4.411  0.5078 -0.0792  0.5128
  434SOL     ow 1733   6.959   4.229   1.041 -0.2216  0.2494  0.4579
  434SOL     hw 1734   6.873   4.186   1.038 -1.1190  1.9029  1.2443
  434SOL     hw 1735   6.997   4.212   0.955 -1.9526  0.6976 -0.4301
  434SOL     vw 1736   6.953   4.221   1.030 -0.5684  0.5267  0.4445
  435SOL     ow 1737   3.988   6.453   3.143 -0.6692  0.0172  0.3153
  435SOL     hw 1738   4.038   6.518   3.094  1.9535 -1.9023  0.1844
  435SOL     hw 1739   3.993   6.373   3.089 -1.6258 -0.9508  1.5951
  435SOL     vw 1740   3.996   6.451   3.129 -0.4493 -0.3636  0.4669
  436SOL     ow 1741   4.843   0.837   4.999  0.0985 -0.6240 -0.3996
  436SOL     hw 1742   4.912   0.863   5.060 -0.5085 -0.7592  0.3529
  436SOL     hw 1743   4.781   0.787   5.052 -3.5653  4.0332  0.4287
  436SOL     vw 1744   4.844   0.834   5.014 -0.4649 -0.0274 -0.1907
  437SOL     ow 1745   5.596   1.418   0.342  0.0947 -0.0463 -0.1606
  437SOL     hw 1746   5.662   1.478   0.377  0.6670 -0.7438 -0.0102
  437SOL     hw 1747   5.633   1.387   0.259 -0.5196  0.3546 -0.5885
  437SOL     vw 1748   5.610   1.422   0.335  0.0892 -0.0855 -0.1972
  438SOL     ow 1749   6.952   3.609   6.657  0.2283 -0.0589 -0.3540
  438SOL     hw 1750   6.917   3.620   6.745  0.1901  0.0471 -0.3829
  438SOL     hw 1751   6.876   3.591   6.603  0.2898 -0.4943 -0.3043
  438SOL     vw 1752   6.938   3.608   6.662  0.2314 -0.1023 -0.3514
  439SOL     ow 1753   4.746   1.099   3.696  0.0856 -0.3236 -0.5481
  439SOL     hw 1754   4.774   1.161   3.629  0.6074  1.0886  0.9160
  439SOL     hw 1755   4.676   1.049   3.654 -0.5311  1.4157 -1.7249
  439SOL     vw 1756   4.740   1.101   3.682  0.0732  0.0922 -0.5101
  440SOL     ow 1757   4.531   3.775   0.102  0.7620 -0.0397 -0.2152
  440SOL     hw 1758   4.520   3.820   0.185  1.4172  0.4426 -0.3824
  440SOL     hw 1759   4.442   3.763   0.069  0.4845 -0.4361  0.6530
  440SOL     vw 1760   4.518   3.780   0.108  0.8118 -0.0283 -0.1227
  441SOL     ow 1761   1.285   0.237   1.322  0.1888 -0.2532 -0.7095
  441SOL     hw 1762   1.230   0.233   1.244 -2.3371 -2.2993  0.9744
  441SOL     hw 1763   1.271   0.325   1.357 -2.8392 -0.9074  0.0583
  441SOL     vw 1764   1.276   0.248   1.316 -0.5440 -0.6095 -0.3860
  442SOL     ow 1765   3.182   4.477   6.100 -0.8061 -0.3808  0.2955
  442SOL     hw 1766   3.169   4.439   6.013 -1.6051 -1.0342  0.6900
  442SOL     hw 1767   3.230   4.558   6.084  0.3769 -1.2209 -0.6367
  442SOL     vw 1768   3.187   4.482   6.086 -0.7555 -0.5779  0.2246
  443SOL     ow 1769   0.161   6.756   0.663  0.0285 -0.3525 -0.1833
  443SOL     hw 1770   0.210   6.690   0.713  0.3693  2.1786  3.1676
  443SOL     hw 1771   0.217   6.775   0.588  1.5677 -1.4286  0.6196
  443SOL     vw 1772   0.175   6.750   0.660  0.2765 -0.1609  0.3647
  444SOL     ow 1773   3.567   6.252   4.299  0.5667  0.1493  0.6555
  444SOL     hw 1774   3.543   6.306   4.374 -0.1278  0.4769  0.2058
  444SOL     hw 1775   3.572   6.163   4.334 -1.5482  0.0209  0.7438
  444SOL     vw 1776   3.564   6.247   4.313  0.1960  0.1760  0.6077
  445SOL     ow 1777   6.649   6.785   6.295 -0.5056  0.5882  0.0153
  445SOL     hw 1778   6.638   6.744   6.209 -1.8580  0.3952  0.2641
  445SOL     hw 1779   6.609   6.871   6.286 -0.3662  0.6923  0.3641
  445SOL     vw 1780   6.642   6.791   6.282 -0.6657  0.5767  0.0942
  446SOL     ow 1781   2.925   5.857   0.881 -0.4989  0.1409 -0.1176
  446SOL     hw 1782   3.020   5.844   0.888 -0.5015  0.2104  0.0382
  446SOL     hw 1783   2.892   5.842   0.969 -0.5012  1.2451  0.0803
  446SOL     vw 1784   2.934   5.853   0.893 -0.4996  0.2956 -0.0710
  447SOL     ow 1785   2.852   1.088   4.784 -0.0767  0.0214  0.1473
  447SOL     hw 1786   2.859   1.001   4.745 -2.0819 -1.1310  2.1135
  447SOL     hw 1787   2.917   1.088   4.855  1.5699  1.0706 -1.2746
  447SOL     vw 1788   2.862   1.076   4.788 -0.1240  0.0078  0.2189
  448SOL     ow 1789   2.870   6.255   1.981  0.1630 -0.0176  0.5831
  448SOL     hw 1790   2.795   6.211   2.021  1.1202 -0.6718  1.7022
  448SOL     hw 1791   2.895   6.321   2.045 -0.6896  1.6131 -0.6764
  448SOL     vw 1792   2.863   6.258   1.995  0.1769  0.1113  0.5646
  449SOL     ow 1793   3.504   6.012   1.707  0.1518  0.1904  0.0517
  449SOL     hw 1794   3.436   5.963   1.752 -1.4670  0.4511 -1.9505
  449SOL     hw 1795   3.487   6.104   1.729 -0.2651  0.2679 -0.5653
  449SOL     vw 1796   3.493   6.018   1.716 -0.1167  0.2351 -0.2939
  450SOL     ow 1797   6.098   2.295   3.491  0.4422 -0.0798 -0.3460
  450SOL     hw 1798   6.191   2.278   3.484  0.4111  0.1420 -1.3859
  450SOL     hw 1799   6.062   2.216   3.532  1.3014  0.5211  1.7043
  450SOL     vw 1800   6.105   2.283   3.496  0.5515  0.0288 -0.2127
  451SOL     ow 1801   3.911   4.424   6.738 -0.0870  0.0289  0.7794
  451SOL     hw 1802   3.981   4.411   6.674 -0.8424 -2.6334  0.3838
  451SOL     hw 1803   3.922   4.353   6.800 -1.3143  0.6915  1.7908
  451SOL     vw 1804   3.922   4.413   6.737 -0.3486 -0.2348  0.8607
  452SOL     ow 1805   1.629   6.174   6.726 -0.3939 -0.4763  0.2497
  452SOL     hw 1806   1.565   6.124   6.676  0.9213 -1.0865 -0.9019
  452SOL     hw 1807   1.607   6.157   6.818 -2.6579  0.3965 -0.0874
  452SOL     vw 1808   1.618   6.165   6.732 -0.5191 -0.4418  0.0534
  453SOL     ow 1809   6.854   0.480   0.135 -0.3962 -0.3234 -0.5191
  453SOL     hw 1810   6.869   0.496   0.229 -1.2875  1.8183 -0.6893
  453SOL     hw 1811   6.942   0.474   0.098  0.0068  0.8083  0.1865
  453SOL     vw 1812   6.868   0.481   0.143 -0.4606  0.1085 -0.4484
  454SOL     ow 1813   1.271   3.511   3.180  0.2614 -0.0807  0.1272
  454SOL     hw 1814   1.328   3.434   3.185  1.8321  0.9244 -1.2665
  454SOL     hw 1815   1.303   3.568   3.249  2.3245  1.2730 -1.7880
  454SOL     vw 1816   1.283   3.508   3.189  0.7409  0.2306 -0.3092
  455SOL     ow 1817   5.601   0.469   6.776  0.3025  0.1295  0.1200
  455SOL     hw 1818   5.517   0.468   6.730  0.2932  1.0527  0.1004
  455SOL     hw 1819   5.583   0.513   6.859  0.9193  1.0108 -0.2042
  455SOL     vw 1820   5.588   0.475   6.781  0.3827  0.3676  0.0746
  456SOL     ow 1821   2.414   5.056   3.979  0.1176 -0.0524  0.7589
  456SOL     hw 1822   2.377   5.142   3.958 -2.1795 -1.3544 -0.8641
  456SOL     hw 1823   2.461   5.030   3.900  0.5942 -0.4228  1.1578
  456SOL     vw 1824   2.415   5.064   3.966 -0.1225 -0.2728  0.5974
  457SOL     ow 1825   6.062   3.536   4.560  0.1179 -0.1803  0.3250
  457SOL     hw 1826   6.020   3.616   4.592 -0.5254  0.0010 -0.8922
  457SOL     hw 1827   6.154   3.559   4.553  0.0380  0.2463  0.6029
  457SOL     vw 1828   6.068   3.550   4.563  0.0224 -0.1001  0.2010
  458SOL     ow 1829   1.335   4.288   2.141 -0.5970 -0.1777  0.1885
  458SOL     hw 1830   1.406   4.328   2.091 -2.2151  1.0878 -1.2612
  458SOL     hw 1831   1.282   4.242   2.075 -0.0710 -2.8556  1.5051
  458SOL     vw 1832   1.337   4.287   2.126 -0.7411 -0.3641  0.1709
  459SOL     ow 1833   0.031   5.657   2.674 -0.0707  0.4813  0.5390
  459SOL     hw 1834   0.093   5.602   2.626  0.8427  0.3159  1.8663
  459SOL     hw 1835  -0.018   5.702   2.605  2.3077  1.5086 -0.6101
  459SOL     vw 1836   0.033   5.656   2.658  0.3636  0.5949  0.5624
  460SOL     ow 1837   4.146   4.988   5.940  0.0239  0.2524 -0.6116
  460SOL     hw 1838   4.161   4.898   5.966 -0.9288  0.4781  0.8127
  460SOL     hw 1839   4.214   5.006   5.875  1.8995 -0.6707  0.9902
  460SOL     vw 1840   4.157   4.979   5.935  0.1457  0.1602 -0.2124
  461SOL     ow 1841   4.525   6.944   5.786  0.7023 -0.0755 -0.0046
  461SOL     hw 1842   4.521   6.865   5.732  0.1546  0.3382 -0.5911
  461SOL     hw 1843   4.587   7.001   5.740  0.1410  0.3270 -0.2744
  461SOL     vw 1844   4.533   6.941   5.773  0.5560  0.0322 -0.1178
  462SOL     ow 1845   3.829   1.132   3.087 -0.2261 -0.0302  0.4798
  462SOL     hw 1846   3.824   1.054   3.031 -0.9920  1.1602 -1.1679
  462SOL     hw 1847   3.740   1.144   3.120  0.3773 -1.2354  2.7979
  462SOL     vw 1848   3.817   1.123   3.084 -0.2476 -0.0322  0.5682
  463SOL     ow 1849   0.731   0.388   0.396 -0.3283  0.3449 -0.2633
  463SOL     hw 1850   0.747   0.297   0.371 -0.2015  0.1991  0.3358
  463SOL     hw 1851   0.698   0.429   0.316  0.2612 -0.0602 -0.7269
  463SOL     vw 1852   0.729   0.381   0.382 -0.2338  0.2722 -0.2454
  464SOL     ow 1853   2.526   2.006   2.971  0.0370  1.0142  0.2037
  464SOL     hw 1854   2.440   2.002   3.012 -0.3043  0.7876 -0.5279
  464SOL     hw 1855   2.508   2.021   2.878  0.7269 -0.4922 -0.1999
  464SOL     vw 1856   2.513   2.008   2.964  0.0830  0.7856  0.0539
  465SOL     ow 1857   6.553   5.204   0.027  0.0892 -0.1735  0.3398
  465SOL     hw 1858   6.476   5.147   0.021 -0.9014  1.2236 -1.3923
  465SOL     hw 1859   6.541   5.268  -0.043  1.3655  1.8904  1.8662
  465SOL     vw 1860   6.541   5.205   0.017  0.1268  0.2830  0.3126
  466SOL     ow 1861   6.958   1.978   1.898  0.0653  0.3447 -0.0620
  466SOL     hw 1862   6.955   2.043   1.827 -0.4668  1.3364  0.8240
  466SOL     hw 1863   6.866   1.960   1.917  0.2062  0.0513  0.3461
  466SOL     vw 1864   6.945   1.984   1.891  0.0137  0.4368  0.1087
  467SOL     ow 1865   5.530   5.410   3.912  0.0944 -0.5494  0.2158
  467SOL     hw 1866   5.554   5.471   3.842 -2.7936  0.8769  0.3036
  467SOL     hw 1867   5.603   5.414   3.973  1.4099  0.3646 -1.3214
  467SOL     vw 1868   5.543   5.419   3.911 -0.1130 -0.2406  0.0246
  468SOL     ow 1869   6.712   3.795   3.081 -0.1757 -0.2438 -0.5237
  468SOL     hw 1870   6.765   3.782   3.159  0.2340 -0.3857 -0.8217
  468SOL     hw 1871   6.624   3.815   3.114  0.6650  3.0461  0.0648
  468SOL     vw 1872   6.707   3.795   3.095 -0.0107  0.1715 -0.4854
  469SOL     ow 1873   4.099   0.117   1.555 -0.1416  0.2219 -0.0678
  469SOL     hw 1874   4.167   0.115   1.488  0.7212  0.3606  0.7858
  469SOL     hw 1875   4.034   0.179   1.522  0.5112  0.6646 -0.5402
  469SOL     vw 1876   4.099   0.125   1.541  0.0584  0.2986 -0.0175
  470SOL     ow 1877   5.391   0.036   0.425  0.1524  0.6723  0.0964
  470SOL     hw 1878   5.453  -0.034   0.404 -2.7959 -1.4548 -2.3648
  470SOL     hw 1879   5.386   0.035   0.521  0.2232 -2.6314  0.1755
  470SOL     vw 1880   5.399   0.027   0.435 -0.2272 -0.0442 -0.2179
  471SOL     ow 1881   1.784   6.573   0.665 -0.3104  0.3584 -0.1837
  471SOL     hw 1882   1.707   6.574   0.722 -0.6929 -0.1591 -0.6754
  471SOL     hw 1883   1.750   6.545   0.580  0.7778 -2.2530  0.1435
  471SOL     vw 1884   1.769   6.569   0.661 -0.2173 -0.0544 -0.2054
  472SOL     ow 1885   0.907   2.620   0.208  0.0008  0.7518 -0.3424
  472SOL     hw 1886   0.969   2.604   0.137  1.8318 -0.4527  1.4040
  472SOL     hw 1887   0.932   2.705   0.244  1.8750 -0.4360  1.4033
  472SOL     vw 1888   0.918   2.629   0.204  0.4897  0.4361  0.1184
  473SOL     ow 1889   6.847   5.069   1.703 -0.4048 -0.4329  0.1161
  473SOL     hw 1890   6.904   4.992   1.694  0.7490  0.3096  0.7470
  473SOL     hw 1891   6.803   5.057   1.786 -2.1734 -1.6200 -0.9423
  473SOL     vw 1892   6.849   5.057   1.712 -0.4859 -0.4916  0.0597
  474SOL     ow 1893   1.647   5.324   5.677  0.5029  0.2607  0.2468
  474SOL     hw 1894   1.660   5.235   5.709 -0.3174 -0.1730 -0.6015
  474SOL     hw 1895   1.571   5.356   5.725 -0.2123 -0.0914 -0.6345
  474SOL     vw 1896   1.639   5.317   5.688  0.3003  0.1569  0.0186
  475SOL     ow 1897   5.723   6.477   4.007  0.4455 -0.6681  0.3277
  475SOL     hw 1898   5.794   6.511   4.061 -0.0921 -0.6308  1.0219
  475SOL     hw 1899   5.667   6.553   3.989  1.8615 -0.1395 -2.3189
  475SOL     vw 1900   5.725   6.492   4.012  0.5612 -0.5934  0.0701
  476SOL     ow 1901   0.236   5.869   2.723  0.3205 -0.0449  0.7009
  476SOL     hw 1902   0.311   5.814   2.700  0.6039  0.5371  0.2039
  476SOL     hw 1903   0.273   5.937   2.780 -0.0776 -0.5212  1.5401
  476SOL     vw 1904   0.251   5.871   2.727  0.3053 -0.0310  0.7460
  477SOL     ow 1905   3.981   2.388   0.303  0.2026  0.0213  0.1331
  477SOL     hw 1906   3.931   2.366   0.225 -1.0901  1.3734  0.5358
  477SOL     hw 1907   3.921   2.371   0.376  0.4669  1.2023  0.6596
  477SOL     vw 1908   3.967   2.383   0.302  0.0669  0.3555  0.2557
  478SOL     ow 1909   1.316   0.719   4.428 -0.2215  0.0176 -0.3932
  478SOL     hw 1910   1.270   0.650   4.475 -1.2953  1.3105  0.5105
  478SOL     hw 1911   1.288   0.710   4.337 -2.8914  1.1944  0.2327
  478SOL     vw 1912   1.306   0.709   4.422 -0.7154  0.3434 -0.1915
  479SOL     ow 1913   2.338   2.939   1.064  0.3279  0.1108  0.1568
  479SOL     hw 1914   2.405   3.007   1.070 -0.8145  1.3095 -0.2244
  479SOL     hw 1915   2.265   2.972   1.117 -0.8194 -0.0830 -1.2330
  479SOL     vw 1916   2.337   2.952   1.072  0.0257  0.2435 -0.0769
  480SOL     ow 1917   4.344   2.127   2.219 -0.5371  0.3664 -0.8088
  480SOL     hw 1918   4.362   2.042   2.178 -0.9159  0.4550 -1.1680
  480SOL     hw 1919   4.271   2.109   2.279 -1.3139  0.6464 -1.6507
  480SOL     vw 1920   4.337   2.113   2.222 -0.6897  0.4151 -0.9674
  481SOL     ow 1921   1.266   6.847   4.335  0.0353  0.5096 -0.0866
  481SOL     hw 1922   1.276   6.785   4.407  0.1771  4.2818  3.5229
  481SOL     hw 1923   1.181   6.888   4.350  0.2655  1.7726 -1.8468
  481SOL     vw 1924   1.256   6.844   4.346  0.0843  1.1737  0.1574
  482SOL     ow 1925   1.361   6.259   3.226  0.5438 -0.7631 -0.2296
  482SOL     hw 1926   1.406   6.272   3.143  0.6520 -0.7677 -0.1715
  482SOL     hw 1927   1.319   6.173   3.217  1.6663 -1.3865  0.2215
  482SOL     vw 1928   1.361   6.249   3.214  0.7063 -0.8459 -0.1624
  483SOL     ow 1929   4.876   2.018   5.267 -0.5023  0.4057 -0.4954
  483SOL     hw 1930   4.889   2.042   5.175  1.9292  0.5827 -0.1816
  483SOL     hw 1931   4.938   1.946   5.282  0.7827  1.8303  1.5055
  483SOL     vw 1932   4.886   2.012   5.256 -0.0119  0.6171 -0.1903
  484SOL     ow 1933   6.407   5.270   0.950  0.2205  0.2085 -0.3641
  484SOL     hw 1934   6.355   5.248   1.028  2.2175 -0.2149  0.9270
  484SOL     hw 1935   6.422   5.187   0.906  1.7109 -0.0562  0.5656
  484SOL     vw 1936   6.402   5.256   0.955  0.6809  0.1175 -0.0711
  485SOL     ow 1937   3.265   0.658   3.743  0.5092 -0.0924 -0.7849
  485SOL     hw 1938   3.325   0.667   3.817  1.3081 -1.6704 -1.1803
  485SOL     hw 1939   3.318   0.682   3.666 -0.0668  0.7300 -0.9409
  485SOL     vw 1940   3.280   0.662   3.742  0.5386 -0.1921 -0.8576
  486SOL     ow 1941   1.879   5.995   1.028  0.0164  0.2120  0.0574
  486SOL     hw 1942   1.795   6.041   1.026 -0.3119 -0.4306 -1.2746
  486SOL     hw 1943   1.888   5.956   0.942  1.9541  0.7260 -0.0266
  486SOL     vw 1944   1.869   5.996   1.017  0.2287  0.1948 -0.1295
  487SOL     ow 1945   2.159   6.074   5.935 -0.3575  0.3752 -0.6559
  487SOL     hw 1946   2.140   5.995   5.884  2.0951 -1.3315  0.8033
  487SOL     hw 1947   2.193   6.136   5.871 -1.0842 -0.2461 -1.6667
  487SOL     vw 1948   2.161   6.072   5.920 -0.1297  0.0679 -0.5968
  488SOL     ow 1949   3.625   5.739   1.701  0.4223  0.0695  0.1621
  488SOL     hw 1950   3.558   5.701   1.758 -0.2444 -1.4578 -1.5531
  488SOL     hw 1951   3.675   5.665   1.668  0.1085  0.7639 -2.0503
  488SOL     vw 1952   3.623   5.724   1.704  0.2930 -0.0403 -0.3561
  489SOL     ow 1953   2.535   6.288   0.870 -0.2732  0.3101  0.6571
  489SOL     hw 1954   2.456   6.255   0.912 -1.8673  1.8220 -0.9766
  489SOL     hw 1955   2.515   6.286   0.776  1.2701  1.5428  0.2545
  489SOL     vw 1956   2.522   6.284   0.863 -0.2799  0.6721  0.3884
  490SOL     ow 1957   3.678   3.747   4.912  0.0607 -0.1032 -1.2051
  490SOL     hw 1958   3.747   3.774   4.851  0.9165 -0.8524 -0.5859
  490SOL     hw 1959   3.709   3.774   4.998  0.7752 -2.5665 -0.5934
  490SOL     vw 1960   3.691   3.754   4.915  0.2680 -0.5270 -1.0426
  491SOL     ow 1961   0.878   5.929   4.239  0.5788  0.1598 -0.1296
  491SOL     hw 1962   0.939   5.880   4.294 -0.2682 -0.8863 -0.0687
  491SOL     hw 1963   0.901   5.905   4.149  0.3538 -0.1306 -0.1122
  491SOL     vw 1964   0.889   5.919   4.235  0.4374 -0.0162 -0.1192
  492SOL     ow 1965   5.541   0.063   6.227  0.1370  0.0680  0.5131
  492SOL     hw 1966   5.540   0.118   6.305  1.3451  0.5465  0.2222
  492SOL     hw 1967   5.573  -0.022   6.257 -0.3618 -0.0525  0.7101
  492SOL     vw 1968   5.545   0.059   6.241  0.2308  0.1152  0.5009
  493SOL     ow 1969   6.245   5.853   1.668 -0.6824 -0.1810  0.5735
  493SOL     hw 1970   6.224   5.846   1.575 -0.7921 -1.2237  0.6699
  493SOL     hw 1971   6.330   5.812   1.677 -0.3768  0.4935  0.8413
  493SOL     vw 1972   6.253   5.847   1.657 -0.6566 -0.2296  0.6216
  494SOL     ow 1973   3.990   4.103   3.385 -0.0232  0.5867  0.3253
  494SOL     hw 1974   4.037   4.024   3.412 -0.2210  0.2347 -0.3463
  494SOL     hw 1975   3.935   4.125   3.460 -0.7808 -0.5438  0.1273
  494SOL     vw 1976   3.989   4.096   3.398 -0.1493  0.3915  0.2104
  495SOL     ow 1977   2.022   6.772   6.181  0.1439  0.5425  0.6095
  495SOL     hw 1978   2.094   6.730   6.228 -0.7489 -1.5894  0.1668
  495SOL     hw 1979   1.943   6.737   6.222 -0.6462  0.1946 -1.1437
  495SOL     vw 1980   2.021   6.762   6.192 -0.0783  0.2155  0.3197
  496SOL     ow 1981   3.298   0.685   1.163 -0.4071 -0.8260 -0.2133
  496SOL     hw 1982   3.217   0.634   1.158 -1.2033  0.5281 -2.0316
  496SOL     hw 1983   3.313   0.716   1.073  0.9555  0.7374  0.4975
  496SOL     vw 1984   3.289   0.682   1.150 -0.3324 -0.4411 -0.3595
  497SOL     ow 1985   6.171   1.234   5.128  0.4215  0.0401 -0.5302
  497SOL     hw 1986   6.167   1.184   5.210  0.6253 -1.2308 -1.2690
  497SOL     hw 1987   6.217   1.314   5.151 -2.3405  1.2394  1.3422
  497SOL     vw 1988   6.176   1.238   5.142  0.0839  0.0306 -0.3805
  498SOL     ow 1989   4.357   6.315   0.177  0.2688 -0.3486  0.0053
  498SOL     hw 1990   4.363   6.223   0.152  2.3681  0.0292 -1.0689
  498SOL     hw 1991   4.310   6.357   0.104  0.5309 -0.3343 -0.1541
  498SOL     vw 1992   4.351   6.308   0.164  0.5803 -0.2968 -0.1574
  499SOL     ow 1993   0.289   1.374   4.290 -0.3522 -0.1914 -0.1650
  499SOL     hw 1994   0.257   1.307   4.351 -0.7224 -0.4626 -0.6568
  499SOL     hw 1995   0.368   1.409   4.333  0.4654 -1.6770 -0.3955
  499SOL     vw 1996   0.295   1.370   4.304 -0.2932 -0.4232 -0.2604
  500SOL     ow 1997   6.376   3.190   5.645 -0.5057  0.4782 -0.8596
  500SOL     hw 1998   6.380   3.122   5.579  0.4861  0.7962 -1.1401
  500SOL     hw 1999   6.432   3.158   5.716 -3.3011 -0.9252  0.8953
  500SOL     vw 2000   6.384   3.177   5.646 -0.7436  0.3350 -0.6649
  501SOL     ow 2001   5.105   0.473   1.148 -0.1392 -0.9783 -0.5443
  501SOL     hw 2002   5.078   0.392   1.105  0.8531 -1.9272  0.5537
  501SOL     hw 2003   5.201   0.468   1.151 -0.0840  0.0432 -0.0842
  501SOL     vw 2004   5.114   0.462   1.142 -0.0010 -0.9688 -0.3387
  502SOL     ow 2005   6.879   4.346   4.016 -0.1527 -1.1372 -0.1635
  502SOL     hw 2006   6.940   4.315   3.949 -1.9514 -0.6247 -2.1908
  502SOL     hw 2007   6.905   4.437   4.031 -1.6785 -0.1163 -2.8255
  502SOL     vw 2008   6.890   4.354   4.009 -0.5915 -0.9351 -0.7820
  503SOL     ow 2009   3.928   6.056   5.722 -0.3957  0.2399  0.3510
  503SOL     hw 2010   3.932   6.073   5.628 -0.0550  1.9377  0.6479
  503SOL     hw 2011   3.886   5.970   5.729 -1.6925  0.6900 -1.2924
  503SOL     vw 2012   3.923   6.047   5.710 -0.5218  0.5236  0.1733
  504SOL     ow 2013   3.791   5.912   0.446 -0.0991  0.0304  0.2399
  504SOL     hw 2014   3.811   5.970   0.519 -0.1408 -0.3452  0.5530
  504SOL     hw 2015   3.699   5.928   0.426 -0.0590  0.2109  0.1943
  504SOL     vw 2016   3.782   5.922   0.453 -0.0993  0.0048  0.2752
  505SOL     ow 2017   5.055   6.285   5.356  0.5236  0.2818  0.0110
  505SOL     hw 2018   4.976   6.245   5.392  0.3118 -0.3562 -1.1046
  505SOL     hw 2019   5.053   6.375   5.388 -1.3992  0.6983 -1.0831
  505SOL     vw 2020   5.044   6.292   5.365  0.2418  0.2525 -0.2804
  506SOL     ow 2021   4.482   5.926   1.621 -0.0486  0.2883 -0.1442
  506SOL     hw 2022   4.485   6.018   1.646  0.2557  0.6386 -1.3808
  506SOL     hw 2023   4.398   5.916   1.576 -0.6431 -0.3507  1.0701
  506SOL     vw 2024   4.471   5.937   1.619 -0.0870  0.2503 -0.1472
  507SOL     ow 2025   4.350   2.802   6.062 -0.1437  0.4209 -0.5401
  507SOL     hw 2026   4.353   2.749   5.982 -0.0127  0.3217 -0.4701
  507SOL     hw 2027   4.298   2.879   6.038 -1.5864 -0.4246 -0.2376
  507SOL     vw 2028   4.343   2.805   6.048 -0.3169  0.2962 -0.4911
  508SOL     ow 2029   2.532   4.704   0.440  0.0473  0.1151 -0.6010
  508SOL     hw 2030   2.597   4.651   0.486 -0.9746 -0.3724  0.3429
  508SOL     hw 2031   2.582   4.775   0.400  1.6371 -2.2272 -3.0433
  508SOL     vw 2032   2.547   4.707   0.441  0.1222 -0.2582 -0.7987
  509SOL     ow 2033   0.943   1.339   1.617  0.2661 -0.0768  0.5691
  509SOL     hw 2034   0.992   1.409   1.661  0.9689 -0.0445 -0.2391
  509SOL     hw 2035   0.859   1.379   1.596  0.3279  0.2450  0.9024
  509SOL     vw 2036   0.938   1.354   1.620  0.3670 -0.0301  0.5065
  510SOL     ow 2037   2.424   5.296   0.949 -0.1629  0.2124  0.3856
  510SOL     hw 2038   2.381   5.213   0.926  0.6654  0.0606 -0.7447
  510SOL     hw 2039   2.455   5.330   0.865  0.1625  1.3039  0.9349
  510SOL     vw 2040   2.422   5.289   0.935 -0.0106  0.3364  0.3089
  511SOL     ow 2041   1.401   6.830   3.511  0.0946  0.3607 -0.3270
  511SOL     hw 2042   1.355   6.757   3.553  0.3653 -0.5398 -1.5393
  511SOL     hw 2043   1.365   6.833   3.423  0.0383  1.7614 -0.2851
  511SOL     vw 2044   1.390   6.821   3.505  0.1228  0.4265 -0.4815
  512SOL     ow 2045   3.956   4.628   4.396  0.0753  0.5018  0.5448
  512SOL     hw 2046   3.992   4.562   4.456 -2.8130 -1.6755  0.0620
  512SOL     hw 2047   3.876   4.658   4.439 -0.8835  0.5231 -1.1559
  512SOL     vw 2048   3.950   4.623   4.410 -0.4323  0.2174  0.2565
  513SOL     ow 2049   0.506   5.471   6.273 -0.3908 -0.3959 -0.2757
  513SOL     hw 2050   0.532   5.427   6.193 -0.9393 -1.4937  0.1383
  513SOL     hw 2051   0.562   5.433   6.341 -0.0302  0.4222 -0.0989
  513SOL     vw 2052   0.517   5.460   6.272 -0.4156 -0.4327 -0.1979
  514SOL     ow 2053   1.205   3.635   2.967  0.2253 -0.3183 -0.0188
  514SOL     hw 2054   1.234   3.576   2.898  0.0045 -0.0071 -0.3829
  514SOL     hw 2055   1.221   3.587   3.048 -0.6294 -1.1737 -0.3373
  514SOL     vw 2056   1.211   3.621   2.969  0.0834 -0.3901 -0.1090
  515SOL     ow 2057   1.142   5.732   0.139 -0.3100 -0.6719  0.6011
  515SOL     hw 2058   1.102   5.757   0.222  0.1568 -0.3948  0.7448
  515SOL     hw 2059   1.234   5.716   0.161  0.0548  0.4298 -0.0605
  515SOL     vw 2060   1.149   5.733   0.153 -0.2004 -0.4900  0.5327
  516SOL     ow 2061   0.509   1.932   3.204 -0.0478  0.6272  0.2459
  516SOL     hw 2062   0.531   2.018   3.240  0.5845 -0.0055  1.4364
  516SOL     hw 2063   0.480   1.881   3.280  0.6034 -0.5226 -0.2489
  516SOL     vw 2064   0.508   1.936   3.219  0.1215  0.3920  0.3376
  517SOL     ow 2065   3.732   2.376   0.105 -0.0005  0.1547  0.5985
  517SOL     hw 2066   3.694   2.377   0.193 -1.4962 -2.0397  0.0647
  517SOL     hw 2067   3.765   2.287   0.094  1.2971  0.7460 -0.6370
  517SOL     vw 2068   3.732   2.364   0.115 -0.0266 -0.0567  0.3651
  518SOL     ow 2069   4.175   2.666   6.229  0.5181  0.1322  0.1674
  518SOL     hw 2070   4.212   2.588   6.186  1.7032  0.7602 -0.0045
  518SOL     hw 2071   4.202   2.739   6.173 -0.6860  0.6642  0.2572
  518SOL     vw 2072   4.184   2.665   6.216  0.5155  0.2853  0.1564
  519SOL     ow 2073   4.082   2.524   3.784 -0.1766  0.2394 -0.2606
  519SOL     hw 2074   4.005   2.568   3.822 -1.0414 -0.0022 -1.6509
  519SOL     hw 2075   4.150   2.591   3.782 -0.7120  0.8004 -0.0552
  519SOL     vw 2076   4.081   2.539   3.789 -0.3614  0.2816 -0.4169
  520SOL     ow 2077   5.710   2.005   0.249 -0.1902 -0.7469  0.0532
  520SOL     hw 2078   5.651   2.025   0.322 -1.1320 -0.9117 -0.6451
  520SOL     hw 2079   5.699   1.911   0.235  1.3744 -1.0875  0.8636
  520SOL     vw 2080   5.700   1.996   0.257 -0.1080 -0.8135  0.0680
  521SOL     ow 2081   6.685   2.530   6.831  0.1785  0.4365 -0.8440
  521SOL     hw 2082   6.718   2.467   6.767  1.4829 -0.3872  0.5800
  521SOL     hw 2083   6.590   2.522   6.827  0.0735  1.6550 -3.8744
  521SOL     vw 2084   6.677   2.521   6.822  0.3369  0.4888 -1.0562
  522SOL     ow 2085   4.727   1.855   0.437 -0.4159  0.2078 -0.7085
  522SOL     hw 2086   4.807   1.895   0.402  0.7541 -1.4574 -0.0567
  522SOL     hw 2087   4.701   1.913   0.509  1.1399 -0.0510  0.1061
  522SOL     vw 2088   4.735   1.868   0.442 -0.0563 -0.0461 -0.5150
  523SOL     ow 2089   2.889   2.047   4.524  0.2951 -0.0845 -0.5576
  523SOL     hw 2090   2.912   2.135   4.494  0.0661 -0.4331 -1.8394
  523SOL     hw 2091   2.968   1.995   4.508  0.3593 -0.1665 -0.0018
  523SOL     vw 2092   2.902   2.052   4.518  0.2733 -0.1413 -0.6535
  524SOL     ow 2093   1.756   3.775   2.197 -0.5519 -0.4375  0.1895
  524SOL     hw 2094   1.801   3.740   2.274 -0.6467 -1.7551 -0.3356
  524SOL     hw 2095   1.733   3.698   2.146 -1.8371  0.3310 -0.4255
  524SOL     vw 2096   1.759   3.760   2.201 -0.7340 -0.5100  0.0391
  525SOL     ow 2097   6.439   2.728   0.559  0.3469 -0.3101 -0.0872
  525SOL     hw 2098   6.524   2.685   0.568 -1.2362 -3.4189  1.5198
  525SOL     hw 2099   6.431   2.781   0.638 -0.0965 -1.8770  0.9664
  525SOL     vw 2100   6.449   2.729   0.571  0.0794 -0.9271  0.2638
  526SOL     ow 2101   1.515   0.181   1.452 -0.2151 -0.0224 -0.5200
  526SOL     hw 2102   1.545   0.112   1.391 -1.6499 -1.4192  0.2863
  526SOL     hw 2103   1.426   0.200   1.424 -0.5236  0.0627  0.4926
  526SOL     vw 2104   1.508   0.174   1.440 -0.4451 -0.1954 -0.2800
  527SOL     ow 2105   2.888   2.148   0.890 -0.3962 -0.7149 -0.3246
  527SOL     hw 2106   2.821   2.160   0.957 -0.3029 -1.0064 -0.1754
  527SOL     hw 2107   2.969   2.179   0.931 -1.0196  3.4019 -1.8149
  527SOL     vw 2108   2.890   2.153   0.904 -0.4662 -0.2102 -0.5016
  528SOL     ow 2109   1.058   4.858   3.889 -0.3704 -0.0167  0.2939
  528SOL     hw 2110   1.094   4.946   3.904 -1.0502  0.6823 -1.8255
  528SOL     hw 2111   1.115   4.820   3.822 -0.9729 -0.6311  0.1202
  528SOL     vw 2112   1.070   4.864   3.882 -0.5395 -0.0055 -0.0086
  529SOL     ow 2113   3.006   4.543   3.735 -0.5943 -0.4868 -0.1667
  529SOL     hw 2114   3.068   4.614   3.717 -0.5134 -0.7978 -1.2443
  529SOL     hw 2115   2.927   4.568   3.688 -0.1090 -1.7322 -1.7399
  529SOL     vw 2116   3.004   4.556   3.726 -0.5196 -0.6924 -0.5163
  530SOL     ow 2117   2.763   6.957   1.125  0.3557 -0.6371 -0.4383
  530SOL     hw 2118   2.733   6.866   1.123 -0.3646 -0.4218 -3.0059
  530SOL     hw 2119   2.770   6.982   1.033 -1.7600  2.6284  0.1041
  530SOL     vw 2120   2.760   6.948   1.113 -0.0186 -0.1776 -0.7055
  531SOL     ow 2121   5.281   1.391   4.854  0.1831  0.1279  0.4886
  531SOL     hw 2122   5.297   1.422   4.764  0.0315  1.3731  0.8720
  531SOL     hw 2123   5.264   1.298   4.844 -1.4809  0.5374 -0.9992
  531SOL     vw 2124   5.281   1.383   4.841 -0.0567  0.3462  0.3428
  532SOL     ow 2125   2.389   5.539   1.162 -0.1566  0.3198  0.0899
  532SOL     hw 2126   2.322   5.508   1.223 -0.0253 -0.1569 -0.0035
  532SOL     hw 2127   2.399   5.632   1.182 -1.7537  0.7077 -0.7415
  532SOL     vw 2128   2.382   5.547   1.173 -0.3501  0.3080 -0.0321
  533SOL     ow 2129   5.154   4.546   3.338  0.4857  0.1502  0.0733
  533SOL     hw 2130   5.140   4.637   3.364  1.3573  0.9217 -1.9212
  533SOL     hw 2131   5.066   4.511   3.324  0.1749  1.2449 -0.8326
  533SOL     vw 2132   5.141   4.553   3.339  0.5598  0.3965 -0.3093
  534SOL     ow 2133   0.335   6.601   3.547 -0.2418  0.7109  0.3878
  534SOL     hw 2134   0.367   6.674   3.598 -2.5601  1.8596  0.3351
  534SOL     hw 2135   0.249   6.581   3.584 -0.4689 -0.7621 -0.7954
  534SOL     vw 2136   0.328   6.608   3.558 -0.5776  0.6680  0.2246
  535SOL     ow 2137   4.996   3.377   6.400 -0.4250 -0.1114 -0.5483
  535SOL     hw 2138   4.973   3.285   6.386 -0.7716 -0.4280  1.6102
  535SOL     hw 2139   4.914   3.424   6.383 -0.3766 -0.2625 -1.1990
  535SOL     vw 2140   4.982   3.371   6.396 -0.4644 -0.1730 -0.3493
  536SOL     ow 2141   4.422   3.992   4.761 -0.5041  0.2716 -0.1887
  536SOL     hw 2142   4.488   4.055   4.791 -1.3983  1.2848 -0.2812
  536SOL     hw 2143   4.375   4.038   4.692 -1.0599 -0.5797 -0.3934
  536SOL     vw 2144   4.425   4.007   4.756 -0.6955  0.2928 -0.2279
  537SOL     ow 2145   0.491   0.907   5.374 -0.4093 -0.2435 -0.8027
  537SOL     hw 2146   0.531   0.835   5.324  0.0400  0.0748 -0.8981
  537SOL     hw 2147   0.502   0.882   5.466  1.2504  0.4892 -0.7698
  537SOL     vw 2148   0.497   0.894   5.379 -0.1310 -0.1048 -0.8111
  538SOL     ow 2149   2.675   4.342   2.420  0.2180 -0.1190  0.2385
  538SOL     hw 2150   2.621   4.268   2.391  1.9066 -1.0644 -0.6443
  538SOL     hw 2151   2.765   4.312   2.408  0.9679  2.3109 -0.6817
  538SOL     vw 2152   2.679   4.328   2.415  0.5398  0.0768  0.0007
  539SOL     ow 2153   5.725   4.445   0.178  0.1098 -0.3007  0.0538
  539SOL     hw 2154   5.771   4.380   0.233  0.6031 -0.9366 -1.0655
  539SOL     hw 2155   5.648   4.469   0.229 -0.1850 -1.9106  0.4482
  539SOL     vw 2156   5.721   4.439   0.192  0.1359 -0.5972 -0.0418
  540SOL     ow 2157   2.096   6.156   4.140 -0.5392  0.7326 -0.2918
  540SOL     hw 2158   2.067   6.137   4.051 -1.0586  0.3485 -0.0423
  540SOL     hw 2159   2.017   6.182   4.186 -0.6597 -1.0737  0.5945
  540SOL     vw 2160   2.082   6.157   4.134 -0.6237  0.4435 -0.1416
  541SOL     ow 2161   4.124   0.527   2.912 -0.5362 -0.3356  1.4540
  541SOL     hw 2162   4.049   0.556   2.965 -2.0888 -0.0219 -0.7882
  541SOL     hw 2163   4.099   0.440   2.881  0.3723 -0.5277  1.2477
  541SOL     vw 2164   4.111   0.519   2.915 -0.6211 -0.3196  1.1309
  542SOL     ow 2165   5.310   0.019   6.058  0.1883 -0.9305  0.1103
  542SOL     hw 2166   5.342  -0.007   5.971 -2.1158 -1.3939 -0.6632
  542SOL     hw 2167   5.390   0.039   6.108  1.5870 -0.8153 -2.0385
  542SOL     vw 2168   5.325   0.018   6.053  0.0689 -0.9761 -0.2754
  543SOL     ow 2169   2.119   2.261   1.029  0.1875  0.0088  0.3847
  543SOL     hw 2170   2.058   2.317   1.077 -0.7496 -1.9321  1.5757
  543SOL     hw 2171   2.179   2.322   0.987 -3.3226  2.2048 -2.0401
  543SOL     vw 2172   2.119   2.276   1.030 -0.3992  0.0424  0.2218
  544SOL     ow 2173   2.173   5.530   1.818  0.4135 -0.0793 -0.3445
  544SOL     hw 2174   2.194   5.442   1.846 -0.0720 -0.2031 -0.3549
  544SOL     hw 2175   2.137   5.519   1.730 -0.3212  0.0494 -0.0647
  544SOL     vw 2176   2.171   5.517   1.810  0.2524 -0.0784 -0.3090
  545SOL     ow 2177   1.603   5.020   2.610 -0.1883  0.2317  0.7053
  545SOL     hw 2178   1.549   4.962   2.663  0.2896 -1.0015 -0.1134
  545SOL     hw 2179   1.542   5.062   2.550 -0.1793 -2.4730 -1.4387
  545SOL     vw 2180   1.588   5.018   2.609 -0.1241 -0.2880  0.3144
  546SOL     ow 2181   0.606   6.058   4.372 -0.1865  0.4372 -0.3182
  546SOL     hw 2182   0.521   6.058   4.416 -0.2430  0.0148 -0.4211
  546SOL     hw 2183   0.613   6.145   4.333 -1.0851  0.0947 -1.2988
  546SOL     vw 2184   0.596   6.069   4.373 -0.3125  0.3362 -0.4613
  547SOL     ow 2185   5.703   4.659   4.762 -0.2360  0.5903 -0.2204
  547SOL     hw 2186   5.646   4.665   4.838  2.3862 -1.5471  2.1360
  547SOL     hw 2187   5.717   4.565   4.749  3.5667  0.9193  0.1713
  547SOL     vw 2188   5.698   4.647   4.770  0.6120  0.3517  0.1423
  548SOL     ow 2189   5.833   1.190   2.349  0.0413  1.1149 -0.0721
  548SOL     hw 2190   5.878   1.222   2.428 -1.3174 -0.6099  1.4909
  548SOL     hw 2191   5.882   1.112   2.323 -0.5427  0.6748  0.1341
  548SOL     vw 2192   5.846   1.184   2.356 -0.2148  0.8293  0.1613
  549SOL     ow 2193   2.022   3.934   6.416 -0.2485 -0.0661 -0.0190
  549SOL     hw 2194   2.034   4.011   6.472  1.1806 -0.0734 -0.2836
  549SOL     hw 2195   1.948   3.888   6.454  1.7925 -1.0856  3.0338
  549SOL     vw 2196   2.014   3.938   6.428  0.2092 -0.2016  0.3493
  550SOL     ow 2197   3.293   5.280   6.855  0.0408 -0.3735  0.4448
  550SOL     hw 2198   3.203   5.275   6.888  0.3825 -1.7864  1.2322
  550SOL     hw 2199   3.285   5.265   6.761 -0.5518 -0.4446  0.5039
  550SOL     vw 2200   3.280   5.277   6.847  0.0079 -0.5693  0.5567
  551SOL     ow 2201   3.753   2.340   1.197 -0.1962  0.5098 -0.6440
  551SOL     hw 2202   3.664   2.373   1.210 -1.2424 -1.4503 -2.1317
  551SOL     hw 2203   3.784   2.385   1.119 -0.6496 -0.1539 -1.2213
  551SOL     vw 2204   3.746   2.350   1.188 -0.3939  0.1637 -0.9164
  552SOL     ow 2205   0.733   4.327   6.265  0.1739  0.1024 -0.0144
  552SOL     hw 2206   0.718   4.242   6.304  2.6719  0.4650  1.9414
  552SOL     hw 2207   0.649   4.372   6.273 -0.3306 -1.0660  1.8672
  552SOL     vw 2208   0.720   4.322   6.271  0.4369 -0.0041  0.4916
  553SOL     ow 2209   3.491   3.161   5.275 -0.2285  0.3786  0.0772
  553SOL     hw 2210   3.400   3.155   5.302 -0.9963 -0.0542 -2.3633
  553SOL     hw 2211   3.489   3.145   5.180  2.3218  0.8633 -0.1243
  553SOL     vw 2212   3.479   3.158   5.266  0.0067  0.3855 -0.2713
  554SOL     ow 2213   5.440   1.068   3.559 -0.0883 -0.1010 -0.3329
  554SOL     hw 2214   5.459   1.138   3.496  2.2129 -0.4898 -0.1651
  554SOL     hw 2215   5.519   1.062   3.612 -0.8386 -1.7896  0.6676
  554SOL     vw 2216   5.453   1.077   3.557  0.1161 -0.3751 -0.1789
  555SOL     ow 2217   4.807   0.114   4.624 -0.0499  0.0728 -0.1592
  555SOL     hw 2218   4.814   0.122   4.719 -1.1576  0.0127 -0.0698
  555SOL     hw 2219   4.715   0.132   4.604  0.3939  1.2246 -1.3351
  555SOL     vw 2220   4.796   0.117   4.634 -0.1373  0.2168 -0.3026
  556SOL     ow 2221   2.935   2.001   6.382  0.1078  0.2162  0.5519
  556SOL     hw 2222   2.991   2.062   6.430 -0.7060  0.6485  0.9736
  556SOL     hw 2223   2.889   2.056   6.319 -1.7325  0.3215  1.9121
  556SOL     vw 2224   2.937   2.016   6.380 -0.2425  0.2871  0.7870
  557SOL     ow 2225   5.261   6.244   4.151  0.1228 -0.2828 -0.0993
  557SOL     hw 2226   5.344   6.232   4.198  2.3781  1.7212 -3.1873
  557SOL     hw 2227   5.224   6.324   4.188  0.5410 -0.1501  0.0393
  557SOL     vw 2228   5.267   6.253   4.162  0.4754 -0.0007 -0.4885
  558SOL     ow 2229   2.802   5.492   4.230 -0.2758 -0.0887 -0.1231
  558SOL     hw 2230   2.834   5.561   4.288  0.5296  0.1072 -0.7987
  558SOL     hw 2231   2.712   5.518   4.210 -0.8345 -0.5408  1.6159
  558SOL     vw 2232   2.794   5.505   4.235 -0.2433 -0.1225  0.0172
  559SOL     ow 2233   2.804   1.778   4.702 -0.0203  0.2968  0.3292
  559SOL     hw 2234   2.733   1.787   4.766 -0.6241 -1.7707  0.0230
  559SOL     hw 2235   2.774   1.709   4.642  2.1720 -0.5221  0.0749
  559SOL     vw 2236   2.790   1.770   4.702  0.1893 -0.0841  0.2551
  560SOL     ow 2237   1.964   5.219   5.012 -0.3113  0.4238  0.2319
  560SOL     hw 2238   1.929   5.132   5.033 -1.3928  0.7373 -0.1929
  560SOL     hw 2239   1.975   5.219   4.917  0.8940  0.3326  0.3545
  560SOL     vw 2240   1.960   5.208   5.002 -0.2949  0.4530  0.1919
  561SOL     ow 2241   0.795   4.079   4.071 -0.5655  0.0964 -0.2788
  561SOL     hw 2242   0.851   4.108   4.143 -1.4317  1.1505  0.0072
  561SOL     hw 2243   0.731   4.021   4.113 -0.1081 -0.5748 -0.4907
  561SOL     vw 2244   0.794   4.075   4.086 -0.6195  0.1466 -0.2692
  562SOL     ow 2245   6.678   1.118   0.186  0.1804  0.7379  0.4220
  562SOL     hw 2246   6.609   1.180   0.209 -0.0307  1.8813 -2.7521
  562SOL     hw 2247   6.633   1.050   0.136  0.7528 -0.8536  2.0031
  562SOL     vw 2248   6.663   1.117   0.182  0.2279  0.6788  0.2118
  563SOL     ow 2249   0.983   1.371   2.882 -0.0682 -0.0786 -0.2842
  563SOL     hw 2250   0.972   1.278   2.863 -0.0372 -0.3126  0.7529
  563SOL     hw 2251   0.914   1.414   2.832  0.7151 -0.5160 -1.7815
  563SOL     vw 2252   0.972   1.364   2.873  0.0392 -0.1672 -0.3450
  564SOL     ow 2253   6.035   3.227   4.519  0.2650 -0.4974 -0.3333
  564SOL     hw 2254   6.099   3.155   4.512  1.9682  0.9551 -0.3774
  564SOL     hw 2255   5.956   3.193   4.477  2.3566 -0.8808 -4.5157
  564SOL     vw 2256   6.033   3.213   4.512  0.7656 -0.3563 -0.8910
  565SOL     ow 2257   3.665   0.648   0.559 -0.0329 -0.3321  0.1348
  565SOL     hw 2258   3.649   0.703   0.636  1.0147 -1.6231  1.3182
  565SOL     hw 2259   3.647   0.559   0.589 -2.3382 -0.6760 -1.9189
  565SOL     vw 2260   3.660   0.643   0.573 -0.1987 -0.5478  0.0200
  566SOL     ow 2261   4.868   0.037   2.513 -0.3721  0.7282 -0.5956
  566SOL     hw 2262   4.838  -0.053   2.528 -0.6307  0.6024 -1.7676
  566SOL     hw 2263   4.787   0.087   2.498 -0.4659  1.7064  2.4296
  566SOL     vw 2264   4.853   0.032   2.513 -0.4187  0.8406 -0.3511
  567SOL     ow 2265   2.783   2.123   2.854 -0.0482 -0.2774 -0.3781
  567SOL     hw 2266   2.832   2.191   2.902  0.7904 -1.2658  0.2199
  567SOL     hw 2267   2.806   2.138   2.762 -0.1143  0.4357 -0.2855
  567SOL     vw 2268   2.793   2.134   2.848  0.0538 -0.3136 -0.2871
  568SOL     ow 2269   1.696   2.935   3.113 -0.0813  0.1100  0.1306
  568SOL     hw 2270   1.665   2.845   3.105 -1.6853  0.7661 -2.4325
  568SOL     hw 2271   1.638   2.975   3.178 -0.6696 -0.2372 -0.1708
  568SOL     vw 2272   1.684   2.929   3.120 -0.3705  0.1508 -0.2474
  569SOL     ow 2273   3.645   6.280   3.989 -0.4046 -0.2222 -0.3129
  569SOL     hw 2274   3.725   6.323   4.018 -0.4723  0.0420 -0.5092
  569SOL     hw 2275   3.647   6.289   3.893 -0.8553  0.1231 -0.2937
  569SOL     vw 2276   3.656   6.287   3.980 -0.4729 -0.1416 -0.3363
  570SOL     ow 2277   4.840   6.802   6.933  0.0977 -0.1350 -0.3403
  570SOL     hw 2278   4.879   6.716   6.917 -1.1948 -0.9977  0.8862
  570SOL     hw 2279   4.771   6.810   6.868 -1.7241 -1.3693  1.3324
  570SOL     vw 2280   4.836   6.792   6.923 -0.3130 -0.4115  0.0422
  571SOL     ow 2281   2.913   6.164   5.064 -0.1138  0.2273  0.0103
  571SOL     hw 2282   2.946   6.168   5.153 -0.1681  0.2448  0.0300
  571SOL     hw 2283   2.898   6.071   5.047  2.5024 -0.0981 -0.9477
  571SOL     vw 2284   2.915   6.153   5.073  0.2244  0.1864 -0.1135
  572SOL     ow 2285   1.031   1.428   0.305 -0.1894 -0.4212  0.1979
  572SOL     hw 2286   0.941   1.394   0.306 -0.0693 -0.9550 -1.6773
  572SOL     hw 2287   1.082   1.357   0.266  0.9658  0.0832  0.7600
  572SOL     vw 2288   1.026   1.414   0.300 -0.0212 -0.4251  0.0246
  573SOL     ow 2289   1.562   0.052   3.322  1.0190 -0.1246 -0.3643
  573SOL     hw 2290   1.608   0.134   3.306  0.7993 -0.1772 -1.3312
  573SOL     hw 2291   1.608  -0.012   3.268  1.5729 -0.7823  0.8472
  573SOL     vw 2292   1.574   0.054   3.313  1.0631 -0.2183 -0.3321
  574SOL     ow 2293   0.807   1.370   4.161  0.1104  0.2352 -0.0113
  574SOL     hw 2294   0.873   1.364   4.231  2.4168  1.1428 -1.9759
  574SOL     hw 2295   0.816   1.459   4.127 -2.8097  0.6848  0.1856
  574SOL     vw 2296   0.817   1.381   4.166  0.0294  0.4143 -0.2444
  575SOL     ow 2297   0.306   5.283   6.395 -0.1463  0.7535  0.4648
  575SOL     hw 2298   0.318   5.222   6.468  0.1310  0.8269  0.4789
  575SOL     hw 2299   0.271   5.228   6.324  0.6217  0.4700  0.3005
  575SOL     vw 2300   0.303   5.267   6.395 -0.0083  0.7260  0.4449
  576SOL     ow 2301   2.971   5.360   1.635  0.7014  0.3396 -0.3038
  576SOL     hw 2302   2.942   5.449   1.615 -2.2941 -0.7471 -1.4391
  576SOL     hw 2303   2.940   5.345   1.724 -1.6095 -0.4644 -1.1520
  576SOL     vw 2304   2.963   5.370   1.644  0.0012  0.0901 -0.5656
  577SOL     ow 2305   5.387   2.456   6.549 -0.2405  0.5326 -0.2142
  577SOL     hw 2306   5.450   2.523   6.523 -0.1598  0.5790  0.0974
  577SOL     hw 2307   5.302   2.489   6.519 -0.5023  1.7292  1.6331
  577SOL     vw 2308   5.384   2.469   6.542 -0.2646  0.6964  0.0706
  578SOL     ow 2309   1.689   5.299   0.312  0.2894 -0.7161  0.1147
  578SOL     hw 2310   1.781   5.317   0.334 -0.0300  0.1232  0.7853
  578SOL     hw 2311   1.645   5.383   0.322 -0.7210 -1.2941  0.6477
  578SOL     vw 2312   1.696   5.312   0.316  0.1139 -0.6816  0.2735
  579SOL     ow 2313   0.675   2.763   5.430  0.4417 -0.0103 -0.3201
  579SOL     hw 2314   0.630   2.711   5.496  2.5644 -0.0651  1.1840
  579SOL     hw 2315   0.759   2.718   5.416  1.3966  1.7687 -0.6368
  579SOL     vw 2316   0.680   2.750   5.437  0.8477  0.2173 -0.1633
  580SOL     ow 2317   4.648   4.012   1.916  0.4023 -0.6425  0.3408
  580SOL     hw 2318   4.663   3.947   1.847 -1.5101  0.2744 -1.0249
  580SOL     hw 2319   4.730   4.061   1.921 -0.0259  0.6800 -2.9039
  580SOL     vw 2320   4.660   4.010   1.907  0.0935 -0.3471 -0.2674
  581SOL     ow 2321   5.890   4.760   6.154  0.7628 -0.3749  0.3992
  581SOL     hw 2322   5.905   4.674   6.113  1.1860 -0.0534 -0.1507
  581SOL     hw 2323   5.816   4.747   6.212  0.7423 -1.0847  0.2238
  581SOL     vw 2324   5.882   4.747   6.156  0.8159 -0.4261  0.3037
  582SOL     ow 2325   5.528   1.108   2.186 -0.6149 -0.3322 -0.8505
  582SOL     hw 2326   5.508   1.015   2.188 -1.0932 -0.2239 -0.4227
  582SOL     hw 2327   5.478   1.142   2.112 -0.7564 -0.3436 -0.7597
  582SOL     vw 2328   5.519   1.100   2.177 -0.6969 -0.3194 -0.7823
  583SOL     ow 2329   1.446   6.930   0.658  0.4236  0.0817 -0.1050
  583SOL     hw 2330   1.350   6.936   0.664  0.5909  3.0183  1.1209
  583SOL     hw 2331   1.478   6.997   0.717  3.3630 -2.2510  1.2133
  583SOL     vw 2332   1.437   6.939   0.667  0.8336  0.1614  0.2306
  584SOL     ow 2333   2.300   4.733   0.207  0.0503 -0.2393 -0.1869
  584SOL     hw 2334   2.310   4.822   0.173  0.0152 -0.1314  0.0823
  584SOL     hw 2335   2.234   4.693   0.150 -1.4309  0.5460  0.8957
  584SOL     vw 2336   2.292   4.739   0.195 -0.1497 -0.1214 -0.0085
  585SOL     ow 2337   0.974   0.541   4.613 -0.5717 -0.3501  0.1426
  585SOL     hw 2338   0.966   0.446   4.617  0.4951 -0.5388 -1.4797
  585SOL     hw 2339   0.981   0.561   4.520 -0.0895  1.2558  0.4954
  585SOL     vw 2340   0.974   0.531   4.601 -0.3673 -0.1632 -0.0248
  586SOL     ow 2341   0.874   6.120   2.290 -0.0337 -0.6245  0.4345
  586SOL     hw 2342   0.836   6.191   2.342 -1.1565 -0.8774 -0.0149
  586SOL     hw 2343   0.966   6.143   2.283 -0.4385  1.0518 -0.0853
  586SOL     vw 2344   0.881   6.133   2.296 -0.2353 -0.4368  0.3067
  587SOL     ow 2345   2.682   2.498   0.270 -0.6104  0.0990 -0.0934
  587SOL     hw 2346   2.664   2.420   0.217 -0.4067  0.4333 -0.6600
  587SOL     hw 2347   2.666   2.469   0.361 -1.2573 -0.3934 -0.3521
  587SOL     vw 2348   2.677   2.484   0.275 -0.6688  0.0782 -0.2022
  588SOL     ow 2349   0.033   3.035   5.049 -0.1805 -0.1974  0.7766
  588SOL     hw 2350   0.075   3.100   5.106 -1.3745  1.5309 -0.1972
  588SOL     hw 2351   0.004   2.966   5.108  2.8573 -0.8792  1.6307
  588SOL     vw 2352   0.035   3.035   5.064  0.0627 -0.0595  0.7606
  589SOL     ow 2353   0.196   5.311   4.156  0.2086  0.7899 -1.2183
  589SOL     hw 2354   0.128   5.247   4.132  1.3712  0.0645 -2.7202
  589SOL     hw 2355   0.252   5.316   4.079  3.0434 -0.1607  0.6486
  589SOL     vw 2356   0.194   5.303   4.143  0.7360  0.5689 -1.1699
  590SOL     ow 2357   5.883   0.122   3.928 -0.3576 -0.0483 -0.3954
  590SOL     hw 2358   5.799   0.078   3.942  0.3644 -1.0711  0.9262
  590SOL     hw 2359   5.863   0.215   3.943 -1.3093 -0.2314 -0.4295
  590SOL     vw 2360   5.869   0.128   3.932 -0.3877 -0.2074 -0.2257
  591SOL     ow 2361   3.797   1.507   4.737 -0.0033  0.0895  0.1068
  591SOL     hw 2362   3.710   1.488   4.772  0.2335 -0.6432  0.3237
  591SOL     hw 2363   3.816   1.433   4.678  0.2182  0.5566 -0.4194
  591SOL     vw 2364   3.788   1.494   4.734  0.0572  0.0545  0.0660
  592SOL     ow 2365   2.011   0.533   5.388  0.3239 -0.1004 -0.5860
  592SOL     hw 2366   1.978   0.605   5.441  0.7876 -0.5885  0.4003
  592SOL     hw 2367   2.038   0.574   5.306  2.1716  1.1687  0.5805
  592SOL     vw 2368   2.010   0.548   5.384  0.6288  0.0027 -0.3021
  593SOL     ow 2369   5.812   1.978   1.911  0.4150  0.0354 -0.1179
  593SOL     hw 2370   5.803   2.066   1.875  0.3820  0.0215 -0.1445
  593SOL     hw 2371   5.735   1.967   1.968  1.1894  0.5802  1.0698
  593SOL     vw 2372   5.800   1.988   1.914  0.5126  0.1055  0.0352
  594SOL     ow 2373   6.745   0.334   3.462  0.1469 -0.0133  0.3596
  594SOL     hw 2374   6.816   0.283   3.501  1.0638  1.1725  0.2855
  594SOL     hw 2375   6.786   0.416   3.435 -0.7646 -0.1759 -1.7353
  594SOL     vw 2376   6.759   0.338   3.464  0.1476  0.1217  0.0733
  595SOL     ow 2377   4.072   4.919   4.457 -0.1093  0.1733 -0.3056
  595SOL     hw 2378   4.112   5.002   4.429 -0.8779  0.7289  0.2266
  595SOL     hw 2379   4.096   4.911   4.549  1.0436 -0.8528 -0.6630
  595SOL     vw 2380   4.081   4.929   4.465 -0.0584  0.1113 -0.2825
  596SOL     ow 2381   3.105   4.705   4.916 -0.4923  0.2537 -0.3792
  596SOL     hw 2382   3.191   4.668   4.894  0.1756  0.6088  1.3787
  596SOL     hw 2383   3.056   4.705   4.834  1.5791  1.1032 -1.7036
  596SOL     vw 2384   3.110   4.700   4.903 -0.1309  0.4125 -0.3219
  597SOL     ow 2385   4.970   6.914   0.189 -0.5610  0.1550 -0.0765
  597SOL     hw 2386   4.907   6.980   0.220 -0.6354  1.4316 -2.6515
  597SOL     hw 2387   4.923   6.869   0.119  0.3048 -1.0953  0.1322
  597SOL     vw 2388   4.955   6.917   0.184 -0.4566  0.1585 -0.3887
  598SOL     ow 2389   2.941   1.674   0.004 -0.4695 -0.5863  0.2233
  598SOL     hw 2390   2.952   1.759   0.046  0.5672  0.4560 -2.0124
  598SOL     hw 2391   3.025   1.657  -0.039 -0.8344 -2.5016  0.1576
  598SOL     vw 2392   2.954   1.683   0.004 -0.3809 -0.7014 -0.0801
  599SOL     ow 2393   2.142   3.138   6.213  0.2875  0.5924 -0.3902
  599SOL     hw 2394   2.124   3.118   6.305 -0.2105 -1.7758 -0.9228
  599SOL     hw 2395   2.105   3.225   6.200 -1.6928  0.0712  1.1273
  599SOL     vw 2396   2.135   3.147   6.224 -0.0396  0.2111 -0.2604
  600SOL     ow 2397   5.981   5.008   6.314 -0.1567 -0.4149 -0.0983
  600SOL     hw 2398   5.948   5.098   6.320  1.7361  0.2546  1.6195
  600SOL     hw 2399   5.929   4.960   6.378  0.3757  0.0134  0.6712
  600SOL     vw 2400   5.970   5.014   6.323  0.1631 -0.2699  0.2298
  601SOL     ow 2401   6.718   3.691   0.378  0.2137 -0.0971 -0.1438
  601SOL     hw 2402   6.700   3.782   0.356 -0.1222 -0.4209 -1.2977
  601SOL     hw 2403   6.646   3.642   0.337 -0.8204 -0.7285  2.2441
  601SOL     vw 2404   6.706   3.696   0.370  0.0329 -0.2232  0.0190
  602SOL     ow 2405   2.183   1.228   1.589 -0.5925  0.0509  0.4091
  602SOL     hw 2406   2.254   1.282   1.623  0.0240 -1.0054  0.8314
  602SOL     hw 2407   2.217   1.191   1.508 -1.6759  1.7151 -0.8667
  602SOL     vw 2408   2.197   1.230   1.583 -0.6540  0.1311  0.2965
  603SOL     ow 2409   4.907   3.663   3.847 -0.3069 -0.0585 -0.1330
  603SOL     hw 2410   4.812   3.646   3.843  0.0008 -1.9870 -0.1972
  603SOL     hw 2411   4.947   3.581   3.820  1.4159 -0.0910  2.2242
  603SOL     vw 2412   4.899   3.650   3.843 -0.0389 -0.3173  0.1695
  604SOL     ow 2413   0.835   5.832   5.221  0.2167 -0.1109  0.3096
  604SOL     hw 2414   0.863   5.750   5.180  1.1779  0.8800 -1.1054
  604SOL     hw 2415   0.917   5.877   5.242 -0.3044  0.9876  0.0111
  604SOL     vw 2416   0.850   5.827   5.219  0.2748  0.1647  0.0834
  605SOL     ow 2417   0.945   4.446   6.381 -0.2791 -0.0969 -0.4494
  605SOL     hw 2418   0.994   4.482   6.307 -0.2258 -2.2984 -1.5696
  605SOL     hw 2419   0.870   4.402   6.342 -1.4999  0.5977  1.0114
  605SOL     vw 2420   0.942   4.445   6.366 -0.4331 -0.2956 -0.4044
  606SOL     ow 2421   3.581   2.917   3.045 -0.2580 -0.0155 -0.2478
  606SOL     hw 2422   3.599   2.953   3.132  0.3306 -0.1663 -0.3025
  606SOL     hw 2423   3.663   2.930   2.997 -0.7422  0.5387 -0.9450
  606SOL     vw 2424   3.594   2.923   3.050 -0.2441  0.0377 -0.3471
  607SOL     ow 2425   6.228   3.579   1.917  0.0903 -0.0223 -0.4340
  607SOL     hw 2426   6.222   3.483   1.914 -1.4494  0.0600 -1.3630
  607SOL     hw 2427   6.245   3.599   2.009 -3.2299 -1.1042  0.5797
  607SOL     vw 2428   6.229   3.569   1.928 -0.5510 -0.1541 -0.4229
  608SOL     ow 2429   6.835   5.474   3.059  0.1272  0.2733  0.3088
  608SOL     hw 2430   6.924   5.437   3.052  0.2824  0.0129  2.9029
  608SOL     hw 2431   6.848   5.568   3.055  0.2864  0.2197 -1.0920
  608SOL     vw 2432   6.849   5.481   3.057  0.1686  0.2317  0.4661
  609SOL     ow 2433   4.763   3.508   3.246  0.0019  0.6598 -0.1752
  609SOL     hw 2434   4.702   3.451   3.292  0.2205 -0.5919 -1.3649
  609SOL     hw 2435   4.842   3.455   3.234  0.3445  1.3213 -0.9924
  609SOL     vw 2436   4.766   3.494   3.250  0.0758  0.5820 -0.4400
  610SOL     ow 2437   2.116   4.670   6.396 -0.0510 -0.4568  0.4925
  610SOL     hw 2438   2.202   4.636   6.369  0.1026  0.0791  0.2885
  610SOL     hw 2439   2.078   4.705   6.315 -0.0870  0.0963  0.7442
  610SOL     vw 2440   2.123   4.670   6.381 -0.0355 -0.3133  0.4985
  611SOL     ow 2441   0.179   0.058   6.435 -0.4219 -0.5735 -0.4531
  611SOL     hw 2442   0.124   0.042   6.512 -1.9125 -0.9972 -1.5516
  611SOL     hw 2443   0.240   0.127   6.462  0.0926 -1.7267  1.5526
  611SOL     vw 2444   0.180   0.065   6.449 -0.5507 -0.7815 -0.3333
  612SOL     ow 2445   6.595   6.310   5.738  0.3594 -0.1043  0.3717
  612SOL     hw 2446   6.608   6.397   5.775  0.2417  0.2295 -0.3408
  612SOL     hw 2447   6.525   6.321   5.674  0.4071 -0.7034  0.2065
  612SOL     vw 2448   6.588   6.323   5.734  0.3502 -0.1395  0.2561
  613SOL     ow 2449   1.203   2.445   3.515 -0.2331  0.4782 -0.2281
  613SOL     hw 2450   1.135   2.426   3.451 -0.4618 -1.0407  0.4052
  613SOL     hw 2451   1.273   2.382   3.496  0.7261  1.5854 -0.4613
  613SOL     vw 2452   1.203   2.434   3.504 -0.1367  0.4239 -0.1754
  614SOL     ow 2453   4.665   2.756   6.113 -0.2237  0.0481  0.2483
  614SOL     hw 2454   4.676   2.665   6.143 -0.5873 -0.0322  0.1339
  614SOL     hw 2455   4.752   2.781   6.083 -0.0746 -0.1977  0.4648
  614SOL     vw 2456   4.678   2.747   6.113 -0.2520  0.0050  0.2618
  615SOL     ow 2457   0.068   3.134   0.982  0.1816 -0.1292 -0.5166
  615SOL     hw 2458   0.128   3.060   0.972  1.8751  1.1299 -0.0623
  615SOL     hw 2459   0.023   3.139   0.897  3.3906  1.1091 -2.3023
  615SOL     vw 2460   0.070   3.125   0.969  0.8284  0.2004 -0.6922
  616SOL     ow 2461   2.996   1.927   5.559 -0.4083 -0.0142  0.6734
  616SOL     hw 2462   3.000   1.998   5.622 -0.5701 -0.4999  1.2451
  616SOL     hw 2463   3.022   1.966   5.476  0.5922  0.4550  1.1906
  616SOL     vw 2464   3.000   1.941   5.556 -0.2977 -0.0163  0.8168
  617SOL     ow 2465   5.484   1.800   3.510 -0.4216 -0.2825 -0.6048
  617SOL     hw 2466   5.562   1.760   3.549 -1.0533 -0.4892  0.4709
  617SOL     hw 2467   5.424   1.728   3.494 -0.0221 -0.2716 -2.4330
  617SOL     vw 2468   5.487   1.785   3.513 -0.4523 -0.3083 -0.7041
  618SOL     ow 2469   3.974   0.789   4.906 -0.4569  0.2777 -0.0428
  618SOL     hw 2470   4.022   0.826   4.832 -1.4613  0.0566 -0.8300
  618SOL     hw 2471   3.882   0.801   4.883 -0.7912  0.1231  1.1404
  618SOL     vw 2472   3.968   0.795   4.894 -0.6336  0.2282  0.0098
  619SOL     ow 2473   3.884   5.276   3.825  0.2177  0.1152 -0.6998
  619SOL     hw 2474   3.938   5.223   3.767 -1.0017 -0.3359 -1.4785
  619SOL     hw 2475   3.802   5.226   3.833 -0.6707  1.4892 -0.8172
  619SOL     vw 2476   3.880   5.262   3.818 -0.0604  0.2370 -0.8180
  620SOL     ow 2477   3.005   5.433   3.966  0.4118  0.0169 -0.7177
  620SOL     hw 2478   3.071   5.386   3.914  0.9663  2.1578 -2.1250
  620SOL     hw 2479   3.044   5.520   3.979 -1.0105  0.4729  0.8126
  620SOL     vw 2480   3.019   5.438   3.961  0.2973  0.3595 -0.7015
  621SOL     ow 2481   3.138   6.399   0.109 -0.4503  0.6053 -0.0695
  621SOL     hw 2482   3.126   6.305   0.124  0.1871  0.7204  1.2497
  621SOL     hw 2483   3.144   6.437   0.196 -0.2077  1.8188 -0.5955
  621SOL     vw 2484   3.137   6.391   0.122 -0.3344  0.7803  0.0352
  622SOL     ow 2485   0.203   2.197   6.284 -0.2938 -1.0515 -0.4600
  622SOL     hw 2486   0.258   2.171   6.358 -1.2499 -0.1027  0.6246
  622SOL     hw 2487   0.116   2.164   6.306 -0.5431 -0.9399 -1.2625
  622SOL     vw 2488   0.199   2.189   6.297 -0.4528 -0.9116 -0.4227
  623SOL     ow 2489   5.335   1.456   4.611  0.5253 -0.8702  0.7352
  623SOL     hw 2490   5.328   1.368   4.573  0.6939 -0.4279 -0.3669
  623SOL     hw 2491   5.258   1.502   4.579  0.0866 -0.7986  1.8581
  623SOL     vw 2492   5.324   1.450   4.602  0.4897 -0.8025  0.7381
  624SOL     ow 2493   3.631   3.753   1.478 -0.5248 -0.0989  0.9730
  624SOL     hw 2494   3.606   3.843   1.453  0.0182 -0.1683  0.1244
  624SOL     hw 2495   3.722   3.745   1.449 -1.0722 -1.4656 -0.5264
  624SOL     vw 2496   3.640   3.764   1.471 -0.5254 -0.2884  0.6632
  625SOL     ow 2497   2.018   0.463   0.840  0.2497 -0.0134  0.6107
  625SOL     hw 2498   2.033   0.371   0.821  0.1947 -0.0784  0.8785
  625SOL     hw 2499   1.954   0.492   0.774 -0.1186 -0.2933  0.8438
  625SOL     vw 2500   2.012   0.455   0.829  0.1940 -0.0589  0.6768
  626SOL     ow 2501   3.696   3.265   1.225 -0.3278 -0.6077 -0.2325
  626SOL     hw 2502   3.692   3.280   1.131  0.7547 -0.2010 -0.2292
  626SOL     hw 2503   3.748   3.338   1.258  0.1055 -1.2630  0.5582
  626SOL     vw 2504   3.702   3.277   1.217 -0.1277 -0.6405 -0.1278
  627SOL     ow 2505   6.556   3.487   4.147  0.3606  0.0061  0.1690
  627SOL     hw 2506   6.510   3.556   4.194 -1.3795 -0.8625 -0.2008
  627SOL     hw 2507   6.528   3.497   4.056  0.9170 -0.5492 -0.0756
  627SOL     vw 2508   6.546   3.498   4.141  0.2043 -0.1818  0.0877
  628SOL     ow 2509   1.344   0.627   4.167 -0.1345 -0.1509 -0.1745
  628SOL     hw 2510   1.285   0.587   4.103  0.3801  1.8063 -1.9997
  628SOL     hw 2511   1.428   0.633   4.121  0.3020  1.1417  0.7364
  628SOL     vw 2512   1.347   0.622   4.152 -0.0091  0.2779 -0.2952
  629SOL     ow 2513   4.867   6.816   1.264 -0.3151 -0.0970 -0.7905
  629SOL     hw 2514   4.779   6.852   1.258 -1.2385 -2.1998 -0.7139
  629SOL     hw 2515   4.889   6.823   1.357 -0.2343  0.7739 -0.8689
  629SOL     vw 2516   4.858   6.822   1.276 -0.4263 -0.2596 -0.7907
  630SOL     ow 2517   3.186   5.257   5.907 -0.1063 -0.3685  0.8347
  630SOL     hw 2518   3.144   5.223   5.828  0.8204  1.7040 -0.6490
  630SOL     hw 2519   3.127   5.232   5.978 -2.7473  0.5280 -0.8771
  630SOL     vw 2520   3.173   5.249   5.906 -0.3325  0.0234  0.4129
  631SOL     ow 2521   5.043   6.441   0.688  0.2022 -0.4185  0.3394
  631SOL     hw 2522   5.052   6.527   0.645  0.7285 -0.1622  0.9429
  631SOL     hw 2523   4.950   6.432   0.704 -0.1094 -0.8286 -1.4678
  631SOL     vw 2524   5.032   6.451   0.684  0.2306 -0.4389  0.1806
  632SOL     ow 2525   4.359   4.318   4.101 -0.3303  0.1602  0.7668
  632SOL     hw 2526   4.318   4.310   4.187 -2.0854  2.4739  0.2441
  632SOL     hw 2527   4.453   4.328   4.120 -0.5415 -0.5654  2.3115
  632SOL     vw 2528   4.366   4.319   4.115 -0.5896  0.3695  0.9017
  633SOL     ow 2529   0.471   2.557   0.737  0.1358 -0.6860 -0.8511
  633SOL     hw 2530   0.490   2.651   0.738 -1.0847 -0.4278 -0.0924
  633SOL     hw 2531   0.554   2.516   0.764  0.1534  0.2881  0.7164
  633SOL     vw 2532   0.485   2.564   0.741 -0.0229 -0.5233 -0.5442
  634SOL     ow 2533   1.307   0.029   4.088 -0.4264  0.4415  0.8474
  634SOL     hw 2534   1.255   0.100   4.127 -0.2616  1.1393 -0.1374
  634SOL     hw 2535   1.348   0.070   4.011 -1.3565 -1.0619 -0.4962
  634SOL     vw 2536   1.306   0.044   4.083 -0.5273  0.3352  0.5403
  635SOL     ow 2537   1.206   4.754   4.119  0.0132  0.0104  0.1334
  635SOL     hw 2538   1.260   4.794   4.187 -2.7913  1.2339  1.8188
  635SOL     hw 2539   1.234   4.663   4.117  0.7706  0.1205  2.3687
  635SOL     vw 2540   1.217   4.748   4.128 -0.2568  0.1862  0.6504
  636SOL     ow 2541   2.471   2.891   4.244 -0.1277  0.4660 -0.5957
  636SOL     hw 2542   2.520   2.970   4.220  0.8507 -0.5256 -2.0866
  636SOL     hw 2543   2.380   2.920   4.251  0.1608  1.6729 -1.4620
  636SOL     vw 2544   2.466   2.905   4.242  0.0395  0.4945 -0.9067
  637SOL     ow 2545   6.726   6.080   5.570  0.4048 -0.2451 -0.2962
  637SOL     hw 2546   6.809   6.040   5.546  1.5942  2.6623 -1.3829
  637SOL     hw 2547   6.692   6.116   5.488 -0.6299  0.8520  0.5861
  637SOL     vw 2548   6.732   6.079   5.556  0.4251  0.2830 -0.3231
  638SOL     ow 2549   4.266   2.080   6.040  0.2932  0.1990 -0.0588
  638SOL     hw 2550   4.180   2.119   6.022  0.3931  1.0430  1.2098
  638SOL     hw 2551   4.325   2.155   6.048  0.6643 -0.2469  1.5449
  638SOL     vw 2552   4.262   2.095   6.038  0.3552  0.2514  0.3202
  639SOL     ow 2553   3.527   3.607   3.189 -0.5814  0.4551  0.0105
  639SOL     hw 2554   3.456   3.566   3.239 -0.4878 -1.0525 -0.9976
  639SOL     hw 2555   3.606   3.587   3.239 -0.5291 -0.7292 -0.5047
  639SOL     vw 2556   3.528   3.599   3.202 -0.5622  0.0998 -0.1905
  640SOL     ow 2557   1.586   5.754   5.101  0.5623  0.3376 -0.3305
  640SOL     hw 2558   1.527   5.693   5.145  0.8148 -0.3827 -0.9588
  640SOL     hw 2559   1.660   5.699   5.073  1.4944  1.1987  0.3648
  640SOL     vw 2560   1.588   5.739   5.103  0.7187  0.3564 -0.3219
  641SOL     ow 2561   2.308   2.418   6.798  0.1233  0.3894 -0.2210
  641SOL     hw 2562   2.259   2.493   6.764 -2.2614 -0.9225  0.1615
  641SOL     hw 2563   2.374   2.400   6.730 -0.7225  1.4551 -1.3569
  641SOL     vw 2564   2.310   2.425   6.784 -0.3030  0.3570 -0.3204
  642SOL     ow 2565   0.115   3.334   4.085 -0.1329  0.6345 -0.8757
  642SOL     hw 2566   0.140   3.360   3.996  3.7617  2.0836  0.4105
  642SOL     hw 2567   0.179   3.267   4.109 -1.8291 -0.5837  0.4959
  642SOL     vw 2568   0.127   3.329   4.076  0.1572  0.6651 -0.5252
  643SOL     ow 2569   3.771   6.252   6.856  0.1466  0.2479 -0.1634
  643SOL     hw 2570   3.706   6.235   6.788  0.5047  1.6062 -0.8777
  643SOL     hw 2571   3.841   6.299   6.812  1.3026 -0.5308  0.7535
  643SOL     vw 2572   3.772   6.256   6.841  0.3463  0.3242 -0.1369
  644SOL     ow 2573   4.469   5.647   1.749  0.1790 -0.6216 -0.6540
  644SOL     hw 2574   4.540   5.687   1.800  0.6223  0.1231 -1.8112
  644SOL     hw 2575   4.390   5.690   1.781  0.3225 -0.9309  0.1383
  644SOL     vw 2576   4.468   5.658   1.760  0.2565 -0.5641 -0.7021
  645SOL     ow 2577   1.747   1.732   4.455 -0.1285 -0.0985  0.1052
  645SOL     hw 2578   1.814   1.733   4.523  0.7988 -0.2966 -0.7661
  645SOL     hw 2579   1.775   1.798   4.392 -0.1104 -0.9831 -0.8510
  645SOL     vw 2580   1.759   1.741   4.455 -0.0038 -0.2413 -0.1357
  646SOL     ow 2581   0.434   6.369   3.338 -0.1090 -0.1331  0.1980
  646SOL     hw 2582   0.429   6.292   3.395 -0.0817 -0.7734 -0.6467
  646SOL     hw 2583   0.425   6.334   3.249  1.0581  0.6997 -0.2792
  646SOL     vw 2584   0.432   6.354   3.334  0.0486 -0.1078  0.0236
  647SOL     ow 2585   1.483   5.245   6.290  0.1001 -0.3299 -0.1272
  647SOL     hw 2586   1.540   5.317   6.317  1.4205 -1.5286  0.4459
  647SOL     hw 2587   1.529   5.203   6.217 -0.5436 -0.7137 -0.3254
  647SOL     vw 2588   1.497   5.249   6.284  0.1894 -0.5386 -0.0777
  648SOL     ow 2589   5.829   6.706   1.670 -0.0872 -0.0989  0.4763
  648SOL     hw 2590   5.789   6.662   1.595  2.0913 -0.3575 -0.6244
  648SOL     hw 2591   5.914   6.663   1.680  0.8026  1.7478  1.3594
  648SOL     vw 2592   5.835   6.695   1.661  0.3176  0.1106  0.4476
  649SOL     ow 2593   1.825   3.750   3.875  0.3253  0.3249 -0.0683
  649SOL     hw 2594   1.773   3.819   3.836  0.3727  0.3049 -0.1684
  649SOL     hw 2595   1.857   3.787   3.957  0.2556  0.3807 -0.0664
  649SOL     vw 2596   1.822   3.764   3.881  0.3224  0.3297 -0.0813
  650SOL     ow 2597   5.603   3.537   2.728 -0.1778  0.1083 -0.1240
  650SOL     hw 2598   5.564   3.614   2.768 -0.3666  0.1260 -0.3440
  650SOL     hw 2599   5.534   3.499   2.674 -0.0837 -0.2073 -0.0302
  650SOL     vw 2600   5.589   3.542   2.726 -0.1903  0.0690 -0.1408
  651SOL     ow 2601   2.800   0.652   1.614 -0.1023  0.1635 -0.1874
  651SOL     hw 2602   2.892   0.673   1.603  0.3837 -1.4348  0.5519
  651SOL     hw 2603   2.784   0.582   1.551 -0.7798  0.3532 -0.2320
  651SOL     vw 2604   2.810   0.645   1.604 -0.1277 -0.0223 -0.0957
  652SOL     ow 2605   0.413   1.956   4.840  0.5220 -0.1634 -0.0725
  652SOL     hw 2606   0.446   1.947   4.929  0.4208  0.4230  0.0310
  652SOL     hw 2607   0.411   1.867   4.805  2.7690 -0.1950 -0.2874
  652SOL     vw 2608   0.417   1.943   4.847  0.8051 -0.0902 -0.0873
  653SOL     ow 2609   4.722   1.598   0.343  0.0360  0.0481 -0.4447
  653SOL     hw 2610   4.789   1.640   0.290  0.6166  0.5605  0.6561
  653SOL     hw 2611   4.752   1.507   0.352  0.0740  0.0281 -0.7571
  653SOL     vw 2612   4.735   1.592   0.338  0.1175  0.1131 -0.3407
  654SOL     ow 2613   5.097   1.944   1.831  0.0092  0.4475 -0.0510
  654SOL     hw 2614   5.167   1.927   1.768  1.3026  0.1417  1.3980
  654SOL     hw 2615   5.020   1.901   1.794  1.4531 -2.4437  0.0273
  654SOL     vw 2616   5.096   1.936   1.818  0.3705  0.0257  0.1505
  655SOL     ow 2617   4.505   5.680   3.298 -0.5209  0.1437 -0.3284
  655SOL     hw 2618   4.586   5.648   3.338  0.4077 -0.0430 -2.2123
  655SOL     hw 2619   4.446   5.695   3.371  1.0675 -0.1444  1.0805
  655SOL     vw 2620   4.508   5.678   3.313 -0.1888  0.0811 -0.3911
  656SOL     ow 2621   6.621   2.303   3.123 -0.2431  0.5372 -0.1387
  656SOL     hw 2622   6.651   2.227   3.174 -2.3278 -1.3369 -1.5472
  656SOL     hw 2623   6.626   2.376   3.185  1.8385 -0.6900  1.2787
  656SOL     vw 2624   6.626   2.303   3.138 -0.2439  0.1280 -0.1377
  657SOL     ow 2625   6.438   2.094   2.945  0.3705  0.1097 -0.1547
  657SOL     hw 2626   6.438   2.000   2.928 -1.7333  0.3070 -1.5758
  657SOL     hw 2627   6.347   2.115   2.965  0.8907  1.7787  0.6030
  657SOL     vw 2628   6.426   2.085   2.945  0.1614  0.3558 -0.2422
  658SOL     ow 2629   4.020   2.521   6.489  0.3258  0.2392 -0.1484
  658SOL     hw 2630   4.098   2.488   6.533  1.2985  0.2370 -1.8081
  658SOL     hw 2631   3.952   2.456   6.508  0.6717  0.2793  1.3677
  658SOL     vw 2632   4.021   2.508   6.498  0.5000  0.2440 -0.1674
  659SOL     ow 2633   4.795   4.469   6.432 -0.3717  0.2070 -0.3085
  659SOL     hw 2634   4.744   4.435   6.358 -1.0377 -0.5404  0.4772
  659SOL     hw 2635   4.839   4.392   6.468 -0.0931  0.5598  0.1130
  659SOL     vw 2636   4.794   4.455   6.427 -0.4227  0.1550 -0.1490
  660SOL     ow 2637   5.962   3.221   0.493  0.1422  0.0283  0.7728
  660SOL     hw 2638   6.044   3.252   0.532  1.0119 -4.1173  2.8107
  660SOL     hw 2639   5.965   3.253   0.403  3.5869  0.7900  1.0079
  660SOL     vw 2640   5.973   3.229   0.486  0.7117 -0.4181  1.0727
  661SOL     ow 2641   4.067   6.667   5.051  0.2696 -0.6448 -0.1160
  661SOL     hw 2642   4.013   6.617   4.991  2.0561 -0.1618 -2.2473
  661SOL     hw 2643   4.053   6.626   5.136 -1.2910 -2.2409 -1.0875
  661SOL     vw 2644   4.058   6.655   5.054  0.2992 -0.7915 -0.5255
  662SOL     ow 2645   2.400   3.585   1.776 -0.5403  0.1966  0.4539
  662SOL     hw 2646   2.315   3.627   1.790 -0.9510 -0.9483  1.5730
  662SOL     hw 2647   2.449   3.602   1.856 -1.0276 -2.0932  1.3162
  662SOL     vw 2648   2.395   3.593   1.788 -0.6589 -0.2565  0.7153
  663SOL     ow 2649   5.629   6.274   4.203  0.1406 -0.1629 -0.1054
  663SOL     hw 2650   5.562   6.233   4.257 -1.3943  1.2826 -0.8362
  663SOL     hw 2651   5.702   6.289   4.263 -0.4992 -0.9932  0.9160
  663SOL     vw 2652   5.630   6.270   4.218 -0.1462 -0.0818 -0.0668
  664SOL     ow 2653   6.374   2.233   5.493 -0.2344 -0.6855  0.5226
  664SOL     hw 2654   6.342   2.163   5.550  1.9141 -1.9329  0.3126
  664SOL     hw 2655   6.307   2.240   5.425 -1.8877 -0.5071  2.0740
  664SOL     vw 2656   6.361   2.224   5.492 -0.1690 -0.8266  0.6995
  665SOL     ow 2657   3.809   1.988   2.203  0.4496  0.3120 -0.4235
  665SOL     hw 2658   3.773   2.067   2.161 -1.9304 -0.0496  0.7476
  665SOL     hw 2659   3.862   2.022   2.275 -1.0104  0.9106  0.4243
  665SOL     vw 2660   3.811   2.003   2.207 -0.0571  0.3433 -0.1572
  666SOL     ow 2661   3.643   2.598   6.837 -0.4786  0.3138  0.0312
  666SOL     hw 2662   3.720   2.626   6.886  2.0848 -4.3991 -0.6416
  666SOL     hw 2663   3.621   2.672   6.780  2.3284  2.5420  1.6076
  666SOL     vw 2664   3.650   2.611   6.836  0.2301 -0.0141  0.1507
  667SOL     ow 2665   0.702   5.601   1.464 -0.1211  0.0916  0.4607
  667SOL     hw 2666   0.777   5.658   1.444  1.5182 -2.3473 -0.9024
  667SOL     hw 2667   0.659   5.589   1.379 -2.2803  1.6089  1.2574
  667SOL     vw 2668   0.706   5.607   1.450 -0.1897 -0.0303  0.3859
  668SOL     ow 2669   3.040   4.511   5.195  0.5051  0.1053 -0.7217
  668SOL     hw 2670   3.010   4.449   5.128  1.5136 -1.0907 -0.1062
  668SOL     hw 2671   3.110   4.465   5.241 -1.0511  0.3313  2.0908
  668SOL     vw 2672   3.045   4.497   5.192  0.4327 -0.0226 -0.2697
  669SOL     ow 2673   5.639   0.362   4.682  0.0644 -0.0015  0.4814
  669SOL     hw 2674   5.712   0.342   4.623 -2.2284 -2.5751 -1.7539
  669SOL     hw 2675   5.675   0.348   4.770  2.1930 -1.5554 -0.5445
  669SOL     vw 2676   5.653   0.357   4.686  0.0424 -0.5461  0.0513
  670SOL     ow 2677   0.784   6.837   6.317  0.7896  0.5920 -0.4166
  670SOL     hw 2678   0.767   6.854   6.409 -0.4163  1.2210 -0.7362
  670SOL     hw 2679   0.761   6.745   6.304  3.3793 -0.2650  0.4230
  670SOL     vw 2680   0.779   6.827   6.327  0.9722  0.5620 -0.3479
  671SOL     ow 2681   4.335   3.594   0.686 -0.6768 -0.1737 -0.2096
  671SOL     hw 2682   4.347   3.678   0.642 -0.0522 -1.2438 -2.1997
  671SOL     hw 2683   4.251   3.561   0.653 -0.6902 -0.5544  0.1894
  671SOL     vw 2684   4.325   3.600   0.676 -0.5963 -0.3650 -0.4196
  672SOL     ow 2685   3.967   6.664   0.594 -0.0174 -0.5128  0.0005
  672SOL     hw 2686   3.943   6.696   0.507 -0.0402 -0.1449  0.1411
  672SOL     hw 2687   3.951   6.569   0.590 -0.3476 -0.4463 -0.2847
  672SOL     vw 2688   3.962   6.655   0.582 -0.0641 -0.4556 -0.0186
  673SOL     ow 2689   0.690   3.556   2.147  0.4019  0.2639  0.0587
  673SOL     hw 2690   0.664   3.611   2.220 -0.3964  0.7291 -0.5606
  673SOL     hw 2691   0.755   3.496   2.184  1.9486  2.1567  0.5577
  673SOL     vw 2692   0.695   3.555   2.161  0.5006  0.5749  0.0427
  674SOL     ow 2693   3.075   1.462   0.176 -0.6819  0.1418 -0.1059
  674SOL     hw 2694   3.162   1.481   0.139  0.7779  1.2872  3.4785
  674SOL     hw 2695   3.072   1.366   0.181 -0.5437  0.0000 -2.1586
  674SOL     vw 2696   3.086   1.452   0.172 -0.4712  0.2742  0.0962
  675SOL     ow 2697   6.098   3.315   6.473  0.2521 -0.5485 -0.1336
  675SOL     hw 2698   6.179   3.288   6.428 -0.7869 -2.4037 -1.0062
  675SOL     hw 2699   6.061   3.381   6.415  1.6174  1.1004  0.7936
  675SOL     vw 2700   6.104   3.320   6.459  0.2952 -0.5758 -0.1261
  676SOL     ow 2701   1.677   2.541   4.323 -0.1121 -0.4689 -0.1730
  676SOL     hw 2702   1.617   2.469   4.306 -0.0112 -0.6115  0.0775
  676SOL     hw 2703   1.704   2.530   4.414 -0.0464 -0.1531 -0.1514
  676SOL     vw 2704   1.673   2.530   4.333 -0.0901 -0.4462 -0.1373
  677SOL     ow 2705   0.313   2.499   6.077  0.0872 -0.1770 -0.0023
  677SOL     hw 2706   0.373   2.554   6.027  1.4921 -0.7915  0.9541
  677SOL     hw 2707   0.230   2.505   6.029  1.2589 -0.4300 -2.1813
  677SOL     vw 2708   0.310   2.507   6.064  0.4272 -0.2913 -0.1636
  678SOL     ow 2709   0.037   0.162   5.606 -0.2235  0.7131  0.2240
  678SOL     hw 2710   0.114   0.117   5.641 -0.1906  2.4380  2.6410
  678SOL     hw 2711  -0.038   0.118   5.647 -0.2742  1.6311  1.1642
  678SOL     vw 2712   0.037   0.151   5.616 -0.2260  1.0618  0.6671
  679SOL     ow 2713   3.777   2.567   1.020  0.0464  0.2801 -0.1856
  679SOL     hw 2714   3.725   2.586   0.942  0.7020  2.8334 -0.0936
  679SOL     hw 2715   3.867   2.560   0.988 -0.0145 -2.0154 -0.0502
  679SOL     vw 2716   3.782   2.568   1.006  0.1249  0.3141 -0.1556
  680SOL     ow 2717   4.795   3.155   4.884  0.2781  0.7422 -0.2395
  680SOL     hw 2718   4.713   3.170   4.837  0.3201  0.5271 -0.3838
  680SOL     hw 2719   4.802   3.228   4.945 -0.8462 -0.0743  0.9416
  680SOL     vw 2720   4.785   3.166   4.886  0.1352  0.6062 -0.1028
  681SOL     ow 2721   0.175   1.719   0.387  0.8519 -0.0627  0.4019
  681SOL     hw 2722   0.169   1.632   0.348  1.5126 -0.7583  1.7716
  681SOL     hw 2723   0.218   1.772   0.320 -1.3557 -0.2233 -1.2534
  681SOL     vw 2724   0.180   1.715   0.373  0.6478 -0.1757  0.3642
  682SOL     ow 2725   0.423   4.593   6.155  0.2966 -0.2833  0.3932
  682SOL     hw 2726   0.385   4.668   6.201 -1.0422 -1.2180  0.8518
  682SOL     hw 2727   0.437   4.527   6.224  0.5679 -0.8098 -0.1534
  682SOL     vw 2728   0.420   4.594   6.170  0.1558 -0.4759  0.3815
  683SOL     ow 2729   1.813   4.911   3.490 -0.1961  0.1309 -0.6346
  683SOL     hw 2730   1.731   4.907   3.441  0.4232  0.6688 -1.7386
  683SOL     hw 2731   1.787   4.897   3.581 -1.9718  3.4135 -0.4801
  683SOL     vw 2732   1.799   4.909   3.496 -0.3487  0.6347 -0.7598
  684SOL     ow 2733   4.357   2.457   3.362  0.3786 -0.2445 -0.3082
  684SOL     hw 2734   4.339   2.467   3.269 -1.0396 -4.6825 -0.7436
  684SOL     hw 2735   4.271   2.451   3.404  0.8308 -2.9549  0.4637
  684SOL     vw 2736   4.344   2.458   3.356  0.2513 -1.1877 -0.2639
  685SOL     ow 2737   2.253   1.128   6.210  0.4642 -0.0737  0.0837
  685SOL     hw 2738   2.319   1.151   6.276 -0.8099  1.5640  0.8632
  685SOL     hw 2739   2.279   1.041   6.180  3.4504  0.8273 -0.2705
  685SOL     vw 2740   2.265   1.120   6.215  0.6901  0.2612  0.1397
  686SOL     ow 2741   6.951   0.263   0.878 -0.3152 -0.2344 -0.2879
  686SOL     hw 2742   7.031   0.217   0.904  1.3605  1.7486 -1.5745
  686SOL     hw 2743   6.962   0.279   0.784 -2.0644  0.4139 -0.4276
  686SOL     vw 2744   6.963   0.259   0.869 -0.3249  0.1128 -0.4761
  687SOL     ow 2745   5.386   2.309   3.248  0.2667  0.4182 -0.7701
  687SOL     hw 2746   5.429   2.394   3.243  2.9792 -0.5805  2.3622
  687SOL     hw 2747   5.356   2.302   3.339  1.1503 -2.3261 -0.5807
  687SOL     vw 2748   5.388   2.319   3.259  0.7412 -0.0756 -0.3318
  688SOL     ow 2749   6.937   5.672   0.203 -0.6185  0.2137 -0.2478
  688SOL     hw 2750   6.991   5.608   0.157 -0.1814 -0.6999  1.4526
  688SOL     hw 2751   6.897   5.724   0.133  0.6458 -0.5642 -1.6151
  688SOL     vw 2752   6.939   5.670   0.188 -0.3939 -0.0093 -0.2039
  689SOL     ow 2753   6.958   2.915   4.750  0.0342 -0.0416  0.6532
  689SOL     hw 2754   6.939   2.822   4.764  0.3207  0.0844  2.0242
  689SOL     hw 2755   7.052   2.918   4.732  0.4067  0.1097  2.3945
  689SOL     vw 2756   6.968   2.903   4.750  0.1214 -0.0049  1.0641
  690SOL     ow 2757   5.422   5.239   2.882 -0.4744  0.7075 -0.4726
  690SOL     hw 2758   5.469   5.230   2.799 -0.5906 -3.0086 -0.2930
  690SOL     hw 2759   5.330   5.228   2.859 -0.7884  2.2972 -0.1059
  690SOL     vw 2760   5.416   5.236   2.868 -0.5310  0.4268 -0.4004
  691SOL     ow 2761   0.747   3.306   6.427 -0.2532  0.1676  0.3979
  691SOL     hw 2762   0.740   3.245   6.353 -1.5092  0.4698  0.2362
  691SOL     hw 2763   0.826   3.357   6.408 -0.4594  0.1280 -0.6572
  691SOL     vw 2764   0.757   3.305   6.415 -0.4461  0.2023  0.2375
  692SOL     ow 2765   0.062   5.032   5.407 -0.6494 -0.1284 -0.7937
  692SOL     hw 2766  -0.025   5.071   5.414 -0.0896  1.0415  0.0851
  692SOL     hw 2767   0.116   5.099   5.365  0.2149 -0.1327  0.2565
  692SOL     vw 2768   0.058   5.046   5.403 -0.4615  0.0257 -0.5391
  693SOL     ow 2769   1.258   3.944   2.817  0.2414 -0.0974 -0.8317
  693SOL     hw 2770   1.189   3.957   2.752 -0.0073 -0.0482 -0.5579
  693SOL     hw 2771   1.317   4.018   2.804  2.0232 -1.7899 -3.2605
  693SOL     vw 2772   1.257   3.956   2.807  0.4437 -0.3142 -1.1159
  694SOL     ow 2773   2.605   5.951   6.652  0.2660 -0.6938  0.0858
  694SOL     hw 2774   2.582   6.011   6.582  1.0829  2.3800  2.2209
  694SOL     hw 2775   2.524   5.940   6.702 -1.0473 -4.9780 -2.4947
  694SOL     vw 2776   2.592   5.957   6.650  0.2006 -0.8535  0.0269
  695SOL     ow 2777   2.275   2.873   6.207  0.1672  0.5503  0.3295
  695SOL     hw 2778   2.305   2.790   6.245  1.9752  0.2660 -1.5422
  695SOL     hw 2779   2.331   2.939   6.248 -0.9137  0.8069  1.4253
  695SOL     vw 2780   2.287   2.871   6.218  0.2631  0.5467  0.2272
  696SOL     ow 2781   1.496   2.776   0.415  0.2826 -0.0929  0.3347
  696SOL     hw 2782   1.578   2.820   0.436  1.9072 -0.9069 -3.3997
  696SOL     hw 2783   1.441   2.845   0.377 -0.4577  0.2448  1.9315
  696SOL     vw 2784   1.499   2.791   0.413  0.3992 -0.1558  0.0527
  697SOL     ow 2785   0.244   3.795   4.719 -0.1525  0.6755  0.4052
  697SOL     hw 2786   0.251   3.734   4.792  0.8216  2.0920  1.5517
  697SOL     hw 2787   0.281   3.747   4.645  3.6012  0.8377  1.9457
  697SOL     vw 2788   0.250   3.780   4.719  0.4713  0.8837  0.7596
  698SOL     ow 2789   5.910   4.129   3.662  0.6374  0.4477 -0.3377
  698SOL     hw 2790   5.963   4.051   3.679  0.3305  0.6486  1.8578
  698SOL     hw 2791   5.820   4.101   3.680  0.3532  0.9393 -0.9538
  698SOL     vw 2792   5.905   4.115   3.667  0.5598  0.5391 -0.1293
  699SOL     ow 2793   0.726   1.943   1.536  0.1210 -0.3483  0.4298
  699SOL     hw 2794   0.681   1.866   1.501 -0.3448  0.0305  0.1790
  699SOL     hw 2795   0.819   1.924   1.524 -0.0014 -0.7315  0.0694
  699SOL     vw 2796   0.732   1.931   1.530  0.0435 -0.3489  0.3492
  700SOL     ow 2797   6.940   2.031   2.218 -0.2550 -0.4010 -0.4106
  700SOL     hw 2798   6.961   2.020   2.311 -1.0192  1.2142 -0.0233
  700SOL     hw 2799   6.845   2.040   2.215 -0.4817 -2.4834 -1.6003
  700SOL     vw 2800   6.931   2.031   2.230 -0.3858 -0.4628 -0.5165
  701SOL     ow 2801   2.082   3.769   3.726  0.5589  0.3697  0.3331
  701SOL     hw 2802   2.037   3.832   3.669 -1.2970  0.2763  1.5872
  701SOL     hw 2803   2.153   3.819   3.765  0.6010  0.9921 -0.5087
  701SOL     vw 2804   2.085   3.784   3.724  0.3195  0.4394  0.3875
  702SOL     ow 2805   0.600   0.742   2.522  0.5944  0.0346  0.1112
  702SOL     hw 2806   0.681   0.757   2.472  0.2327  0.0813 -0.4725
  702SOL     hw 2807   0.630   0.703   2.604  1.2075 -0.0205 -0.1294
  702SOL     vw 2808   0.615   0.739   2.526  0.6275  0.0335  0.0025
  703SOL     ow 2809   1.625   1.725   1.853  0.3068  0.2119 -0.6813
  703SOL     hw 2810   1.719   1.742   1.867  0.6030 -1.3497 -0.5839
  703SOL     hw 2811   1.622   1.638   1.815 -1.2910 -2.0827  3.8835
  703SOL     vw 2812   1.637   1.716   1.850  0.1351 -0.2969 -0.0662
  704SOL     ow 2813   1.274   1.782   4.787  0.8922  0.3504 -0.2428
  704SOL     hw 2814   1.206   1.850   4.782  0.1630 -0.2488  1.0358
  704SOL     hw 2815   1.225   1.700   4.794  1.7234 -0.0389  1.5096
  704SOL     vw 2816   1.258   1.780   4.787  0.9056  0.2200  0.1566
  705SOL     ow 2817   4.520   5.881   4.957  0.2895  0.7277  0.0399
  705SOL     hw 2818   4.505   5.812   5.021 -0.6712 -0.1346 -1.0578
  705SOL     hw 2819   4.443   5.937   4.963  0.4054  0.8977 -0.0412
  705SOL     vw 2820   4.508   5.879   4.966  0.1781  0.6361 -0.1156
  706SOL     ow 2821   0.997   1.200   1.899 -0.7925 -0.1124 -0.3548
  706SOL     hw 2822   0.929   1.181   1.964 -0.0684  1.3854  0.8849
  706SOL     hw 2823   1.061   1.253   1.945 -0.2855  1.0845 -2.3233
  706SOL     vw 2824   0.996   1.204   1.913 -0.6301  0.2431 -0.4509
  707SOL     ow 2825   0.538   3.920   5.793 -0.5025  0.0177 -0.0836
  707SOL     hw 2826   0.474   3.850   5.782  1.5198 -1.7681 -1.4008
  707SOL     hw 2827   0.523   3.979   5.719 -0.3158 -0.6421 -0.6466
  707SOL     vw 2828   0.528   3.919   5.782 -0.2111 -0.3049 -0.3316
  708SOL     ow 2829   4.340   3.901   5.382  0.1803 -0.1902 -0.3988
  708SOL     hw 2830   4.413   3.841   5.371 -0.2294 -1.3848  2.4761
  708SOL     hw 2831   4.276   3.874   5.316  0.4717 -2.2354  0.1045
  708SOL     vw 2832   4.341   3.890   5.372  0.1645 -0.6176  0.0472
  709SOL     ow 2833   5.926   2.791   5.935 -0.2362 -0.3295 -0.2776
  709SOL     hw 2834   5.935   2.823   5.845  0.5948 -1.6875 -0.6996
  709SOL     hw 2835   5.845   2.741   5.934  0.6195 -1.7541 -0.7360
  709SOL     vw 2836   5.916   2.789   5.923 -0.0136 -0.6967 -0.3939
  710SOL     ow 2837   4.845   4.196   4.487  0.3079  0.4449  0.5161
  710SOL     hw 2838   4.807   4.160   4.567 -0.6187 -0.5562 -0.3377
  710SOL     hw 2839   4.780   4.259   4.456 -0.7575 -1.2689 -0.9493
  710SOL     vw 2840   4.831   4.200   4.493  0.0451  0.0865  0.2100
  711SOL     ow 2841   3.054   4.957   2.489 -0.2530 -0.0020  0.3447
  711SOL     hw 2842   3.044   4.877   2.540 -0.8867 -1.3699 -1.7887
  711SOL     hw 2843   2.972   4.965   2.440  1.1773 -0.1486 -2.2643
  711SOL     vw 2844   3.042   4.947   2.489 -0.1479 -0.2019 -0.2811
  712SOL     ow 2845   2.693   0.305   1.152 -0.3427  0.6808 -0.7484
  712SOL     hw 2846   2.653   0.354   1.223 -0.1531  1.2527 -1.0348
  712SOL     hw 2847   2.745   0.369   1.104  0.6275  0.0297 -0.6099
  712SOL     vw 2848   2.695   0.320   1.155 -0.1898  0.6704 -0.7679
  713SOL     ow 2849   2.522   4.698   2.100  0.1306 -0.6392 -0.2162
  713SOL     hw 2850   2.587   4.759   2.133  0.5847 -1.3470  0.2272
  713SOL     hw 2851   2.447   4.753   2.077  1.0904  0.2572 -1.3251
  713SOL     vw 2852   2.521   4.713   2.101  0.3171 -0.6144 -0.3041
  714SOL     ow 2853   3.447   3.794   0.154 -0.2852 -0.1625 -0.1366
  714SOL     hw 2854   3.354   3.785   0.176 -0.1298  0.1914  0.6942
  714SOL     hw 2855   3.447   3.842   0.072 -0.8574 -0.8192 -0.5369
  714SOL     vw 2856   3.435   3.799   0.146 -0.3402 -0.2023 -0.0798
  715SOL     ow 2857   6.888   1.271   4.812  0.5553  0.1002 -0.4025
  715SOL     hw 2858   6.913   1.228   4.730 -2.8069 -1.4394 -0.7917
  715SOL     hw 2859   6.847   1.352   4.784 -0.3749 -0.3101 -0.2480
  715SOL     vw 2860   6.886   1.276   4.798 -0.0110 -0.1571 -0.4337
  716SOL     ow 2861   0.206   2.415   0.636 -0.3504 -0.3935 -0.3453
  716SOL     hw 2862   0.234   2.372   0.555  2.2644  2.5607 -1.2175
  716SOL     hw 2863   0.115   2.440   0.620 -0.6680 -2.0103 -1.3236
  716SOL     vw 2864   0.198   2.412   0.623 -0.0473 -0.2170 -0.5894
  717SOL     ow 2865   4.102   3.699   6.016  0.3182  0.2325  0.2342
  717SOL     hw 2866   4.149   3.674   6.095  0.5094 -0.9001 -0.2243
  717SOL     hw 2867   4.147   3.653   5.945 -1.9844 -1.6598 -0.1356
  717SOL     vw 2868   4.114   3.690   6.017  0.0398 -0.1668  0.1249
  718SOL     ow 2869   3.926   1.102   1.444  0.1357  0.1618  0.0067
  718SOL     hw 2870   3.836   1.126   1.466  0.3743  0.1802  1.0042
  718SOL     hw 2871   3.929   1.007   1.458  0.4617  0.2692  0.6935
  718SOL     vw 2872   3.914   1.092   1.449  0.2103  0.1785  0.2289
  719SOL     ow 2873   2.072   1.217   3.053 -0.4699  0.4166 -0.2508
  719SOL     hw 2874   2.067   1.205   2.958 -0.8783 -3.0214  0.0805
  719SOL     hw 2875   1.982   1.231   3.080 -0.6020 -0.4604 -0.2144
  719SOL     vw 2876   2.060   1.217   3.044 -0.5412 -0.1528 -0.2021
  720SOL     ow 2877   2.116   1.061   5.427 -0.4394 -0.1244 -0.3276
  720SOL     hw 2878   2.052   1.011   5.478 -0.5330  1.4214  1.1628
  720SOL     hw 2879   2.174   0.995   5.391 -2.3067 -1.5167 -0.9672
  720SOL     vw 2880   2.115   1.045   5.429 -0.6982 -0.1042 -0.2155
  721SOL     ow 2881   3.635   3.552   3.742  0.0607 -1.0955 -0.1696
  721SOL     hw 2882   3.618   3.569   3.649 -1.4969 -0.1392  0.2529
  721SOL     hw 2883   3.728   3.533   3.746  0.3011 -0.4424 -1.8347
  721SOL     vw 2884   3.645   3.552   3.730 -0.1130 -0.8833 -0.3335
  722SOL     ow 2885   5.992   4.347   0.861 -0.1504 -0.1747  0.1195
  722SOL     hw 2886   5.901   4.333   0.833 -0.5488  0.2439  1.1564
  722SOL     hw 2887   6.037   4.373   0.781  0.2576 -5.1828 -1.6696
  722SOL     vw 2888   5.986   4.348   0.847 -0.1490 -0.7803  0.0203
  723SOL     ow 2889   6.284   2.753   1.377  0.4504  0.1380  0.1344
  723SOL     hw 2890   6.317   2.791   1.458 -1.7793  1.3410  0.5791
  723SOL     hw 2891   6.190   2.772   1.379 -0.1213 -2.1092 -1.4957
  723SOL     vw 2892   6.276   2.760   1.388  0.0806  0.0002 -0.0220
  724SOL     ow 2893   3.247   4.733   3.124 -0.6395  0.6811 -0.0510
  724SOL     hw 2894   3.334   4.743   3.161 -1.4851  1.5091  1.8788
  724SOL     hw 2895   3.248   4.647   3.083  1.9717  1.8926 -2.8427
  724SOL     vw 2896   3.258   4.723   3.124 -0.4066  0.9506 -0.1647
  725SOL     ow 2897   1.444   4.457   1.395  0.7281  0.5504 -0.3936
  725SOL     hw 2898   1.523   4.484   1.441  0.2512  0.4514  0.5179
  725SOL     hw 2899   1.375   4.513   1.432  0.0605 -0.6104  0.1824
  725SOL     vw 2900   1.445   4.468   1.406  0.5772  0.3846 -0.1973
  726SOL     ow 2901   1.326   2.483   4.509 -0.1410 -0.0452  0.4219
  726SOL     hw 2902   1.382   2.412   4.478  0.3978  1.0123 -1.1763
  726SOL     hw 2903   1.244   2.472   4.461  1.0657  2.2309 -2.4754
  726SOL     vw 2904   1.322   2.472   4.499  0.0893  0.3946 -0.1717
  727SOL     ow 2905   1.187   0.242   3.484  0.4390 -0.2243 -0.5541
  727SOL     hw 2906   1.111   0.196   3.520 -0.0164  0.6732 -0.3381
  727SOL     hw 2907   1.184   0.226   3.390 -2.2545  2.8564 -1.1810
  727SOL     vw 2908   1.177   0.234   3.477  0.0235  0.3005 -0.6082
  728SOL     ow 2909   3.812   2.073   5.432 -0.2584  0.5624 -0.7065
  728SOL     hw 2910   3.902   2.106   5.428  0.2083 -0.2487  1.7484
  728SOL     hw 2911   3.777   2.090   5.344  1.9671  1.7441 -1.4488
  728SOL     vw 2912   3.819   2.080   5.420  0.0968  0.6113 -0.4809
  729SOL     ow 2913   3.015   3.917   6.790 -0.1025 -1.0360 -0.1566
  729SOL     hw 2914   3.071   3.938   6.716  0.2582 -1.9698 -0.1631
  729SOL     hw 2915   3.040   3.828   6.815  0.3514 -0.4488  1.6115
  729SOL     vw 2916   3.026   3.908   6.783  0.0050 -1.0818  0.0758
  730SOL     ow 2917   3.664   2.362   2.960  0.1271 -0.8907 -0.4791
  730SOL     hw 2918   3.671   2.409   3.043  0.1220 -2.3982  0.3951
  730SOL     hw 2919   3.735   2.399   2.906 -2.3885  3.1141 -1.4371
  730SOL     vw 2920   3.675   2.373   2.963 -0.2055 -0.5610 -0.4900
  731SOL     ow 2921   0.713   6.042   6.247 -0.6618  0.4685 -0.3551
  731SOL     hw 2922   0.634   6.055   6.301 -0.5288  1.2164 -0.3313
  731SOL     hw 2923   0.782   6.088   6.295 -0.2939  0.1381 -0.5713
  731SOL     vw 2924   0.711   6.050   6.260 -0.5957  0.5236 -0.3803
  732SOL     ow 2925   2.236   3.779   2.942  0.3228 -0.1615 -0.1278
  732SOL     hw 2926   2.325   3.761   2.973  0.9600  0.6804 -1.3942
  732SOL     hw 2927   2.180   3.734   3.004  1.6751 -1.8931 -0.0909
  732SOL     vw 2928   2.240   3.771   2.954  0.5853 -0.2788 -0.2900
  733SOL     ow 2929   0.041   4.343   1.365 -0.4421  0.3384 -0.7467
  733SOL     hw 2930   0.081   4.260   1.389  1.6010  0.8179 -2.1704
  733SOL     hw 2931   0.051   4.398   1.443  0.2854 -0.0507 -0.5560
  733SOL     vw 2932   0.048   4.340   1.379 -0.0766  0.3500 -0.9094
  734SOL     ow 2933   6.603   6.029   5.848  0.3146  0.0127  0.1779
  734SOL     hw 2934   6.589   5.950   5.901 -0.2814 -0.1235 -0.1683
  734SOL     hw 2935   6.519   6.043   5.804  0.3876  0.9060  0.3168
  734SOL     vw 2936   6.590   6.020   5.849  0.2456  0.1128  0.1504
  735SOL     ow 2937   0.544   1.309   1.025  0.0505  0.0283 -0.2289
  735SOL     hw 2938   0.552   1.232   1.081  1.4350  0.3451  0.0360
  735SOL     hw 2939   0.625   1.358   1.040  0.2920  0.3082 -2.2248
  735SOL     vw 2940   0.556   1.306   1.034  0.2650  0.1071 -0.4573
  736SOL     ow 2941   6.638   3.649   2.566  0.5693 -0.4256  0.2376
  736SOL     hw 2942   6.550   3.651   2.527  0.8767 -1.1281 -0.5362
  736SOL     hw 2943   6.686   3.717   2.520  0.7143 -0.7403 -0.0858
  736SOL     vw 2944   6.633   3.658   2.555  0.6289 -0.5597  0.0930
  737SOL     ow 2945   4.004   4.115   0.883  0.3362 -0.2002 -0.0264
  737SOL     hw 2946   3.945   4.184   0.851 -1.9054 -2.0651 -0.1969
  737SOL     hw 2947   4.071   4.107   0.815 -0.6931  0.2609 -1.1300
  737SOL     vw 2948   4.005   4.123   0.870 -0.0951 -0.3855 -0.1945
  738SOL     ow 2949   3.143   6.479   5.614 -1.1195 -0.0153  0.3173
  738SOL     hw 2950   3.144   6.385   5.598  0.3494  0.4349 -3.2513
  738SOL     hw 2951   3.057   6.507   5.585 -1.7249 -0.2457  1.8013
  738SOL     vw 2952   3.132   6.470   5.608 -1.0055  0.0138  0.0424
  739SOL     ow 2953   6.100   1.897   1.851 -0.1032 -0.3688 -0.0119
  739SOL     hw 2954   6.151   1.818   1.832  0.5624 -0.3058  1.3799
  739SOL     hw 2955   6.147   1.967   1.806  0.8701 -0.3715  0.9552
  739SOL     vw 2956   6.113   1.895   1.842  0.1132 -0.3608  0.2993
  740SOL     ow 2957   2.941   2.405   5.767  0.0092 -0.5924 -0.1045
  740SOL     hw 2958   2.861   2.375   5.725 -1.1381 -0.9246  2.1487
  740SOL     hw 2959   2.986   2.325   5.795  2.4106 -0.5541 -3.3343
  740SOL     vw 2960   2.936   2.391   5.765  0.1746 -0.6311 -0.2332
  741SOL     ow 2961   4.594   2.264   2.120 -0.0185  0.4911 -0.1995
  741SOL     hw 2962   4.541   2.338   2.090 -0.7208 -1.0105 -2.9911
  741SOL     hw 2963   4.643   2.237   2.042  1.2510 -1.1565  1.1016
  741SOL     vw 2964   4.594   2.270   2.106  0.0563  0.0758 -0.3961
  742SOL     ow 2965   2.213   4.302   5.312 -0.0044  0.3896  0.7637
  742SOL     hw 2966   2.201   4.208   5.298  0.7353 -0.0575  2.8441
  742SOL     hw 2967   2.129   4.340   5.288 -0.5320 -0.8684  0.5176
  742SOL     vw 2968   2.200   4.295   5.307  0.0237  0.1647  1.0056
  743SOL     ow 2969   2.492   3.768   4.633  0.5517  0.2079  0.1702
  743SOL     hw 2970   2.576   3.814   4.628  0.4351  0.3198 -1.7780
  743SOL     hw 2971   2.510   3.682   4.595 -0.1012  0.0445  0.2173
  743SOL     vw 2972   2.506   3.763   4.627  0.4500  0.2011 -0.0806
  744SOL     ow 2973   0.542   1.112   1.189  0.4979  0.5232  0.3087
  744SOL     hw 2974   0.584   1.042   1.240 -0.5036  0.0203  0.4658
  744SOL     hw 2975   0.529   1.182   1.253 -0.5100 -0.0033  0.7043
  744SOL     vw 2976   0.546   1.112   1.204  0.2328  0.3874  0.3816
  745SOL     ow 2977   1.765   5.060   2.369 -0.2121 -0.4287  0.1032
  745SOL     hw 2978   1.682   5.075   2.323  0.2226  1.9887 -0.0411
  745SOL     hw 2979   1.812   4.997   2.314 -0.9905  0.0079 -1.1088
  745SOL     vw 2980   1.760   5.054   2.355 -0.2575 -0.0520 -0.0759
  746SOL     ow 2981   4.261   4.490   4.975  0.1085 -0.5694  0.6963
  746SOL     hw 2982   4.214   4.408   4.989  0.1031 -0.6559  0.1876
  746SOL     hw 2983   4.347   4.463   4.941  0.2548 -0.3821  0.9158
  746SOL     vw 2984   4.266   4.476   4.972  0.1271 -0.5560  0.6580
  747SOL     ow 2985   1.682   2.663   3.125  0.7330 -0.0779 -0.5881
  747SOL     hw 2986   1.613   2.623   3.072  0.4866  0.2185 -0.4925
  747SOL     hw 2987   1.680   2.615   3.208 -0.3052  0.8356 -0.0522
  747SOL     vw 2988   1.673   2.651   3.129  0.5636  0.0817 -0.5047
  748SOL     ow 2989   6.512   4.254   6.327 -0.0356  0.3101  0.2657
  748SOL     hw 2990   6.469   4.294   6.403 -0.9595 -0.1217 -0.0123
  748SOL     hw 2991   6.451   4.187   6.297  0.3699  0.3794 -0.7786
  748SOL     vw 2992   6.498   4.251   6.333 -0.1040  0.2623  0.0916
  749SOL     ow 2993   0.543   3.818   0.603 -0.3057  0.0036 -0.1087
  749SOL     hw 2994   0.592   3.736   0.596  1.3932  0.8334  1.3649
  749SOL     hw 2995   0.500   3.827   0.518  0.2439 -1.9118 -0.6429
  749SOL     vw 2996   0.544   3.808   0.591 -0.0091 -0.1396  0.0153
  750SOL     ow 2997   1.210   4.005   4.967 -0.0947  0.8234 -0.0102
  750SOL     hw 2998   1.121   3.988   4.937 -0.6286  2.1451  0.7544
  750SOL     hw 2999   1.209   3.983   5.060  0.1162  1.7028  0.2076
  750SOL     vw 3000   1.198   4.000   4.975 -0.1373  1.1141  0.1194
  751SOL     ow 3001   2.907   1.666   3.586 -0.1726  0.3611 -0.8851
  751SOL     hw 3002   2.921   1.702   3.673  0.9529  1.2201 -1.4089
  751SOL     hw 3003   2.984   1.692   3.535 -1.7673  1.7246 -2.7397
  751SOL     vw 3004   2.919   1.674   3.591 -0.2346  0.6543 -1.1988
  752SOL     ow 3005   2.392   4.568   1.579  0.7268 -0.0615 -0.5516
  752SOL     hw 3006   2.321   4.625   1.609 -0.9242 -1.8682 -0.7949
  752SOL     hw 3007   2.432   4.615   1.506  0.7920  1.6689  0.5485
  752SOL     vw 3008   2.388   4.582   1.574  0.5176 -0.0718 -0.4385
  753SOL     ow 3009   0.694   4.043   0.478  0.3709  0.3644  0.1570
  753SOL     hw 3010   0.722   4.129   0.446  1.8082  0.0294  0.4541
  753SOL     hw 3011   0.693   3.988   0.400 -0.2032  0.5397  0.0285
  753SOL     vw 3012   0.697   4.047   0.464  0.4848  0.3431  0.1792
  754SOL     ow 3013   5.025   0.729   4.792 -0.9613 -0.8716  0.0078
  754SOL     hw 3014   5.052   0.680   4.869 -1.1864  0.5043  0.9987
  754SOL     hw 3015   5.032   0.667   4.720  2.0198 -1.4400  0.6502
  754SOL     vw 3016   5.030   0.715   4.793 -0.5977 -0.7651  0.2229
  755SOL     ow 3017   5.308   2.340   2.976 -0.2038 -0.2721 -0.1867
  755SOL     hw 3018   5.222   2.302   2.958 -1.8113  3.1667 -0.5477
  755SOL     hw 3019   5.324   2.321   3.069 -1.6550 -0.4880  0.0398
  755SOL     vw 3020   5.299   2.332   2.986 -0.6073  0.1532 -0.2044
  756SOL     ow 3021   4.822   0.795   0.177  0.0404 -0.3412  0.0682
  756SOL     hw 3022   4.917   0.783   0.179  0.2978  1.3383  2.6584
  756SOL     hw 3023   4.810   0.889   0.171 -1.5132 -0.5866 -1.2418
  756SOL     vw 3024   4.833   0.806   0.177 -0.1307 -0.1520  0.2371
  757SOL     ow 3025   4.637   5.793   1.067  0.0962  0.1998 -0.0617
  757SOL     hw 3026   4.702   5.738   1.112 -2.0758 -0.7477  2.1443
  757SOL     hw 3027   4.652   5.881   1.103  0.6442  0.1585 -0.1720
  757SOL     vw 3028   4.648   5.797   1.078 -0.1180  0.0694  0.2148
  758SOL     ow 3029   5.705   4.161   0.039  0.3220 -0.2215  0.0015
  758SOL     hw 3030   5.678   4.157  -0.052 -2.0546 -0.9687  0.6765
  758SOL     hw 3031   5.654   4.233   0.076  1.2748  0.0862  0.7672
  758SOL     vw 3032   5.695   4.170   0.032  0.1342 -0.2794  0.1916
  759SOL     ow 3033   1.470   3.457   1.333  0.1787 -0.0749  0.1776
  759SOL     hw 3034   1.438   3.431   1.247 -0.0733  0.1922  0.1906
  759SOL     hw 3035   1.392   3.468   1.386  0.2975  0.3535  0.2719
  759SOL     vw 3036   1.456   3.455   1.329  0.1612  0.0167  0.1917
  760SOL     ow 3037   5.207   3.031   0.639 -1.1326  0.2104  0.0860
  760SOL     hw 3038   5.218   3.065   0.728  3.0832  1.0914 -0.5471
  760SOL     hw 3039   5.181   3.107   0.587 -0.6028  0.4308  0.1311
  760SOL     vw 3040   5.205   3.045   0.644 -0.5066  0.3557  0.0084
  761SOL     ow 3041   1.569   3.036   2.358  0.3571 -0.3670 -0.0670
  761SOL     hw 3042   1.546   3.041   2.450 -0.0747  2.2297 -0.2495
  761SOL     hw 3043   1.489   3.060   2.311  1.6614  2.9536 -0.8856
  761SOL     vw 3044   1.556   3.040   2.364  0.4722  0.4137 -0.1991
  762SOL     ow 3045   5.657   6.172   2.637  0.1699  0.2296  0.4106
  762SOL     hw 3046   5.654   6.185   2.543  1.2701  0.0468  0.3348
  762SOL     hw 3047   5.595   6.235   2.673 -0.1652  0.3781 -0.4270
  762SOL     vw 3048   5.649   6.182   2.629  0.2708  0.2248  0.2902
  763SOL     ow 3049   6.357   4.810   4.959 -0.5569  1.0790 -0.4051
  763SOL     hw 3050   6.407   4.746   4.909 -0.7519  0.4408  0.1950
  763SOL     hw 3051   6.391   4.895   4.931  1.5682  0.6612  0.6867
  763SOL     vw 3052   6.368   4.813   4.948 -0.3023  0.9396 -0.1817
  764SOL     ow 3053   5.784   2.358   6.032  0.1383  0.3889 -0.5686
  764SOL     hw 3054   5.722   2.291   6.061  0.3287 -0.5036 -2.1144
  764SOL     hw 3055   5.746   2.392   5.950  0.8458  1.0320 -0.6377
  764SOL     vw 3056   5.771   2.353   6.025  0.2570  0.3562 -0.7818
  765SOL     ow 3057   6.244   3.517   1.605 -0.6537  0.0946  0.1362
  765SOL     hw 3058   6.330   3.524   1.565 -1.1425  0.8355 -0.8154
  765SOL     hw 3059   6.228   3.422   1.610 -0.2499 -0.0325 -0.7230
  765SOL     vw 3060   6.253   3.505   1.600 -0.6649  0.1757 -0.1027
  766SOL     ow 3061   1.202   0.566   5.719 -0.3112 -0.5181 -0.4950
  766SOL     hw 3062   1.223   0.544   5.809 -0.7899 -0.4664 -0.3646
  766SOL     hw 3063   1.265   0.518   5.666 -1.4105 -2.3449 -0.2237
  766SOL     vw 3064   1.213   0.557   5.724 -0.5194 -0.7523 -0.4420
  767SOL     ow 3065   6.263   4.102   5.828 -0.1002 -0.4016  0.6916
  767SOL     hw 3066   6.262   4.048   5.907 -2.0812  0.6297  1.4146
  767SOL     hw 3067   6.322   4.174   5.849 -0.9211  0.0749  1.3844
  767SOL     vw 3068   6.271   4.104   5.841 -0.4697 -0.2027  0.8783
  768SOL     ow 3069   3.685   4.229   5.838 -0.1337  0.1287 -0.5262
  768SOL     hw 3070   3.780   4.225   5.852  0.0543 -0.9858 -1.8780
  768SOL     hw 3071   3.676   4.243   5.744 -1.3117 -0.5478 -0.5295
  768SOL     vw 3072   3.696   4.230   5.827 -0.2643 -0.1073 -0.7050
  769SOL     ow 3073   1.802   0.118   1.510 -0.7151 -0.5897 -0.0786
  769SOL     hw 3074   1.897   0.133   1.520 -0.8519 -0.3916  1.1985
  769SOL     hw 3075   1.794   0.023   1.499 -0.2458 -0.4190 -2.2827
  769SOL     vw 3076   1.814   0.107   1.510 -0.6712 -0.5410 -0.2009
  770SOL     ow 3077   2.415   1.284   5.981  0.4205 -0.2974  0.1646
  770SOL     hw 3078   2.418   1.242   5.895  1.3689  0.1015 -0.0111
  770SOL     hw 3079   2.503   1.272   6.017  1.7148  3.8507 -1.0575
  770SOL     vw 3080   2.427   1.277   5.975  0.7166  0.3025 -0.0198
  771SOL     ow 3081   2.859   0.576   1.933  0.4961 -0.4514  0.1156
  771SOL     hw 3082   2.912   0.497   1.943  0.3444 -0.4997  0.5560
  771SOL     hw 3083   2.904   0.642   1.985  0.2930 -0.4076  0.2348
  771SOL     vw 3084   2.872   0.574   1.941  0.4493 -0.4520  0.1894
  772SOL     ow 3085   0.041   2.007   1.356 -0.3581 -0.3597  0.1412
  772SOL     hw 3086   0.077   1.921   1.376 -1.3327 -0.2708  2.5020
  772SOL     hw 3087   0.117   2.057   1.323  0.2049 -2.0693 -1.2916
  772SOL     vw 3088   0.056   2.002   1.354 -0.4124 -0.5735  0.2637
  773SOL     ow 3089   0.761   1.941   4.152 -0.7440  0.2343  0.4430
  773SOL     hw 3090   0.682   1.897   4.121 -1.4830  0.1810  2.3022
  773SOL     hw 3091   0.829   1.914   4.091 -1.6333 -1.7644  0.2836
  773SOL     vw 3092   0.760   1.932   4.140 -0.9588 -0.0364  0.6673
  774SOL     ow 3093   4.200   2.128   0.322 -0.2768  0.2246 -0.1631
  774SOL     hw 3094   4.254   2.098   0.249  0.4797 -0.8147  0.7923
  774SOL     hw 3095   4.222   2.069   0.394 -0.5865  1.5596  1.0747
  774SOL     vw 3096   4.210   2.117   0.322 -0.2179  0.2637  0.1263
  775SOL     ow 3097   5.349   1.224   0.265  0.2193  0.3564 -0.1395
  775SOL     hw 3098   5.312   1.137   0.248 -2.0709  1.2929 -0.2686
  775SOL     hw 3099   5.351   1.267   0.180  0.7929  0.6525  0.0142
  775SOL     vw 3100   5.345   1.218   0.252 -0.0074  0.5190 -0.1363
  776SOL     ow 3101   1.989   5.176   3.369  0.5552 -0.0406 -0.2839
  776SOL     hw 3102   1.972   5.251   3.426  0.4454  0.4322 -0.9201
  776SOL     hw 3103   2.057   5.206   3.309  0.3556 -0.3672 -0.6861
  776SOL     vw 3104   1.995   5.190   3.368  0.5144 -0.0215 -0.4209
  777SOL     ow 3105   2.053   0.671   1.106 -0.2467 -0.5224 -0.7076
  777SOL     hw 3106   2.079   0.738   1.170  0.7888 -1.6768  0.1229
  777SOL     hw 3107   1.958   0.680   1.099 -0.0796  1.4894 -1.1666
  777SOL     vw 3108   2.044   0.681   1.113 -0.0880 -0.4093 -0.6586
  778SOL     ow 3109   1.129   4.966   5.325 -0.0870 -0.1058  0.9416
  778SOL     hw 3110   1.052   4.941   5.275 -0.2084  0.2340  0.9586
  778SOL     hw 3111   1.199   4.974   5.260 -0.0641 -0.4024  0.9257
  778SOL     vw 3112   1.128   4.964   5.310 -0.1000 -0.1001  0.9420
  779SOL     ow 3113   4.644   2.606   2.855  0.3653  0.5600 -0.1948
  779SOL     hw 3114   4.584   2.532   2.855 -0.6666  1.1964 -3.8531
  779SOL     hw 3115   4.592   2.680   2.888  0.9759  0.0554  2.0858
  779SOL     vw 3116   4.630   2.606   2.859  0.3097  0.5773 -0.3766
  780SOL     ow 3117   1.269   4.314   1.173  0.0433  0.3709  0.2801
  780SOL     hw 3118   1.213   4.240   1.148 -1.1736  0.8314  1.5590
  780SOL     hw 3119   1.208   4.384   1.194  1.1491  1.2718  0.5683
  780SOL     vw 3120   1.254   4.313   1.172  0.0286  0.5505  0.4869
  781SOL     ow 3121   0.077   0.427   5.549 -0.3659 -0.1752 -0.7764
  781SOL     hw 3122   0.148   0.406   5.488 -1.2585  0.5138 -2.1038
  781SOL     hw 3123   0.048   0.342   5.583  1.6272 -0.4158  0.4625
  781SOL     vw 3124   0.083   0.413   5.546 -0.2207 -0.1161 -0.7882
  782SOL     ow 3125   3.645   6.031   0.062  0.1766  0.1609  0.1579
  782SOL     hw 3126   3.609   5.962   0.118 -1.0127  1.5781  1.2290
  782SOL     hw 3127   3.727   5.995   0.029  0.5711 -1.0405  2.2597
  782SOL     vw 3128   3.651   6.017   0.065  0.0718  0.1893  0.5765
  783SOL     ow 3129   5.290   6.234   0.616 -0.0482 -0.4876  0.1591
  783SOL     hw 3130   5.322   6.241   0.526 -2.1477 -0.9020 -0.6682
  783SOL     hw 3131   5.290   6.140   0.634 -0.3363 -0.4589  0.3122
  783SOL     vw 3132   5.294   6.223   0.606 -0.3633 -0.5383  0.0701
  784SOL     ow 3133   1.891   1.635   3.926 -0.0856  0.0553 -0.3008
  784SOL     hw 3134   1.800   1.660   3.946 -0.0570 -0.7740  0.9834
  784SOL     hw 3135   1.886   1.594   3.839 -0.9730 -0.1140 -0.1794
  784SOL     vw 3136   1.878   1.633   3.917 -0.1989 -0.0765 -0.1153
  785SOL     ow 3137   6.107   4.368   3.732 -0.8648 -0.5389 -0.9475
  785SOL     hw 3138   6.180   4.352   3.672 -1.1560 -1.2844 -1.1112
  785SOL     hw 3139   6.133   4.447   3.780 -0.9562  0.5278 -2.5664
  785SOL     vw 3140   6.120   4.376   3.730 -0.9153 -0.4964 -1.1824
  786SOL     ow 3141   6.394   1.014   6.388 -0.0203  0.1888  0.1580
  786SOL     hw 3142   6.485   1.036   6.409  0.3050 -1.2002  0.2676
  786SOL     hw 3143   6.367   1.082   6.326  0.6118  1.4544  1.2089
  786SOL     vw 3144   6.403   1.026   6.382  0.1061  0.1725  0.3111
  787SOL     ow 3145   3.938   2.268   3.688 -0.1504  0.0560  0.3107
  787SOL     hw 3146   3.885   2.334   3.645 -0.3580 -0.4451 -0.2193
  787SOL     hw 3147   3.884   2.189   3.686  0.6615 -0.5069 -0.3949
  787SOL     vw 3148   3.924   2.266   3.682 -0.0707 -0.0844  0.1477
  788SOL     ow 3149   6.444   1.106   2.201  0.1664 -0.8498 -0.3200
  788SOL     hw 3150   6.469   1.118   2.110 -1.6676  1.7301 -0.6186
  788SOL     hw 3151   6.362   1.057   2.197  1.0596 -2.4434  0.1260
  788SOL     vw 3152   6.436   1.101   2.189  0.0420 -0.7197 -0.3005
  789SOL     ow 3153   0.575   0.526   6.588  0.0847 -0.5670  0.4003
  789SOL     hw 3154   0.581   0.518   6.683  1.7228 -0.7022  0.3113
  789SOL     hw 3155   0.488   0.490   6.567 -1.4668  1.8882  2.0387
  789SOL     vw 3156   0.564   0.520   6.598  0.0961 -0.2609  0.6046
  790SOL     ow 3157   4.094   0.666   0.859  0.5299  0.7100  0.3041
  790SOL     hw 3158   4.066   0.641   0.947 -1.3148  1.5818  0.0165
  790SOL     hw 3159   4.028   0.730   0.831  2.0263  1.7072 -1.0624
  790SOL     vw 3160   4.081   0.671   0.867  0.4840  0.9566  0.0859
  791SOL     ow 3161   1.248   5.134   4.480  0.0345  0.0024  0.5159
  791SOL     hw 3162   1.258   5.043   4.452 -2.2105  0.1437 -0.9785
  791SOL     hw 3163   1.194   5.129   4.559  1.4414 -0.0217  1.5180
  791SOL     vw 3164   1.242   5.121   4.487 -0.0761  0.0174  0.4511
  792SOL     ow 3165   1.125   6.680   2.811  0.2885  0.1208  0.0912
  792SOL     hw 3166   1.152   6.727   2.890 -0.7692  0.0766  0.5004
  792SOL     hw 3167   1.038   6.647   2.832 -0.9856  1.9804 -1.8733
  792SOL     vw 3168   1.117   6.682   2.825 -0.0191  0.3603 -0.1140
  793SOL     ow 3169   6.065   1.345   4.876  0.4840  0.0263  0.0243
  793SOL     hw 3170   6.030   1.409   4.814  1.5096  1.4302  0.8248
  793SOL     hw 3171   6.108   1.279   4.822 -0.3660  0.1368 -0.8109
  793SOL     vw 3172   6.066   1.345   4.861  0.5071  0.2261  0.0198
  794SOL     ow 3173   0.298   3.937   2.195  0.0307  0.4014  0.1350
  794SOL     hw 3174   0.328   3.851   2.225 -0.2543  0.0330 -0.6305
  794SOL     hw 3175   0.214   3.920   2.153  0.1216  1.0101 -0.3070
  794SOL     vw 3176   0.291   3.924   2.194  0.0051  0.4331 -0.0244
  795SOL     ow 3177   0.200   3.806   6.485 -0.0379 -0.3561 -0.2015
  795SOL     hw 3178   0.174   3.817   6.393  0.7739 -0.7894 -0.4926
  795SOL     hw 3179   0.290   3.837   6.488 -0.6008  1.2969  0.8329
  795SOL     vw 3180   0.208   3.812   6.473 -0.0051 -0.1950 -0.1035
  796SOL     ow 3181   3.336   3.676   1.640 -0.7453  0.3349 -0.0797
  796SOL     hw 3182   3.335   3.705   1.731 -1.3883 -0.7957  0.2892
  796SOL     hw 3183   3.282   3.597   1.639 -2.8921  1.7064 -1.9150
  796SOL     vw 3184   3.328   3.669   1.652 -1.1135  0.3667 -0.2732
  797SOL     ow 3185   6.016   6.816   5.719  0.6066  0.0235  0.2701
  797SOL     hw 3186   6.098   6.768   5.714  0.1030 -0.7796 -1.1128
  797SOL     hw 3187   5.950   6.754   5.686  0.0340  1.8387 -2.2975
  797SOL     vw 3188   6.018   6.801   5.714  0.4644  0.1574 -0.2511
  798SOL     ow 3189   4.923   3.629   4.171  0.0895  0.3553  0.5785
  798SOL     hw 3190   4.847   3.571   4.178  0.7377 -0.8951 -1.8354
  798SOL     hw 3191   4.989   3.588   4.228 -0.0442 -0.2671  0.2892
  798SOL     vw 3192   4.921   3.616   4.180  0.1576  0.1082  0.2217
  799SOL     ow 3193   5.240   0.393   3.046 -0.2841  0.5416  0.2031
  799SOL     hw 3194   5.184   0.417   3.119  2.7279  0.2641  2.8385
  799SOL     hw 3195   5.271   0.477   3.011  0.9010  0.7287  1.5822
  799SOL     vw 3196   5.237   0.408   3.051  0.2699  0.5297  0.7328
  800SOL     ow 3197   4.740   6.100   2.529  0.4923 -0.4950  0.0160
  800SOL     hw 3198   4.688   6.132   2.603  2.1788  1.0226  0.6353
  800SOL     hw 3199   4.738   6.005   2.538 -2.2541 -0.5146 -0.1218
  800SOL     vw 3200   4.733   6.092   2.540  0.3529 -0.2975  0.0795
  801SOL     ow 3201   5.772   6.026   0.743 -0.6547 -0.2039  0.5239
  801SOL     hw 3202   5.713   5.956   0.774  2.1952 -2.9628  0.2365
  801SOL     hw 3203   5.739   6.048   0.656  0.3551 -4.0251 -1.0396
  801SOL     vw 3204   5.760   6.019   0.736 -0.1454 -1.0719  0.2797
  802SOL     ow 3205   5.838   1.539   4.377 -0.1013  0.3031  0.6345
  802SOL     hw 3206   5.847   1.615   4.320  0.6678  0.6314  1.1786
  802SOL     hw 3207   5.926   1.504   4.385 -0.4938 -0.8589  0.1246
  802SOL     vw 3208   5.851   1.544   4.371 -0.0517  0.1931  0.6390
  803SOL     ow 3209   5.193   6.262   5.082  0.2932 -0.3761 -0.1249
  803SOL     hw 3210   5.188   6.292   4.991  0.2647 -0.9361 -0.3130
  803SOL     hw 3211   5.271   6.305   5.117 -0.5866  1.1430  0.0861
  803SOL     vw 3212   5.203   6.272   5.075  0.1733 -0.2494 -0.1221
  804SOL     ow 3213   2.202   4.081   3.096  0.4400  0.6420  0.1566
  804SOL     hw 3214   2.225   4.173   3.106  0.2673  0.5977  1.0368
  804SOL     hw 3215   2.182   4.051   3.185  0.4583 -0.2341 -0.1219
  804SOL     vw 3216   2.202   4.089   3.109  0.4196  0.5205  0.2360
  805SOL     ow 3217   5.035   1.940   6.374 -0.1834 -0.7506 -0.2649
  805SOL     hw 3218   4.990   1.930   6.458 -1.0621 -1.2176 -0.7816
  805SOL     hw 3219   4.969   1.975   6.315  0.4313 -0.4259 -0.7776
  805SOL     vw 3220   5.020   1.943   6.377 -0.2184 -0.7694 -0.4008
  806SOL     ow 3221   0.439   5.837   1.530  0.2319  0.6699  0.1985
  806SOL     hw 3222   0.421   5.841   1.436  2.0378 -1.3062 -0.3080
  806SOL     hw 3223   0.533   5.854   1.537 -0.0591  1.8420  1.7807
  806SOL     vw 3224   0.449   5.840   1.519  0.4318  0.5639  0.3405
  807SOL     ow 3225   6.958   6.911   6.189  0.1711  0.0601  0.2577
  807SOL     hw 3226   6.955   6.948   6.100 -0.1918 -2.2841 -0.7658
  807SOL     hw 3227   6.867   6.908   6.217 -0.0523 -1.8763 -0.5210
  807SOL     vw 3228   6.946   6.916   6.181  0.0937 -0.5050  0.0200
  808SOL     ow 3229   0.502   1.028   2.560 -0.2785 -0.2891  0.7220
  808SOL     hw 3230   0.447   1.105   2.577 -0.1343  0.6214 -2.2033
  808SOL     hw 3231   0.589   1.064   2.542  0.3589 -1.3775  1.4938
  808SOL     vw 3232   0.506   1.043   2.560 -0.1754 -0.3126  0.4379
  809SOL     ow 3233   3.943   3.154   1.104  0.3359  0.2963 -0.2099
  809SOL     hw 3234   4.018   3.212   1.109  2.5548 -2.4276  1.1023
  809SOL     hw 3235   3.958   3.102   1.025  0.0310 -0.4607  0.2094
  809SOL     vw 3236   3.955   3.155   1.094  0.5887 -0.1630  0.0186
  810SOL     ow 3237   4.422   4.610   0.689  0.5025 -0.1264  0.1135
  810SOL     hw 3238   4.511   4.600   0.720  0.0730  0.8412  1.7741
  810SOL     hw 3239   4.430   4.663   0.609  1.2836  2.0763  1.5570
  810SOL     vw 3240   4.434   4.616   0.683  0.5491  0.2916  0.5231
  811SOL     ow 3241   1.024   1.760   0.175 -0.3561  0.0971 -0.3397
  811SOL     hw 3242   0.996   1.838   0.222 -1.7807 -0.3113 -0.4739
  811SOL     hw 3243   0.964   1.754   0.100 -1.2398 -1.9165  0.4681
  811SOL     vw 3244   1.013   1.769   0.171 -0.6607 -0.2224 -0.2508
  812SOL     ow 3245   6.926   5.155   4.132  0.1714 -0.2089  0.4964
  812SOL     hw 3246   6.872   5.231   4.153  0.2244  0.1852 -0.7118
  812SOL     hw 3247   6.939   5.160   4.038  2.6092 -0.1192  0.7801
  812SOL     vw 3248   6.920   5.166   4.122  0.5000 -0.1452  0.3743
  813SOL     ow 3249   1.480   2.821   5.887 -0.1046 -0.3127  0.1073
  813SOL     hw 3250   1.554   2.767   5.860 -0.5816  0.0232 -2.0514
  813SOL     hw 3251   1.453   2.784   5.971  0.3609 -2.6540 -0.7016
  813SOL     vw 3252   1.486   2.809   5.894 -0.1061 -0.5772 -0.2844
  814SOL     ow 3253   5.204   2.067   4.105  0.0874 -0.2399  0.3509
  814SOL     hw 3254   5.122   2.078   4.057  0.5509  0.2100 -0.3570
  814SOL     hw 3255   5.242   2.155   4.108  0.2432 -0.3313  1.2249
  814SOL     vw 3256   5.198   2.080   4.099  0.1690 -0.1925  0.3726
  815SOL     ow 3257   0.031   0.447   1.104 -0.6680 -0.4208 -0.6235
  815SOL     hw 3258  -0.005   0.461   1.192 -0.8169 -2.8221 -0.2242
  815SOL     hw 3259   0.120   0.481   1.109  0.2786 -2.8351  1.3813
  815SOL     vw 3260   0.038   0.453   1.116 -0.5629 -1.0561 -0.3064
  816SOL     ow 3261   5.201   1.002   5.494  0.3631 -0.4240  0.1257
  816SOL     hw 3262   5.205   1.095   5.515  2.0083  0.2332 -2.5693
  816SOL     hw 3263   5.108   0.980   5.498 -0.4701  2.1737 -2.1443
  816SOL     vw 3264   5.190   1.011   5.497  0.4702  0.0055 -0.5293
  817SOL     ow 3265   1.516   0.738   2.676  0.1956  0.3800  0.1011
  817SOL     hw 3266   1.587   0.724   2.613 -0.4588 -0.9748 -0.3811
  817SOL     hw 3267   1.499   0.651   2.713  0.3311  1.0892  1.9149
  817SOL     vw 3268   1.523   0.724   2.672  0.1271  0.2948  0.2768
  818SOL     ow 3269   6.176   3.366   0.574  0.4783  0.2010  0.1732
  818SOL     hw 3270   6.233   3.393   0.502  0.5062  0.7092  0.3777
  818SOL     hw 3271   6.229   3.305   0.625  0.4073 -0.2770 -0.3113
  818SOL     vw 3272   6.191   3.361   0.571  0.4728  0.2049  0.1363
  819SOL     ow 3273   6.559   1.213   3.784  0.0858 -0.1611 -0.5621
  819SOL     hw 3274   6.611   1.212   3.864  0.2710  1.2265 -0.6433
  819SOL     hw 3275   6.498   1.286   3.796 -1.8577 -1.6997 -0.4911
  819SOL     vw 3276   6.558   1.222   3.796 -0.1462 -0.1810 -0.5634
  820SOL     ow 3277   2.719   6.399   3.970  0.3531 -0.1331  0.0073
  820SOL     hw 3278   2.775   6.427   4.043 -2.0965  0.9717  1.6079
  820SOL     hw 3279   2.716   6.303   3.978  3.0764 -0.3723 -1.0337
  820SOL     vw 3280   2.726   6.390   3.981  0.3893 -0.0188  0.0812
  821SOL     ow 3281   3.563   6.156   5.573 -0.1483  0.6541  0.2275
  821SOL     hw 3282   3.576   6.064   5.598  3.8919  0.5252 -1.5422
  821SOL     hw 3283   3.501   6.153   5.501 -0.5675 -0.5910  0.6132
  821SOL     vw 3284   3.557   6.144   5.567  0.3295  0.4728  0.0448
  822SOL     ow 3285   5.635   5.034   5.610 -0.3345  0.2764  0.3863
  822SOL     hw 3286   5.688   5.110   5.584  1.7970 -1.2312  0.1265
  822SOL     hw 3287   5.628   4.982   5.530  0.5176 -1.1034  1.1817
  822SOL     vw 3288   5.641   5.037   5.596  0.0591 -0.1044  0.4573
  823SOL     ow 3289   4.423   4.355   0.519  0.3611  0.0796 -0.4259
  823SOL     hw 3290   4.405   4.372   0.427  0.6103  3.0312 -0.0282
  823SOL     hw 3291   4.517   4.369   0.529  0.2870  0.1108  0.3178
  823SOL     vw 3292   4.433   4.359   0.508  0.3841  0.4735 -0.2753
  824SOL     ow 3293   2.587   4.434   2.700  0.9458 -0.3215  0.0423
  824SOL     hw 3294   2.502   4.415   2.741  0.3599  0.0139 -1.0018
  824SOL     hw 3295   2.648   4.375   2.746 -0.0747 -1.5481 -0.1028
  824SOL     vw 3296   2.584   4.424   2.712  0.7340 -0.4392 -0.1146
  825SOL     ow 3297   1.989   3.049   3.013  0.3804  0.5339  0.2678
  825SOL     hw 3298   1.958   3.140   3.014  1.8603  1.0558 -0.0724
  825SOL     hw 3299   2.084   3.055   3.021  0.7026 -0.8862 -1.6144
  825SOL     vw 3300   1.997   3.062   3.014  0.6182  0.4154 -0.0254
  826SOL     ow 3301   6.462   2.649   2.328  0.0927 -0.5942  0.4403
  826SOL     hw 3302   6.451   2.585   2.258  0.3805 -1.0086  0.7706
  826SOL     hw 3303   6.376   2.654   2.370  0.3622 -1.6419  1.1527
  826SOL     vw 3304   6.449   2.641   2.324  0.1662 -0.7873  0.5778
  827SOL     ow 3305   3.282   0.420   5.247  0.1281  0.4140 -0.3672
  827SOL     hw 3306   3.220   0.359   5.209  2.4287 -2.4434  0.1235
  827SOL     hw 3307   3.288   0.491   5.183 -1.3060 -0.7305 -1.8632
  827SOL     vw 3308   3.275   0.421   5.234  0.2424 -0.1140 -0.4997
  828SOL     ow 3309   5.076   5.946   6.587 -0.1401  0.0717 -0.1090
  828SOL     hw 3310   5.130   5.987   6.520 -0.5804  0.0893 -0.4660
  828SOL     hw 3311   5.021   5.884   6.538  1.5645 -2.1287  0.5734
  828SOL     vw 3312   5.076   5.943   6.572  0.0267 -0.2162 -0.0658
  829SOL     ow 3313   4.165   4.688   2.881  0.1782  0.3097 -0.2662
  829SOL     hw 3314   4.098   4.619   2.883  0.1942  0.2828 -0.5651
  829SOL     hw 3315   4.124   4.763   2.923  0.5339 -0.2077  1.0456
  829SOL     vw 3316   4.151   4.688   2.887  0.2275  0.2379 -0.1326
  830SOL     ow 3317   0.314   2.957   3.536 -0.9185  0.2736 -0.0096
  830SOL     hw 3318   0.340   3.049   3.529  0.0599  0.2409  2.3124
  830SOL     hw 3319   0.392   2.913   3.570 -2.5326 -0.6946  2.6782
  830SOL     vw 3320   0.328   2.963   3.539 -1.0024  0.1415  0.6514
  831SOL     ow 3321   0.006   4.675   0.274 -0.2571  0.2902  0.0328
  831SOL     hw 3322  -0.084   4.650   0.254 -0.0563 -0.2995 -0.1821
  831SOL     hw 3323   0.013   4.671   0.369 -0.0832 -1.0702 -0.0160
  831SOL     vw 3324  -0.005   4.671   0.284 -0.2079  0.0329 -0.0020
  832SOL     ow 3325   5.056   1.454   4.530 -0.2193  0.3749 -0.4858
  832SOL     hw 3326   4.988   1.452   4.598  0.3345 -0.8871  0.0565
  832SOL     hw 3327   5.022   1.398   4.460  1.1151 -1.9975  0.6723
  832SOL     vw 3328   5.042   1.446   4.530  0.0298 -0.1047 -0.2615
  833SOL     ow 3329   4.616   5.395   0.530 -0.0121  0.2170  0.7307
  833SOL     hw 3330   4.632   5.318   0.585 -2.0669 -2.5704 -2.2475
  833SOL     hw 3331   4.700   5.411   0.487  0.1017 -1.3240  0.3222
  833SOL     vw 3332   4.629   5.387   0.532 -0.2682 -0.3538  0.2839
  834SOL     ow 3333   5.602   0.463   0.714 -0.1252  0.2677 -0.5463
  834SOL     hw 3334   5.576   0.375   0.741  0.4552 -0.5267 -2.4345
  834SOL     hw 3335   5.529   0.519   0.742  0.5187 -0.3670  2.7840
  834SOL     vw 3336   5.589   0.459   0.721  0.0365  0.0792 -0.3560
  835SOL     ow 3337   6.666   1.761   3.015 -0.2766  0.2573 -0.0514
  835SOL     hw 3338   6.675   1.804   3.100 -0.0629  1.6122 -0.7294
  835SOL     hw 3339   6.575   1.773   2.991 -0.4739 -0.6242  0.2303
  835SOL     vw 3340   6.655   1.768   3.023 -0.2744  0.3197 -0.1038
  836SOL     ow 3341   6.103   0.081   5.899  0.0475  0.4217 -0.6324
  836SOL     hw 3342   6.126   0.136   5.825  0.5901  2.1176  0.7405
  836SOL     hw 3343   6.145   0.122   5.975  2.0271 -2.8853  0.2587
  836SOL     vw 3344   6.111   0.094   5.900  0.3805  0.2091 -0.3338
  837SOL     ow 3345   4.298   5.350   1.911  0.0401  0.8902 -0.4142
  837SOL     hw 3346   4.287   5.420   1.847  1.1024  2.0869  0.6808
  837SOL     hw 3347   4.297   5.394   1.996  2.0078 -0.2299  0.2450
  837SOL     vw 3348   4.297   5.365   1.914  0.4399  0.9005 -0.1828
  838SOL     ow 3349   2.949   0.380   6.833  0.0384  0.2005  0.2499
  838SOL     hw 3350   3.026   0.434   6.853  1.0728 -0.4476 -1.6556
  838SOL     hw 3351   2.978   0.324   6.761 -2.6349  0.8705 -1.4977
  838SOL     vw 3352   2.963   0.379   6.826 -0.1777  0.2034 -0.2322
  839SOL     ow 3353   0.449   0.520   2.125  0.1552  0.0313  0.8391
  839SOL     hw 3354   0.359   0.530   2.093  0.8610  0.9731 -1.0103
  839SOL     hw 3355   0.462   0.593   2.185 -0.4646 -0.4092  1.5196
  839SOL     vw 3356   0.439   0.531   2.129  0.1665  0.0975  0.6847
  840SOL     ow 3357   3.142   6.108   2.043  0.0004 -0.4628  0.0222
  840SOL     hw 3358   3.211   6.175   2.045  1.8665 -2.1312 -2.3594
  840SOL     hw 3359   3.146   6.067   2.129  0.7787  0.6212  0.5241
  840SOL     vw 3360   3.152   6.112   2.054  0.3493 -0.5400 -0.2259
  841SOL     ow 3361   0.194   6.611   5.325 -0.3396 -0.0898 -0.0158
  841SOL     hw 3362   0.216   6.680   5.388  0.0081 -2.1885  2.2989
  841SOL     hw 3363   0.106   6.634   5.296 -1.3713 -0.0500  2.8062
  841SOL     vw 3364   0.185   6.623   5.330 -0.4298 -0.3617  0.6618
  842SOL     ow 3365   4.503   3.930   5.618 -0.1516 -0.1862 -0.3742
  842SOL     hw 3366   4.553   3.962   5.543 -0.7539  0.7197 -0.4047
  842SOL     hw 3367   4.554   3.856   5.651  0.5850 -0.0264 -1.1198
  842SOL     vw 3368   4.516   3.924   5.612 -0.1338 -0.0455 -0.4768
  843SOL     ow 3369   2.359   2.174   6.946 -0.0472 -0.4319 -0.7510
  843SOL     hw 3370   2.360   2.078   6.945  1.0049 -0.4254 -0.8868
  843SOL     hw 3371   2.428   2.198   7.008 -0.7629  0.2410 -0.1863
  843SOL     vw 3372   2.368   2.164   6.954 -0.0027 -0.3424 -0.6944
  844SOL     ow 3373   3.690   2.605   4.802  0.2922 -0.2979  0.2073
  844SOL     hw 3374   3.621   2.660   4.763  0.2410  0.4936  1.3689
  844SOL     hw 3375   3.647   2.559   4.874  0.7401 -0.5935  0.2925
  844SOL     vw 3376   3.675   2.606   4.806  0.3445 -0.2323  0.3719
  845SOL     ow 3377   2.300   2.250   6.017 -0.3534  0.2798  0.5605
  845SOL     hw 3378   2.337   2.165   5.993  1.8717  0.9608  1.3729
  845SOL     hw 3379   2.361   2.286   6.081 -1.1057  2.6131  0.0506
  845SOL     vw 3380   2.313   2.244   6.022 -0.1591  0.6776  0.6006
  846SOL     ow 3381   3.543   1.802   4.194  0.3911  0.2334 -0.3635
  846SOL     hw 3382   3.486   1.740   4.148 -0.8217 -0.3432  1.7821
  846SOL     hw 3383   3.501   1.887   4.182 -0.4566 -0.0552  0.4177
  846SOL     vw 3384   3.530   1.805   4.186  0.1193  0.1192  0.0226
  847SOL     ow 3385   0.543   1.692   6.158  0.1814  0.0882  0.4343
  847SOL     hw 3386   0.613   1.740   6.112 -0.4328 -0.2858 -0.9391
  847SOL     hw 3387   0.498   1.759   6.209  0.7933  0.5421  0.3993
  847SOL     vw 3388   0.546   1.708   6.159  0.1810  0.0987  0.2487
  848SOL     ow 3389   5.506   1.540   4.437  0.3482  0.0905  0.1277
  848SOL     hw 3390   5.503   1.634   4.453  3.7615  0.3325  0.0304
  848SOL     hw 3391   5.442   1.503   4.498 -0.2570  2.3450  0.9592
  848SOL     vw 3392   5.497   1.548   4.447  0.7186  0.4199  0.2248
  849SOL     ow 3393   5.477   2.036   0.405 -0.4027  0.8218  0.6493
  849SOL     hw 3394   5.476   2.124   0.442  0.5594  1.0069  0.2776
  849SOL     hw 3395   5.403   2.035   0.344  0.4068  1.8665 -0.3985
  849SOL     vw 3396   5.467   2.047   0.401 -0.1688  0.9840  0.4621
  850SOL     ow 3397   0.848   6.681   4.883  0.5873  0.2269  0.4654
  850SOL     hw 3398   0.827   6.736   4.808  0.4549 -0.4150  0.0227
  850SOL     hw 3399   0.771   6.687   4.940  0.5810  0.5078  0.4275
  850SOL     vw 3400   0.835   6.689   4.881  0.5690  0.1793  0.4020
  851SOL     ow 3401   1.659   1.124   6.609 -0.4968 -0.8579 -0.4682
  851SOL     hw 3402   1.566   1.132   6.586 -0.2832  1.8309 -0.7312
  851SOL     hw 3403   1.671   1.188   6.680  1.3721 -0.2879 -1.2478
  851SOL     vw 3404   1.648   1.134   6.615 -0.2220 -0.4279 -0.6056
  852SOL     ow 3405   5.041   6.918   6.266 -0.3600  0.4210 -0.2617
  852SOL     hw 3406   5.055   6.858   6.340  0.6730  0.1622 -0.6598
  852SOL     hw 3407   5.057   7.005   6.303  1.7834  0.1922 -0.5333
  852SOL     vw 3408   5.045   6.921   6.281  0.0594  0.3567 -0.3502
  853SOL     ow 3409   0.634   3.985   3.547 -0.2431  0.3087 -0.0573
  853SOL     hw 3410   0.559   3.933   3.573 -0.3790  1.0092  1.0411
  853SOL     hw 3411   0.606   4.031   3.468 -0.8485  0.3214  0.1634
  853SOL     vw 3412   0.621   3.984   3.540 -0.3409  0.4028  0.1168
  854SOL     ow 3413   2.829   4.145   0.006 -0.1584  0.3198 -0.1565
  854SOL     hw 3414   2.794   4.086   0.072 -1.7804  1.2901 -0.1139
  854SOL     hw 3415   2.846   4.227   0.052 -0.0788  0.6059 -0.6783
  854SOL     vw 3416   2.827   4.148   0.021 -0.3618  0.4857 -0.2197
  855SOL     ow 3417   0.481   3.280   6.599 -0.3275 -0.2536 -0.0193
  855SOL     hw 3418   0.438   3.195   6.589  0.9690 -0.9904  0.4413
  855SOL     hw 3419   0.424   3.329   6.657 -1.5196 -0.4892 -0.9470
  855SOL     vw 3420   0.468   3.275   6.605 -0.3137 -0.3818 -0.0811
  856SOL     ow 3421   3.688   4.638   2.037  0.3586  0.8726 -0.3636
  856SOL     hw 3422   3.741   4.689   2.098 -0.8055  0.4936  1.0333
  856SOL     hw 3423   3.618   4.698   2.010 -0.4783  0.3575  0.5593
  856SOL     vw 3424   3.685   4.653   2.041  0.0945  0.7546 -0.0575
  857SOL     ow 3425   2.243   3.240   4.915  0.8482 -0.0888 -0.0735
  857SOL     hw 3426   2.216   3.235   5.007  1.5127  0.5291  0.1660
  857SOL     hw 3427   2.183   3.304   4.876 -0.9760 -2.0540 -0.6671
  857SOL     vw 3428   2.231   3.248   4.922  0.6951 -0.2664 -0.1204
  858SOL     ow 3429   3.217   2.584   1.370 -0.5407  0.6467 -0.1822
  858SOL     hw 3430   3.230   2.529   1.447 -0.8816  2.0455  0.9262
  858SOL     hw 3431   3.153   2.538   1.317 -0.0241 -0.5222  0.1798
  858SOL     vw 3432   3.211   2.571   1.373 -0.5175  0.6769  0.0117
  859SOL     ow 3433   5.646   3.363   1.731  0.5515  0.3564 -0.2596
  859SOL     hw 3434   5.614   3.423   1.664 -1.3150  0.9125  1.0736
  859SOL     hw 3435   5.728   3.329   1.695  0.3388  1.7250 -2.1723
  859SOL     vw 3436   5.653   3.366   1.717  0.2770  0.6106 -0.3360
  860SOL     ow 3437   6.260   5.437   4.169 -0.0966 -0.2792 -0.4845
  860SOL     hw 3438   6.282   5.452   4.077  0.6604 -2.8947 -0.8148
  860SOL     hw 3439   6.343   5.447   4.215 -0.2030 -0.3421 -0.2794
  860SOL     vw 3440   6.274   5.440   4.163 -0.0107 -0.6325 -0.5012
  861SOL     ow 3441   0.492   0.232   1.947  0.5650 -0.3086  0.0066
  861SOL     hw 3442   0.470   0.218   1.855 -0.9494 -1.5510  0.5298
  861SOL     hw 3443   0.474   0.149   1.990  0.5388  0.4613  1.5764
  861SOL     vw 3444   0.487   0.219   1.941  0.3617 -0.3709  0.2827
  862SOL     ow 3445   5.285   1.191   3.208 -0.6092 -0.7256  1.0219
  862SOL     hw 3446   5.205   1.219   3.252 -1.8459 -1.9623 -0.3500
  862SOL     hw 3447   5.256   1.129   3.142  1.4030 -0.5089 -0.1445
  862SOL     vw 3448   5.271   1.186   3.205 -0.5066 -0.8602  0.6869
  863SOL     ow 3449   1.127   2.685   0.939  0.4880  0.3934 -0.2465
  863SOL     hw 3450   1.211   2.649   0.966  1.1193  2.2721  0.4030
  863SOL     hw 3451   1.064   2.617   0.963  1.6745 -0.5442  0.3651
  863SOL     vw 3452   1.130   2.671   0.946  0.7278  0.5176 -0.0801
  864SOL     ow 3453   5.779   2.728   4.718  0.3865  0.8729  0.2712
  864SOL     hw 3454   5.857   2.770   4.755  1.2590 -0.9284  0.5866
  864SOL     hw 3455   5.806   2.699   4.631  0.3016 -0.3379  0.6346
  864SOL     vw 3456   5.793   2.730   4.712  0.4907  0.4755  0.3610
  865SOL     ow 3457   5.078   4.991   5.746 -0.5933  0.2365 -0.3885
  865SOL     hw 3458   5.021   4.923   5.710 -0.5635  0.5286 -1.0017
  865SOL     hw 3459   5.018   5.064   5.766 -1.0056 -0.7279  2.4078
  865SOL     vw 3460   5.062   4.992   5.744 -0.6437  0.1478 -0.1006
  866SOL     ow 3461   3.204   3.710   6.476  0.7478 -0.3748  0.1486
  866SOL     hw 3462   3.231   3.785   6.530 -0.0434 -0.3106  0.4604
  866SOL     hw 3463   3.227   3.736   6.386  2.4919 -0.6654  0.4599
  866SOL     vw 3464   3.211   3.723   6.471  0.8736 -0.4047  0.2308
  867SOL     ow 3465   3.129   0.384   3.643 -0.2080  0.3913  0.2739
  867SOL     hw 3466   3.082   0.339   3.572  0.3256 -3.3312  2.0237
  867SOL     hw 3467   3.118   0.326   3.719 -0.4828  3.9771  3.2521
  867SOL     vw 3468   3.121   0.370   3.644 -0.1738  0.3733  0.8978
  868SOL     ow 3469   0.917   2.767   0.742 -0.7748  0.8340  0.1874
  868SOL     hw 3470   0.861   2.844   0.742 -1.8129  0.0979 -0.0774
  868SOL     hw 3471   0.861   2.695   0.770  0.4005  0.3088  1.3206
  868SOL     vw 3472   0.902   2.768   0.746 -0.7567  0.6677  0.3020
  869SOL     ow 3473   3.685   1.895   1.892 -0.3079 -0.0984 -0.5470
  869SOL     hw 3474   3.622   1.953   1.849 -1.0655 -0.6071 -0.1474
  869SOL     hw 3475   3.768   1.911   1.847 -0.7589  0.4599 -1.1897
  869SOL     vw 3476   3.688   1.905   1.881 -0.4674 -0.0919 -0.5791
  870SOL     ow 3477   6.325   5.820   6.384  0.0137 -0.3532  0.2161
  870SOL     hw 3478   6.412   5.789   6.360 -0.0622 -0.4477  0.0556
  870SOL     hw 3479   6.312   5.899   6.330  0.5398  0.4452  1.2275
  870SOL     vw 3480   6.335   5.827   6.374  0.0732 -0.2604  0.3283
  871SOL     ow 3481   6.009   4.562   6.658  0.2114  0.6605 -0.5330
  871SOL     hw 3482   5.974   4.508   6.586 -1.7774  3.3256 -1.7416
  871SOL     hw 3483   6.100   4.534   6.666 -0.5282 -2.4328 -1.4161
  871SOL     vw 3484   6.016   4.551   6.649 -0.1485  0.6039 -0.8090
  872SOL     ow 3485   2.868   5.363   2.865 -0.0470  0.0533  0.2791
  872SOL     hw 3486   2.809   5.304   2.911 -1.2717  2.0975  1.5139
  872SOL     hw 3487   2.905   5.418   2.934 -0.2987  1.8405 -0.9376
  872SOL     vw 3488   2.865   5.363   2.880 -0.2418  0.5586  0.2816
  873SOL     ow 3489   6.820   3.479   4.077  0.4226 -0.2957  0.3636
  873SOL     hw 3490   6.806   3.453   3.986  0.3563  0.0034  0.2859
  873SOL     hw 3491   6.734   3.472   4.117  0.6750 -1.6450  0.7335
  873SOL     vw 3492   6.807   3.475   4.070  0.4470 -0.4343  0.4022
  874SOL     ow 3493   6.188   4.838   6.088  0.0778 -0.4612 -0.0536
  874SOL     hw 3494   6.154   4.759   6.129  0.5526 -0.0855  1.1141
  874SOL     hw 3495   6.270   4.856   6.134 -0.6399  1.4128  0.6400
  874SOL     vw 3496   6.194   4.830   6.100  0.0460 -0.1645  0.1919
  875SOL     ow 3497   4.482   5.046   3.322  0.0520 -0.6265 -0.3083
  875SOL     hw 3498   4.415   5.100   3.366  0.8028  1.6848 -1.8057
  875SOL     hw 3499   4.554   5.106   3.306  1.3743 -2.3725 -1.2054
  875SOL     vw 3500   4.482   5.061   3.326  0.3254 -0.5519 -0.6242
  876SOL     ow 3501   6.252   1.698   0.915 -0.2420  0.6617 -0.7605
  876SOL     hw 3502   6.281   1.619   0.960 -1.0182  0.3725 -0.7629
  876SOL     hw 3503   6.159   1.706   0.936  0.1022  2.3192  0.3692
  876SOL     vw 3504   6.244   1.689   0.924 -0.2992  0.8423 -0.6117
  877SOL     ow 3505   2.811   3.861   0.686 -0.4199 -0.3506  0.1984
  877SOL     hw 3506   2.882   3.801   0.664  0.3116  0.2091  0.9432
  877SOL     hw 3507   2.795   3.846   0.780  0.2795  1.1012  0.5774
  877SOL     vw 3508   2.818   3.851   0.696 -0.2311 -0.0851  0.3467
  878SOL     ow 3509   3.169   5.464   4.695  0.1062 -0.3295  0.0203
  878SOL     hw 3510   3.249   5.515   4.697  0.5836 -1.0925  1.0396
  878SOL     hw 3511   3.102   5.525   4.662  0.9594  0.4865 -0.2402
  878SOL     vw 3512   3.170   5.479   4.691  0.2817 -0.3228  0.1204
  879SOL     ow 3513   4.549   6.316   0.462  0.1762 -0.2036  0.0376
  879SOL     hw 3514   4.643   6.332   0.453 -0.0480  2.2411  1.1676
  879SOL     hw 3515   4.527   6.353   0.547 -1.5500 -2.3371  0.5968
  879SOL     vw 3516   4.559   6.323   0.472 -0.0811 -0.1624  0.2605
  880SOL     ow 3517   3.393   2.133   2.982  0.2139 -0.4247 -0.6020
  880SOL     hw 3518   3.306   2.144   3.018  0.4069  0.5717 -0.4093
  880SOL     hw 3519   3.391   2.047   2.940 -0.5785 -0.7866  0.1602
  880SOL     vw 3520   3.381   2.123   2.981  0.1347 -0.3411 -0.4760
  881SOL     ow 3521   0.546   0.159   2.536  0.0451 -0.1293 -0.4194
  881SOL     hw 3522   0.630   0.144   2.578 -0.6737 -1.1120  0.7309
  881SOL     hw 3523   0.538   0.090   2.470 -0.2421 -0.5893  0.0917
  881SOL     vw 3524   0.556   0.148   2.533 -0.0876 -0.3197 -0.2003
  882SOL     ow 3525   3.792   4.270   3.160 -0.8146 -0.2667  0.0342
  882SOL     hw 3526   3.795   4.273   3.065 -0.7496  0.5674  0.0551
  882SOL     hw 3527   3.714   4.219   3.180 -0.9644 -0.2391 -0.4672
  882SOL     vw 3528   3.782   4.264   3.150 -0.8258 -0.1531 -0.0293
  883SOL     ow 3529   4.580   6.105   6.389 -0.2311 -0.8728 -1.2652
  883SOL     hw 3530   4.637   6.103   6.312  0.8420  1.2446 -0.6020
  883SOL     hw 3531   4.519   6.177   6.371 -0.0605 -0.4515 -0.2402
  883SOL     vw 3532   4.579   6.115   6.377 -0.0670 -0.5381 -1.0424
  884SOL     ow 3533   1.087   4.435   2.152 -0.1822  1.1879 -0.6129
  884SOL     hw 3534   1.089   4.408   2.060  1.4046  0.0843 -0.2959
  884SOL     hw 3535   0.994   4.451   2.170 -0.7647 -0.4707 -1.8881
  884SOL     vw 3536   1.075   4.433   2.143 -0.0496  0.8235 -0.7393
  885SOL     ow 3537   2.316   5.912   2.840 -0.0627  0.5790  0.2092
  885SOL     hw 3538   2.234   5.884   2.798  1.3796 -2.1189 -1.1325
  885SOL     hw 3539   2.294   5.919   2.933 -1.6192 -1.1312  0.0381
  885SOL     vw 3540   2.302   5.909   2.847 -0.0777 -0.0026  0.0095
  886SOL     ow 3541   2.718   1.454   2.403  0.9052 -0.6024 -0.8185
  886SOL     hw 3542   2.773   1.532   2.408  1.7067 -1.1204 -1.2922
  886SOL     hw 3543   2.767   1.387   2.451 -0.7779 -0.2946  1.5128
  886SOL     vw 3544   2.732   1.456   2.410  0.7890 -0.6302 -0.5733
  887SOL     ow 3545   1.693   0.862   6.463 -0.5188  0.9218  0.2547
  887SOL     hw 3546   1.660   0.806   6.534  0.0982  1.8364  1.2999
  887SOL     hw 3547   1.726   0.801   6.398  1.1858  0.0242  1.8607
  887SOL     vw 3548   1.693   0.846   6.464 -0.2126  0.9241  0.6044
  888SOL     ow 3549   6.817   6.085   2.194  0.2130  0.4706 -0.1986
  888SOL     hw 3550   6.752   6.089   2.264 -0.1397 -1.1740 -0.3810
  888SOL     hw 3551   6.791   6.010   2.141  1.0413  1.0899 -1.5383
  888SOL     vw 3552   6.805   6.075   2.196  0.2754  0.3352 -0.3994
  889SOL     ow 3553   5.523   5.189   3.698  0.0150 -0.2277 -0.3938
  889SOL     hw 3554   5.514   5.208   3.604  1.8125 -1.0699 -0.7878
  889SOL     hw 3555   5.609   5.148   3.705 -0.6790 -1.4857  1.4304
  889SOL     vw 3556   5.533   5.186   3.686  0.1607 -0.5047 -0.2050
  890SOL     ow 3557   3.538   0.462   0.009 -0.4697  1.2334  0.4954
  890SOL     hw 3558   3.551   0.553  -0.018 -1.3448  1.1253 -0.3474
  890SOL     hw 3559   3.515   0.416  -0.072  1.3527 -0.0410  0.6365
  890SOL     vw 3560   3.537   0.468  -0.006 -0.3448  1.0510  0.4029
  891SOL     ow 3561   3.664   6.926   2.514  0.1485 -0.2112 -0.5557
  891SOL     hw 3562   3.736   6.958   2.461  0.6398 -0.1960  0.1071
  891SOL     hw 3563   3.664   6.831   2.501  0.8019 -0.3078  0.0492
  891SOL     vw 3564   3.673   6.918   2.506  0.2993 -0.2217 -0.3886
  892SOL     ow 3565   4.434   6.814   6.427 -0.1930  0.1963 -0.0815
  892SOL     hw 3566   4.389   6.898   6.422 -1.5575 -0.5304 -1.0681
  892SOL     hw 3567   4.367   6.750   6.401  1.5455 -0.9092 -2.2317
  892SOL     vw 3568   4.419   6.816   6.423 -0.1435 -0.0453 -0.4954
  893SOL     ow 3569   5.610   2.655   4.980 -0.5579 -0.4988 -0.1702
  893SOL     hw 3570   5.643   2.577   5.024  1.8229 -0.4269 -1.6377
  893SOL     hw 3571   5.626   2.727   5.042 -2.4815 -1.0517  1.0582
  893SOL     vw 3572   5.617   2.654   4.994 -0.4978 -0.5622 -0.2019
  894SOL     ow 3573   4.238   3.472   2.573 -0.3335  0.4837 -0.7841
  894SOL     hw 3574   4.298   3.437   2.639 -0.1110  1.9539 -0.1734
  894SOL     hw 3575   4.287   3.541   2.529 -0.1613 -1.0388 -3.1699
  894SOL     vw 3576   4.252   3.476   2.576 -0.2813  0.4768 -1.0183
  895SOL     ow 3577   2.248   3.320   2.524  0.0049  0.0961 -0.1522
  895SOL     hw 3578   2.211   3.385   2.463 -0.2685 -0.1805 -0.2846
  895SOL     hw 3579   2.176   3.302   2.585 -1.0415 -2.4384 -1.9759
  895SOL     vw 3580   2.233   3.327   2.524 -0.1692 -0.2748 -0.4102
  896SOL     ow 3581   0.703   0.850   6.523  0.9442  0.7757  0.0342
  896SOL     hw 3582   0.660   0.909   6.586  1.7281  0.8258  0.5445
  896SOL     hw 3583   0.794   0.877   6.524  0.8870  1.1357 -1.5576
  896SOL     vw 3584   0.709   0.862   6.532  1.0400  0.8298 -0.1087
  897SOL     ow 3585   3.476   5.182   2.339  0.3367 -0.1265  0.1867
  897SOL     hw 3586   3.491   5.093   2.371  0.6131  0.1302  0.7763
  897SOL     hw 3587   3.563   5.221   2.335  0.5002 -0.5597 -2.1532
  897SOL     vw 3588   3.489   5.175   2.343  0.3947 -0.1497 -0.0445
  898SOL     ow 3589   1.233   2.843   0.665 -0.1277 -0.0679  0.6007
  898SOL     hw 3590   1.321   2.834   0.703 -0.7659 -0.9406  1.9270
  898SOL     hw 3591   1.216   2.937   0.668  0.3058 -0.0080  1.4028
  898SOL     vw 3592   1.243   2.854   0.670 -0.1547 -0.1751  0.8815
  899SOL     ow 3593   2.155   0.355   3.794  0.1802  0.4437 -0.2445
  899SOL     hw 3594   2.179   0.268   3.826  1.2170  0.2675 -1.4143
  899SOL     hw 3595   2.067   0.342   3.757  0.3234 -0.1108 -0.4078
  899SOL     vw 3596   2.146   0.342   3.793  0.3358  0.3472 -0.4203
  900SOL     ow 3597   5.207   0.077   0.176  0.3068  0.5750 -0.1333
  900SOL     hw 3598   5.273   0.027   0.127  0.2865 -1.7987  2.0501
  900SOL     hw 3599   5.131   0.020   0.180  0.1770  0.8015  2.2521
  900SOL     vw 3600   5.206   0.063   0.170  0.2871  0.2917  0.4695
  901SOL     ow 3601   5.866   4.835   4.477  0.1504 -0.8275 -0.1056
  901SOL     hw 3602   5.931   4.841   4.407 -0.2211 -1.9434 -0.5750
  901SOL     hw 3603   5.783   4.855   4.433  0.1516  0.6095  0.4899
  901SOL     vw 3604   5.863   4.838   4.462  0.1013 -0.7851 -0.0889
  902SOL     ow 3605   1.140   0.220   3.844 -0.5453  0.3609  0.2152
  902SOL     hw 3606   1.090   0.154   3.893  0.2461 -0.0398  0.5032
  902SOL     hw 3607   1.103   0.303   3.872 -1.3313  0.0590  0.1064
  902SOL     vw 3608   1.129   0.222   3.854 -0.5445  0.2682  0.2389
  903SOL     ow 3609   3.413   3.740   1.896  0.3648 -0.7024  0.1615
  903SOL     hw 3610   3.388   3.652   1.924 -0.2349 -1.0778 -1.4384
  903SOL     hw 3611   3.508   3.737   1.891  0.3081 -1.5922 -0.8275
  903SOL     vw 3612   3.422   3.728   1.899  0.2782 -0.8694 -0.1801
  904SOL     ow 3613   3.739   1.185   1.084 -0.1314  0.1073  0.0082
  904SOL     hw 3614   3.678   1.259   1.079 -0.1613  0.1277  0.6022
  904SOL     hw 3615   3.728   1.140   1.000 -1.3442 -0.1766  0.2959
  904SOL     vw 3616   3.729   1.189   1.072 -0.2953  0.0725  0.1245
  905SOL     ow 3617   1.604   4.256   5.794 -0.4980  0.6854  0.3574
  905SOL     hw 3618   1.541   4.324   5.771  0.3044  2.0164  1.9372
  905SOL     hw 3619   1.613   4.263   5.889 -0.6593 -1.8963  0.6363
  905SOL     vw 3620   1.597   4.266   5.804 -0.4134  0.5205  0.6027
  906SOL     ow 3621   2.154   4.978   6.445 -0.0346  0.8533 -0.4594
  906SOL     hw 3622   2.171   5.057   6.394 -0.5178  0.4631 -1.2451
  906SOL     hw 3623   2.059   4.973   6.451 -0.0091  0.2943 -0.4736
  906SOL     vw 3624   2.144   4.987   6.439 -0.0950  0.7281 -0.5648
  907SOL     ow 3625   5.224   3.374   5.849  0.0581  0.1045 -0.0321
  907SOL     hw 3626   5.189   3.384   5.937 -0.6575 -0.0110 -0.2930
  907SOL     hw 3627   5.317   3.393   5.857 -0.0683  0.4433  0.6823
  907SOL     vw 3628   5.231   3.378   5.861 -0.0532  0.1340  0.0279
  908SOL     ow 3629   1.482   1.923   2.049  0.4496  0.1416  0.2258
  908SOL     hw 3630   1.458   1.896   2.138  1.3508 -1.9144 -0.0942
  908SOL     hw 3631   1.560   1.976   2.060  0.2993  0.2740  0.6855
  908SOL     vw 3632   1.489   1.926   2.062  0.5487 -0.1122  0.2441
  909SOL     ow 3633   5.993   2.004   0.302 -0.1029 -0.5126  0.3323
  909SOL     hw 3634   5.957   1.917   0.320  1.1812 -1.0379  0.5032
  909SOL     hw 3635   6.081   1.987   0.269  0.1245  0.7276  0.2349
  909SOL     vw 3636   6.000   1.990   0.300  0.0966 -0.4182  0.3420
  910SOL     ow 3637   6.279   5.001   0.539  0.4163  1.0148  0.2209
  910SOL     hw 3638   6.287   5.044   0.454 -1.0732  3.4602  1.2313
  910SOL     hw 3639   6.366   4.964   0.555  0.8881  0.9851 -2.0849
  910SOL     vw 3640   6.292   5.002   0.530  0.2820  1.3337  0.0500
  911SOL     ow 3641   4.514   2.907   6.332  0.6758 -0.3275  0.0528
  911SOL     hw 3642   4.481   2.991   6.362  0.1479 -0.9879  1.3777
  911SOL     hw 3643   4.609   2.912   6.347  0.7413  0.2555 -0.4911
  911SOL     vw 3644   4.522   2.919   6.338  0.6149 -0.3376  0.1559
  912SOL     ow 3645   4.380   0.924   4.228  0.6487 -0.4918 -0.1887
  912SOL     hw 3646   4.453   0.862   4.223  2.2384  1.3570 -1.2773
  912SOL     hw 3647   4.408   0.998   4.174 -1.3756  0.9837  0.6686
  912SOL     vw 3648   4.393   0.925   4.220  0.5913 -0.0532 -0.2193
  913SOL     ow 3649   3.045   1.338   4.028 -0.3449 -0.3136 -0.5127
  913SOL     hw 3650   3.026   1.432   4.025 -0.3454 -0.3285 -1.0393
  913SOL     hw 3651   2.961   1.297   4.044 -0.8765 -0.3971 -3.0758
  913SOL     vw 3652   3.032   1.345   4.030 -0.4152 -0.3266 -0.9203
  914SOL     ow 3653   3.160   5.261   1.381  0.5540 -0.5498  0.5634
  914SOL     hw 3654   3.243   5.308   1.386 -0.3535  1.3222 -0.8654
  914SOL     hw 3655   3.151   5.238   1.289 -1.0368  0.3145  0.4661
  914SOL     vw 3656   3.170   5.264   1.370  0.2245 -0.1888  0.3620
  915SOL     ow 3657   3.053   2.185   2.096  0.4290 -0.1816 -0.5484
  915SOL     hw 3658   3.130   2.135   2.069  0.7829 -0.3628  0.7502
  915SOL     hw 3659   3.051   2.177   2.191 -2.6809 -2.4536 -0.6371
  915SOL     vw 3660   3.063   2.177   2.105  0.0654 -0.5052 -0.3886
  916SOL     ow 3661   1.527   0.940   4.496 -0.1818  0.4298 -0.3157
  916SOL     hw 3662   1.440   0.956   4.532  0.0404  0.5838  0.1514
  916SOL     hw 3663   1.587   0.977   4.560  0.2044  1.1932 -1.0881
  916SOL     vw 3664   1.523   0.947   4.509 -0.1015  0.5508 -0.3560
  917SOL     ow 3665   4.508   1.293   3.006 -0.2726 -0.3086  0.5875
  917SOL     hw 3666   4.501   1.220   3.068 -0.2210 -1.7409 -1.0114
  917SOL     hw 3667   4.507   1.251   2.920 -0.3231  1.6066 -0.3973
  917SOL     vw 3668   4.507   1.277   3.003 -0.2725 -0.2449  0.2466
  918SOL     ow 3669   3.033   3.195   0.624 -0.0617 -0.3497  0.1909
  918SOL     hw 3670   3.077   3.166   0.544  4.4882  2.6916  1.1912
  918SOL     hw 3671   3.052   3.126   0.687 -1.0258 -1.3280 -0.5478
  918SOL     vw 3672   3.042   3.182   0.621  0.4115 -0.0776  0.2254
  919SOL     ow 3673   0.783   2.101   1.794  0.6713  0.3105 -0.3670
  919SOL     hw 3674   0.811   2.189   1.769  0.6736  1.7252  3.8835
  919SOL     hw 3675   0.847   2.073   1.859 -0.8394 -1.7174  0.3353
  919SOL     vw 3676   0.795   2.109   1.799  0.4722  0.2296  0.2865
  920SOL     ow 3677   5.938   3.523   2.766 -0.8811 -0.1880 -0.7082
  920SOL     hw 3678   6.008   3.495   2.707 -0.6722 -1.0441 -0.0760
  920SOL     hw 3679   5.971   3.603   2.808  0.8729 -1.9311  1.4911
  920SOL     vw 3680   5.951   3.530   2.764 -0.6218 -0.5308 -0.3346
  921SOL     ow 3681   3.582   6.904   3.564 -0.1406  0.3134  0.6105
  921SOL     hw 3682   3.654   6.889   3.625 -0.3680 -2.0178  0.3723
  921SOL     hw 3683   3.524   6.829   3.576 -2.0553  1.6110  0.0708
  921SOL     vw 3684   3.584   6.892   3.574 -0.4233  0.1771  0.5077
  922SOL     ow 3685   1.119   5.490   2.677 -0.1182 -0.6309  0.0245
  922SOL     hw 3686   1.161   5.507   2.761 -0.3861 -0.0134  0.0441
  922SOL     hw 3687   1.059   5.418   2.693  0.5891 -1.2081  0.1088
  922SOL     vw 3688   1.116   5.483   2.690 -0.0603 -0.6258  0.0381
  923SOL     ow 3689   6.667   6.838   2.020  0.7034 -0.1775  0.3647
  923SOL     hw 3690   6.572   6.845   2.030  0.4603 -2.6549  0.4258
  923SOL     hw 3691   6.701   6.836   2.110  0.8272  0.6140  0.3435
  923SOL     vw 3692   6.659   6.838   2.033  0.6876 -0.4001  0.3699
  924SOL     ow 3693   0.614   3.057   5.346 -0.0332 -0.4943  0.3478
  924SOL     hw 3694   0.696   3.080   5.302  1.1121 -2.7716  1.1515
  924SOL     hw 3695   0.551   3.047   5.274  1.3819 -2.5005 -0.6983
  924SOL     vw 3696   0.616   3.059   5.330  0.3046 -1.0593  0.3157
  925SOL     ow 3697   2.629   4.895   1.642  0.3997 -0.0912 -0.3729
  925SOL     hw 3698   2.690   4.916   1.713  0.8965 -0.2185 -0.7612
  925SOL     hw 3699   2.586   4.978   1.622  0.3869 -0.0169 -0.0482
  925SOL     vw 3700   2.632   4.908   1.649  0.4634 -0.0982 -0.3812
  926SOL     ow 3701   6.899   2.627   4.139 -0.0070 -0.9236 -0.4129
  926SOL     hw 3702   6.921   2.598   4.051 -0.8997 -2.1120 -0.2778
  926SOL     hw 3703   6.853   2.552   4.178 -1.0460  0.1397  0.4982
  926SOL     vw 3704   6.896   2.613   4.133 -0.2619 -0.9401 -0.2749
  927SOL     ow 3705   6.464   2.876   2.088  0.2762 -0.6106  0.1579
  927SOL     hw 3706   6.490   2.856   1.999 -1.5356 -2.6855  0.0042
  927SOL     hw 3707   6.384   2.929   2.079  1.6046  1.6073  0.6138
  927SOL     vw 3708   6.457   2.880   2.075  0.2127 -0.5919  0.1978
  928SOL     ow 3709   5.474   4.478   3.296  0.7290 -0.4554 -0.1309
  928SOL     hw 3710   5.491   4.503   3.205  0.7223  0.9263  0.2221
  928SOL     hw 3711   5.472   4.561   3.343  3.0170 -1.2511  1.5482
  928SOL     vw 3712   5.476   4.493   3.290  1.0300 -0.3781  0.1373
  929SOL     ow 3713   0.881   6.442   5.106 -0.1978  0.4862 -0.2004
  929SOL     hw 3714   0.834   6.383   5.047 -0.3512  0.5134 -0.1067
  929SOL     hw 3715   0.907   6.387   5.180  0.0604  0.4359 -0.3291
  929SOL     vw 3716   0.878   6.427   5.108 -0.1840  0.4833 -0.2050
  930SOL     ow 3717   5.677   0.392   5.522  0.8763 -0.7492  0.1016
  930SOL     hw 3718   5.590   0.354   5.535  0.4186  0.2400  0.0191
  930SOL     hw 3719   5.693   0.385   5.428  0.3232  0.2136 -0.0803
  930SOL     vw 3720   5.668   0.386   5.511  0.7429 -0.4916  0.0665
  931SOL     ow 3721   0.195   4.454   0.306 -0.0526  0.0301 -0.0838
  931SOL     hw 3722   0.142   4.413   0.374 -1.0653  1.1554 -0.1725
  931SOL     hw 3723   0.281   4.411   0.314 -0.9592 -1.8746  0.0079
  931SOL     vw 3724   0.200   4.443   0.316 -0.3058 -0.0725 -0.0834
  932SOL     ow 3725   6.600   5.469   1.132 -0.5746  0.0839 -0.8718
  932SOL     hw 3726   6.665   5.539   1.132 -0.6050  0.1120 -0.8039
  932SOL     hw 3727   6.517   5.512   1.111 -0.6656  0.1375 -0.4177
  932SOL     vw 3728   6.598   5.484   1.129 -0.5908  0.0944 -0.8029
  933SOL     ow 3729   5.551   1.803   4.443  0.1184 -0.3464  0.0775
  933SOL     hw 3730   5.516   1.879   4.489  0.1939 -0.0607 -0.3282
  933SOL     hw 3731   5.635   1.786   4.484  0.0701 -0.2545  0.2148
  933SOL     vw 3732   5.557   1.811   4.455  0.1221 -0.2965  0.0420
  934SOL     ow 3733   5.998   2.900   6.456 -0.1153 -0.6995 -0.1395
  934SOL     hw 3734   5.922   2.847   6.432 -0.1783 -1.0481  0.8002
  934SOL     hw 3735   6.042   2.849   6.525 -0.1093  0.4082  0.6948
  934SOL     vw 3736   5.994   2.886   6.462 -0.1225 -0.5993  0.0947
  935SOL     ow 3737   2.729   0.461   1.414  0.6709 -0.0118 -0.0052
  935SOL     hw 3738   2.636   0.441   1.415  0.6717 -0.0459  1.0563
  935SOL     hw 3739   2.738   0.534   1.353  0.0340 -0.3673 -0.5287
  935SOL     vw 3740   2.718   0.468   1.406  0.5870 -0.0632  0.0658
  936SOL     ow 3741   2.756   5.161   5.776  0.0831 -0.5827  0.1053
  936SOL     hw 3742   2.842   5.128   5.750  0.4658 -2.6319  3.4156
  936SOL     hw 3743   2.772   5.250   5.807  0.2278  0.4733 -2.6968
  936SOL     vw 3744   2.769   5.169   5.776  0.1526 -0.7136  0.1721
  937SOL     ow 3745   2.154   4.439   4.243  0.0261 -0.3182  1.1842
  937SOL     hw 3746   2.060   4.420   4.246  0.3292 -1.7614  2.3801
  937SOL     hw 3747   2.159   4.534   4.255 -1.3570  0.1598 -1.1888
  937SOL     vw 3748   2.142   4.449   4.245 -0.1165 -0.4451  1.0285
  938SOL     ow 3749   2.487   6.476   5.242 -0.0857  1.0580 -0.4082
  938SOL     hw 3750   2.459   6.568   5.235 -2.3849  0.4326 -0.0734
  938SOL     hw 3751   2.505   6.464   5.335 -0.8038  0.8922 -0.2912
  938SOL     vw 3752   2.486   6.487   5.253 -0.4838  0.9537 -0.3488
  939SOL     ow 3753   6.399   6.168   3.427 -0.4890 -0.1048  0.1045
  939SOL     hw 3754   6.438   6.244   3.471 -1.4696  1.8763 -2.2010
  939SOL     hw 3755   6.467   6.101   3.431  1.8124  2.0206 -0.6824
  939SOL     vw 3756   6.413   6.169   3.433 -0.3147  0.4370 -0.3036
  940SOL     ow 3757   6.370   1.634   6.522  0.3381  0.4277  0.0184
  940SOL     hw 3758   6.333   1.721   6.528 -0.5372  0.0665 -0.0692
  940SOL     hw 3759   6.295   1.576   6.513  0.8148 -0.4540  1.3055
  940SOL     vw 3760   6.355   1.638   6.522  0.2851  0.2637  0.1767
  941SOL     ow 3761   5.128   5.514   2.180  0.5710  0.1998 -0.5317
  941SOL     hw 3762   5.223   5.507   2.171  0.7635  2.9521 -1.4105
  941SOL     hw 3763   5.100   5.566   2.105 -1.8459 -1.5730 -0.9883
  941SOL     vw 3764   5.137   5.520   2.169  0.2775  0.3290 -0.7079
  942SOL     ow 3765   3.629   1.289   0.772 -0.4140 -0.8341 -0.4308
  942SOL     hw 3766   3.666   1.202   0.784  3.1785  0.3897 -1.3079
  942SOL     hw 3767   3.642   1.332   0.856  0.6869 -0.2770 -0.8572
  942SOL     vw 3768   3.636   1.283   0.784  0.2053 -0.5991 -0.6028
  943SOL     ow 3769   1.738   6.826   0.546  0.4809  1.2229 -0.4636
  943SOL     hw 3770   1.747   6.755   0.610 -1.1292  0.4642 -1.0323
  943SOL     hw 3771   1.810   6.886   0.566  2.0724 -0.7022 -0.1559
  943SOL     vw 3772   1.749   6.825   0.557  0.4784  0.8688 -0.4980
  944SOL     ow 3773   2.995   2.155   4.007  0.0034 -0.4357 -0.0100
  944SOL     hw 3774   2.933   2.184   4.074  2.4126  0.5336  1.9265
  944SOL     hw 3775   3.073   2.131   4.056  0.5477 -3.6324 -2.1612
  944SOL     vw 3776   2.997   2.155   4.023  0.3929 -0.7296 -0.0386
  945SOL     ow 3777   6.863   0.423   5.054 -0.2127  0.1651 -0.3905
  945SOL     hw 3778   6.939   0.443   4.999 -0.5885 -0.2664 -1.0832
  945SOL     hw 3779   6.842   0.506   5.097 -0.1712  0.6235 -1.2252
  945SOL     vw 3780   6.871   0.437   5.052 -0.2570  0.1686 -0.5920
  946SOL     ow 3781   2.481   0.422   1.346  0.5033  0.5687 -0.8864
  946SOL     hw 3782   2.427   0.501   1.353 -0.6543 -0.1411 -1.5278
  946SOL     hw 3783   2.424   0.351   1.375  2.1910  0.1519  1.7143
  946SOL     vw 3784   2.466   0.423   1.351  0.5733  0.4201 -0.6279
  947SOL     ow 3785   0.963   1.625   3.067  0.3626  0.3144  0.0449
  947SOL     hw 3786   1.011   1.696   3.024  1.5931 -0.0323  0.7760
  947SOL     hw 3787   0.888   1.668   3.107 -0.3348  0.7866 -1.6462
  947SOL     vw 3788   0.960   1.640   3.066  0.4329  0.3310 -0.0818
  948SOL     ow 3789   6.198   0.769   4.237 -0.0738 -0.1240 -0.7981
  948SOL     hw 3790   6.273   0.711   4.251  0.6901  1.2735  1.3594
  948SOL     hw 3791   6.236   0.849   4.201 -0.5999  0.3668 -0.2857
  948SOL     vw 3792   6.213   0.772   4.234 -0.0424  0.1251 -0.4458
  949SOL     ow 3793   0.914   3.179   4.203  0.8316 -0.6835  0.1409
  949SOL     hw 3794   0.965   3.259   4.209  1.6362 -1.2539  1.4894
  949SOL     hw 3795   0.979   3.109   4.206  0.2857 -1.4311 -2.4847
  949SOL     vw 3796   0.929   3.180   4.204  0.8658 -0.8574 -0.0277
  950SOL     ow 3797   0.726   5.668   3.013 -0.0078  0.0838  0.3191
  950SOL     hw 3798   0.727   5.600   2.945  2.6949  1.2570 -0.9748
  950SOL     hw 3799   0.740   5.749   2.965 -2.6478  1.6053  1.8764
  950SOL     vw 3800   0.728   5.670   2.997  0.0005  0.4392  0.3538
  951SOL     ow 3801   5.141   2.953   6.747 -0.0291  0.2423 -0.7205
  951SOL     hw 3802   5.156   3.047   6.738 -0.2952  0.7545  2.9644
  951SOL     hw 3803   5.194   2.914   6.677  1.5443  3.0280 -1.2342
  951SOL     vw 3804   5.150   2.960   6.736  0.1431  0.6775 -0.3021
  952SOL     ow 3805   3.248   3.936   6.606 -0.0585 -0.4664  0.0551
  952SOL     hw 3806   3.231   4.012   6.551 -1.6220 -1.6796 -1.2413
  952SOL     hw 3807   3.322   3.962   6.660 -0.0019  1.6565 -0.9314
  952SOL     vw 3808   3.255   3.949   6.606 -0.2574 -0.3464 -0.2463
  953SOL     ow 3809   0.064   0.242   3.080 -0.1726 -0.2485  0.0511
  953SOL     hw 3810   0.149   0.285   3.080 -0.6531  0.7555  0.9186
  953SOL     hw 3811   0.030   0.256   2.992  0.2743 -0.0596 -0.0935
  953SOL     vw 3812   0.071   0.249   3.068 -0.1771 -0.0911  0.1464
  954SOL     ow 3813   2.347   4.026   6.329 -0.1126  0.4890 -0.0607
  954SOL     hw 3814   2.352   4.120   6.344  0.2378  0.5312 -0.4272
  954SOL     hw 3815   2.431   3.992   6.361  0.1639  0.4322 -0.8291
  954SOL     vw 3816   2.359   4.034   6.335 -0.0298  0.4869 -0.2105
  955SOL     ow 3817   0.496   5.568   1.622 -0.5621  0.3477 -0.2127
  955SOL     hw 3818   0.495   5.478   1.655 -0.9471  0.3043 -0.3319
  955SOL     hw 3819   0.564   5.568   1.555 -1.2333 -0.1234 -0.9186
  955SOL     vw 3820   0.505   5.556   1.618 -0.7015  0.2799 -0.3216
  956SOL     ow 3821   4.673   5.069   6.596 -0.5464 -0.5500 -0.5004
  956SOL     hw 3822   4.622   5.007   6.648  1.6710 -4.6861 -2.7571
  956SOL     hw 3823   4.753   5.082   6.647 -0.0727 -1.4210 -0.9912
  956SOL     vw 3824   4.677   5.063   6.610 -0.1915 -1.2105 -0.8626
  957SOL     ow 3825   3.720   0.071   3.301  0.2007  0.4376 -0.2952
  957SOL     hw 3826   3.796   0.084   3.357 -0.4095  1.5721  0.3140
  957SOL     hw 3827   3.737  -0.012   3.256  1.5862  0.4643  0.1336
  957SOL     vw 3828   3.732   0.062   3.303  0.3030  0.5908 -0.1583
  958SOL     ow 3829   6.942   6.274   1.333 -0.1564 -0.4444 -0.0769
  958SOL     hw 3830   6.953   6.211   1.262  0.9412 -0.5855  0.2001
  958SOL     hw 3831   6.854   6.310   1.320  0.7565  1.1070 -2.8101
  958SOL     vw 3832   6.932   6.271   1.322  0.1090 -0.2584 -0.4009
  959SOL     ow 3833   6.731   1.107   6.070  0.5426  0.7458  0.7333
  959SOL     hw 3834   6.706   1.196   6.045 -2.5306  0.3567  1.9478
  959SOL     hw 3835   6.761   1.115   6.161 -0.5747  0.4676  1.1413
  959SOL     vw 3836   6.731   1.120   6.079 -0.0105  0.6578  0.9475
  960SOL     ow 3837   2.043   0.929   6.260 -0.0531  0.1959  0.3506
  960SOL     hw 3838   2.092   1.008   6.236 -1.1598 -0.4129 -5.1443
  960SOL     hw 3839   1.951   0.956   6.259 -0.3665 -0.8217 -0.1773
  960SOL     vw 3840   2.037   0.943   6.257 -0.2406 -0.0187 -0.4439
  961SOL     ow 3841   1.633   1.277   3.930  0.3377 -0.2195  0.2917
  961SOL     hw 3842   1.696   1.337   3.969 -0.5663  0.0033  1.4712
  961SOL     hw 3843   1.670   1.255   3.844  1.1278  1.2966  0.2208
  961SOL     vw 3844   1.646   1.282   3.923  0.3226  0.0100  0.4380
  962SOL     ow 3845   1.089   2.854   4.685  0.3457 -0.2636  0.3205
  962SOL     hw 3846   0.999   2.830   4.704  0.1192  0.6770  0.4813
  962SOL     hw 3847   1.102   2.833   4.593  0.0759 -0.7168  0.3844
  962SOL     vw 3848   1.079   2.848   4.676  0.2802 -0.1993  0.3502
  963SOL     ow 3849   3.488   2.648   3.873 -0.1290  0.4583 -0.5508
  963SOL     hw 3850   3.515   2.558   3.856  0.7504  0.3089  1.3599
  963SOL     hw 3851   3.534   2.699   3.806  1.3867 -0.2937 -0.1487
  963SOL     vw 3852   3.498   2.643   3.862  0.1870  0.3394 -0.2457
  964SOL     ow 3853   5.743   4.521   6.874 -0.1060 -0.2550 -0.0585
  964SOL     hw 3854   5.688   4.450   6.842 -0.3030 -0.8278  1.4787
  964SOL     hw 3855   5.737   4.515   6.969  0.3488  1.4644  0.1036
  964SOL     vw 3856   5.735   4.511   6.882 -0.0720 -0.1040  0.1659
  965SOL     ow 3857   3.536   5.094   6.916 -0.1106  0.3239 -0.1385
  965SOL     hw 3858   3.629   5.076   6.927 -0.1684  1.0394  1.9434
  965SOL     hw 3859   3.516   5.066   6.827  1.8126 -0.9852 -0.2025
  965SOL     vw 3860   3.545   5.088   6.906  0.1354  0.2458  0.1276
  966SOL     ow 3861   2.293   0.665   3.690  0.0184  0.3168 -0.3458
  966SOL     hw 3862   2.370   0.693   3.738  0.4144 -1.6740  0.2685
  966SOL     hw 3863   2.299   0.711   3.606  2.8887 -1.1117 -1.0527
  966SOL     vw 3864   2.304   0.675   3.685  0.4494 -0.1343 -0.3580
  967SOL     ow 3865   5.253   5.842   5.821  0.5321 -0.1639 -0.0850
  967SOL     hw 3866   5.240   5.750   5.797 -0.3579  0.3232 -1.6271
  967SOL     hw 3867   5.282   5.884   5.740 -0.4414  1.1711  0.2125
  967SOL     vw 3868   5.255   5.835   5.807  0.2866  0.0768 -0.2491
  968SOL     ow 3869   3.406   0.098   5.207  0.2188 -0.2711 -0.0037
  968SOL     hw 3870   3.488   0.051   5.223 -0.7686 -2.0862  0.0083
  968SOL     hw 3871   3.341   0.029   5.200 -0.6112  0.6772 -4.9310
  968SOL     vw 3872   3.409   0.082   5.208 -0.0210 -0.3855 -0.6521
  969SOL     ow 3873   0.737   0.538   4.836  0.0308  0.0505 -0.0315
  969SOL     hw 3874   0.753   0.488   4.916 -2.3372  2.0304  1.8365
  969SOL     hw 3875   0.650   0.510   4.808  0.1653  0.5749 -1.0055
  969SOL     vw 3876   0.728   0.528   4.843 -0.2638  0.3809  0.0863
  970SOL     ow 3877   2.739   1.439   0.767  0.0856  0.7940 -0.4486
  970SOL     hw 3878   2.665   1.492   0.737  0.6031  1.6180 -0.2833
  970SOL     hw 3879   2.785   1.414   0.687 -1.2908 -1.1668 -0.7183
  970SOL     vw 3880   2.735   1.442   0.752 -0.0279  0.6440 -0.4624
  971SOL     ow 3881   6.729   5.341   5.014 -0.2311  0.4034  0.3379
  971SOL     hw 3882   6.709   5.352   5.107  2.3199 -1.5695  1.2013
  971SOL     hw 3883   6.789   5.267   5.010  0.0053  0.6275 -2.8789
  971SOL     vw 3884   6.734   5.333   5.025  0.1366  0.1726  0.0274
  972SOL     ow 3885   4.980   3.379   6.067 -1.1927  0.5102  0.6180
  972SOL     hw 3886   4.903   3.325   6.050 -0.9723  1.0054 -2.6555
  972SOL     hw 3887   4.959   3.464   6.029  1.0515  0.5419 -0.7384
  972SOL     vw 3888   4.967   3.383   6.060 -0.8674  0.5797  0.0072
  973SOL     ow 3889   5.184   0.933   2.208  1.1408 -0.2586  0.1286
  973SOL     hw 3890   5.145   1.018   2.230  0.9176  0.0461 -1.3489
  973SOL     hw 3891   5.192   0.935   2.113 -0.2640 -2.4936 -0.1015
  973SOL     vw 3892   5.180   0.945   2.198  0.9260 -0.5133 -0.0967
  974SOL     ow 3893   4.402   0.676   1.722  0.1891  0.9023  0.2589
  974SOL     hw 3894   4.378   0.677   1.629 -0.7559 -2.2151  0.3795
  974SOL     hw 3895   4.328   0.717   1.766 -1.1397 -0.9962 -0.1054
  974SOL     vw 3896   4.389   0.682   1.716 -0.1111  0.2405  0.2268
  975SOL     ow 3897   4.113   4.760   4.912  0.0840 -0.2761 -0.5883
  975SOL     hw 3898   4.026   4.796   4.898  0.4664  0.4611 -1.1209
  975SOL     hw 3899   4.171   4.816   4.861  0.9092 -0.5706  0.0015
  975SOL     vw 3900   4.109   4.772   4.903  0.2434 -0.2177 -0.5805
  976SOL     ow 3901   2.231   5.785   0.144  0.2430 -0.2465 -0.4478
  976SOL     hw 3902   2.272   5.837   0.213  0.7532  0.9682 -1.6316
  976SOL     hw 3903   2.174   5.846   0.098  0.8237 -0.7106 -1.8424
  976SOL     vw 3904   2.229   5.800   0.147  0.3870 -0.1476 -0.7880
  977SOL     ow 3905   1.236   5.422   3.174  0.0159 -0.0561 -0.2767
  977SOL     hw 3906   1.195   5.339   3.148  0.2658  0.0127 -0.9229
  977SOL     hw 3907   1.242   5.472   3.092  1.9434 -0.2987 -0.3202
  977SOL     vw 3908   1.231   5.418   3.159  0.3032 -0.0794 -0.3676
  978SOL     ow 3909   0.219   6.288   5.288 -0.1724 -0.3742  0.3595
  978SOL     hw 3910   0.261   6.268   5.372  0.6553  0.6089  0.2118
  978SOL     hw 3911   0.125   6.284   5.306 -0.0145  0.5161  1.5420
  978SOL     vw 3912   0.212   6.285   5.302 -0.0423 -0.1273  0.4959
  979SOL     ow 3913   1.537   2.277   5.947 -0.9599  0.1754  0.1795
  979SOL     hw 3914   1.567   2.336   5.878  3.7425 -0.3800  1.3793
  979SOL     hw 3915   1.519   2.334   6.022  1.9825  0.4013  0.8338
  979SOL     vw 3916   1.538   2.292   5.948  0.0488  0.1318  0.4239
  980SOL     ow 3917   6.210   2.506   1.210  0.1226  0.1663 -0.2859
  980SOL     hw 3918   6.174   2.568   1.148  0.3549 -1.2834 -1.9412
  980SOL     hw 3919   6.183   2.420   1.177 -0.8426 -0.6428  2.3198
  980SOL     vw 3920   6.202   2.503   1.198  0.0260 -0.1317 -0.1605
  981SOL     ow 3921   4.188   2.905   1.733 -0.9380 -0.9006 -0.1819
  981SOL     hw 3922   4.247   2.938   1.801 -0.0578 -1.5543 -0.6158
  981SOL     hw 3923   4.118   2.860   1.782 -1.4302  0.3832  0.3576
  981SOL     vw 3924   4.186   2.904   1.749 -0.8867 -0.8175 -0.1681
  982SOL     ow 3925   0.648   3.436   1.849 -0.3382 -0.2819 -0.0380
  982SOL     hw 3926   0.639   3.442   1.754 -1.9243 -2.0668 -0.0574
  982SOL     hw 3927   0.653   3.342   1.867 -1.0689 -0.0330  1.6998
  982SOL     vw 3928   0.647   3.425   1.839 -0.6439 -0.4845  0.1888
  983SOL     ow 3929   0.695   6.499   0.162 -0.9026  0.0072  0.1652
  983SOL     hw 3930   0.769   6.543   0.120 -0.2474 -0.0735  1.1886
  983SOL     hw 3931   0.698   6.529   0.253 -0.0233 -2.5801  1.0920
  983SOL     vw 3932   0.705   6.509   0.169 -0.7001 -0.3448  0.4225
  984SOL     ow 3933   6.893   3.586   5.453  0.0213  0.5427  0.0390
  984SOL     hw 3934   6.922   3.528   5.524  0.9099  0.7665 -0.1316
  984SOL     hw 3935   6.885   3.529   5.377 -0.2436  0.4361  0.1430
  984SOL     vw 3936   6.896   3.571   5.452  0.1035  0.5581  0.0303
  985SOL     ow 3937   2.007   6.682   0.846  0.0536 -0.1264  0.4407
  985SOL     hw 3938   2.070   6.712   0.780 -0.7356  0.4907 -0.0434
  985SOL     hw 3939   2.038   6.719   0.928 -1.0006  2.2697 -0.1583
  985SOL     vw 3940   2.020   6.691   0.848 -0.1897  0.2711  0.2978
  986SOL     ow 3941   4.916   2.458   2.908  0.1331  0.1497  0.0918
  986SOL     hw 3942   4.988   2.423   2.856  0.8388  1.1496  0.3579
  986SOL     hw 3943   4.933   2.427   2.997  0.3120  0.4770  0.1757
  986SOL     vw 3944   4.928   2.450   2.913  0.2501  0.3247  0.1380
  987SOL     ow 3945   3.947   5.729   0.672 -0.0883 -0.4536  0.1211
  987SOL     hw 3946   3.939   5.734   0.767 -0.1608 -1.6573  0.1915
  987SOL     hw 3947   4.015   5.793   0.650  1.9044 -2.0575  1.2816
  987SOL     vw 3948   3.955   5.739   0.681  0.1651 -0.8242  0.2835
  988SOL     ow 3949   0.752   6.303   4.923  0.5541  0.3070 -0.4837
  988SOL     hw 3950   0.744   6.224   4.976 -0.0156  0.3252 -0.5376
  988SOL     hw 3951   0.758   6.271   4.833 -1.0433  0.3514 -0.6392
  988SOL     vw 3952   0.751   6.288   4.918  0.2682  0.3150 -0.5112
  989SOL     ow 3953   2.661   5.377   1.083 -0.7620 -0.1852  0.1754
  989SOL     hw 3954   2.697   5.419   1.161 -1.0779  2.3801 -0.9472
  989SOL     hw 3955   2.722   5.306   1.063  2.2767  2.2817 -0.0978
  989SOL     vw 3956   2.674   5.373   1.091 -0.4028  0.4785 -0.0087
  990SOL     ow 3957   6.522   4.757   5.227 -0.2318  0.2705 -0.1603
  990SOL     hw 3958   6.604   4.797   5.199 -0.0178  0.2876  0.4817
  990SOL     hw 3959   6.549   4.679   5.276 -0.5345  1.0793  1.3490
  990SOL     vw 3960   6.536   4.752   5.230 -0.2434  0.3791  0.1235
  991SOL     ow 3961   1.769   2.829   4.231  0.0803 -0.0428  0.2237
  991SOL     hw 3962   1.841   2.884   4.263  0.8049 -1.4283  1.0373
  991SOL     hw 3963   1.700   2.840   4.296 -0.0247  0.3736  0.0512
  991SOL     vw 3964   1.769   2.838   4.244  0.1621 -0.1707  0.3085
  992SOL     ow 3965   6.172   3.186   2.943 -0.0195  0.1617 -0.5339
  992SOL     hw 3966   6.140   3.243   3.014  0.3520  0.3029 -0.4758
  992SOL     hw 3967   6.115   3.110   2.946  0.9044 -0.5364  0.9123
  992SOL     vw 3968   6.160   3.184   2.953  0.1516  0.0881 -0.3355
  993SOL     ow 3969   3.209   4.325   3.827 -0.5536 -0.6982 -0.0904
  993SOL     hw 3970   3.260   4.388   3.878 -0.3111 -0.9446 -0.0272
  993SOL     hw 3971   3.267   4.249   3.817 -0.5202 -0.5709 -0.9105
  993SOL     vw 3972   3.223   4.323   3.833 -0.5172 -0.7138 -0.1903
  994SOL     ow 3973   6.909   3.145   2.054  0.0225  0.4726 -0.0800
  994SOL     hw 3974   6.843   3.112   1.993  0.7580 -0.1348 -0.5682
  994SOL     hw 3975   6.991   3.139   2.005  0.2101  3.1824 -0.2633
  994SOL     vw 3976   6.911   3.140   2.039  0.1445  0.7501 -0.1686
  995SOL     ow 3977   0.269   2.714   3.326  0.1274 -0.1837  0.4092
  995SOL     hw 3978   0.321   2.634   3.333 -1.6755 -1.5372 -0.7422
  995SOL     hw 3979   0.191   2.696   3.379 -0.9079  0.2575 -0.8966
  995SOL     vw 3980   0.266   2.701   3.334 -0.2470 -0.3041  0.0851
  996SOL     ow 3981   6.858   3.620   6.928  0.1379  0.0207  0.5998
  996SOL     hw 3982   6.907   3.538   6.936 -0.3459 -0.2627  0.6745
  996SOL     hw 3983   6.766   3.595   6.938 -0.3162  0.0865 -2.5420
  996SOL     vw 3984   6.852   3.606   6.930  0.0143 -0.0080  0.1950
  997SOL     ow 3985   3.439   3.995   0.441  0.3801  0.1999  1.0864
  997SOL     hw 3986   3.380   3.979   0.514 -2.3162  2.7407 -0.3160
  997SOL     hw 3987   3.460   4.088   0.447  1.3774  0.1255 -0.4975
  997SOL     vw 3988   3.434   4.005   0.451  0.1559  0.5252  0.6924
  998SOL     ow 3989   1.197   6.175   1.591  0.1466  0.2326  0.0204
  998SOL     hw 3990   1.236   6.223   1.664  0.6985  0.2610 -0.2911
  998SOL     hw 3991   1.239   6.211   1.513  0.6536 -0.8359 -0.2131
  998SOL     vw 3992   1.207   6.186   1.590  0.2863  0.0951 -0.0516
  999SOL     ow 3993   3.047   1.407   3.719  0.0759 -0.1579  0.2833
  999SOL     hw 3994   3.079   1.328   3.675  1.5510 -0.7304  2.2490
  999SOL     hw 3995   3.094   1.409   3.802 -1.8803  1.3828  1.4527
  999SOL     vw 3996   3.057   1.397   3.724  0.0126 -0.0301  0.6969
 1000SOL     ow 3997   4.796   0.548   0.363 -0.6372  0.0131 -0.5835
 1000SOL     hw 3998   4.791   0.480   0.430 -1.3447  0.9418  0.3390
 1000SOL     hw 3999   4.840   0.506   0.289  0.4225 -0.9566  0.5547
 1000SOL     vw 4000   4.801   0.533   0.362 -0.5908  0.0077 -0.3116
 1001SOL     ow 4001   2.774   3.239   3.576  0.2217  0.7481  0.5760
 1001SOL     hw 4002   2.824   3.284   3.507  0.6297  0.2245  0.5152
 1001SOL     hw 4003   2.772   3.148   3.547  0.2862  0.5466  1.1935
 1001SOL     vw 4004   2.781   3.233   3.563  0.2840  0.6524  0.6495
 1002SOL     ow 4005   3.146   2.517   4.960 -0.0711 -0.1916  0.1743
 1002SOL     hw 4006   3.208   2.558   5.021  0.0864 -1.9482  1.2490
 1002SOL     hw 4007   3.174   2.425   4.956 -1.8972 -0.7600 -0.2471
 1002SOL     vw 4008   3.158   2.510   4.968 -0.2911 -0.4984  0.2606
 1003SOL     ow 4009   3.323   1.668   6.397  0.0678 -0.4447  0.1886
 1003SOL     hw 4010   3.357   1.592   6.443 -0.3871 -0.6976  0.1102
 1003SOL     hw 4011   3.384   1.682   6.325  0.5395 -0.3114  0.6084
 1003SOL     vw 4012   3.336   1.660   6.393  0.0700 -0.4605  0.2334
 1004SOL     ow 4013   0.251   2.463   3.440 -0.3452 -0.3199 -0.9195
 1004SOL     hw 4014   0.329   2.421   3.476 -0.2054  0.1481 -0.6616
 1004SOL     hw 4015   0.205   2.499   3.517 -0.6411 -0.3085 -1.1000
 1004SOL     vw 4016   0.255   2.463   3.455 -0.3658 -0.2567 -0.9092
 1005SOL     ow 4017   4.655   3.807   3.150  0.5176 -0.2620 -0.2583
 1005SOL     hw 4018   4.622   3.893   3.178  2.0438 -0.2773  1.8202
 1005SOL     hw 4019   4.577   3.754   3.139 -0.4453  1.2917 -1.3026
 1005SOL     vw 4020   4.641   3.812   3.152  0.5920 -0.0590 -0.1220
 1006SOL     ow 4021   5.050   6.271   1.982 -0.2776  0.0173  0.7684
 1006SOL     hw 4022   4.983   6.207   2.006  0.1923 -0.1354  1.7226
 1006SOL     hw 4023   5.125   6.250   2.037  0.7730 -0.1555 -0.6743
 1006SOL     vw 4024   5.051   6.260   1.993 -0.0768 -0.0255  0.7040
 1007SOL     ow 4025   3.668   3.101   5.557 -0.6332  0.5493  0.2843
 1007SOL     hw 4026   3.730   3.085   5.628 -2.4145  0.2179  1.8526
 1007SOL     hw 4027   3.582   3.082   5.595 -1.7459  1.2457 -1.7047
 1007SOL     vw 4028   3.665   3.096   5.571 -1.0151  0.5975  0.2291
 1008SOL     ow 4029   2.431   6.497   1.578  0.3157  0.0825  0.0255
 1008SOL     hw 4030   2.384   6.421   1.543  1.0974  0.3075 -1.6320
 1008SOL     hw 4031   2.363   6.557   1.607 -0.3898 -0.1914 -1.0058
 1008SOL     vw 4032   2.416   6.495   1.577  0.3258  0.0758 -0.3293
 1009SOL     ow 4033   2.791   2.062   2.054 -0.4535  0.3254  0.6084
 1009SOL     hw 4034   2.704   2.061   2.093  0.1341  3.5680  2.3254
 1009SOL     hw 4035   2.840   1.996   2.104 -2.1327 -2.5345 -1.2824
 1009SOL     vw 4036   2.786   2.053   2.066 -0.5975  0.3759  0.5854
 1010SOL     ow 4037   3.287   5.314   4.961  0.0454 -0.4780  0.2468
 1010SOL     hw 4038   3.361   5.255   4.978 -0.1995 -1.1489 -0.9258
 1010SOL     hw 4039   3.318   5.399   4.992  1.0643 -0.8797  0.3899
 1010SOL     vw 4040   3.301   5.318   4.967  0.1476 -0.6192  0.1109
 1011SOL     ow 4041   4.255   1.207   1.361  0.3925  0.0404  0.5379
 1011SOL     hw 4042   4.292   1.130   1.403  1.6972  1.1796  1.6047
 1011SOL     hw 4043   4.327   1.244   1.310  0.6928  2.0206  2.2467
 1011SOL     vw 4044   4.270   1.202   1.360  0.6044  0.4520  0.9040
 1012SOL     ow 4045   5.537   3.164   3.384 -0.6966  0.4351 -0.2515
 1012SOL     hw 4046   5.543   3.069   3.386  0.1590  0.4083 -1.8320
 1012SOL     hw 4047   5.628   3.194   3.390 -0.8135  1.0616 -1.2567
 1012SOL     vw 4048   5.550   3.155   3.385 -0.5987  0.5143 -0.5927
 1013SOL     ow 4049   4.364   5.761   0.901 -0.6001  0.3611  0.8165
 1013SOL     hw 4050   4.298   5.775   0.969 -1.7988  1.4240 -0.4992
 1013SOL     hw 4051   4.314   5.728   0.826  0.2703  1.6583 -0.3854
 1013SOL     vw 4052   4.348   5.758   0.900 -0.6437  0.6723  0.4843
 1014SOL     ow 4053   5.883   4.455   1.153  0.5213 -0.2246  0.2173
 1014SOL     hw 4054   5.872   4.550   1.159 -4.0118 -0.6189  1.7720
 1014SOL     hw 4055   5.907   4.428   1.241  0.9877 -0.6130 -0.0249
 1014SOL     vw 4056   5.885   4.464   1.165 -0.0155 -0.3281  0.3905
 1015SOL     ow 4057   1.514   6.456   5.525 -0.1499  0.1608 -0.2187
 1015SOL     hw 4058   1.544   6.533   5.475 -0.4034  1.3912  1.4365
 1015SOL     hw 4059   1.431   6.432   5.485 -1.6825  2.7595  1.1248
 1015SOL     vw 4060   1.507   6.463   5.513 -0.3856  0.6661  0.1771
 1016SOL     ow 4061   3.766   6.315   5.659 -0.6502 -0.0218  0.4138
 1016SOL     hw 4062   3.691   6.267   5.622  0.1425 -1.1425  0.2171
 1016SOL     hw 4063   3.771   6.394   5.606 -1.0181 -0.4723 -0.3179
 1016SOL     vw 4064   3.757   6.319   5.647 -0.5943 -0.2291  0.2913
 1017SOL     ow 4065   0.802   3.813   5.667  0.2870  0.4487  0.4072
 1017SOL     hw 4066   0.752   3.750   5.614  0.9750 -0.7481  1.1278
 1017SOL     hw 4067   0.893   3.787   5.653  0.6994  2.2607 -0.4686
 1017SOL     vw 4068   0.807   3.801   5.658  0.4322  0.5298  0.3870
 1018SOL     ow 4069   3.952   4.706   6.826  0.3283 -0.1553 -0.0293
 1018SOL     hw 4070   4.029   4.655   6.848  1.3647  1.3890  0.0778
 1018SOL     hw 4071   3.963   4.788   6.874 -1.3554  0.1382 -0.0646
 1018SOL     vw 4072   3.964   4.710   6.835  0.2429  0.0873 -0.0198
 1019SOL     ow 4073   6.743   0.895   2.836  0.1283 -0.0560 -0.1353
 1019SOL     hw 4074   6.648   0.910   2.832 -0.0972 -1.2756  0.2367
 1019SOL     hw 4075   6.760   0.828   2.771  0.9343  0.9498 -0.9947
 1019SOL     vw 4076   6.733   0.888   2.827  0.2048 -0.0842 -0.1997
 1020SOL     ow 4077   2.246   5.990   2.565  0.5046  0.2372 -0.0129
 1020SOL     hw 4078   2.274   5.925   2.501 -0.3652  0.4986 -0.6727
 1020SOL     hw 4079   2.150   5.983   2.567  0.5629 -1.5359  3.1134
 1020SOL     vw 4080   2.237   5.980   2.557  0.3976  0.0379  0.3126
 1021SOL     ow 4081   4.659   0.590   1.855  0.6598  0.2863 -0.4941
 1021SOL     hw 4082   4.736   0.538   1.878 -0.9103 -1.3710  1.4449
 1021SOL     hw 4083   4.685   0.680   1.875  1.3069 -0.4927  2.7252
 1021SOL     vw 4084   4.673   0.595   1.861  0.5381 -0.0352  0.1864
 1022SOL     ow 4085   5.318   0.925   5.780 -0.4348  0.5391 -0.1412
 1022SOL     hw 4086   5.329   0.960   5.868  0.9915 -1.4186  0.5131
 1022SOL     hw 4087   5.251   0.858   5.788  0.4655 -0.4061 -0.2828
 1022SOL     vw 4088   5.311   0.921   5.793 -0.1280  0.1561 -0.0737
 1023SOL     ow 4089   2.988   0.262   4.275  0.0226 -0.3206  0.2184
 1023SOL     hw 4090   2.952   0.219   4.198  1.8051  0.1137 -0.8954
 1023SOL     hw 4091   2.920   0.325   4.300 -0.4109 -0.1570 -1.2538
 1023SOL     vw 4092   2.974   0.264   4.268  0.2005 -0.2417 -0.1230
 1024SOL     ow 4093   3.916   5.603   3.757 -0.5268  0.3167 -0.3296
 1024SOL     hw 4094   3.835   5.654   3.762 -0.8800 -0.0053 -2.0174
 1024SOL     hw 4095   3.972   5.653   3.697  1.0382  1.1476  1.7167
 1024SOL     vw 4096   3.912   5.617   3.750 -0.3668  0.3839 -0.2823
 1025SOL     ow 4097   0.695   3.135   6.206 -0.0434  0.2143  0.4491
 1025SOL     hw 4098   0.698   3.051   6.162  0.7779  0.0796  0.7475
 1025SOL     hw 4099   0.753   3.192   6.156  1.0168  0.0166  1.4165
 1025SOL     vw 4100   0.703   3.132   6.194  0.2048  0.1704  0.6163
 1026SOL     ow 4101   4.404   4.155   2.104  0.0912  0.2930 -0.0621
 1026SOL     hw 4102   4.364   4.232   2.143 -1.9929 -0.1528 -1.1539
 1026SOL     hw 4103   4.366   4.081   2.152  1.2647 -0.1085  0.2805
 1026SOL     vw 4104   4.394   4.155   2.115 -0.0286  0.1814 -0.1609
 1027SOL     ow 4105   3.218   2.800   2.439 -0.0061 -0.4306  0.1194
 1027SOL     hw 4106   3.189   2.709   2.446 -0.0810 -0.4926 -0.8336
 1027SOL     hw 4107   3.164   2.848   2.502 -0.8495 -0.8481 -0.2681
 1027SOL     vw 4108   3.207   2.794   2.448 -0.1273 -0.4939 -0.0573
 1028SOL     ow 4109   1.168   3.742   1.055  0.0748  0.1015  0.5420
 1028SOL     hw 4110   1.220   3.778   0.984  1.0476 -1.1699  0.5854
 1028SOL     hw 4111   1.142   3.819   1.107 -2.2743  1.2919 -2.1512
 1028SOL     vw 4112   1.171   3.757   1.053 -0.1068  0.0907  0.1923
 1029SOL     ow 4113   0.825   6.010   1.985 -0.0056 -0.4381 -0.5640
 1029SOL     hw 4114   0.872   6.020   1.902 -0.8045 -0.3414 -1.0223
 1029SOL     hw 4115   0.819   5.915   1.997  0.5290 -0.4481 -0.3703
 1029SOL     vw 4116   0.830   5.998   1.976 -0.0405 -0.4268 -0.5989
 1030SOL     ow 4117   1.471   2.677   4.786  0.2391  0.2185  0.9389
 1030SOL     hw 4118   1.508   2.765   4.780  2.1094 -0.5977 -0.7560
 1030SOL     hw 4119   1.507   2.642   4.868  1.8177  0.1085  0.2474
 1030SOL     vw 4120   1.481   2.684   4.796  0.6942  0.0963  0.6239
 1031SOL     ow 4121   5.366   5.122   5.687  0.0219  0.3474  0.0166
 1031SOL     hw 4122   5.457   5.105   5.662 -0.1194  0.7317 -0.7829
 1031SOL     hw 4123   5.345   5.207   5.647 -0.6485  0.3154  0.2864
 1031SOL     vw 4124   5.375   5.131   5.678 -0.0854  0.3941 -0.0532
 1032SOL     ow 4125   5.624   6.334   0.228  0.5364  0.0388 -0.4864
 1032SOL     hw 4126   5.686   6.360   0.296  0.7473 -0.0546 -0.6415
 1032SOL     hw 4127   5.572   6.264   0.268  1.6309 -1.0429 -0.8971
 1032SOL     vw 4128   5.625   6.328   0.242  0.7086 -0.1159 -0.5610
 1033SOL     ow 4129   3.372   3.903   2.141 -0.1769  0.4734  0.4588
 1033SOL     hw 4130   3.368   3.967   2.212  1.7620 -0.4940  1.5120
 1033SOL     hw 4131   3.455   3.857   2.154 -0.8775 -1.3608 -1.0508
 1033SOL     vw 4132   3.382   3.906   2.152 -0.0136  0.1038  0.3985
 1034SOL     ow 4133   0.374   3.033   6.591 -0.0921 -0.1651 -0.1943
 1034SOL     hw 4134   0.346   3.019   6.682  1.5632 -0.8060  0.2670
 1034SOL     hw 4135   0.458   2.987   6.585  0.7257  1.3865 -1.5248
 1034SOL     vw 4136   0.382   3.025   6.602  0.2342 -0.0451 -0.3090
 1035SOL     ow 4137   5.944   5.037   6.010 -0.3884 -0.3830 -0.0792
 1035SOL     hw 4138   5.984   5.092   5.943 -2.0264 -0.1283 -0.8919
 1035SOL     hw 4139   5.882   5.094   6.055 -1.3476 -1.2744 -0.2294
 1035SOL     vw 4140   5.941   5.052   6.007 -0.7308 -0.4671 -0.2062
 1036SOL     ow 4141   5.096   1.326   6.596  0.2243  0.6665  0.3823
 1036SOL     hw 4142   5.101   1.397   6.533 -2.9550  0.4754 -0.2839
 1036SOL     hw 4143   5.027   1.353   6.657 -0.4026 -1.3928  0.6655
 1036SOL     vw 4144   5.087   1.339   6.596 -0.2780  0.3696  0.3316
 1037SOL     ow 4145   3.628   6.364   1.060 -0.1167  0.4510  0.0235
 1037SOL     hw 4146   3.537   6.335   1.055  0.4747 -1.9400  1.5426
 1037SOL     hw 4147   3.670   6.325   0.983 -0.2878  1.4196 -0.5875
 1037SOL     vw 4148   3.622   6.355   1.049 -0.0613  0.2632  0.1433
 1038SOL     ow 4149   3.318   4.455   4.116 -0.0197 -1.3204  0.2808
 1038SOL     hw 4150   3.248   4.506   4.077 -0.8890 -0.7490  2.4475
 1038SOL     hw 4151   3.380   4.440   4.044 -1.5065 -0.3692 -1.2666
 1038SOL     vw 4152   3.317   4.460   4.101 -0.3306 -1.1196  0.3626
 1039SOL     ow 4153   1.143   5.592   6.817  0.1727  0.9327 -0.5713
 1039SOL     hw 4154   1.104   5.507   6.835  0.6219  0.8238 -0.0893
 1039SOL     hw 4155   1.237   5.578   6.827  0.1587  1.9164  1.4363
 1039SOL     vw 4156   1.150   5.579   6.821  0.2301  1.0481 -0.2429
 1040SOL     ow 4157   3.657   4.379   6.088  0.4620  0.2180  0.8747
 1040SOL     hw 4158   3.749   4.406   6.099  0.1012  1.6711  0.5400
 1040SOL     hw 4159   3.618   4.393   6.175  0.3871  0.3511  0.8208
 1040SOL     vw 4160   3.664   4.385   6.101  0.4045  0.4275  0.8237
 1041SOL     ow 4161   2.732   0.326   0.038 -0.3975 -0.0435 -0.3288
 1041SOL     hw 4162   2.733   0.377   0.119  0.0531 -0.0425 -0.3317
 1041SOL     hw 4163   2.786   0.377  -0.023 -1.7532  0.6143 -1.0432
 1041SOL     vw 4164   2.739   0.340   0.041 -0.5170  0.0435 -0.4234
 1042SOL     ow 4165   5.777   2.356   2.451 -0.0164 -0.4906  0.0808
 1042SOL     hw 4166   5.745   2.354   2.361  1.7708 -0.2219 -0.6140
 1042SOL     hw 4167   5.854   2.413   2.448  0.1350 -0.5525  1.7645
 1042SOL     vw 4168   5.783   2.363   2.439  0.2391 -0.4632  0.2112
 1043SOL     ow 4169   6.750   1.111   1.355  0.0449  0.7932  0.2600
 1043SOL     hw 4170   6.701   1.170   1.413 -0.4931  2.2800 -1.5861
 1043SOL     hw 4171   6.683   1.059   1.312  0.5153 -1.3059  1.8663
 1043SOL     vw 4172   6.735   1.112   1.357  0.0362  0.7125  0.2283
 1044SOL     ow 4173   5.253   4.161   1.408  0.0951  0.5806  0.3069
 1044SOL     hw 4174   5.284   4.072   1.424 -0.4938  0.3243  0.0554
 1044SOL     hw 4175   5.168   4.149   1.366  0.7573  1.2480 -1.2602
 1044SOL     vw 4176   5.246   4.147   1.405  0.1047  0.6349  0.0670
 1045SOL     ow 4177   1.065   2.986   0.864  0.3577  0.3981  0.0934
 1045SOL     hw 4178   1.012   3.040   0.806 -0.2799 -1.1270 -0.7977
 1045SOL     hw 4179   1.070   3.036   0.946 -1.4784  1.1211 -0.1838
 1045SOL     vw 4180   1.059   3.000   0.867  0.0314  0.2923 -0.0607
 1046SOL     ow 4181   3.959   5.679   3.311 -0.6381 -0.1920 -0.2481
 1046SOL     hw 4182   3.902   5.755   3.296  0.5154  0.7495  0.0421
 1046SOL     hw 4183   4.019   5.707   3.379 -0.7129 -1.6731  0.4653
 1046SOL     vw 4184   3.959   5.693   3.318 -0.4958 -0.2632 -0.1155
 1047SOL     ow 4185   3.857   0.368   4.180 -0.2926 -0.4386  0.0060
 1047SOL     hw 4186   3.802   0.425   4.126  0.1638 -0.7039 -0.7574
 1047SOL     hw 4187   3.810   0.361   4.263 -0.1307  1.3987  0.2792
 1047SOL     vw 4188   3.843   0.374   4.184 -0.2109 -0.2312 -0.0587
 1048SOL     ow 4189   6.657   4.435   6.096  0.5580 -0.7266 -0.1855
 1048SOL     hw 4190   6.639   4.413   6.005  1.1179  0.1514 -0.5264
 1048SOL     hw 4191   6.656   4.531   6.098 -1.2299 -0.7275  1.1174
 1048SOL     vw 4192   6.655   4.445   6.084  0.3958 -0.6113 -0.0587
 1049SOL     ow 4193   0.815   3.306   6.015 -0.4647 -0.6078 -0.5020
 1049SOL     hw 4194   0.875   3.336   6.083 -1.2307  1.6715 -0.7531
 1049SOL     hw 4195   0.859   3.329   5.933 -1.1947  0.1034 -0.7023
 1049SOL     vw 4196   0.829   3.313   6.013 -0.6621 -0.2134 -0.5615
 1050SOL     ow 4197   6.723   4.089   4.164 -0.0858  0.0710  0.3472
 1050SOL     hw 4198   6.696   4.041   4.085 -3.1338  1.9152  0.0712
 1050SOL     hw 4199   6.704   4.030   4.236 -2.4570  0.1923 -0.0692
 1050SOL     vw 4200   6.717   4.075   4.163 -0.8006  0.3304  0.2558
 1051SOL     ow 4201   5.537   0.267   3.179 -0.0183  0.4883  0.1435
 1051SOL     hw 4202   5.621   0.309   3.163 -0.4088  0.6906 -1.5211
 1051SOL     hw 4203   5.512   0.297   3.266  1.9906 -0.2252  1.0388
 1051SOL     vw 4204   5.545   0.276   3.188  0.1953  0.4209  0.0420
 1052SOL     ow 4205   5.811   5.993   2.830 -0.2670 -0.0449  0.5845
 1052SOL     hw 4206   5.777   5.992   2.920 -0.8359 -0.0016  0.3748
 1052SOL     hw 4207   5.890   5.940   2.834 -0.6512 -0.6034  0.9748
 1052SOL     vw 4208   5.817   5.986   2.842 -0.3927 -0.1130  0.6083
 1053SOL     ow 4209   5.582   2.046   3.389 -0.2320 -0.6307 -0.6994
 1053SOL     hw 4210   5.543   1.966   3.423 -0.5834 -0.0058  0.4280
 1053SOL     hw 4211   5.671   2.046   3.422 -0.2350 -0.5595 -0.6908
 1053SOL     vw 4212   5.588   2.036   3.398 -0.2787 -0.5388 -0.5494
 1054SOL     ow 4213   2.644   1.252   1.025  0.2356 -0.2721  0.1981
 1054SOL     hw 4214   2.555   1.287   1.027  0.8935  1.6997 -1.1082
 1054SOL     hw 4215   2.695   1.312   1.080  0.8841 -0.9277  0.3290
 1054SOL     vw 4216   2.639   1.265   1.033  0.4081 -0.0983  0.0430
 1055SOL     ow 4217   5.657   5.449   1.561  0.3801 -0.1935 -0.1914
 1055SOL     hw 4218   5.715   5.407   1.497  0.5293 -1.0452  0.4968
 1055SOL     hw 4219   5.675   5.404   1.643  0.6964  1.3487  0.6187
 1055SOL     vw 4220   5.667   5.438   1.563  0.4416 -0.1025  0.0063
 1056SOL     ow 4221   0.252   4.779   5.448  0.0583  0.2087 -0.3762
 1056SOL     hw 4222   0.231   4.692   5.481  0.4356 -0.4319 -1.7553
 1056SOL     hw 4223   0.347   4.780   5.442  0.0006  0.3116 -1.4011
 1056SOL     vw 4224   0.262   4.767   5.452  0.1005  0.1378 -0.6933
 1057SOL     ow 4225   4.687   0.794   6.329  0.7445 -0.5670 -0.5765
 1057SOL     hw 4226   4.636   0.718   6.355  0.6778 -0.2747  0.1463
 1057SOL     hw 4227   4.640   0.869   6.365  1.2022 -0.2336 -0.6643
 1057SOL     vw 4228   4.674   0.794   6.337  0.7961 -0.4844 -0.4926
 1058SOL     ow 4229   2.656   2.710   4.147  0.2318 -0.1034  0.6814
 1058SOL     hw 4230   2.744   2.745   4.158  1.0590 -1.4010 -1.3086
 1058SOL     hw 4231   2.669   2.619   4.121 -1.6687 -0.1709 -0.2275
 1058SOL     vw 4232   2.669   2.703   4.145  0.0904 -0.2835  0.2990
 1059SOL     ow 4233   1.381   1.442   3.931 -0.1330 -0.7077 -0.4587
 1059SOL     hw 4234   1.323   1.513   3.957 -2.1840 -2.5319  0.2926
 1059SOL     hw 4235   1.398   1.458   3.838 -0.5550  0.7309 -0.3117
 1059SOL     vw 4236   1.376   1.453   3.922 -0.4593 -0.7586 -0.3402
 1060SOL     ow 4237   3.373   1.100   5.736 -0.2533  0.1857  0.5048
 1060SOL     hw 4238   3.452   1.144   5.704 -1.5553  1.3030 -1.3435
 1060SOL     hw 4239   3.356   1.031   5.671 -0.4122 -0.5242  1.2853
 1060SOL     vw 4240   3.381   1.096   5.723 -0.4461  0.2394  0.3641
 1061SOL     ow 4241   6.069   3.684   0.847 -0.4050 -0.1720 -0.0932
 1061SOL     hw 4242   6.017   3.717   0.773  0.9439 -0.2115 -1.1083
 1061SOL     hw 4243   6.010   3.688   0.922 -0.9278  2.7835 -0.5389
 1061SOL     vw 4244   6.054   3.689   0.847 -0.2964  0.2126 -0.2859
 1062SOL     ow 4245   2.521   4.667   1.783 -0.1919 -0.1456 -0.6654
 1062SOL     hw 4246   2.475   4.633   1.706 -0.1689  0.7389 -1.0839
 1062SOL     hw 4247   2.561   4.749   1.753  0.4277 -0.1544  0.0926
 1062SOL     vw 4248   2.520   4.673   1.769 -0.1072 -0.0300 -0.6205
 1063SOL     ow 4249   3.929   0.646   5.220 -0.1179  0.6586 -0.3268
 1063SOL     hw 4250   3.878   0.657   5.300  0.2571 -1.6061  0.3072
 1063SOL     hw 4251   4.012   0.607   5.250  1.4316  2.8235 -1.4792
 1063SOL     vw 4252   3.933   0.642   5.235  0.1360  0.6454 -0.3953
 1064SOL     ow 4253   1.249   5.537   2.923 -0.2550 -0.4042  0.1742
 1064SOL     hw 4254   1.306   5.612   2.939  1.0144 -1.5708  1.4501
 1064SOL     hw 4255   1.309   5.463   2.911 -1.4746 -1.4186  0.0314
 1064SOL     vw 4256   1.264   5.537   2.923 -0.2485 -0.6919  0.3237
 1065SOL     ow 4257   1.076   4.653   6.619 -0.0820  0.0613  0.3909
 1065SOL     hw 4258   1.160   4.646   6.574 -0.7469  0.0154 -0.8908
 1065SOL     hw 4259   1.067   4.746   6.639 -0.2081  0.2449 -0.4643
 1065SOL     vw 4260   1.086   4.664   6.615 -0.1863  0.0794  0.1090
 1066SOL     ow 4261   3.168   3.241   6.679  0.1470 -0.5319 -0.0353
 1066SOL     hw 4262   3.219   3.161   6.693  0.5112 -0.1423  0.9454
 1066SOL     hw 4263   3.079   3.217   6.704  0.3805 -0.4613  0.9050
 1066SOL     vw 4264   3.163   3.228   6.685  0.2260 -0.4712  0.2186
 1067SOL     ow 4265   0.668   2.671   2.468  0.3787 -0.5217 -0.1580
 1067SOL     hw 4266   0.695   2.703   2.554  1.1290  0.8986 -0.8861
 1067SOL     hw 4267   0.749   2.637   2.429  1.1762  3.0425 -2.0500
 1067SOL     vw 4268   0.682   2.671   2.474  0.5829  0.1360 -0.5038
 1068SOL     ow 4269   2.381   3.998   4.428 -0.0849  0.0521 -0.1048
 1068SOL     hw 4270   2.418   3.982   4.515 -1.9045  2.4129  1.2222
 1068SOL     hw 4271   2.411   3.924   4.375  0.9428 -1.5718  2.5459
 1068SOL     vw 4272   2.390   3.986   4.432 -0.1893  0.1495  0.4199
 1069SOL     ow 4273   5.025   6.029   2.393  0.1247 -0.1776 -0.4259
 1069SOL     hw 4274   4.979   6.000   2.314  0.0419 -1.2631  0.0002
 1069SOL     hw 4275   5.105   5.976   2.395 -0.1381 -0.5472  0.5017
 1069SOL     vw 4276   5.030   6.018   2.382  0.0789 -0.3695 -0.2474
 1070SOL     ow 4277   4.211   2.919   3.924 -0.3992  0.4476  0.1102
 1070SOL     hw 4278   4.254   2.910   4.009  1.1884  1.8718 -0.4755
 1070SOL     hw 4279   4.229   2.836   3.879 -0.3655  0.0913  0.7671
 1070SOL     vw 4280   4.219   2.907   3.929 -0.1850  0.5884  0.1196
 1071SOL     ow 4281   5.350   3.443   3.484 -0.3877  0.4808  0.2125
 1071SOL     hw 4282   5.350   3.527   3.530 -2.4731 -0.0467  1.3398
 1071SOL     hw 4283   5.310   3.462   3.399  3.8672  1.5454 -1.8001
 1071SOL     vw 4284   5.344   3.456   3.479 -0.1013  0.5517  0.0957
 1072SOL     ow 4285   2.966   3.530   4.181  0.1547 -0.3319 -0.7675
 1072SOL     hw 4286   2.893   3.473   4.206 -0.9038  1.5855  0.8043
 1072SOL     hw 4287   2.962   3.534   4.086 -2.5233  0.5014 -0.7149
 1072SOL     vw 4288   2.956   3.523   4.172 -0.3383  0.0310 -0.5531
 1073SOL     ow 4289   0.504   4.126   2.010 -0.5718  0.4216 -0.3953
 1073SOL     hw 4290   0.596   4.145   1.988 -0.5128  1.6667  0.7788
 1073SOL     hw 4291   0.466   4.095   1.928  1.7564 -3.8007 -0.1657
 1073SOL     vw 4292   0.511   4.124   1.996 -0.2568  0.0291 -0.2101
 1074SOL     ow 4293   2.547   2.499   3.363 -0.5184  0.1857  0.5426
 1074SOL     hw 4294   2.626   2.486   3.311 -1.3371  0.9382 -0.9267
 1074SOL     hw 4295   2.550   2.428   3.428  1.6334  0.5341  0.9124
 1074SOL     vw 4296   2.558   2.488   3.365 -0.3424  0.3309  0.3976
 1075SOL     ow 4297   0.647   5.778   5.407  0.1966 -0.0973  0.7723
 1075SOL     hw 4298   0.709   5.778   5.335  1.5509 -0.9921  1.8989
 1075SOL     hw 4299   0.693   5.821   5.479 -0.7299 -0.2005  1.4500
 1075SOL     vw 4300   0.661   5.784   5.407  0.2531 -0.2289  1.0102
 1076SOL     ow 4301   3.450   4.138   6.046 -1.1942  0.2969  0.0936
 1076SOL     hw 4302   3.431   4.131   6.140 -1.1419 -1.9566 -0.0130
 1076SOL     hw 4303   3.415   4.057   6.008  1.4285 -0.2565 -1.3545
 1076SOL     vw 4304   3.443   4.126   6.053 -0.8411 -0.0732 -0.1116
 1077SOL     ow 4305   6.901   0.718   5.635 -0.2263 -0.1933  0.4135
 1077SOL     hw 4306   6.856   0.737   5.553 -0.8766 -0.2102  0.7670
 1077SOL     hw 4307   6.858   0.774   5.700 -0.1905 -0.7065  0.8839
 1077SOL     vw 4308   6.890   0.728   5.633 -0.3076 -0.2632  0.5221
 1078SOL     ow 4309   5.918   4.016   5.029 -0.6257  0.2919 -0.2737
 1078SOL     hw 4310   5.923   4.094   5.084 -0.8557 -0.4752  0.8581
 1078SOL     hw 4311   5.863   4.043   4.955  0.6221  1.6695 -0.7313
 1078SOL     vw 4312   5.911   4.030   5.026 -0.4914  0.3726 -0.1848
 1079SOL     ow 4313   6.509   6.393   0.260  0.0591  0.4850  0.8720
 1079SOL     hw 4314   6.584   6.384   0.201 -1.2467  1.2852 -1.0160
 1079SOL     hw 4315   6.545   6.380   0.348  2.3933  0.8472  0.0282
 1079SOL     vw 4316   6.524   6.390   0.264  0.1948  0.6382  0.5116
 1080SOL     ow 4317   6.581   2.066   5.558 -0.6265 -0.6149  0.3459
 1080SOL     hw 4318   6.522   2.142   5.560  1.0643  0.7979 -0.7065
 1080SOL     hw 4319   6.640   2.080   5.632  0.9715  0.2472 -1.0240
 1080SOL     vw 4320   6.581   2.078   5.568 -0.1924 -0.3147  0.0260
 1081poe    c31 4321   1.890   0.946   5.672 -0.0696 -0.6440  0.2464
 1081poe     o2 4322   1.931   0.914   5.541 -0.1569 -0.1369  0.0910
 1081poe    c23 4323   1.818   0.894   5.458 -0.0635 -0.2909  0.0014
 1081poe    c23 4324   1.865   0.900   5.311  0.3240 -0.0815  0.1321
 1081poe     o2 4325   1.889   1.029   5.260  0.2243 -0.0131  0.2561
 1081poe    c23 4326   1.882   1.038   5.120  0.3050 -0.0889  0.2467
 1081poe    c23 4327   1.909   1.182   5.071 -0.3878  0.0565  0.2733
 1081poe     o2 4328   2.026   1.231   5.134 -0.3369  0.5039 -0.1669
 1081poe    c23 4329   2.073   1.353   5.082 -0.3002  0.7540  0.4529
 1081poe    c23 4330   2.215   1.368   5.140 -0.0927 -0.3004  0.2415
 1081poe     o2 4331   2.220   1.369   5.281  0.2904  0.3335  0.2290
 1081poe    c31 4332   2.338   1.433   5.325  0.4998  0.3115 -0.2915
 1082poe    c31 4333   4.688   5.395   1.654  0.3950  0.5828  0.8496
 1082poe     o2 4334   4.701   5.488   1.549 -0.1405  0.5435  0.7460
 1082poe    c23 4335   4.616   5.462   1.440  0.4535 -0.1724  0.4470
 1082poe    c23 4336   4.601   5.587   1.351 -0.3110 -0.2041  0.5214
 1082poe     o2 4337   4.540   5.692   1.422  0.0912  0.2172  0.2559
 1082poe    c23 4338   4.449   5.762   1.341 -0.3835 -0.1042  0.5025
 1082poe    c23 4339   4.307   5.736   1.394 -0.4724  0.0890  0.3588
 1082poe     o2 4340   4.285   5.778   1.527  0.0590  0.4393  0.3369
 1082poe    c23 4341   4.156   5.743   1.569  0.1455  0.2079  0.4101
 1082poe    c23 4342   4.124   5.800   1.709  0.3042  0.1377  0.4751
 1082poe     o2 4343   4.210   5.737   1.800 -0.3090 -0.9958  0.2849
 1082poe    c31 4344   4.166   5.761   1.931 -0.5240  0.5444 -0.0604
 1083poe    c31 4345   2.354   0.625   0.875  1.0730 -1.0222 -0.0507
 1083poe     o2 4346   2.292   0.513   0.935 -0.7620  0.0081  0.0685
 1083poe    c23 4347   2.376   0.418   0.997 -0.0535  0.3336 -0.3677
 1083poe    c23 4348   2.298   0.289   1.031  0.0406  0.3891  0.0650
 1083poe     o2 4349   2.175   0.338   1.080  0.1692  0.3595  0.4211
 1083poe    c23 4350   2.079   0.243   1.120  0.2919  0.0960  0.0916
 1083poe    c23 4351   1.961   0.307   1.195  0.6119  0.4686  0.2818
 1083poe     o2 4352   1.910   0.408   1.111  0.3383  0.0060 -0.1133
 1083poe    c23 4353   1.779   0.445   1.148  0.1288 -0.3460 -0.4867
 1083poe    c23 4354   1.728   0.578   1.089 -0.2754  0.1470  0.9254
 1083poe     o2 4355   1.801   0.693   1.128 -0.2820  0.4198  0.1576
 1083poe    c31 4356   1.733   0.808   1.083 -0.2937  0.7690  1.0438
 1084poe    c31 4357   6.666   0.712   0.435 -0.0696  0.2113 -0.1509
 1084poe     o2 4358   6.645   0.598   0.355  0.1182 -0.0533  0.1715
 1084poe    c23 4359   6.582   0.490   0.421  0.6064 -0.1574  0.4796
 1084poe    c23 4360   6.597   0.353   0.352  0.4359  0.1255 -0.1361
 1084poe     o2 4361   6.549   0.352   0.220  0.2197 -0.2996 -0.0543
 1084poe    c23 4362   6.575   0.230   0.154  0.5518 -0.1587 -0.1837
 1084poe    c23 4363   6.559   0.253   0.003  0.4622  0.1583 -0.1270
 1084poe     o2 4364   6.657   0.349  -0.029  0.1180  0.5669  0.0442
 1084poe    c23 4365   6.671   0.354  -0.169  0.4528  0.0356  0.0585
 1084poe    c23 4366   6.770   0.463  -0.213 -0.0979  0.4329 -0.2075
 1084poe     o2 4367   6.750   0.574  -0.128  0.3406  0.1534  0.2752
 1084poe    c31 4368   6.803   0.692  -0.184  0.5403 -0.2268 -0.3541
 1085poe    c31 4369   5.379   4.233   2.311  0.8749  0.2786 -0.2143
 1085poe     o2 4370   5.351   4.096   2.328  0.3899  0.4114  0.0777
 1085poe    c23 4371   5.269   4.059   2.220  0.6363  0.4729 -0.1301
 1085poe    c23 4372   5.255   3.906   2.208  0.0715  0.5331 -0.2805
 1085poe     o2 4373   5.372   3.845   2.258 -0.3335 -0.0839 -0.0678
 1085poe    c23 4374   5.369   3.705   2.246  1.1445 -0.0665 -0.9586
 1085poe    c23 4375   5.464   3.648   2.353 -0.3363 -0.1363  0.3578
 1085poe     o2 4376   5.565   3.742   2.381 -0.2222 -0.2183  0.2200
 1085poe    c23 4377   5.697   3.693   2.380 -0.1430  0.0005 -0.3486
 1085poe    c23 4378   5.785   3.767   2.483 -0.1798 -0.0132 -0.3074
 1085poe     o2 4379   5.788   3.906   2.457 -0.0445  0.0606  0.1076
 1085poe    c31 4380   5.903   3.969   2.511  0.5288 -0.9288  0.0659
 1086poe    c31 4381   5.692   5.774   1.002  0.0846 -0.0918  0.1291
 1086poe     o2 4382   5.740   5.779   0.869 -0.2127 -0.0786  0.0196
 1086poe    c23 4383   5.845   5.689   0.841  0.2197  0.5030 -0.2481
 1086poe    c23 4384   5.894   5.711   0.697  0.0799  0.4026 -0.3108
 1086poe     o2 4385   5.986   5.818   0.694  0.1075  0.3822 -0.1591
 1086poe    c23 4386   6.051   5.846   0.572  0.4193 -0.0558 -0.0943
 1086poe    c23 4387   6.147   5.963   0.602  0.3156 -0.1018  0.4314
 1086poe     o2 4388   6.075   6.061   0.674  0.0933  0.3085 -0.3397
 1086poe    c23 4389   6.156   6.174   0.698  0.2945  0.1064 -0.0533
 1086poe    c23 4390   6.098   6.279   0.795 -0.3941  0.0883 -0.4382
 1086poe     o2 4391   6.068   6.219   0.919  0.5237  0.3157 -0.0992
 1086poe    c31 4392   5.984   6.300   0.997 -0.1433 -0.7329  0.2888
 1087poe    c31 4393   5.103   5.950   5.289  0.4470 -0.3076 -0.4363
 1087poe     o2 4394   5.017   6.046   5.233  0.1559 -0.1065  0.3391
 1087poe    c23 4395   4.886   5.995   5.223  0.0707  0.0230  0.7749
 1087poe    c23 4396   4.814   6.088   5.123  0.1432 -0.1508  0.5615
 1087poe     o2 4397   4.844   6.221   5.158  0.0372  0.0676 -0.1444
 1087poe    c23 4398   4.774   6.318   5.082 -0.0015  0.2325  0.0989
 1087poe    c23 4399   4.843   6.454   5.103  0.2362  0.0739  0.3580
 1087poe     o2 4400   4.983   6.433   5.107  0.2739  0.1126 -0.5120
 1087poe    c23 4401   5.061   6.547   5.133 -0.1676  0.3473 -0.1940
 1087poe    c23 4402   5.039   6.619   5.268  0.2799 -0.1955  0.1753
 1087poe     o2 4403   5.103   6.559   5.379  0.3817 -0.2451  0.0908
 1087poe    c31 4404   5.082   6.642   5.491  0.1441 -0.5368  0.2617
 1088poe    c31 4405   5.090   3.842   4.543 -0.1392 -0.0714 -0.5150
 1088poe     o2 4406   5.087   3.980   4.573 -0.2522 -0.1899  0.0373
 1088poe    c23 4407   5.192   4.015   4.660 -0.7452 -0.3938  0.7223
 1088poe    c23 4408   5.168   4.156   4.716  0.5059  0.2589 -0.3283
 1088poe     o2 4409   5.114   4.240   4.617 -0.1429 -0.0308 -0.2249
 1088poe    c23 4410   5.100   4.372   4.664  0.1634  0.0234 -0.2843
 1088poe    c23 4411   5.124   4.467   4.545  0.6303  0.5543  0.2288
 1088poe     o2 4412   5.259   4.440   4.514  0.6215  0.6755  0.0862
 1088poe    c23 4413   5.282   4.501   4.389  0.4108  1.2430  0.3198
 1088poe    c23 4414   5.405   4.423   4.338 -0.4982 -0.2680  0.3941
 1088poe     o2 4415   5.384   4.284   4.341 -0.6118 -0.2616 -0.0012
 1088poe    c31 4416   5.498   4.203   4.322 -0.2501  0.2235  0.0987
 1089poe    c31 4417   2.099   5.285   3.973 -0.1137  0.5974  0.3540
 1089poe     o2 4418   2.237   5.281   4.000 -0.0648  0.3419  0.0769
 1089poe    c23 4419   2.235   5.322   4.135 -0.0897 -0.7050  0.4032
 1089poe    c23 4420   2.365   5.305   4.216  0.1098 -0.1220  0.2092
 1089poe     o2 4421   2.414   5.175   4.240  0.0367 -0.2076 -0.1013
 1089poe    c23 4422   2.523   5.196   4.328 -0.3588  0.3462  0.2622
 1089poe    c23 4423   2.549   5.061   4.397  0.2227  0.2712 -0.0970
 1089poe     o2 4424   2.571   4.963   4.298 -0.3568 -0.2285  0.2612
 1089poe    c23 4425   2.571   4.831   4.349  0.1826 -0.1594  0.4535
 1089poe    c23 4426   2.548   4.750   4.220  0.7250  0.8974 -0.3212
 1089poe     o2 4427   2.442   4.806   4.147  0.0790  0.0667 -0.0347
 1089poe    c31 4428   2.438   4.751   4.017  0.2015 -0.3860  0.1506
 1090poe    c31 4429   3.015   1.444   6.617 -0.6210  0.0424 -0.1839
 1090poe     o2 4430   2.921   1.441   6.721 -0.1510 -0.1931  0.2361
 1090poe    c23 4431   2.930   1.325   6.801 -0.2033 -0.4546 -0.1352
 1090poe    c23 4432   2.804   1.311   6.889  0.4188 -0.4383  0.7718
 1090poe     o2 4433   2.814   1.388   7.007 -0.1957  0.3134  0.3394
 1090poe    c23 4434   2.691   1.384   7.077 -0.2476 -0.2816  0.2152
 1090poe    c23 4435   2.701   1.438   7.220 -0.7474  0.6198 -0.0870
 1090poe     o2 4436   2.798   1.540   7.223  0.1620 -0.2364 -0.0694
 1090poe    c23 4437   2.810   1.606   7.347 -0.2047 -0.3881  0.0477
 1090poe    c23 4438   2.914   1.558   7.450 -0.4451  0.0817  0.5119
 1090poe     o2 4439   2.895   1.432   7.509 -0.1875 -0.2435 -0.0939
 1090poe    c31 4440   2.981   1.333   7.456  0.6167  0.1493  0.4514
 1091poe    c31 4441   0.212   2.179   6.765 -0.0200 -0.0421  0.7633
 1091poe     o2 4442   0.094   2.255   6.748  0.3166  0.2439 -0.3689
 1091poe    c23 4443  -0.001   2.175   6.682 -0.1369  0.0302  0.5298
 1091poe    c23 4444  -0.147   2.222   6.693 -0.1286  0.1625  0.1174
 1091poe     o2 4445  -0.186   2.350   6.647  0.5735  0.3346 -0.0061
 1091poe    c23 4446  -0.229   2.356   6.513 -0.0339 -0.1533  0.1603
 1091poe    c23 4447  -0.291   2.494   6.484 -0.5625 -0.4223 -0.0017
 1091poe     o2 4448  -0.199   2.599   6.503 -0.7132 -0.3550  0.3687
 1091poe    c23 4449  -0.262   2.725   6.516  0.2455  0.1405  0.2752
 1091poe    c23 4450  -0.164   2.843   6.528 -0.2099  0.5570 -0.0645
 1091poe     o2 4451  -0.058   2.836   6.435 -0.5122  0.4016 -0.3976
 1091poe    c31 4452   0.021   2.952   6.450  0.1612 -0.1135  0.0830
 1092poe    c31 4453   4.970   3.875   0.465  0.2098 -0.0083  0.1029
 1092poe     o2 4454   5.021   3.901   0.594  0.1745 -0.3449  0.1861
 1092poe    c23 4455   5.000   3.791   0.679  0.3077 -0.4159  0.1286
 1092poe    c23 4456   5.117   3.802   0.778  0.4819 -0.0567 -0.1171
 1092poe     o2 4457   5.123   3.936   0.820 -0.3049 -0.2313  0.5803
 1092poe    c23 4458   5.212   3.961   0.926 -0.2272  0.3965  0.3715
 1092poe    c23 4459   5.216   4.105   0.981 -0.9649  0.6753 -0.2774
 1092poe     o2 4460   5.206   4.192   0.871 -0.3975  0.2901 -0.6394
 1092poe    c23 4461   5.180   4.321   0.922 -0.3656 -0.0003  0.1326
 1092poe    c23 4462   5.169   4.421   0.805  0.0257 -0.0646  0.0395
 1092poe     o2 4463   5.073   4.384   0.709  0.5301 -0.1618 -0.4322
 1092poe    c31 4464   5.090   4.471   0.600  0.7445  0.4597  0.0920
 1093poe    c31 4465   3.793   4.518   0.146 -0.2199 -0.1972 -0.1329
 1093poe     o2 4466   3.718   4.514   0.026 -0.5607  0.0578  0.0707
 1093poe    c23 4467   3.646   4.635   0.020 -0.2502  0.2336 -0.1196
 1093poe    c23 4468   3.575   4.655  -0.115 -0.1808 -0.0182 -0.1939
 1093poe     o2 4469   3.666   4.654  -0.223 -0.3146  0.5399 -0.3150
 1093poe    c23 4470   3.622   4.687  -0.353 -0.0892 -0.1609 -0.5752
 1093poe    c23 4471   3.747   4.709  -0.440  0.3756  0.6300  0.2696
 1093poe     o2 4472   3.847   4.612  -0.424  0.3660  0.6928  0.7111
 1093poe    c23 4473   3.956   4.624  -0.513  0.0489  0.6402  0.3165
 1093poe    c23 4474   4.036   4.495  -0.531 -0.3127  0.4307  0.1978
 1093poe     o2 4475   4.098   4.444  -0.415  0.0347 -0.0332 -0.1875
 1093poe    c31 4476   4.171   4.324  -0.432 -0.2693 -0.3062  0.4119
 1094poe    c31 4477   5.840   2.417   6.370 -0.0339 -0.6107 -0.1033
 1094poe     o2 4478   5.945   2.430   6.277 -0.2703 -0.3885 -0.3415
 1094poe    c23 4479   6.035   2.536   6.304 -0.3717 -0.4056  0.0816
 1094poe    c23 4480   6.139   2.552   6.192 -0.1788  0.2374  0.3503
 1094poe     o2 4481   6.068   2.525   6.073  0.4499 -0.0595  0.0384
 1094poe    c23 4482   6.150   2.541   5.959  0.2775  0.7262  0.0208
 1094poe    c23 4483   6.080   2.480   5.836 -0.4443  0.6767  0.4499
 1094poe     o2 4484   6.025   2.355   5.871  0.6715  0.0849  0.1423
 1094poe    c23 4485   6.119   2.250   5.868  0.8826  0.2679  0.3582
 1094poe    c23 4486   6.065   2.159   5.980  0.5196  0.2903  0.2028
 1094poe     o2 4487   6.061   2.238   6.097 -0.4096  0.0451  0.3446
 1094poe    c31 4488   6.076   2.140   6.198 -0.2435  0.0492  0.3248
 1095poe    c31 4489   5.340   0.297   5.473 -0.3294 -0.4333 -0.1974
 1095poe     o2 4490   5.428   0.339   5.574 -0.5327  0.0996 -0.2389
 1095poe    c23 4491   5.375   0.346   5.705  0.3924 -0.1733  0.1596
 1095poe    c23 4492   5.476   0.309   5.815  0.1569 -0.6453  0.2201
 1095poe     o2 4493   5.574   0.408   5.839  0.0446 -0.1839 -1.1465
 1095poe    c23 4494   5.673   0.370   5.932 -0.5762  0.3931 -0.2322
 1095poe    c23 4495   5.776   0.484   5.941 -0.1696 -0.0234  0.5681
 1095poe     o2 4496   5.820   0.499   5.808 -0.1812 -0.7631  0.4792
 1095poe    c23 4497   5.944   0.566   5.805 -0.6874  0.1675 -0.2369
 1095poe    c23 4498   6.001   0.545   5.663  0.1990  0.5376  0.0578
 1095poe     o2 4499   5.899   0.563   5.568 -0.1313  0.2115  0.3481
 1095poe    c31 4500   5.975   0.599   5.455 -0.1268 -0.4364  0.1422
 1096poe    c31 4501   3.700   6.100   5.975  0.5007 -0.1918 -0.3056
 1096poe     o2 4502   3.795   6.202   5.952 -0.1573  0.4609 -0.1659
 1096poe    c23 4503   3.848   6.258   6.070  0.5884 -0.5361 -0.0082
 1096poe    c23 4504   3.940   6.373   6.023  0.2085 -0.1330  0.2240
 1096poe     o2 4505   3.994   6.323   5.903  0.1518  0.7383 -0.1693
 1096poe    c23 4506   4.106   6.396   5.858  0.2602  0.7533  0.1254
 1096poe    c23 4507   4.171   6.322   5.739 -0.5699 -0.0584  0.1634
 1096poe     o2 4508   4.073   6.283   5.646 -0.0823  0.2820 -0.5015
 1096poe    c23 4509   4.127   6.267   5.516 -0.2779 -0.5153 -0.4938
 1096poe    c23 4510   4.027   6.218   5.410 -0.4251 -0.1184 -0.5434
 1096poe     o2 4511   3.965   6.107   5.472 -0.1504  0.2171  0.3449
 1096poe    c31 4512   3.853   6.061   5.401 -0.1133  0.1724  0.3154
 1097poe    c31 4513   5.777   2.292   1.718 -0.1132  0.4097  0.3829
 1097poe     o2 4514   5.816   2.226   1.836 -0.0489 -0.2475  0.0022
 1097poe    c23 4515   5.848   2.316   1.941  0.2673  0.2108 -0.4814
 1097poe    c23 4516   5.982   2.276   2.005 -0.0103  0.3845  0.2084
 1097poe     o2 4517   5.944   2.190   2.110 -0.2865 -0.4136 -0.5328
 1097poe    c23 4518   6.054   2.167   2.196 -0.6062 -0.2125 -0.0630
 1097poe    c23 4519   6.016   2.044   2.280 -0.2453 -0.1344  0.2152
 1097poe     o2 4520   6.014   1.932   2.195  0.6769 -0.0769  0.1083
 1097poe    c23 4521   5.917   1.843   2.246  0.0167  0.0345 -0.9428
 1097poe    c23 4522   5.926   1.707   2.173  0.6783 -0.2534 -0.3335
 1097poe     o2 4523   5.926   1.727   2.034  0.0279  0.2841 -0.2628
 1097poe    c31 4524   5.941   1.607   1.960 -0.3125 -0.2741  0.5535
 1098poe    c31 4525   6.094   5.171   4.399  0.2011  0.1295 -0.2034
 1098poe     o2 4526   6.038   5.276   4.324 -0.1716  0.1876  0.1514
 1098poe    c23 4527   5.903   5.289   4.360 -0.1234 -0.2508  0.4900
 1098poe    c23 4528   5.842   5.389   4.261  0.1526 -0.2763  0.2952
 1098poe     o2 4529   5.947   5.480   4.237  0.0092 -0.0698  0.4516
 1098poe    c23 4530   5.914   5.588   4.152  0.1630 -0.4607 -0.1119
 1098poe    c23 4531   5.940   5.571   4.002  0.2179 -0.4542 -0.1029
 1098poe     o2 4532   6.079   5.575   3.984  0.2074  0.4155 -0.0154
 1098poe    c23 4533   6.106   5.524   3.855 -0.1982  0.2603 -0.0389
 1098poe    c23 4534   6.253   5.529   3.811 -0.1057  0.2255  0.2652
 1098poe     o2 4535   6.331   5.464   3.910 -0.1878 -0.1317  0.0965
 1098poe    c31 4536   6.470   5.476   3.889 -0.1642  0.2601  0.4682
 1099poe    c31 4537   1.725   1.430   2.061 -0.2976 -0.0202 -0.2083
 1099poe     o2 4538   1.661   1.351   2.159  0.1588  0.1049  0.1913
 1099poe    c23 4539   1.539   1.417   2.183  0.3508  0.2774  0.6918
 1099poe    c23 4540   1.459   1.327   2.279  0.0297 -0.2145 -0.0322
 1099poe     o2 4541   1.438   1.203   2.216 -0.1409 -0.1809 -0.0420
 1099poe    c23 4542   1.376   1.117   2.309 -0.6306  0.4816  0.2523
 1099poe    c23 4543   1.323   0.999   2.225  0.1026  0.2074  0.1683
 1099poe     o2 4544   1.410   0.973   2.117 -0.2888 -0.0208 -0.0939
 1099poe    c23 4545   1.397   0.839   2.074  0.2469 -0.2285  0.3705
 1099poe    c23 4546   1.503   0.813   1.965  0.2910  0.2113  0.3079
 1099poe     o2 4547   1.479   0.906   1.861 -0.3043 -0.2100  0.0625
 1099poe    c31 4548   1.526   0.879   1.731 -0.1402 -0.3895  0.1586
 1100poe    c31 4549   5.145   1.808   0.877 -0.4534 -0.2870 -0.0625
 1100poe     o2 4550   5.262   1.864   0.930 -0.7226  0.0878  0.1413
 1100poe    c23 4551   5.316   1.768   1.017  0.2346 -0.0577 -0.5966
 1100poe    c23 4552   5.383   1.847   1.131  0.1692 -0.2281 -0.4394
 1100poe     o2 4553   5.445   1.955   1.065  0.2306 -0.0399 -0.0774
 1100poe    c23 4554   5.497   2.060   1.143 -0.3536  0.1619  0.0414
 1100poe    c23 4555   5.612   2.116   1.057 -0.5121  0.5582  0.0852
 1100poe     o2 4556   5.550   2.126   0.931 -0.6300 -0.0871  0.0903
 1100poe    c23 4557   5.528   2.262   0.902 -0.2963  0.1478  0.9300
 1100poe    c23 4558   5.435   2.260   0.780  0.1738  0.0321  0.5726
 1100poe     o2 4559   5.343   2.157   0.809  0.0043  0.1424  0.4325
 1100poe    c31 4560   5.235   2.167   0.719  0.2498 -0.4988  0.0622
 1101poe    c31 4561   5.672   3.570   4.209  0.1376 -0.1247  0.2848
 1101poe     o2 4562   5.795   3.501   4.202  0.2687  0.1583 -0.2565
 1101poe    c23 4563   5.899   3.595   4.215  0.1086  0.2457  0.4439
 1101poe    c23 4564   6.042   3.542   4.190 -0.0554  0.0336 -0.0483
 1101poe     o2 4565   6.053   3.477   4.065 -0.2422  0.3543 -0.2340
 1101poe    c23 4566   6.177   3.410   4.061 -0.6755 -0.4722 -0.0236
 1101poe    c23 4567   6.168   3.316   3.939 -0.0946 -1.0389  0.3628
 1101poe     o2 4568   6.031   3.303   3.910 -0.1588 -0.0651  0.2057
 1101poe    c23 4569   6.026   3.200   3.814  0.4175 -0.2140  0.3378
 1101poe    c23 4570   5.949   3.072   3.850 -0.5799  0.2993  0.0435
 1101poe     o2 4571   5.811   3.099   3.859 -0.6708 -0.0021 -0.3994
 1101poe    c31 4572   5.735   2.980   3.858 -0.3508 -0.2076 -0.2960
 1102poe    c31 4573   6.378   1.510   5.073  0.3213  0.1204  0.4773
 1102poe     o2 4574   6.251   1.473   5.123 -0.2222  0.7401 -0.4018
 1102poe    c23 4575   6.180   1.588   5.162 -0.0522  0.8476 -0.4105
 1102poe    c23 4576   6.049   1.547   5.231  0.4841 -0.4617 -0.1392
 1102poe     o2 4577   5.981   1.457   5.148 -0.1822 -0.2225  0.1406
 1102poe    c23 4578   5.855   1.426   5.203 -0.1959 -0.3047  0.0633
 1102poe    c23 4579   5.781   1.318   5.122  0.4538 -0.3904 -0.4245
 1102poe     o2 4580   5.874   1.217   5.091  0.8202  0.0877 -0.8803
 1102poe    c23 4581   5.826   1.102   5.025  0.2625 -0.2761  0.1348
 1102poe    c23 4582   5.924   0.992   4.983  0.6608 -0.0744  0.5354
 1102poe     o2 4583   5.996   1.041   4.872  0.0276 -0.2463  0.0474
 1102poe    c31 4584   6.112   0.964   4.855  0.1137 -0.2291  0.5332
 1103poe    c31 4585   3.824   6.341   3.453 -0.0905 -0.1537 -0.9651
 1103poe     o2 4586   3.954   6.385   3.424  0.1511 -0.4663 -0.3605
 1103poe    c23 4587   4.051   6.305   3.489 -0.1966 -0.8033 -0.2507
 1103poe    c23 4588   4.177   6.329   3.404 -0.2539 -0.1708 -0.1666
 1103poe     o2 4589   4.178   6.466   3.372  0.0568 -0.1015  0.1358
 1103poe    c23 4590   4.297   6.511   3.311  0.1082  0.1567  0.4236
 1103poe    c23 4591   4.275   6.646   3.242 -0.6097 -0.1496  0.0444
 1103poe     o2 4592   4.199   6.622   3.126 -0.1737 -0.0614 -0.2619
 1103poe    c23 4593   4.194   6.722   3.026 -0.1553  0.2324  0.0279
 1103poe    c23 4594   4.172   6.659   2.887 -0.1230  0.2248  0.0259
 1103poe     o2 4595   4.038   6.615   2.878  0.1316 -0.5768  0.1324
 1103poe    c31 4596   4.013   6.550   2.755 -0.2201 -0.2024  0.0053
 1104poe    c31 4597   4.022   4.356   4.200  0.1604 -0.5600  0.0596
 1104poe     o2 4598   4.099   4.438   4.115  0.1801 -0.4631  0.1710
 1104poe    c23 4599   4.015   4.489   4.014  0.2834 -0.2262  0.2043
 1104poe    c23 4600   4.087   4.591   3.924  0.0416 -0.3696 -0.1509
 1104poe     o2 4601   4.189   4.516   3.862  0.6254  0.1010  0.2359
 1104poe    c23 4602   4.293   4.604   3.826  0.1679  0.3905 -0.3783
 1104poe    c23 4603   4.402   4.522   3.754  0.1249  0.0903 -0.1047
 1104poe     o2 4604   4.411   4.404   3.831  0.0514  0.2578  0.1623
 1104poe    c23 4605   4.486   4.301   3.772 -0.8331 -0.4917  0.3184
 1104poe    c23 4606   4.468   4.154   3.815  0.2518 -1.0052 -0.9132
 1104poe     o2 4607   4.344   4.101   3.774 -0.4664 -0.1368  0.0838
 1104poe    c31 4608   4.350   3.962   3.800  0.1524 -0.0640  0.3725
 1105poe    c31 4609   4.947   3.329   3.735 -0.0870  0.2612  0.9431
 1105poe     o2 4610   5.043   3.418   3.788  0.4624  0.3145 -0.1171
 1105poe    c23 4611   5.116   3.368   3.899  0.2474  0.6242  0.1651
 1105poe    c23 4612   5.219   3.467   3.957  0.0106  0.8269  0.2416
 1105poe     o2 4613   5.165   3.592   3.992 -0.4555  0.5256  0.6062
 1105poe    c23 4614   5.272   3.684   3.987  0.3770 -0.4710 -0.2217
 1105poe    c23 4615   5.212   3.822   3.958  0.8316 -0.2336 -0.0384
 1105poe     o2 4616   5.094   3.845   4.031  0.6761  0.2449 -0.4301
 1105poe    c23 4617   5.038   3.969   3.994 -0.5229 -0.2452 -0.3273
 1105poe    c23 4618   4.904   3.992   4.065 -0.1624  0.1799  0.2199
 1105poe     o2 4619   4.821   3.886   4.023  0.3204 -0.0950 -0.0466
 1105poe    c31 4620   4.690   3.923   4.058  0.1733 -0.6873  0.0265
 1106poe    c31 4621   6.452   5.245   6.197  0.1829 -0.3857 -0.4551
 1106poe     o2 4622   6.373   5.135   6.237 -0.0124 -0.2447 -0.4501
 1106poe    c23 4623   6.405   5.089   6.366 -0.6803  0.2862 -0.0923
 1106poe    c23 4624   6.325   4.979   6.439 -0.5735  0.1957 -0.1111
 1106poe     o2 4625   6.305   4.861   6.364  0.0128  0.2817 -0.4057
 1106poe    c23 4626   6.221   4.764   6.421 -0.5224  0.4416 -0.9139
 1106poe    c23 4627   6.216   4.624   6.357 -0.1207  0.0967 -0.2103
 1106poe     o2 4628   6.183   4.628   6.220  0.1040 -0.2086 -0.2748
 1106poe    c23 4629   6.168   4.494   6.179 -0.6077 -0.3611  0.4611
 1106poe    c23 4630   6.098   4.469   6.044  0.3060 -0.5023  0.0045
 1106poe     o2 4631   5.981   4.547   6.030  0.9722  0.4971 -0.1019
 1106poe    c31 4632   5.920   4.528   5.904  0.6379 -0.0716  0.1424
 1107poe    c31 4633   5.919   1.828   4.136 -0.1787  0.2890 -0.8539
 1107poe     o2 4634   5.831   1.726   4.178  0.0917  0.2163 -0.4533
 1107poe    c23 4635   5.771   1.671   4.062 -0.2744 -0.4297  0.0378
 1107poe    c23 4636   5.644   1.590   4.093 -0.5771  0.2024  0.4561
 1107poe     o2 4637   5.661   1.476   4.173  0.2192  0.0197  0.0264
 1107poe    c23 4638   5.618   1.362   4.102  0.0762  0.1036 -0.0210
 1107poe    c23 4639   5.677   1.244   4.182  0.4512  0.2090 -0.1359
 1107poe     o2 4640   5.640   1.274   4.315 -0.0383 -0.2058 -0.1757
 1107poe    c23 4641   5.672   1.171   4.406 -0.5287 -0.3147 -0.1240
 1107poe    c23 4642   5.728   1.236   4.534 -0.3149 -0.3289 -0.2095
 1107poe     o2 4643   5.635   1.333   4.575  0.4225  0.1978  0.2403
 1107poe    c31 4644   5.626   1.346   4.715 -1.3541  0.4222  0.1340
 1108poe    c31 4645   1.464   4.441   1.864  0.2074  0.3522 -0.5823
 1108poe     o2 4646   1.501   4.448   2.000  0.0751  0.0167 -0.5296
 1108poe    c23 4647   1.466   4.579   2.037 -0.2216 -0.1048 -0.3772
 1108poe    c23 4648   1.511   4.592   2.184 -0.1757 -0.7485 -0.3303
 1108poe     o2 4649   1.425   4.516   2.265 -0.3972  0.4941  0.6243
 1108poe    c23 4650   1.479   4.509   2.395  0.1310  0.5668  0.4106
 1108poe    c23 4651   1.415   4.394   2.475 -0.3873  0.4247 -0.2084
 1108poe     o2 4652   1.282   4.377   2.430 -0.4057  0.0513 -0.0172
 1108poe    c23 4653   1.204   4.316   2.530 -0.1715  0.0248  0.1492
 1108poe    c23 4654   1.063   4.293   2.474  0.0075  0.6927 -0.6041
 1108poe     o2 4655   1.084   4.240   2.345  0.6695 -0.8705  0.1119
 1108poe    c31 4656   1.035   4.108   2.336  0.1512 -0.6750 -0.0028
 1109poe    c31 4657   2.506   0.616   6.960  0.7254  0.5597  0.0653
 1109poe     o2 4658   2.403   0.706   6.994  0.7408  0.5179  0.2201
 1109poe    c23 4659   2.359   0.784   6.885 -0.6947 -0.2994  0.1862
 1109poe    c23 4660   2.321   0.928   6.923  0.3037 -0.0247  0.1716
 1109poe     o2 4661   2.223   0.925   7.025 -0.0202  0.0308 -0.1355
 1109poe    c23 4662   2.222   1.043   7.102 -0.1712 -0.1577  0.1528
 1109poe    c23 4663   2.214   0.989   7.245  0.1844 -0.0793  0.2028
 1109poe     o2 4664   2.315   0.895   7.276  0.3466  0.1518  0.3783
 1109poe    c23 4665   2.291   0.835   7.401 -0.0912  0.0786  0.2629
 1109poe    c23 4666   2.373   0.704   7.409  0.8579  0.6354 -0.1537
 1109poe     o2 4667   2.347   0.643   7.285  0.0120  0.0482  0.3024
 1109poe    c31 4668   2.383   0.507   7.292  0.6010  0.1570 -0.5066
 1110poe    c31 4669   4.543   3.606   5.386  0.9305 -0.3274  0.3575
 1110poe     o2 4670   4.580   3.741   5.373  0.0688 -0.1821 -0.7765
 1110poe    c23 4671   4.708   3.786   5.335  0.3286 -0.0674  0.1871
 1110poe    c23 4672   4.721   3.938   5.316  0.2779  0.0010  0.6852
 1110poe     o2 4673   4.671   4.004   5.430 -0.4131 -0.0074  0.3932
 1110poe    c23 4674   4.676   4.144   5.414  0.0536 -0.0307  0.3201
 1110poe    c23 4675   4.577   4.226   5.499 -0.4041  0.3971 -0.6088
 1110poe     o2 4676   4.444   4.188   5.474 -0.2509 -0.3606 -0.3065
 1110poe    c23 4677   4.342   4.271   5.526  0.0408 -0.3372  0.2403
 1110poe    c23 4678   4.311   4.251   5.675  0.0362  0.5386  0.3650
 1110poe     o2 4679   4.285   4.112   5.685 -0.3141  0.6092  0.4439
 1110poe    c31 4680   4.259   4.074   5.818  0.5438  0.1669  0.4940
 1111poe    c31 4681   4.939   6.108   4.143  0.1962 -0.5962  0.8885
 1111poe     o2 4682   5.033   6.055   4.052 -0.2223  0.0301  0.0692
 1111poe    c23 4683   5.020   5.915   4.038  0.5451 -0.0624  0.1955
 1111poe    c23 4684   5.057   5.873   3.895  0.1513  1.0275 -0.2414
 1111poe     o2 4685   5.179   5.937   3.865  0.2895  0.7424 -0.2917
 1111poe    c23 4686   5.232   5.891   3.743  0.2221 -0.1055 -0.0088
 1111poe    c23 4687   5.206   5.980   3.621 -0.3057 -0.2949 -0.0365
 1111poe     o2 4688   5.278   6.101   3.638 -0.3998 -0.1397 -0.6868
 1111poe    c23 4689   5.357   6.137   3.528  0.4985 -0.5460 -0.1839
 1111poe    c23 4690   5.496   6.072   3.540  0.7998  0.1679  0.2206
 1111poe     o2 4691   5.565   6.080   3.663  0.5512  0.1025  0.3646
 1111poe    c31 4692   5.664   5.980   3.668  0.3183 -0.1343  0.2099
 1112poe    c31 4693   2.665   2.298   5.575 -0.4253 -0.1570  0.3688
 1112poe     o2 4694   2.707   2.373   5.687 -0.0307  0.2880 -0.0695
 1112poe    c23 4695   2.595   2.391   5.770 -0.0557  0.1919 -0.0817
 1112poe    c23 4696   2.634   2.449   5.908 -0.1048  0.0655 -0.0148
 1112poe     o2 4697   2.714   2.564   5.895  0.6357 -0.4463 -0.0136
 1112poe    c23 4698   2.719   2.619   6.025 -0.2670  0.4602 -0.3524
 1112poe    c23 4699   2.808   2.745   6.019 -0.2094  0.4429  0.1030
 1112poe     o2 4700   2.923   2.698   5.951 -0.2695  0.2188  0.1546
 1112poe    c23 4701   3.019   2.801   5.939  0.3695 -0.3216  0.5986
 1112poe    c23 4702   3.138   2.746   5.859  0.0257  0.3156 -0.3567
 1112poe     o2 4703   3.084   2.671   5.752 -0.1006 -0.2833  0.1198
 1112poe    c31 4704   3.196   2.599   5.703 -0.0008  0.0009 -0.0742
 1113poe    c31 4705   3.244   2.912   3.158 -0.2541  0.7783  0.2260
 1113poe     o2 4706   3.297   2.846   3.045 -0.7091  0.0190  0.4496
 1113poe    c23 4707   3.238   2.891   2.925  0.4383  0.1617 -0.0763
 1113poe    c23 4708   3.269   2.790   2.813 -0.1171  0.0105 -0.0941
 1113poe     o2 4709   3.407   2.766   2.823 -0.1827 -0.1811  0.4016
 1113poe    c23 4710   3.469   2.699   2.715 -0.2479  0.6054 -0.1284
 1113poe    c23 4711   3.585   2.620   2.777 -0.4091  0.6090  0.1761
 1113poe     o2 4712   3.649   2.698   2.875 -0.2304 -0.1354  0.6691
 1113poe    c23 4713   3.784   2.690   2.836 -0.4890 -0.5957 -0.1467
 1113poe    c23 4714   3.861   2.745   2.957 -0.9270  0.1478 -0.1987
 1113poe     o2 4715   3.834   2.883   2.959 -0.7784  0.1763 -0.0667
 1113poe    c31 4716   3.916   2.947   3.054  0.3081 -0.3204 -0.6461
 1114poe    c31 4717   5.389   6.276   5.434 -0.3889  0.8328  0.3493
 1114poe     o2 4718   5.521   6.292   5.389 -0.5753  0.1208 -0.4941
 1114poe    c23 4719   5.596   6.208   5.473  0.4117  0.9701 -0.4904
 1114poe    c23 4720   5.742   6.240   5.437  0.7539  0.0538  0.0282
 1114poe     o2 4721   5.759   6.380   5.449 -0.2333  0.1423  0.5139
 1114poe    c23 4722   5.891   6.426   5.431 -0.4832  0.6306 -0.1087
 1114poe    c23 4723   5.897   6.580   5.428  0.4678  0.5953 -0.2272
 1114poe     o2 4724   5.789   6.634   5.356  0.4835 -0.0534 -0.7433
 1114poe    c23 4725   5.829   6.769   5.347 -0.0303  0.1128 -0.5469
 1114poe    c23 4726   5.717   6.845   5.273 -0.3282 -0.1461 -0.3685
 1114poe     o2 4727   5.597   6.846   5.346 -0.1543 -0.2598 -0.0782
 1114poe    c31 4728   5.504   6.925   5.275 -0.7124 -0.5483  0.3233
 1115poe    c31 4729   2.542   6.047   5.414  0.9301  0.5725  0.2628
 1115poe     o2 4730   2.569   6.072   5.278  0.4469  0.2911  0.1144
 1115poe    c23 4731   2.608   5.946   5.228  0.0492  0.1698  0.1082
 1115poe    c23 4732   2.583   5.945   5.076  0.6938 -0.0958 -0.0002
 1115poe     o2 4733   2.670   6.025   4.999  0.0777  0.2903 -0.3054
 1115poe    c23 4734   2.601   6.042   4.878 -0.1187 -0.5858 -0.3275
 1115poe    c23 4735   2.698   6.105   4.776 -0.3699  0.2299 -0.0706
 1115poe     o2 4736   2.746   6.229   4.824 -0.1513  0.0994  0.0497
 1115poe    c23 4737   2.846   6.296   4.751 -0.1032  0.3878  0.3773
 1115poe    c23 4738   2.849   6.443   4.797 -0.4777  0.6328 -0.3625
 1115poe     o2 4739   2.818   6.447   4.934  1.2027 -0.4273  0.0871
 1115poe    c31 4740   2.832   6.574   4.995  0.1736  0.1398 -0.8262
 1116poe    c31 4741   0.604   3.972   2.340  0.0770  0.4154 -0.3080
 1116poe     o2 4742   0.498   4.062   2.316 -0.2753  0.0248 -0.2077
 1116poe    c23 4743   0.490   4.160   2.417  0.1373  0.3201 -0.4606
 1116poe    c23 4744   0.362   4.240   2.389  0.2537  0.7319  0.1644
 1116poe     o2 4745   0.344   4.256   2.250 -0.1329  0.2068  0.1519
 1116poe    c23 4746   0.212   4.302   2.227 -0.1228  0.1383 -0.0407
 1116poe    c23 4747   0.194   4.313   2.074 -0.7654  0.7398  0.0757
 1116poe     o2 4748   0.205   4.186   2.015  0.0149  0.5556  0.6007
 1116poe    c23 4749   0.181   4.195   1.876  0.0825 -0.1943  0.5340
 1116poe    c23 4750   0.252   4.084   1.796 -0.5188 -0.0331 -0.2301
 1116poe     o2 4751   0.391   4.085   1.777 -0.5426  0.4414 -0.3994
 1116poe    c31 4752   0.418   4.159   1.660 -0.1151  0.2855 -0.4000
 1117poe    c31 4753   3.187   1.239   3.481  0.0185  0.4247 -0.5168
 1117poe     o2 4754   3.141   1.205   3.610  0.7476 -0.1136 -0.3901
 1117poe    c23 4755   3.145   1.064   3.619 -0.0451 -0.1189 -0.0410
 1117poe    c23 4756   3.066   1.010   3.739 -0.0033 -0.3621 -0.1222
 1117poe     o2 4757   3.126   1.023   3.866 -0.6359  0.6839  0.0863
 1117poe    c23 4758   3.022   1.003   3.959 -0.9350  0.5144 -0.2782
 1117poe    c23 4759   3.086   0.979   4.098 -0.3318  0.6403 -0.5312
 1117poe     o2 4760   3.143   1.095   4.155  0.1301  0.0563  0.2019
 1117poe    c23 4761   3.188   1.070   4.286  0.4167 -0.2208  0.0506
 1117poe    c23 4762   3.191   1.204   4.362 -0.0633 -0.4582  0.4963
 1117poe     o2 4763   3.261   1.286   4.270 -0.6026  0.2519  0.7105
 1117poe    c31 4764   3.273   1.419   4.314 -0.1229  0.3523  0.2786
 1118poe    c31 4765   1.579   4.015   5.046  0.6114  0.1309 -0.4357
 1118poe     o2 4766   1.504   4.044   4.929 -0.2924  0.0077  0.1016
 1118poe    c23 4767   1.584   4.124   4.845  0.1133 -0.7970 -0.2952
 1118poe    c23 4768   1.505   4.151   4.715 -0.5803 -0.5099  0.1753
 1118poe     o2 4769   1.373   4.176   4.756 -0.3461  0.0960  0.5674
 1118poe    c23 4770   1.304   4.262   4.668 -0.2739 -0.3916  0.0354
 1118poe    c23 4771   1.154   4.257   4.703 -0.2499  0.0524  0.2009
 1118poe     o2 4772   1.143   4.279   4.842  0.3795  0.1860  0.2340
 1118poe    c23 4773   1.013   4.309   4.888  0.2105 -0.4701  0.1965
 1118poe    c23 4774   1.004   4.443   4.964  0.3476 -0.4859  0.2404
 1118poe     o2 4775   1.095   4.438   5.072  0.4297 -0.0514  0.1924
 1118poe    c31 4776   1.072   4.564   5.132  0.3021 -0.1186  0.2866
 1119poe    c31 4777   1.774   0.472   1.518 -0.5650  0.1917 -0.0717
 1119poe     o2 4778   1.716   0.381   1.609 -0.2165 -0.4775 -0.5060
 1119poe    c23 4779   1.671   0.443   1.727  0.0672 -0.6907 -0.2858
 1119poe    c23 4780   1.640   0.324   1.821  0.1293 -0.1764  0.3969
 1119poe     o2 4781   1.606   0.216   1.738 -0.0429  0.1079  0.0935
 1119poe    c23 4782   1.586   0.094   1.806 -0.5327  0.1329 -0.0070
 1119poe    c23 4783   1.528  -0.013   1.711  0.6201 -0.4321 -0.0863
 1119poe     o2 4784   1.614  -0.058   1.608  0.6206 -0.5142 -0.0499
 1119poe    c23 4785   1.555  -0.157   1.528  0.2475 -0.0723 -0.3286
 1119poe    c23 4786   1.632  -0.208   1.404 -0.6635 -0.2038 -0.8458
 1119poe     o2 4787   1.668  -0.116   1.304 -0.1937  0.2350 -0.2806
 1119poe    c31 4788   1.736  -0.196   1.210  0.2859 -0.0547  0.3128
 1120poe    c31 4789   1.869   2.156   3.106 -0.1579  0.0306 -0.0303
 1120poe     o2 4790   1.829   2.102   2.982  0.3395 -0.4022 -0.0046
 1120poe    c23 4791   1.697   2.055   2.994  0.1547  0.2088  0.3955
 1120poe    c23 4792   1.666   1.973   2.868  0.8782  0.0827  0.2945
 1120poe     o2 4793   1.728   1.847   2.856 -0.5821 -0.6201 -0.0917
 1120poe    c23 4794   1.687   1.773   2.743  0.4530 -0.2763 -0.7057
 1120poe    c23 4795   1.747   1.632   2.761  0.2669 -0.2848 -0.1190
 1120poe     o2 4796   1.879   1.648   2.807  0.0694 -0.0833  0.3912
 1120poe    c23 4797   1.946   1.526   2.786  0.2394  0.0957 -0.1491
 1120poe    c23 4798   2.046   1.494   2.899 -0.0881  0.0983  0.1464
 1120poe     o2 4799   2.147   1.591   2.880 -0.1496  0.0956 -0.2048
 1120poe    c31 4800   2.265   1.535   2.933  0.1567  0.5427 -0.4036
 1121poe    c31 4801   3.231   2.684   4.419 -0.1321  0.2447 -0.3440
 1121poe     o2 4802   3.326   2.693   4.315 -0.1037  0.5915 -0.2877
 1121poe    c23 4803   3.409   2.804   4.342  0.4624  0.0216  0.3477
 1121poe    c23 4804   3.528   2.821   4.247  0.1455  0.1366 -0.0316
 1121poe     o2 4805   3.496   2.850   4.112  0.3271  0.0601 -0.0910
 1121poe    c23 4806   3.464   2.983   4.077  0.3741  0.1319  0.1395
 1121poe    c23 4807   3.430   2.997   3.928  0.6923 -0.4188  0.0086
 1121poe     o2 4808   3.313   2.927   3.891  0.1650  0.4488 -0.0195
 1121poe    c23 4809   3.299   2.909   3.752 -0.0288  0.2579  0.0241
 1121poe    c23 4810   3.187   2.806   3.731  0.3560 -0.1822  0.0993
 1121poe     o2 4811   3.219   2.688   3.800 -0.1542 -0.1214  0.4494
 1121poe    c31 4812   3.128   2.580   3.797 -0.2916  0.0140 -0.2358
 1122poe    c31 4813   6.172   1.962   0.746 -0.6189 -0.6272  0.0691
 1122poe     o2 4814   6.293   1.904   0.701 -0.3077  0.1284 -0.0736
 1122poe    c23 4815   6.284   1.856   0.568 -0.2826  0.0379 -0.0427
 1122poe    c23 4816   6.394   1.755   0.530 -0.5913 -0.2484 -0.1789
 1122poe     o2 4817   6.419   1.677   0.645 -0.3199 -0.1400 -0.1632
 1122poe    c23 4818   6.535   1.599   0.636 -0.0125  0.2769  0.1593
 1122poe    c23 4819   6.552   1.488   0.741 -0.4655  0.3454  0.3035
 1122poe     o2 4820   6.494   1.537   0.860  0.1861  0.1711  0.6976
 1122poe    c23 4821   6.500   1.433   0.956 -0.9107 -0.1971  0.3836
 1122poe    c23 4822   6.450   1.464   1.098 -0.6457  0.3630  0.3588
 1122poe     o2 4823   6.315   1.504   1.097 -0.7163  0.1226 -0.4705
 1122poe    c31 4824   6.269   1.519   1.229 -0.1372  0.6318 -0.3212
 1123poe    c31 4825   5.833   4.888   2.332 -0.0688 -0.3175 -0.0332
 1123poe     o2 4826   5.725   4.850   2.250 -0.0480 -0.2748 -0.0809
 1123poe    c23 4827   5.607   4.911   2.296  0.1182 -0.1044  0.1218
 1123poe    c23 4828   5.486   4.833   2.240  0.0430  0.1111 -0.0121
 1123poe     o2 4829   5.520   4.808   2.105  0.1399  0.3972 -0.0424
 1123poe    c23 4830   5.411   4.761   2.028  0.4737 -0.1948 -0.1532
 1123poe    c23 4831   5.444   4.783   1.879 -0.1445  0.3604 -0.2085
 1123poe     o2 4832   5.564   4.722   1.838 -0.1672  0.0558  0.1668
 1123poe    c23 4833   5.617   4.773   1.717  0.0848  0.0348  0.2678
 1123poe    c23 4834   5.766   4.766   1.680  0.0501 -0.0541  0.1434
 1123poe     o2 4835   5.858   4.845   1.753  0.0165  0.4576 -0.3563
 1123poe    c31 4836   5.963   4.893   1.672  0.0388  0.0209 -0.5908
 1124poe    c31 4837   1.555   1.140   1.384 -0.0666 -0.5291 -0.6269
 1124poe     o2 4838   1.591   1.249   1.302 -0.2713  0.1278  0.1398
 1124poe    c23 4839   1.673   1.342   1.368 -0.0727  0.5096 -0.6237
 1124poe    c23 4840   1.797   1.359   1.278  0.3183 -0.0057 -0.1951
 1124poe     o2 4841   1.742   1.386   1.151  0.0260  0.1350 -0.0425
 1124poe    c23 4842   1.821   1.337   1.044 -0.2742 -0.3994 -0.0217
 1124poe    c23 4843   1.731   1.282   0.932 -0.5368  0.7235 -0.3708
 1124poe     o2 4844   1.621   1.214   0.988 -0.1111  0.5354  0.2490
 1124poe    c23 4845   1.545   1.142   0.893  0.1505  0.1377  0.3393
 1124poe    c23 4846   1.418   1.089   0.962  0.0181 -0.3527 -0.2661
 1124poe     o2 4847   1.401   1.164   1.081 -0.1853 -0.6456 -0.1094
 1124poe    c31 4848   1.272   1.133   1.128 -0.2905  0.1946  0.1642
 1125poe    c31 4849   1.507   1.207   4.287  0.4982  0.4073  0.0004
 1125poe     o2 4850   1.425   1.210   4.173  0.0024  0.1354  0.3441
 1125poe    c23 4851   1.351   1.096   4.134  0.1871 -0.0539  0.5484
 1125poe    c23 4852   1.254   1.129   4.019  0.3459  1.0300  0.7091
 1125poe     o2 4853   1.335   1.169   3.911 -0.1064 -0.3061 -0.1466
 1125poe    c23 4854   1.265   1.158   3.789 -0.4512 -0.0650  0.0292
 1125poe    c23 4855   1.341   1.212   3.666  0.0993 -0.0449  0.3767
 1125poe     o2 4856   1.320   1.352   3.663 -0.3103 -0.1211 -0.5024
 1125poe    c23 4857   1.366   1.419   3.547  0.6419 -0.2154 -0.1893
 1125poe    c23 4858   1.329   1.568   3.547 -0.0103 -0.3750 -0.0332
 1125poe     o2 4859   1.404   1.639   3.642 -0.2316 -0.0268 -0.1160
 1125poe    c31 4860   1.406   1.779   3.623  0.1177 -0.0881 -0.5474
 1126poe    c31 4861   2.013   0.082   2.026 -0.4455  0.9055 -0.5261
 1126poe     o2 4862   1.890   0.119   2.083 -0.1690  0.4534  0.3824
 1126poe    c23 4863   1.830  -0.008   2.099  0.0181  0.3508  0.2595
 1126poe    c23 4864   1.689   0.005   2.159 -0.2306 -0.1572 -0.2022
 1126poe     o2 4865   1.733   0.031   2.291  0.2222 -0.6354 -0.2504
 1126poe    c23 4866   1.639   0.082   2.383  0.6569  0.1452 -0.2327
 1126poe    c23 4867   1.705   0.167   2.494  0.3150 -0.0935  0.1527
 1126poe     o2 4868   1.792   0.257   2.431 -0.0215  0.1296  0.0029
 1126poe    c23 4869   1.896   0.293   2.519 -0.4058  0.1971  0.4286
 1126poe    c23 4870   2.001   0.362   2.430  0.1164 -0.7276  0.3155
 1126poe     o2 4871   2.022   0.296   2.307  0.2720  0.2049 -0.1659
 1126poe    c31 4872   2.122   0.365   2.235 -0.2943  1.1224 -0.0986
 1127poe    c31 4873   5.442   0.748   5.415  0.0711 -0.3021  0.3111
 1127poe     o2 4874   5.454   0.880   5.461 -0.3208 -0.0501 -0.2870
 1127poe    c23 4875   5.585   0.918   5.498 -0.3604 -0.0242 -0.1725
 1127poe    c23 4876   5.580   1.065   5.542 -0.1071  0.0271 -0.3172
 1127poe     o2 4877   5.463   1.090   5.616  0.1309 -0.0307  0.0866
 1127poe    c23 4878   5.455   1.225   5.656  0.3619 -0.0150  0.0816
 1127poe    c23 4879   5.317   1.262   5.714  0.3317 -0.3959  0.2550
 1127poe     o2 4880   5.213   1.239   5.622  0.3537  0.2647  0.0589
 1127poe    c23 4881   5.086   1.281   5.668  0.0161 -0.0803 -0.5382
 1127poe    c23 4882   4.961   1.249   5.584 -0.2838 -0.1101 -0.0783
 1127poe     o2 4883   4.969   1.302   5.454  0.2007  0.0974  0.0315
 1127poe    c31 4884   4.842   1.270   5.399  0.0552 -0.1509  0.5138
 1128poe    c31 4885   3.954   2.717   6.933  0.5119  0.0720 -0.4704
 1128poe     o2 4886   3.825   2.693   6.986  0.5591  0.1778 -0.3063
 1128poe    c23 4887   3.828   2.738   7.119  0.6241 -0.0421 -0.2326
 1128poe    c23 4888   3.684   2.757   7.169  0.9225 -0.9415  1.0092
 1128poe     o2 4889   3.614   2.639   7.134 -0.2643 -0.1795  0.7588
 1128poe    c23 4890   3.474   2.649   7.150 -0.3140 -0.2624  0.3949
 1128poe    c23 4891   3.393   2.519   7.157 -0.1404 -0.3720  0.3876
 1128poe     o2 4892   3.429   2.453   7.038  0.1510  0.2038  0.1537
 1128poe    c23 4893   3.389   2.318   7.041  0.5277  0.0965  0.3496
 1128poe    c23 4894   3.409   2.251   6.903  0.7676 -0.1515  0.5041
 1128poe     o2 4895   3.539   2.284   6.860  0.7093 -0.1915  0.2978
 1128poe    c31 4896   3.581   2.241   6.732 -0.2198 -0.0534 -0.0612
 1129poe    c31 4897   4.810   6.883   0.916  0.2352 -0.3148 -0.1254
 1129poe     o2 4898   4.930   6.835   0.972  0.2708 -0.1918 -0.0938
 1129poe    c23 4899   5.032   6.822   0.876  0.4436  0.4304  0.0021
 1129poe    c23 4900   5.168   6.820   0.947  0.3440 -0.5507  0.1856
 1129poe     o2 4901   5.151   6.762   1.074  0.1394 -0.1506  0.3405
 1129poe    c23 4902   5.272   6.785   1.142  0.3246  0.2250 -0.1117
 1129poe    c23 4903   5.240   6.851   1.277  0.2973 -0.4480  0.2140
 1129poe     o2 4904   5.156   6.758   1.343 -0.3460 -0.0180  0.0124
 1129poe    c23 4905   5.148   6.762   1.483 -0.3286 -0.5632  0.0305
 1129poe    c23 4906   5.023   6.693   1.543 -0.2387 -0.6605  0.1052
 1129poe     o2 4907   4.905   6.753   1.496  0.3287  0.4567  0.0548
 1129poe    c31 4908   4.809   6.704   1.587  0.7481 -0.1992  0.1523
 1130poe    c31 4909   6.206   2.801   3.115  0.3942 -0.5038  0.3634
 1130poe     o2 4910   6.195   2.695   3.207  0.0784 -0.4053  0.4412
 1130poe    c23 4911   6.319   2.669   3.269  0.3135 -0.1278  0.0876
 1130poe    c23 4912   6.295   2.561   3.376 -0.2188  0.0662  0.1645
 1130poe     o2 4913   6.189   2.587   3.465 -0.1238 -0.2345  0.3666
 1130poe    c23 4914   6.221   2.681   3.566 -0.8604  0.5898 -0.1548
 1130poe    c23 4915   6.102   2.719   3.655 -0.1962  0.3961  0.8331
 1130poe     o2 4916   6.041   2.594   3.673  0.2965  0.1023  0.4811
 1130poe    c23 4917   5.939   2.592   3.770  0.0096  0.1196  0.1831
 1130poe    c23 4918   5.893   2.450   3.808 -1.1162  0.5008  0.2788
 1130poe     o2 4919   5.870   2.394   3.681  0.2343 -0.1498  0.3068
 1130poe    c31 4920   5.744   2.332   3.668 -0.2691  0.8548  0.3276
 1131poe    c31 4921   6.529   2.692   0.219 -0.0629 -0.2608  0.0162
 1131poe     o2 4922   6.429   2.628   0.293 -0.3755  0.2474  0.0381
 1131poe    c23 4923   6.380   2.527   0.208  0.2183  0.1996 -0.2449
 1131poe    c23 4924   6.304   2.438   0.307  0.2891  0.2169 -0.1741
 1131poe     o2 4925   6.249   2.522   0.406  0.3313 -0.2441  0.2477
 1131poe    c23 4926   6.207   2.462   0.526  0.1210 -0.0906  0.2511
 1131poe    c23 4927   6.133   2.575   0.600 -0.4991 -0.1126 -0.3290
 1131poe     o2 4928   6.171   2.697   0.540 -0.4136 -0.1986 -0.4503
 1131poe    c23 4929   6.077   2.800   0.518 -0.0265  0.2871  0.1795
 1131poe    c23 4930   6.146   2.919   0.448  0.0941  0.1373  0.0439
 1131poe     o2 4931   6.255   2.865   0.377  0.0408 -0.1298  0.1619
 1131poe    c31 4932   6.337   2.967   0.324  0.0026 -0.1653  0.0340
 1132poe    c31 4933   2.555   2.943   1.408 -0.0577 -0.3323 -0.1641
 1132poe     o2 4934   2.550   2.957   1.268 -0.3181  0.5635 -0.0712
 1132poe    c23 4935   2.667   3.010   1.210 -0.0461  0.1752  0.1206
 1132poe    c23 4936   2.686   2.976   1.061 -0.1768  0.1170  0.1164
 1132poe     o2 4937   2.581   3.011   0.974  0.1185  0.0725 -0.2619
 1132poe    c23 4938   2.605   2.989   0.837  0.1015  0.2672 -0.2969
 1132poe    c23 4939   2.487   2.994   0.738 -0.1071  0.1123 -0.0565
 1132poe     o2 4940   2.376   2.918   0.778 -0.0955  0.1426  0.0339
 1132poe    c23 4941   2.314   2.874   0.659  0.1729 -0.6143  0.1700
 1132poe    c23 4942   2.172   2.830   0.699  0.0854 -0.3047  0.1984
 1132poe     o2 4943   2.184   2.745   0.811  0.2684 -0.3415  0.1513
 1132poe    c31 4944   2.050   2.719   0.848 -0.0071  0.4082 -0.3044
 1133poe    c31 4945   6.075   4.655   4.703 -0.6483 -0.1824 -0.5778
 1133poe     o2 4946   5.986   4.765   4.699 -0.1065  0.2812 -0.1830
 1133poe    c23 4947   6.011   4.850   4.808 -0.6235  0.0098  0.1502
 1133poe    c23 4948   5.932   4.980   4.780 -0.0678  0.3292  0.0483
 1133poe     o2 4949   5.799   4.959   4.738 -0.0387  0.3552 -0.0573
 1133poe    c23 4950   5.758   5.074   4.667 -0.3862  0.1694 -0.1621
 1133poe    c23 4951   5.615   5.042   4.620 -0.4367 -0.1350  0.1960
 1133poe     o2 4952   5.631   4.920   4.552 -0.1010  0.0383 -0.0377
 1133poe    c23 4953   5.520   4.909   4.466 -0.3952  0.3189  0.3066
 1133poe    c23 4954   5.536   4.782   4.382  0.1341  0.2016  0.5820
 1133poe     o2 4955   5.655   4.787   4.306 -0.3302 -0.2856 -0.2019
 1133poe    c31 4956   5.696   4.667   4.245  0.2453 -0.4070  0.4084
 1134poe    c31 4957   0.810   5.591   0.037  0.3748  0.3496  0.5336
 1134poe     o2 4958   0.897   5.684  -0.022  0.4516 -0.4278 -0.6033
 1134poe    c23 4959   0.828   5.781  -0.097  0.1408 -0.3480 -0.2110
 1134poe    c23 4960   0.912   5.910  -0.087 -0.2565 -0.1254  0.3588
 1134poe     o2 4961   1.044   5.864  -0.111 -0.4553 -0.4707 -0.0985
 1134poe    c23 4962   1.135   5.969  -0.087 -0.7100 -0.3683  0.4551
 1134poe    c23 4963   1.275   5.922  -0.132 -0.4911  0.5313  0.1775
 1134poe     o2 4964   1.349   5.830  -0.055  0.3134  0.6154 -0.4751
 1134poe    c23 4965   1.458   5.773  -0.125 -0.0468 -0.2189 -0.3743
 1134poe    c23 4966   1.487   5.631  -0.073  0.1060 -0.0030  0.1444
 1134poe     o2 4967   1.382   5.539  -0.091 -0.0466  0.1215  0.3962
 1134poe    c31 4968   1.443   5.412  -0.102 -0.1195  0.1552 -0.4658
 1135poe    c31 4969   2.841   6.585   4.260 -0.4399 -0.4703 -0.1042
 1135poe     o2 4970   2.863   6.552   4.125 -0.4035  0.8772 -0.4381
 1135poe    c23 4971   2.943   6.649   4.062  0.5254  0.3457 -0.0854
 1135poe    c23 4972   2.961   6.619   3.912  0.1994  0.0837 -0.0732
 1135poe     o2 4973   2.833   6.617   3.853  0.2389 -0.2860 -0.1469
 1135poe    c23 4974   2.836   6.632   3.713  0.2081 -0.5287 -0.1751
 1135poe    c23 4975   2.694   6.632   3.652  0.1722 -0.0502 -0.0988
 1135poe     o2 4976   2.632   6.521   3.713 -0.5828  0.0804 -0.6138
 1135poe    c23 4977   2.503   6.515   3.656 -0.7000 -0.4033 -0.3043
 1135poe    c23 4978   2.411   6.446   3.758 -0.8344 -0.2702 -0.3359
 1135poe     o2 4979   2.450   6.517   3.874 -0.5577 -0.4772 -0.3019
 1135poe    c31 4980   2.370   6.484   3.986 -0.2365 -0.1252  0.0332
 1136poe    c31 4981   6.536   1.989   4.576  0.2446  0.1580  0.3125
 1136poe     o2 4982   6.484   2.067   4.681 -0.3133  0.1008  0.0846
 1136poe    c23 4983   6.582   2.113   4.772  0.1108  0.0986 -0.3674
 1136poe    c23 4984   6.498   2.214   4.854 -0.3191 -0.3889 -0.2026
 1136poe     o2 4985   6.400   2.276   4.773 -0.0729  0.4145  0.1076
 1136poe    c23 4986   6.334   2.364   4.861 -0.2881 -0.0522  0.4209
 1136poe    c23 4987   6.212   2.431   4.794  0.0006  0.4225  0.3649
 1136poe     o2 4988   6.132   2.338   4.724 -0.0159  0.6828  0.0370
 1136poe    c23 4989   6.065   2.400   4.616  0.1102 -0.3647 -0.6538
 1136poe    c23 4990   5.959   2.309   4.553 -0.3560 -0.2423 -0.0571
 1136poe     o2 4991   6.011   2.191   4.496  0.5168 -0.2035  0.6456
 1136poe    c31 4992   5.907   2.115   4.439  0.3763 -0.0454  0.6922
 1137poe    c31 4993   2.893   3.148   6.884 -0.4694  0.7678 -0.2941
 1137poe     o2 4994   2.896   3.181   6.747  0.1410 -0.2183 -0.5273
 1137poe    c23 4995   2.798   3.109   6.675 -0.6191 -0.1958  0.4471
 1137poe    c23 4996   2.797   3.140   6.524  0.3283  0.2103  0.5108
 1137poe     o2 4997   2.923   3.111   6.469  0.0782 -0.0900  0.0817
 1137poe    c23 4998   2.931   3.145   6.332 -0.1663 -0.0214  0.0852
 1137poe    c23 4999   3.076   3.122   6.287  0.1699 -0.2252  1.2338
 1137poe     o2 5000   3.155   3.217   6.356  0.3070  0.7315 -0.1768
 1137poe    c23 5001   3.277   3.217   6.285  0.5447 -0.4836  0.1956
 1137poe    c23 5002   3.371   3.328   6.338  0.2052 -0.2646  0.3489
 1137poe     o2 5003   3.373   3.303   6.477 -0.3105  0.2398  0.4495
 1137poe    c31 5004   3.472   3.375   6.547 -0.0631  0.3243  0.0223
 1138poe    c31 5005   6.957   6.155   1.853 -0.2936 -0.6902 -0.5262
 1138poe     o2 5006   6.874   6.213   1.950  0.4145 -0.4836 -0.0399
 1138poe    c23 5007   6.778   6.292   1.883  0.5194 -0.1845  0.1598
 1138poe    c23 5008   6.676   6.352   1.981  0.1267 -0.3398 -0.1521
 1138poe     o2 5009   6.740   6.357   2.107 -0.4544 -0.4641  0.1507
 1138poe    c23 5010   6.651   6.394   2.210 -0.4321  0.4475 -0.1473
 1138poe    c23 5011   6.725   6.436   2.339 -0.4415  0.5770 -0.1839
 1138poe     o2 5012   6.815   6.333   2.372 -0.1784  0.7817 -0.2655
 1138poe    c23 5013   6.851   6.320   2.508  0.1037 -0.3606 -0.4410
 1138poe    c23 5014   6.963   6.215   2.514  0.3007 -0.1128  0.3185
 1138poe     o2 5015   7.076   6.251   2.438  0.1741  0.3200  0.3317
 1138poe    c31 5016   7.180   6.259   2.533  0.4197 -0.1614  0.1127
 1139poe    c31 5017   6.904   0.471   4.627 -0.3859  0.6718 -0.0452
 1139poe     o2 5018   6.770   0.516   4.617 -0.5763  0.0442 -0.3856
 1139poe    c23 5019   6.774   0.655   4.590 -0.0524  0.0110 -0.5059
 1139poe    c23 5020   6.650   0.701   4.510 -0.0824 -0.0255 -0.4800
 1139poe     o2 5021   6.545   0.656   4.593  0.1298  0.1647 -0.1036
 1139poe    c23 5022   6.424   0.721   4.558  0.0594  0.1614  0.1303
 1139poe    c23 5023   6.310   0.641   4.624  0.2278 -0.5418 -0.4159
 1139poe     o2 5024   6.342   0.636   4.761  0.2204  0.4298 -0.3718
 1139poe    c23 5025   6.244   0.570   4.839  0.6608 -0.3826 -0.4927
 1139poe    c23 5026   6.261   0.575   4.992 -0.4942 -0.6145 -0.3515
 1139poe     o2 5027   6.363   0.483   5.025  0.0480  0.1785  0.1910
 1139poe    c31 5028   6.377   0.462   5.164  0.8525  0.1110  0.1032
 1140poe    c31 5029   2.189   4.475   6.687  0.2022  0.3643 -0.3499
 1140poe     o2 5030   2.244   4.494   6.815  0.0798 -0.0386 -0.2341
 1140poe    c23 5031   2.163   4.437   6.916  0.0786  0.0552 -0.1813
 1140poe    c23 5032   2.046   4.518   6.973  0.1894  0.2581 -0.2417
 1140poe     o2 5033   2.073   4.636   7.045 -0.4033 -0.1096  0.6043
 1140poe    c23 5034   1.950   4.701   7.067 -0.3046  0.3201 -0.0814
 1140poe    c23 5035   1.967   4.832   7.147  0.0452 -0.1728  0.6543
 1140poe     o2 5036   2.069   4.911   7.090  0.1378 -0.3391  0.5876
 1140poe    c23 5037   2.124   4.996   7.188 -0.0166 -0.1791  0.5363
 1140poe    c23 5038   2.241   5.074   7.125 -0.2823  0.1231  0.4138
 1140poe     o2 5039   2.335   4.986   7.069 -0.2364  0.3929  0.0668
 1140poe    c31 5040   2.462   5.042   7.043 -0.1712  0.1902 -0.0645
 1141poe    c31 5041   4.334   3.390   2.241 -0.3061 -0.3298  0.4678
 1141poe     o2 5042   4.293   3.255   2.234 -0.3654 -0.2686 -0.6001
 1141poe    c23 5043   4.184   3.252   2.146 -0.4017 -0.4175 -0.5497
 1141poe    c23 5044   4.112   3.117   2.168 -0.4014 -0.2810  0.3168
 1141poe     o2 5045   4.062   3.091   2.297 -0.1648  0.1125  0.4922
 1141poe    c23 5046   4.021   2.956   2.303  0.3659 -0.0546  0.3841
 1141poe    c23 5047   4.073   2.885   2.429  0.1896 -0.4807  0.2180
 1141poe     o2 5048   4.209   2.897   2.462  0.4388 -0.4685 -0.8015
 1141poe    c23 5049   4.237   2.796   2.556 -0.4393  0.1144  0.1009
 1141poe    c23 5050   4.381   2.826   2.604 -0.4886  0.4203  0.0584
 1141poe     o2 5051   4.458   2.839   2.487  0.2654  0.3833  0.5448
 1141poe    c31 5052   4.596   2.858   2.509  0.3457  0.3794  0.0433
 1142poe    c31 5053   6.845   6.524   4.612  0.8763 -0.5422  0.3852
 1142poe     o2 5054   6.827   6.386   4.634 -0.0573 -0.5397 -0.3206
 1142poe    c23 5055   6.916   6.301   4.566  0.7519  0.0208  0.0190
 1142poe    c23 5056   6.885   6.172   4.645  0.0776 -0.1163 -0.4548
 1142poe     o2 5057   6.746   6.160   4.630 -0.1231  0.7655  0.5339
 1142poe    c23 5058   6.696   6.054   4.709  0.3475  0.1301 -0.0067
 1142poe    c23 5059   6.552   6.052   4.655  0.1448  0.6292  0.5058
 1142poe     o2 5060   6.484   6.169   4.693 -0.4916  0.4989 -0.2111
 1142poe    c23 5061   6.347   6.134   4.694 -0.2592 -0.4340  0.2027
 1142poe    c23 5062   6.286   6.267   4.741  0.1140 -0.2169  0.0768
 1142poe     o2 5063   6.284   6.366   4.640 -0.2612 -0.2776  0.0220
 1142poe    c31 5064   6.174   6.454   4.645  0.1335  0.2247 -0.0490
 1143poe    c31 5065   5.432   0.402   3.825 -0.2722 -0.0897 -0.2583
 1143poe     o2 5066   5.380   0.533   3.838 -0.6533 -0.2672  0.0131
 1143poe    c23 5067   5.283   0.538   3.940 -0.6314  0.2481  0.0088
 1143poe    c23 5068   5.236   0.684   3.962 -0.4279  0.2938  0.1391
 1143poe     o2 5069   5.159   0.734   3.855 -0.6409 -0.3625 -0.0197
 1143poe    c23 5070   5.145   0.874   3.849  0.2526 -0.2617  0.0981
 1143poe    c23 5071   5.067   0.920   3.725 -0.1399  0.3013  0.5492
 1143poe     o2 5072   5.152   0.925   3.612  0.0499  0.4145  0.6980
 1143poe    c23 5073   5.075   0.887   3.500  0.5925  0.2383  0.3827
 1143poe    c23 5074   5.145   0.899   3.364 -0.0063 -0.4165  0.0122
 1143poe     o2 5075   5.282   0.867   3.375  0.1302  0.0142 -0.3923
 1143poe    c31 5076   5.329   0.793   3.264 -0.1571  0.2556 -0.6737
 1144poe    c31 5077   4.167   2.340   0.590 -0.5699  0.0530 -0.6419
 1144poe     o2 5078   4.233   2.371   0.470 -0.2255 -0.3432 -0.5604
 1144poe    c23 5079   4.270   2.507   0.472  0.1651 -0.4532 -0.2895
 1144poe    c23 5080   4.350   2.492   0.341  0.5630 -0.4278 -0.0495
 1144poe     o2 5081   4.268   2.433   0.243  0.3605  0.1409 -0.2280
 1144poe    c23 5082   4.329   2.437   0.116  0.4087 -1.0927 -0.2541
 1144poe    c23 5083   4.228   2.375   0.018 -0.0734 -0.5880 -0.0771
 1144poe     o2 5084   4.154   2.276   0.085 -0.1460 -0.3444  0.2054
 1144poe    c23 5085   4.062   2.219  -0.006  0.3561 -0.7258 -0.0675
 1144poe    c23 5086   3.979   2.098   0.040 -0.1436 -0.2645  0.2559
 1144poe     o2 5087   3.866   2.148   0.108 -0.0286  0.2369  0.0860
 1144poe    c31 5088   3.766   2.048   0.116  0.2626 -0.0146  0.6440
 1145poe    c31 5089   6.037   0.438   1.065  0.0251 -0.4315 -0.1488
 1145poe     o2 5090   6.017   0.318   1.135 -0.7990 -0.0466  0.2837
 1145poe    c23 5091   5.942   0.224   1.060  0.0589 -0.4689 -0.0498
 1145poe    c23 5092   5.921   0.101   1.151 -0.1026 -0.3288  0.1012
 1145poe     o2 5093   6.032   0.030   1.200 -0.1021 -0.2106  0.2731
 1145poe    c23 5094   6.012  -0.109   1.216  0.2048 -0.2843  0.0166
 1145poe    c23 5095   6.151  -0.167   1.250  0.1533 -0.5552 -0.2340
 1145poe     o2 5096   6.213  -0.097   1.355  0.1446  0.0937 -0.6598
 1145poe    c23 5097   6.350  -0.132   1.362  0.0639 -0.1349 -0.2482
 1145poe    c23 5098   6.433  -0.030   1.443 -0.1634 -0.2781  0.1691
 1145poe     o2 5099   6.382   0.096   1.405 -0.2490 -0.2001  0.5401
 1145poe    c31 5100   6.467   0.206   1.431 -0.0188 -0.2426 -0.0352
 1146poe    c31 5101   5.364   1.061   4.833  0.4567  0.0513 -0.7000
 1146poe     o2 5102   5.313   1.145   4.934  0.2185 -0.6208 -0.2461
 1146poe    c23 5103   5.357   1.114   5.064 -0.0367  0.2876  0.0668
 1146poe    c23 5104   5.281   1.197   5.169 -0.4744 -0.1601  0.1070
 1146poe     o2 5105   5.312   1.335   5.164  0.5710 -0.3842  0.2900
 1146poe    c23 5106   5.225   1.403   5.251  0.5030  0.3999 -0.3887
 1146poe    c23 5107   5.103   1.463   5.179  0.1049 -0.3804 -0.3647
 1146poe     o2 5108   5.151   1.538   5.070  0.2480  0.2496  0.1333
 1146poe    c23 5109   5.062   1.624   5.002 -0.5614 -0.2455  0.5578
 1146poe    c23 5110   5.150   1.734   4.940 -0.4210 -0.2485  0.7507
 1146poe     o2 5111   5.283   1.694   4.914 -0.2659  0.3457  0.6183
 1146poe    c31 5112   5.366   1.808   4.905 -0.4778  0.4157 -0.5283
 1147poe    c31 5113   1.544   2.597   4.017  0.0250  0.3699 -0.3267
 1147poe     o2 5114   1.677   2.602   4.063 -0.0675 -0.1326  0.0090
 1147poe    c23 5115   1.754   2.535   3.966  0.0976  0.2169 -0.1039
 1147poe    c23 5116   1.902   2.560   4.001  0.0557  0.5513 -0.1620
 1147poe     o2 5117   1.927   2.559   4.140  0.1918  0.0988 -0.1871
 1147poe    c23 5118   2.054   2.609   4.175  0.2909 -0.3735  0.1343
 1147poe    c23 5119   2.076   2.618   4.327  0.3957 -0.2678  0.1128
 1147poe     o2 5120   1.960   2.686   4.370 -0.1578 -0.9912 -0.2025
 1147poe    c23 5121   1.944   2.710   4.508  0.8936  0.2727 -0.2737
 1147poe    c23 5122   1.908   2.584   4.589 -0.4759  1.0907  0.4217
 1147poe     o2 5123   1.789   2.520   4.550 -0.4109  0.7852  0.7119
 1147poe    c31 5124   1.740   2.434   4.650 -0.2278  0.2787  0.3693
 1148poe    c31 5125   2.877   6.190   0.947  0.2382  0.6108  0.1369
 1148poe     o2 5126   2.814   6.292   0.872 -0.0679  0.1008 -0.3028
 1148poe    c23 5127   2.831   6.264   0.735 -0.3903  0.5576 -0.4380
 1148poe    c23 5128   2.813   6.385   0.642  0.2935  0.1131 -1.1626
 1148poe     o2 5129   2.691   6.442   0.682  0.3969 -0.0807 -0.5611
 1148poe    c23 5130   2.702   6.578   0.648 -0.2960  0.0922 -0.1293
 1148poe    c23 5131   2.578   6.638   0.717 -0.1147  0.3395 -0.0132
 1148poe     o2 5132   2.565   6.571   0.840 -0.0111  0.0296 -0.1704
 1148poe    c23 5133   2.470   6.614   0.935 -0.2411 -0.1491 -0.3195
 1148poe    c23 5134   2.525   6.740   1.005 -0.5907 -0.2381  0.1195
 1148poe     o2 5135   2.617   6.704   1.106 -0.1959  0.3509 -0.0240
 1148poe    c31 5136   2.557   6.743   1.227 -0.0660  0.3486  0.0404
 1149poe    c31 5137   0.750   5.657   1.854 -0.5144  0.1767 -0.4551
 1149poe     o2 5138   0.780   5.738   1.965 -0.3353  0.4068 -0.6729
 1149poe    c23 5139   0.676   5.733   2.060  0.1041  0.4120 -0.1908
 1149poe    c23 5140   0.673   5.821   2.186 -0.5627 -0.0735  0.1396
 1149poe     o2 5141   0.620   5.946   2.146 -0.3652  0.0627  0.3024
 1149poe    c23 5142   0.528   6.003   2.237 -1.1813 -0.0314 -0.4516
 1149poe    c23 5143   0.493   6.146   2.194  0.0441  0.3654 -0.1671
 1149poe     o2 5144   0.618   6.206   2.167  0.2762  0.0246  0.1432
 1149poe    c23 5145   0.587   6.331   2.109  0.1550  0.1409  0.4534
 1149poe    c23 5146   0.728   6.393   2.103  0.1391  0.1051 -0.2951
 1149poe     o2 5147   0.814   6.289   2.061  0.1685 -0.0635  0.1740
 1149poe    c31 5148   0.919   6.348   1.987 -0.3529  0.0968 -0.4543
 1150poe    c31 5149   6.421   1.769   5.328  0.4403  0.0207  0.2780
 1150poe     o2 5150   6.551   1.816   5.354  0.3982  0.3416 -0.0788
 1150poe    c23 5151   6.622   1.723   5.432  0.0326  0.2887  0.1925
 1150poe    c23 5152   6.774   1.743   5.446  0.0349  0.2091  0.2861
 1150poe     o2 5153   6.804   1.868   5.502  0.4462  0.5497 -0.6668
 1150poe    c23 5154   6.945   1.875   5.503  0.4503  0.4342 -0.3674
 1150poe    c23 5155   6.977   2.025   5.518  0.5394  0.4345 -0.5669
 1150poe     o2 5156   6.874   2.102   5.461 -0.1953 -0.4921 -0.4996
 1150poe    c23 5157   6.897   2.158   5.334 -0.0484  0.1974 -0.1719
 1150poe    c23 5158   6.758   2.191   5.276 -0.2323  0.5109  0.4391
 1150poe     o2 5159   6.680   2.074   5.283 -0.0907  0.4257  0.6238
 1150poe    c31 5160   6.567   2.093   5.200  0.0409  0.0125  0.3472
 1151poe    c31 5161   5.091   5.599   4.232 -0.0327  0.2434  0.0829
 1151poe     o2 5162   4.962   5.560   4.271  0.1114  0.2064  0.5312
 1151poe    c23 5163   4.936   5.597   4.404  0.1603  0.5634  0.4431
 1151poe    c23 5164   4.814   5.515   4.451  0.3765  0.3316  0.6045
 1151poe     o2 5165   4.814   5.393   4.381  0.2672  0.6568  0.0322
 1151poe    c23 5166   4.698   5.318   4.407  0.3234  0.2946 -0.7538
 1151poe    c23 5167   4.671   5.201   4.310  0.0614  0.0221 -0.3583
 1151poe     o2 5168   4.670   5.238   4.173 -0.6442  0.1958 -0.3115
 1151poe    c23 5169   4.650   5.138   4.077 -0.1819  0.1148 -0.3266
 1151poe    c23 5170   4.745   5.016   4.078 -0.0428  0.2266  0.3601
 1151poe     o2 5171   4.877   5.056   4.050 -0.1747  0.0090 -0.6022
 1151poe    c31 5172   4.949   4.936   4.067 -0.0454  0.2445  0.6240
 1152poe    c31 5173   3.707   0.088   3.995 -0.3092  0.3161 -0.1271
 1152poe     o2 5174   3.805   0.118   4.092 -0.3178 -0.4766  0.1339
 1152poe    c23 5175   3.812   0.008   4.179 -0.0708 -0.7026 -0.1677
 1152poe    c23 5176   3.885   0.067   4.301  0.3425 -0.5706 -0.4759
 1152poe     o2 5177   3.994   0.138   4.247  0.0066  0.7003  0.4665
 1152poe    c23 5178   4.106   0.173   4.324 -0.1342  0.1703  0.9147
 1152poe    c23 5179   4.209   0.239   4.231 -0.8697 -0.1324 -0.1299
 1152poe     o2 5180   4.160   0.329   4.134 -0.6736  0.0369 -0.0733
 1152poe    c23 5181   4.261   0.374   4.047 -0.3421 -0.2308  0.1697
 1152poe    c23 5182   4.227   0.491   3.953 -0.3777 -0.1868  0.2370
 1152poe     o2 5183   4.138   0.450   3.851 -0.5283 -0.2748  0.4035
 1152poe    c31 5184   4.149   0.522   3.731 -0.7233  0.2384  0.6911
 1153poe    c31 5185   3.567   4.924   1.864  0.2031 -0.3942 -0.3849
 1153poe     o2 5186   3.525   4.808   1.932  0.2256 -0.2246 -0.0819
 1153poe    c23 5187   3.435   4.736   1.851 -0.3065  0.3000  0.0318
 1153poe    c23 5188   3.331   4.654   1.930  0.7000 -0.7979  0.2558
 1153poe     o2 5189   3.420   4.568   1.997  0.8438 -0.6984  0.1951
 1153poe    c23 5190   3.351   4.468   2.070 -0.2328 -0.3900 -0.3746
 1153poe    c23 5191   3.460   4.405   2.158 -0.2016 -0.5409 -0.5220
 1153poe     o2 5192   3.578   4.373   2.087  0.4211  0.2049  0.1513
 1153poe    c23 5193   3.660   4.298   2.174  0.1566  0.2331  0.4264
 1153poe    c23 5194   3.793   4.275   2.099 -0.1566 -0.1978 -0.0047
 1153poe     o2 5195   3.832   4.382   2.016 -0.1082 -0.1087  0.1332
 1153poe    c31 5196   3.960   4.366   1.960 -0.2603 -0.1031 -0.2167
 1154poe    c31 5197   2.075   4.845   6.103 -0.5137  0.0250 -0.4492
 1154poe     o2 5198   2.005   4.782   6.207 -0.2228 -0.0291 -0.2848
 1154poe    c23 5199   1.891   4.855   6.248 -0.0939  0.2800 -0.4804
 1154poe    c23 5200   1.840   4.826   6.390  0.3070 -0.1743 -0.4264
 1154poe     o2 5201   1.917   4.882   6.494 -0.4707 -0.2199  0.1833
 1154poe    c23 5202   1.862   4.836   6.615 -0.1009 -0.6522  0.1876
 1154poe    c23 5203   1.976   4.867   6.714  0.1033 -0.0707 -0.2252
 1154poe     o2 5204   2.096   4.796   6.691 -0.1934 -0.5711 -0.2419
 1154poe    c23 5205   2.186   4.821   6.796 -0.2921  0.3058 -0.3514
 1154poe    c23 5206   2.327   4.795   6.740 -0.3492  0.0719 -0.3895
 1154poe     o2 5207   2.325   4.813   6.600 -0.0724  0.3697 -0.3562
 1154poe    c31 5208   2.450   4.839   6.540  0.1724 -0.4585 -0.2111
 1155poe    c31 5209   4.030   0.537   0.482 -0.6330  0.2110 -0.4517
 1155poe     o2 5210   4.128   0.513   0.580 -0.9585 -0.1899 -0.2213
 1155poe    c23 5211   4.140   0.382   0.632 -0.3653  0.0856  0.3589
 1155poe    c23 5212   4.276   0.369   0.703  0.0971 -0.0661 -0.5335
 1155poe     o2 5213   4.306   0.490   0.770 -0.3635 -0.2629  0.0331
 1155poe    c23 5214   4.438   0.508   0.815 -0.3768  0.1919 -0.0997
 1155poe    c23 5215   4.442   0.642   0.890  0.1028  0.0885  0.0666
 1155poe     o2 5216   4.422   0.744   0.794 -0.7198 -0.1211  0.0056
 1155poe    c23 5217   4.426   0.862   0.871  0.4562  0.2379 -0.5754
 1155poe    c23 5218   4.436   0.994   0.792  0.4049  0.5286 -0.1012
 1155poe     o2 5219   4.331   1.002   0.699  0.3044  0.2413 -0.0143
 1155poe    c31 5220   4.328   1.126   0.631  0.0513  0.0145 -0.4179
 1156poe    c31 5221   3.096   2.292   4.536 -0.1488  0.1246 -0.2624
 1156poe     o2 5222   2.960   2.299   4.503 -0.3016  0.5298  0.4338
 1156poe    c23 5223   2.934   2.371   4.384  0.0699  0.2383  0.1772
 1156poe    c23 5224   2.800   2.331   4.321  0.3589  0.0535 -0.3308
 1156poe     o2 5225   2.811   2.217   4.239  0.3246  0.2962 -0.6794
 1156poe    c23 5226   2.678   2.179   4.211  0.3326 -0.5220  0.3395
 1156poe    c23 5227   2.656   2.045   4.139 -0.2534 -0.0658 -0.3403
 1156poe     o2 5228   2.693   2.057   4.004 -0.2047 -0.0494 -0.3253
 1156poe    c23 5229   2.709   1.935   3.936 -0.3248  0.1210 -0.6642
 1156poe    c23 5230   2.714   1.960   3.784 -0.3137  0.1424 -0.6602
 1156poe     o2 5231   2.804   2.062   3.749 -0.4509  0.4317 -0.1882
 1156poe    c31 5232   2.795   2.075   3.608  0.4954  0.0940 -0.2897
 1157poe    c31 5233   4.456   1.137   3.906  0.0325  0.2095  0.0531
 1157poe     o2 5234   4.492   1.273   3.897  0.0134  0.2591  0.6610
 1157poe    c23 5235   4.439   1.327   3.778  0.3048  0.0473  0.4314
 1157poe    c23 5236   4.507   1.462   3.749  0.9028 -0.3605 -0.0923
 1157poe     o2 5237   4.643   1.455   3.783  0.8113 -0.5204  0.2447
 1157poe    c23 5238   4.715   1.574   3.757  0.2010 -0.1782  0.0988
 1157poe    c23 5239   4.852   1.578   3.828  0.0656  0.7168  0.3267
 1157poe     o2 5240   4.838   1.572   3.968 -0.4654 -0.1649  0.2504
 1157poe    c23 5241   4.884   1.693   4.026  0.7133 -0.5830  0.2186
 1157poe    c23 5242   4.847   1.705   4.175  0.0629  0.3436 -0.0073
 1157poe     o2 5243   4.710   1.693   4.205  0.0753 -0.0908 -0.1148
 1157poe    c31 5244   4.702   1.721   4.343 -0.1818 -0.5470 -0.0340
 1158poe    c31 5245   5.882   6.319   3.009 -0.2957  0.0877  0.2439
 1158poe     o2 5246   6.006   6.385   2.996  0.0278 -0.5372  0.1257
 1158poe    c23 5247   6.089   6.391   3.110 -0.1730  0.2433  0.2359
 1158poe    c23 5248   6.220   6.461   3.070 -0.2954  0.2254 -0.1959
 1158poe     o2 5249   6.260   6.415   2.943  0.3130  0.2165 -0.0045
 1158poe    c23 5250   6.378   6.487   2.914  0.1987  0.3458 -0.1518
 1158poe    c23 5251   6.425   6.449   2.773 -0.1262  0.5565 -0.3167
 1158poe     o2 5252   6.320   6.493   2.688 -0.4204  0.4380 -0.0165
 1158poe    c23 5253   6.351   6.469   2.553  0.0058  0.1819  0.1230
 1158poe    c23 5254   6.249   6.524   2.452  0.2819  0.4152 -0.0309
 1158poe     o2 5255   6.198   6.655   2.438 -0.1494  0.2012 -0.5082
 1158poe    c31 5256   6.113   6.677   2.328  0.1139  1.0448 -0.5540
 1159poe    c31 5257   5.975   0.865   2.729 -0.6939  0.3057 -0.2977
 1159poe     o2 5258   6.045   0.770   2.652 -0.3686  0.5073 -0.2484
 1159poe    c23 5259   5.962   0.705   2.559 -0.2822 -0.0792  0.0786
 1159poe    c23 5260   6.038   0.637   2.443 -0.4145 -0.1156  0.0130
 1159poe     o2 5261   6.094   0.513   2.478 -0.3562 -0.1212 -0.1010
 1159poe    c23 5262   6.127   0.419   2.377  0.3334 -0.3870  0.3603
 1159poe    c23 5263   6.206   0.296   2.424  0.5985 -0.4903 -0.3458
 1159poe     o2 5264   6.167   0.275   2.558  0.0381 -0.6920 -0.5358
 1159poe    c23 5265   6.235   0.161   2.607  0.0436 -0.4276  0.0838
 1159poe    c23 5266   6.155   0.110   2.728 -0.2590  0.1207  0.1209
 1159poe     o2 5267   6.150   0.219   2.818  0.0547  0.2623 -0.0321
 1159poe    c31 5268   6.119   0.180   2.950  0.3531  0.6119  0.1426
 1160poe    c31 5269   2.481   2.014   2.193 -0.1184  0.0480 -0.4976
 1160poe     o2 5270   2.549   2.125   2.138  0.0774  0.3354  0.3136
 1160poe    c23 5271   2.529   2.244   2.210  0.1361  0.0990  0.7266
 1160poe    c23 5272   2.602   2.374   2.170  0.5223 -0.5020 -0.5761
 1160poe     o2 5273   2.739   2.342   2.161  0.6241 -0.1583 -0.2649
 1160poe    c23 5274   2.830   2.450   2.163  0.1447  0.2395  0.2266
 1160poe    c23 5275   2.867   2.508   2.025  0.1715 -0.3457 -0.0142
 1160poe     o2 5276   2.934   2.401   1.963 -0.2795 -0.8332  0.3312
 1160poe    c23 5277   2.975   2.429   1.831 -0.1943  0.5723  0.6370
 1160poe    c23 5278   2.890   2.332   1.746  0.2669  0.2704  0.5154
 1160poe     o2 5279   2.883   2.214   1.823  0.6272  0.1172  0.3107
 1160poe    c31 5280   2.861   2.099   1.745  0.4310  0.2102  0.2295
 1161poe    c31 5281   3.963   1.675   2.099  0.1399  0.1543  0.3122
 1161poe     o2 5282   3.828   1.713   2.092  0.1145  0.0017 -0.0673
 1161poe    c23 5283   3.740   1.606   2.118  0.3608 -0.0495  0.5551
 1161poe    c23 5284   3.599   1.642   2.069  0.3826  0.0748  0.5825
 1161poe     o2 5285   3.577   1.767   2.130  0.1090  0.3413 -0.0528
 1161poe    c23 5286   3.443   1.811   2.119 -0.1594 -0.3266  0.4342
 1161poe    c23 5287   3.412   1.956   2.163 -0.4589 -0.1342 -0.3967
 1161poe     o2 5288   3.486   2.037   2.075 -0.1554  0.1235  0.0901
 1161poe    c23 5289   3.475   2.175   2.101 -0.5248  0.2537 -0.7091
 1161poe    c23 5290   3.597   2.255   2.051 -0.0088  0.0471  0.1951
 1161poe     o2 5291   3.714   2.227   2.125  0.1046  0.4089  0.1567
 1161poe    c31 5292   3.812   2.328   2.117  0.0829  0.3737 -0.6173
 1162poe    c31 5293   6.607   3.073   5.060  0.5131 -0.3249 -0.1044
 1162poe     o2 5294   6.715   3.092   4.971  0.7777 -0.2035  0.2381
 1162poe    c23 5295   6.654   3.159   4.863 -0.0758 -0.1106  0.7647
 1162poe    c23 5296   6.751   3.268   4.814 -0.3701 -0.2470 -0.1364
 1162poe     o2 5297   6.882   3.216   4.814 -0.2023  0.1696  0.3659
 1162poe    c23 5298   6.972   3.307   4.754 -0.2037  0.4909  0.8403
 1162poe    c23 5299   7.119   3.271   4.782 -0.1707  0.0869  0.1661
 1162poe     o2 5300   7.143   3.143   4.728  0.0916  0.1253  0.1924
 1162poe    c23 5301   7.279   3.106   4.738  0.1764  0.3992  0.0468
 1162poe    c23 5302   7.301   2.971   4.667 -0.3844  0.3518 -0.0430
 1162poe     o2 5303   7.218   2.873   4.726 -0.8326  0.5241 -0.3846
 1162poe    c31 5304   7.259   2.745   4.682 -0.2382  0.5201  0.1720
 1163poe    c31 5305   4.337   4.768   3.158  0.4735 -0.0220 -0.1818
 1163poe     o2 5306   4.449   4.751   3.243  0.7713 -0.3821 -0.6444
 1163poe    c23 5307   4.452   4.633   3.320 -0.3098 -0.1051 -0.1688
 1163poe    c23 5308   4.600   4.632   3.363 -0.2803 -0.0707 -0.2704
 1163poe     o2 5309   4.627   4.758   3.420 -0.4052 -0.2645  0.2224
 1163poe    c23 5310   4.750   4.771   3.488 -0.3111  0.0514 -0.0082
 1163poe    c23 5311   4.773   4.917   3.531  0.3814  0.0711 -0.4319
 1163poe     o2 5312   4.759   4.998   3.416 -0.2986 -0.2629 -0.5859
 1163poe    c23 5313   4.825   5.121   3.434 -0.6671 -0.0416 -0.7209
 1163poe    c23 5314   4.809   5.214   3.313  0.0758 -0.0902 -0.8643
 1163poe     o2 5315   4.674   5.222   3.273 -0.0858  0.6224 -0.2029
 1163poe    c31 5316   4.682   5.298   3.154  0.7390  0.2460 -0.3887
 1164poe    c31 5317   1.290   4.667   6.882  0.0938 -0.2249 -0.3355
 1164poe     o2 5318   1.238   4.696   7.010  0.0549 -0.1669 -0.3648
 1164poe    c23 5319   1.098   4.687   7.009  0.0666 -0.3493 -0.4170
 1164poe    c23 5320   1.055   4.710   7.155  0.2622 -0.5463 -0.3292
 1164poe     o2 5321   1.107   4.597   7.223 -0.1170 -0.4214  0.1735
 1164poe    c23 5322   1.085   4.598   7.362  0.1269 -0.1295  0.2112
 1164poe    c23 5323   1.107   4.460   7.426  0.0036 -0.0726  0.3771
 1164poe     o2 5324   1.241   4.432   7.393 -0.2050 -0.3510 -0.2586
 1164poe    c23 5325   1.279   4.314   7.458 -0.0193 -0.3727 -0.4037
 1164poe    c23 5326   1.402   4.264   7.381  0.3977  0.2080 -0.1158
 1164poe     o2 5327   1.385   4.299   7.246  0.1442  0.9170  0.0945
 1164poe    c31 5328   1.492   4.251   7.168 -0.1623 -0.7692  0.6671
 1165poe    c31 5329   0.479   5.538   3.379  0.1317  0.4659  0.5460
 1165poe     o2 5330   0.619   5.557   3.368  0.0103  0.7500 -0.5768
 1165poe    c23 5331   0.657   5.625   3.485  0.2584 -0.3248 -0.0110
 1165poe    c23 5332   0.810   5.635   3.471  0.2145  0.1934 -0.1612
 1165poe     o2 5333   0.847   5.675   3.341  0.2055  0.4810 -0.0765
 1165poe    c23 5334   0.980   5.721   3.341  0.4463 -0.2052  0.7017
 1165poe    c23 5335   1.042   5.736   3.201 -0.4700 -0.5073  0.2573
 1165poe     o2 5336   0.950   5.819   3.135  0.5026  0.4093  0.0305
 1165poe    c23 5337   1.001   5.887   3.022  0.8784 -0.3660 -0.2737
 1165poe    c23 5338   0.898   5.961   2.934  0.3031 -0.6012  0.1934
 1165poe     o2 5339   0.829   5.877   2.844 -0.0457  0.1302 -0.2376
 1165poe    c31 5340   0.746   5.959   2.766  0.3225  0.6363 -0.1053
 1166poe    c31 5341   5.444   5.223   1.493  0.1344  0.1678 -0.4495
 1166poe     o2 5342   5.422   5.360   1.464 -0.2237  0.1911 -0.0758
 1166poe    c23 5343   5.379   5.367   1.330  0.4757 -0.1926 -0.3250
 1166poe    c23 5344   5.336   5.513   1.306 -0.2913 -0.1336  1.2473
 1166poe     o2 5345   5.450   5.584   1.350  0.0598  0.0895  0.0217
 1166poe    c23 5346   5.434   5.723   1.338 -0.8584 -0.0031  0.0660
 1166poe    c23 5347   5.498   5.787   1.463 -0.3302 -0.4004  0.0027
 1166poe     o2 5348   5.484   5.689   1.564 -0.4282 -0.0472  0.3330
 1166poe    c23 5349   5.417   5.748   1.674  0.0122  0.4710  0.3263
 1166poe    c23 5350   5.374   5.632   1.765  0.0785 -0.1038 -0.3574
 1166poe     o2 5351   5.326   5.522   1.692 -0.0487 -0.0145 -0.4083
 1166poe    c31 5352   5.249   5.448   1.784  0.2760  0.2633  0.0933
 1167poe    c31 5353   4.063   1.574   4.549 -0.3297  0.0744  0.6660
 1167poe     o2 5354   4.080   1.559   4.688 -0.0633  0.0745  0.6348
 1167poe    c23 5355   4.201   1.506   4.735  0.1319  0.2797  0.3656
 1167poe    c23 5356   4.170   1.449   4.875 -0.7571 -0.0177  0.0529
 1167poe     o2 5357   4.086   1.546   4.934 -0.3161  0.5538 -0.2398
 1167poe    c23 5358   4.038   1.514   5.063  0.1281 -0.0459 -0.2197
 1167poe    c23 5359   3.915   1.598   5.101 -0.1789 -0.5232 -0.1419
 1167poe     o2 5360   3.824   1.606   4.994 -0.4635  0.2099  0.1450
 1167poe    c23 5361   3.747   1.724   4.991 -0.3740  0.2700  0.2007
 1167poe    c23 5362   3.826   1.844   4.936  0.2387 -0.3089 -0.1998
 1167poe     o2 5363   3.896   1.793   4.825  0.2358 -0.2983 -0.2064
 1167poe    c31 5364   3.960   1.884   4.738  0.3055  0.2192  0.3759
 1168poe    c31 5365   6.052   3.149   0.177 -0.1861  0.1185 -0.1671
 1168poe     o2 5366   5.941   3.229   0.210 -0.3397 -0.2434  0.2117
 1168poe    c23 5367   5.821   3.159   0.187  0.0460 -0.5829 -0.7988
 1168poe    c23 5368   5.703   3.251   0.224  0.5716 -0.2854  0.1803
 1168poe     o2 5369   5.705   3.290   0.359  0.0017 -0.8193  0.3469
 1168poe    c23 5370   5.609   3.386   0.397  0.1587 -0.2669 -0.6347
 1168poe    c23 5371   5.562   3.363   0.541  0.6826  0.8753 -0.2619
 1168poe     o2 5372   5.669   3.338   0.630  0.3243  1.0436  0.2225
 1168poe    c23 5373   5.632   3.323   0.765  0.1799  1.3366  0.2151
 1168poe    c23 5374   5.763   3.280   0.832 -0.1704  0.3860  0.3103
 1168poe     o2 5375   5.844   3.193   0.757 -0.0198 -0.2870  1.2337
 1168poe    c31 5376   5.953   3.147   0.833  0.3781 -0.4025  0.6044
 1169poe    c31 5377   5.584   1.228   1.071 -0.1036  0.9691  0.5111
 1169poe     o2 5378   5.632   1.222   1.203 -0.6283  0.0630  0.6697
 1169poe    c23 5379   5.622   1.089   1.248  0.0908 -0.2260 -0.0085
 1169poe    c23 5380   5.594   1.082   1.399 -0.1431 -0.2100 -0.0512
 1169poe     o2 5381   5.680   1.182   1.448 -0.2235 -0.0533 -0.2264
 1169poe    c23 5382   5.704   1.190   1.587  0.0578  0.0564 -0.2800
 1169poe    c23 5383   5.830   1.278   1.594  0.0164  0.1041 -0.1238
 1169poe     o2 5384   5.828   1.383   1.500 -0.1415  0.6491  0.4754
 1169poe    c23 5385   5.941   1.465   1.518 -0.1689  0.6917  0.4540
 1169poe    c23 5386   5.926   1.587   1.425 -0.0585  0.1069 -0.3405
 1169poe     o2 5387   5.922   1.569   1.286  0.3656 -0.3281 -0.2956
 1169poe    c31 5388   5.887   1.693   1.229 -0.5574 -0.4652 -0.0375
 1170poe    c31 5389   6.614   6.707   4.172  0.4106  0.0084 -0.4249
 1170poe     o2 5390   6.754   6.725   4.160  0.4404  0.1605  0.1202
 1170poe    c23 5391   6.820   6.648   4.257 -0.1957 -0.6090 -0.0441
 1170poe    c23 5392   6.965   6.700   4.250 -0.2751 -0.3978 -0.1271
 1170poe     o2 5393   6.988   6.837   4.275 -0.3393 -0.5232  0.6567
 1170poe    c23 5394   7.073   6.864   4.385  0.0444  0.0099  0.2365
 1170poe    c23 5395   7.059   7.011   4.425 -0.3060 -0.1044  0.5414
 1170poe     o2 5396   7.058   7.096   4.312  0.5016  0.0352  0.6268
 1170poe    c23 5397   7.016   7.227   4.343  0.5262  0.1417  0.2143
 1170poe    c23 5398   7.043   7.308   4.215  0.4802 -0.7288 -0.3518
 1170poe     o2 5399   6.995   7.239   4.101 -0.1228 -0.4432 -0.2793
 1170poe    c31 5400   7.016   7.319   3.987 -0.4830 -0.1448 -0.1339
 1171poe    c31 5401   3.828   5.052   4.275 -0.1964 -0.2306 -0.1874
 1171poe     o2 5402   3.860   4.935   4.204 -0.4568 -0.2346 -0.2991
 1171poe    c23 5403   3.934   4.969   4.089 -0.7423 -0.4872 -0.5599
 1171poe    c23 5404   4.084   4.969   4.124 -0.9135 -0.4557  0.2084
 1171poe     o2 5405   4.125   4.854   4.193  0.0740 -0.1704  0.1125
 1171poe    c23 5406   4.260   4.829   4.161  0.0373 -0.0620 -0.1226
 1171poe    c23 5407   4.303   4.693   4.219  0.2123  0.2699  0.5349
 1171poe     o2 5408   4.240   4.683   4.344 -0.3738 -0.5509  0.1796
 1171poe    c23 5409   4.296   4.566   4.400 -0.1236 -0.4914  0.0548
 1171poe    c23 5410   4.252   4.528   4.542 -0.2582  0.2198  0.2063
 1171poe     o2 5411   4.114   4.501   4.560 -0.2242 -0.1594 -0.0765
 1171poe    c31 5412   4.092   4.461   4.693 -0.2065  0.4533  0.1154
 1172poe    c31 5413   2.000   5.730   1.420  0.2400 -0.4937 -0.2394
 1172poe     o2 5414   2.028   5.796   1.298 -0.5140  0.2800 -0.0073
 1172poe    c23 5415   2.169   5.804   1.303 -0.4858 -0.3656  0.2966
 1172poe    c23 5416   2.200   5.866   1.166 -0.2212 -0.0964  0.4763
 1172poe     o2 5417   2.112   5.809   1.072  0.0292  0.2949  0.0003
 1172poe    c23 5418   2.157   5.850   0.945 -0.7518  0.7115 -0.1498
 1172poe    c23 5419   2.067   5.803   0.829 -0.5582 -0.2726  0.0966
 1172poe     o2 5420   1.954   5.885   0.814 -0.2192  0.1002 -0.4438
 1172poe    c23 5421   1.930   5.918   0.679  0.1229  0.0567 -0.5166
 1172poe    c23 5422   1.788   5.969   0.647  0.2298  0.4852 -0.3278
 1172poe     o2 5423   1.755   6.090   0.710 -0.4483 -0.1196  0.5082
 1172poe    c31 5424   1.640   6.155   0.662  0.1993  0.1436 -0.7252
 1173poe    c31 5425   0.275   5.676   0.415  0.4186 -0.2606 -0.2077
 1173poe     o2 5426   0.153   5.730   0.461  0.8941  0.1692  0.5557
 1173poe    c23 5427   0.093   5.657   0.566  0.6448  0.2877  0.4961
 1173poe    c23 5428  -0.024   5.744   0.616  0.0301 -0.0999 -0.2492
 1173poe     o2 5429  -0.091   5.758   0.492 -0.0124 -0.1969 -0.2370
 1173poe    c23 5430  -0.223   5.804   0.507  0.2766  0.5815 -0.0676
 1173poe    c23 5431  -0.304   5.818   0.377 -0.1216  0.0820  0.1241
 1173poe     o2 5432  -0.219   5.882   0.283  0.1315  0.2425  0.4615
 1173poe    c23 5433  -0.271   5.900   0.154 -0.2297  0.3245  0.6180
 1173poe    c23 5434  -0.170   5.941   0.045 -0.7807 -0.0425 -0.0403
 1173poe     o2 5435  -0.073   5.840   0.031 -0.4732  0.2765 -0.2288
 1173poe    c31 5436  -0.049   5.797  -0.101  0.0642  0.0545 -0.0626
 1174poe    c31 5437   2.057   3.371   6.807  0.2428  0.3719  0.3698
 1174poe     o2 5438   2.005   3.255   6.867  0.2963  0.1215 -0.0672
 1174poe    c23 5439   1.981   3.281   7.003 -0.0197  0.4065 -0.1773
 1174poe    c23 5440   1.938   3.142   7.053  0.5006  0.0843 -0.6233
 1174poe     o2 5441   1.821   3.110   6.981  0.0560 -0.2090  0.2094
 1174poe    c23 5442   1.762   2.984   7.002  0.0097 -0.2629 -0.2248
 1174poe    c23 5443   1.651   2.954   6.899 -0.4019 -0.3073  0.2271
 1174poe     o2 5444   1.693   2.995   6.771 -0.5267  0.2786  0.3734
 1174poe    c23 5445   1.583   2.978   6.685 -0.1723  0.2664 -0.0806
 1174poe    c23 5446   1.607   3.019   6.538  0.9189 -0.5254 -0.1381
 1174poe     o2 5447   1.632   3.157   6.520  0.5611 -0.3868  0.4023
 1174poe    c31 5448   1.624   3.185   6.383  0.3797  0.2044  0.5319
 1175poe    c31 5449   4.692   3.827   4.533 -0.3241  0.0049 -0.1140
 1175poe     o2 5450   4.606   3.790   4.639  0.2581  0.3612  0.4944
 1175poe    c23 5451   4.668   3.681   4.703 -0.3148 -0.0725  0.3177
 1175poe    c23 5452   4.611   3.659   4.844 -0.2990  0.1571  0.3592
 1175poe     o2 5453   4.470   3.673   4.837 -0.2605  0.2393 -0.3938
 1175poe    c23 5454   4.410   3.598   4.941 -0.2842  0.9742  0.1314
 1175poe    c23 5455   4.262   3.600   4.896 -0.2413  0.5550 -0.0310
 1175poe     o2 5456   4.251   3.504   4.794 -0.3593 -0.0037  0.5021
 1175poe    c23 5457   4.120   3.478   4.748 -0.2601  0.1802  0.1132
 1175poe    c23 5458   4.130   3.436   4.600  0.1767 -0.1471  0.2364
 1175poe     o2 5459   4.179   3.546   4.527  0.4553  0.0268  0.6811
 1175poe    c31 5460   4.245   3.486   4.418  0.1148  0.3751  0.2785
 1176poe    c31 5461   0.534   6.922   4.221  0.6413 -0.0196 -0.8041
 1176poe     o2 5462   0.605   6.807   4.260 -0.0422 -0.0886  0.3041
 1176poe    c23 5463   0.657   6.822   4.390  0.4175 -0.3224  0.1528
 1176poe    c23 5464   0.797   6.761   4.377  0.3882 -0.3705  0.0632
 1176poe     o2 5465   0.783   6.634   4.317  0.0067 -0.4060  0.2248
 1176poe    c23 5466   0.898   6.555   4.341  0.1899 -0.1982  0.0386
 1176poe    c23 5467   0.891   6.423   4.262 -0.0923  0.0351 -0.3301
 1176poe     o2 5468   0.909   6.448   4.125  0.0749  0.0560 -0.3041
 1176poe    c23 5469   0.886   6.329   4.052  0.1460  0.0314 -0.2858
 1176poe    c23 5470   0.913   6.353   3.903 -0.2783 -0.7052 -0.4859
 1176poe     o2 5471   0.830   6.457   3.856 -0.1356 -0.5114 -0.3103
 1176poe    c31 5472   0.868   6.509   3.731  0.1337 -0.1488 -0.0810
 1177poe    c31 5473   4.843   1.978   6.655 -0.0554  1.0568 -0.8510
 1177poe     o2 5474   4.957   1.914   6.604 -0.1157  0.4245 -0.2138
 1177poe    c23 5475   4.975   1.795   6.678  0.0962 -0.0219 -0.9653
 1177poe    c23 5476   5.112   1.725   6.665  0.1510 -0.0488 -0.2607
 1177poe     o2 5477   5.151   1.685   6.536 -0.1424 -0.3559 -0.2560
 1177poe    c23 5478   5.273   1.616   6.545 -0.2093 -0.4061  0.3342
 1177poe    c23 5479   5.290   1.577   6.396 -0.2967  0.3263  0.1299
 1177poe     o2 5480   5.268   1.680   6.303 -0.1272 -0.1614 -0.4529
 1177poe    c23 5481   5.287   1.627   6.174  0.0198 -0.2611 -0.3901
 1177poe    c23 5482   5.242   1.737   6.076  0.5096  0.3357  0.0529
 1177poe     o2 5483   5.116   1.780   6.124  0.1053 -0.3422 -0.3929
 1177poe    c31 5484   5.069   1.881   6.037  0.4819  0.0917 -0.0987
 1178poe    c31 5485   2.438   3.538   3.141  0.1036  0.0573  0.5483
 1178poe     o2 5486   2.418   3.670   3.099  0.5156 -0.1656 -0.3796
 1178poe    c23 5487   2.532   3.751   3.113  0.2377  0.2849 -0.6757
 1178poe    c23 5488   2.523   3.902   3.081  0.4235  0.5216  0.3594
 1178poe     o2 5489   2.480   3.927   2.949 -0.1185  0.2455  0.4814
 1178poe    c23 5490   2.490   4.066   2.925 -0.5011  0.2568  0.3806
 1178poe    c23 5491   2.417   4.089   2.791  0.5463 -0.3395 -0.3118
 1178poe     o2 5492   2.281   4.062   2.814  0.2625  1.1762 -0.1132
 1178poe    c23 5493   2.210   4.046   2.694  0.3746 -0.1233 -0.0241
 1178poe    c23 5494   2.061   4.053   2.733  0.4346  0.1564  0.1509
 1178poe     o2 5495   2.057   3.984   2.856 -0.2011 -0.0259  0.0307
 1178poe    c31 5496   1.931   3.991   2.918 -0.0257  0.7163  0.3170
 1179poe    c31 5497   0.409   4.022   4.537 -0.3543  0.4380 -0.1008
 1179poe     o2 5498   0.282   4.052   4.590 -0.4251  0.2948 -0.1889
 1179poe    c23 5499   0.191   4.135   4.522 -0.3114  0.3077 -0.3247
 1179poe    c23 5500   0.068   4.165   4.609 -0.0432  0.2911  0.0597
 1179poe     o2 5501   0.035   4.044   4.674  0.3860  0.0697 -0.1312
 1179poe    c23 5502  -0.099   4.020   4.713  0.2065  0.4407 -0.5136
 1179poe    c23 5503  -0.107   3.878   4.772  0.3567  0.5999 -0.1098
 1179poe     o2 5504   0.003   3.842   4.852  0.5486  0.2055 -0.5503
 1179poe    c23 5505  -0.013   3.718   4.917  0.5705  0.4676 -0.0393
 1179poe    c23 5506   0.109   3.686   5.005  0.1218 -0.0690  0.3887
 1179poe     o2 5507   0.230   3.673   4.933  0.1449  0.5989  0.3033
 1179poe    c31 5508   0.339   3.660   5.021  0.1843 -0.1345  0.1485
 1180poe    c31 5509   0.987   5.051   1.080 -0.0419  0.6029 -0.7949
 1180poe     o2 5510   0.905   5.077   1.191  0.1346 -0.4034 -0.4216
 1180poe    c23 5511   0.980   5.156   1.281 -0.5223 -0.0176 -0.2016
 1180poe    c23 5512   0.896   5.229   1.387 -0.2745  0.1917 -0.1464
 1180poe     o2 5513   0.790   5.138   1.407 -0.3369  0.4296  0.6132
 1180poe    c23 5514   0.725   5.157   1.531  0.1875  0.1536  0.9328
 1180poe    c23 5515   0.660   5.024   1.574 -0.1681  0.0818  0.1835
 1180poe     o2 5516   0.590   4.989   1.457  0.1256 -0.0394  0.0415
 1180poe    c23 5517   0.498   4.882   1.465 -0.0861  0.1450  0.0891
 1180poe    c23 5518   0.406   4.869   1.343  0.2649 -0.6269 -0.0951
 1180poe     o2 5519   0.467   4.851   1.217  0.3023 -0.4620 -0.1005
 1180poe    c31 5520   0.366   4.850   1.119  0.0049 -0.0251  0.1985
 1181poe    c31 5521   5.733   3.647   5.480 -0.2767  0.1519  0.5611
 1181poe     o2 5522   5.661   3.698   5.370 -0.0377 -0.3602  0.1662
 1181poe    c23 5523   5.740   3.712   5.254 -0.4141 -0.1950 -0.0698
 1181poe    c23 5524   5.648   3.727   5.131  0.5390  0.7759 -0.6850
 1181poe     o2 5525   5.546   3.823   5.152 -0.0959  0.0558 -0.4066
 1181poe    c23 5526   5.477   3.843   5.031  0.6106  0.8576 -0.6942
 1181poe    c23 5527   5.372   3.951   5.065 -0.2477 -0.1286 -0.1277
 1181poe     o2 5528   5.320   3.928   5.194  0.3220 -0.1726  0.1015
 1181poe    c23 5529   5.228   4.032   5.220  0.3075 -0.1763  0.0674
 1181poe    c23 5530   5.206   4.032   5.372 -0.2866  0.0821 -0.0148
 1181poe     o2 5531   5.334   4.001   5.424 -0.2944 -0.1562 -0.1388
 1181poe    c31 5532   5.354   3.991   5.563 -0.6290  0.4673 -0.0430
 1182poe    c31 5533   0.424   0.883   6.723 -0.2489 -0.2427  0.0898
 1182poe     o2 5534   0.564   0.899   6.729 -0.2734  0.0509 -0.0621
 1182poe    c23 5535   0.622   0.859   6.851  0.3832  0.3318 -0.2807
 1182poe    c23 5536   0.775   0.873   6.862  0.3970 -0.3617  0.5184
 1182poe     o2 5537   0.850   0.808   6.762  0.1665  0.0091  0.1016
 1182poe    c23 5538   0.860   0.668   6.771 -0.1474 -0.0389 -0.2907
 1182poe    c23 5539   0.939   0.599   6.657 -0.6084 -1.3726  0.1755
 1182poe     o2 5540   0.855   0.599   6.544  0.1249  0.2331 -0.3992
 1182poe    c23 5541   0.931   0.560   6.431  0.1382 -0.1036 -0.2764
 1182poe    c23 5542   0.824   0.508   6.334 -0.1290 -0.0964  0.0135
 1182poe     o2 5543   0.734   0.611   6.299 -0.0805  0.0468  0.3054
 1182poe    c31 5544   0.774   0.681   6.183 -0.2978 -0.5647 -0.1395
 1183poe    c31 5545   2.585   4.058   4.972 -0.3569 -0.7700  0.1335
 1183poe     o2 5546   2.528   4.171   5.033 -0.0901 -0.4297 -0.2463
 1183poe    c23 5547   2.517   4.277   4.940  0.4927 -0.0097  0.1511
 1183poe    c23 5548   2.404   4.373   4.983  0.3500 -0.2554  0.3318
 1183poe     o2 5549   2.417   4.431   5.110 -0.4925  0.2399  0.1970
 1183poe    c23 5550   2.350   4.555   5.106 -0.5611  0.1901 -0.1862
 1183poe    c23 5551   2.403   4.636   5.226 -0.3542 -0.4037  0.1232
 1183poe     o2 5552   2.376   4.555   5.338  0.1570 -0.1655  0.4212
 1183poe    c23 5553   2.445   4.602   5.452 -0.0939  0.2645  0.3971
 1183poe    c23 5554   2.415   4.501   5.564  0.2153 -0.0357  0.2116
 1183poe     o2 5555   2.431   4.370   5.515 -0.3250 -0.0544  0.0746
 1183poe    c31 5556   2.388   4.279   5.614  0.0191 -0.5995 -0.2732
 1184poe    c31 5557   3.504   0.939   2.902  0.1154  0.8142 -0.0863
 1184poe     o2 5558   3.489   0.988   2.771 -0.0681 -0.5769 -0.6122
 1184poe    c23 5559   3.405   1.101   2.784  0.4490 -0.2523 -0.0132
 1184poe    c23 5560   3.406   1.177   2.650  0.0917 -0.2929 -0.0417
 1184poe     o2 5561   3.372   1.086   2.548  0.2813  0.0621 -0.4254
 1184poe    c23 5562   3.374   1.131   2.415 -0.0289 -0.0819 -0.4800
 1184poe    c23 5563   3.479   1.043   2.343  0.3034 -0.1202  0.0479
 1184poe     o2 5564   3.446   0.915   2.394  0.4428 -0.0245  0.3822
 1184poe    c23 5565   3.529   0.810   2.352 -0.1995 -0.3326 -0.1415
 1184poe    c23 5566   3.469   0.692   2.430  0.6036 -0.1352  0.7899
 1184poe     o2 5567   3.481   0.729   2.566  0.6927  0.5545  0.5959
 1184poe    c31 5568   3.433   0.635   2.659 -0.2565  0.2036 -0.2198
 1185poe    c31 5569   6.123   4.024   0.190 -0.3582 -0.1424  0.1393
 1185poe     o2 5570   6.041   4.097   0.102 -0.0057  0.2800  0.1596
 1185poe    c23 5571   6.123   4.172   0.015 -0.3279  0.3410 -0.0921
 1185poe    c23 5572   6.035   4.206  -0.107 -0.1954  0.0180 -0.2801
 1185poe     o2 5573   5.929   4.113  -0.117 -0.1823 -0.0395  0.0850
 1185poe    c23 5574   5.902   4.078  -0.251  0.5390 -0.1850 -0.0275
 1185poe    c23 5575   5.781   4.152  -0.312  0.6314  0.0380  0.0589
 1185poe     o2 5576   5.684   4.163  -0.209 -0.1409 -0.3111 -0.6187
 1185poe    c23 5577   5.554   4.185  -0.258 -0.6118 -0.9862  0.3157
 1185poe    c23 5578   5.447   4.202  -0.148  0.0323 -0.0459  0.8186
 1185poe     o2 5579   5.461   4.336  -0.109  0.3208 -0.0640  0.7771
 1185poe    c31 5580   5.360   4.371  -0.017 -0.1454 -0.4029  0.3950
 1186poe    c31 5581   5.688   4.444   0.860 -0.6704 -0.0092  0.1108
 1186poe     o2 5582   5.698   4.308   0.895 -0.4149  0.0270  0.1789
 1186poe    c23 5583   5.657   4.274   1.026 -0.2419  0.1334  0.2606
 1186poe    c23 5584   5.743   4.160   1.085 -0.2502  0.0213  0.0585
 1186poe     o2 5585   5.880   4.195   1.081 -0.2313 -0.0843 -0.2664
 1186poe    c23 5586   5.955   4.079   1.109  0.3369  0.2626 -0.3553
 1186poe    c23 5587   6.089   4.121   1.173  0.0620  0.5292  0.0534
 1186poe     o2 5588   6.128   4.223   1.083  0.2505  0.0822 -0.3769
 1186poe    c23 5589   6.243   4.296   1.118  0.4234 -0.2100 -0.3276
 1186poe    c23 5590   6.256   4.431   1.045 -0.0059  0.5068  0.8772
 1186poe     o2 5591   6.129   4.492   1.041 -0.0104  0.4593  0.1836
 1186poe    c31 5592   6.140   4.622   0.988  0.4922  0.3533  0.0250
 1187poe    c31 5593   0.947   5.489   5.300 -0.4000 -0.3989 -0.5759
 1187poe     o2 5594   0.873   5.542   5.192  0.0758 -0.4796 -0.9433
 1187poe    c23 5595   0.755   5.465   5.181 -0.2469 -0.0635 -0.4072
 1187poe    c23 5596   0.648   5.520   5.085 -0.1479  0.1791 -0.3796
 1187poe     o2 5597   0.591   5.640   5.133  0.7065  0.3389  0.2475
 1187poe    c23 5598   0.539   5.703   5.018  0.2425  0.0124  0.2807
 1187poe    c23 5599   0.467   5.835   5.051  0.4991  0.1972  0.0935
 1187poe     o2 5600   0.384   5.812   5.162  0.7004  0.3907  0.2844
 1187poe    c23 5601   0.359   5.929   5.237 -0.6598  0.3568 -0.0927
 1187poe    c23 5602   0.292   5.876   5.365 -0.2001 -0.4217 -0.1651
 1187poe     o2 5603   0.378   5.785   5.429 -0.0821 -0.2921 -0.1394
 1187poe    c31 5604   0.335   5.758   5.560 -0.1839  0.4139 -0.0226
 1188poe    c31 5605   4.705   5.815   6.665 -0.5020 -0.1803 -0.4135
 1188poe     o2 5606   4.613   5.915   6.628 -0.0457  0.4978  0.2356
 1188poe    c23 5607   4.533   5.955   6.737 -0.3612  0.2579  0.0979
 1188poe    c23 5608   4.408   6.036   6.698 -0.3818  0.1554 -0.0489
 1188poe     o2 5609   4.348   5.970   6.589  0.5004 -0.6499 -0.0614
 1188poe    c23 5610   4.220   6.021   6.559  0.7355 -0.1066 -0.1535
 1188poe    c23 5611   4.146   5.941   6.450 -0.2522 -0.1550  0.5369
 1188poe     o2 5612   4.226   5.959   6.335 -0.1189  0.0186  0.6551
 1188poe    c23 5613   4.159   5.920   6.217  0.5965  0.5575  0.0633
 1188poe    c23 5614   4.181   5.774   6.173 -0.1172  0.2996  0.5379
 1188poe     o2 5615   4.321   5.758   6.166 -0.1654  0.1093 -0.0185
 1188poe    c31 5616   4.347   5.658   6.070  0.0962  0.0117  0.1505
 1189poe    c31 5617   1.977   5.761   2.854 -0.2702 -0.1029  0.3449
 1189poe     o2 5618   2.022   5.883   2.799 -0.6102 -0.4406 -0.7037
 1189poe    c23 5619   1.928   5.980   2.840 -0.0878  0.0527 -0.6537
 1189poe    c23 5620   1.955   6.114   2.770  0.1143  0.4934  0.2649
 1189poe     o2 5621   2.090   6.155   2.770  0.3751 -0.3554  0.2567
 1189poe    c23 5622   2.108   6.290   2.735  0.0943 -0.2765  0.4139
 1189poe    c23 5623   2.257   6.328   2.753  0.1614 -0.0809 -0.4946
 1189poe     o2 5624   2.351   6.243   2.692 -0.1618 -0.9792  0.2329
 1189poe    c23 5625   2.473   6.269   2.759 -0.0316 -0.4028 -0.2205
 1189poe    c23 5626   2.575   6.180   2.686  0.4666 -0.3002  0.3455
 1189poe     o2 5627   2.531   6.047   2.669 -0.1019 -0.1045  0.2849
 1189poe    c31 5628   2.644   5.964   2.667 -0.2224 -0.2654  0.1245
 1190poe    c31 5629   3.652   0.811   6.913  0.1347 -0.8583 -0.7068
 1190poe     o2 5630   3.549   0.738   6.977  0.0436  0.3949  0.6209
 1190poe    c23 5631   3.481   0.807   7.080  0.0616  0.5626  0.5218
 1190poe    c23 5632   3.358   0.728   7.129  0.0520 -0.0068 -0.4033
 1190poe     o2 5633   3.390   0.598   7.176 -0.0130  0.4716  0.9962
 1190poe    c23 5634   3.277   0.549   7.244 -0.2542 -0.5086 -0.0743
 1190poe    c23 5635   3.294   0.396   7.240 -0.0149 -0.4732 -0.4215
 1190poe     o2 5636   3.421   0.348   7.278 -0.2913 -0.1255  0.9926
 1190poe    c23 5637   3.449   0.212   7.259  0.0714  0.0454  0.2647
 1190poe    c23 5638   3.600   0.184   7.263  0.0813  0.0926  0.2237
 1190poe     o2 5639   3.660   0.292   7.195  0.0694  0.1944  0.3743
 1190poe    c31 5640   3.801   0.286   7.202  0.1176  0.5093 -0.2706
 1191poe    c31 5641   0.097   2.410   3.073  0.2653  0.2087  0.2148
 1191poe     o2 5642   0.104   2.313   3.175  0.3947 -0.2397 -0.2164
 1191poe    c23 5643   0.197   2.211   3.148  0.2234 -0.4494 -0.0249
 1191poe    c23 5644   0.194   2.091   3.245 -0.3736 -0.1978  0.2707
 1191poe     o2 5645   0.213   2.143   3.375  0.0616 -0.2705  0.2383
 1191poe    c23 5646   0.182   2.047   3.474 -0.1175 -0.2413  0.2114
 1191poe    c23 5647   0.238   2.102   3.606  0.1868  0.2227 -0.1036
 1191poe     o2 5648   0.191   2.233   3.630 -0.1306  0.1493 -0.3163
 1191poe    c23 5649   0.260   2.293   3.737 -0.1480  0.1492 -0.3049
 1191poe    c23 5650   0.204   2.428   3.787  0.1441  0.0575  0.2766
 1191poe     o2 5651   0.182   2.516   3.679  0.4623 -0.0082  0.1565
 1191poe    c31 5652   0.156   2.643   3.736 -0.5891 -0.2312  0.1904
 1192poe    c31 5653   1.585   4.775   4.223  0.3545 -0.5073  0.2217
 1192poe     o2 5654   1.494   4.752   4.327 -0.0701  0.0779 -0.0160
 1192poe    c23 5655   1.567   4.714   4.442 -0.5071 -0.0649  0.2172
 1192poe    c23 5656   1.481   4.638   4.545  0.0495 -0.6201  0.2747
 1192poe     o2 5657   1.377   4.712   4.604 -0.0228 -0.1320 -0.4576
 1192poe    c23 5658   1.274   4.632   4.658  0.0046  0.0145 -0.1899
 1192poe    c23 5659   1.158   4.714   4.717  0.1635  0.2403 -0.1912
 1192poe     o2 5660   1.087   4.800   4.631  0.5988  0.5055 -0.2905
 1192poe    c23 5661   0.998   4.881   4.703 -0.1617 -0.1415 -0.4814
 1192poe    c23 5662   0.975   5.026   4.656 -0.1795  0.0219  0.0252
 1192poe     o2 5663   1.078   5.123   4.664  0.0360 -0.1824 -0.2622
 1192poe    c31 5664   1.112   5.167   4.793  0.3909  0.2239 -0.4907
 1193poe    c31 5665   4.780   0.096   5.588  0.3407  0.0928  0.1555
 1193poe     o2 5666   4.681   0.149   5.673  0.4023  0.3666  0.0585
 1193poe    c23 5667   4.642   0.278   5.631 -0.0775  0.2268  0.0625
 1193poe    c23 5668   4.556   0.363   5.725 -0.1022  0.2992 -0.0257
 1193poe     o2 5669   4.430   0.304   5.747  0.1628 -0.2580  0.0035
 1193poe    c23 5670   4.364   0.382   5.844  0.3805  0.2988 -0.2934
 1193poe    c23 5671   4.256   0.303   5.920  0.2137  0.6601 -0.1523
 1193poe     o2 5672   4.300   0.171   5.941 -0.5765  0.4401  0.1342
 1193poe    c23 5673   4.202   0.099   6.014 -0.3558 -0.0623 -0.0565
 1193poe    c23 5674   4.249  -0.047   6.019 -0.1343  0.0162  0.2023
 1193poe     o2 5675   4.280  -0.084   5.886 -0.2785  0.0038  0.1720
 1193poe    c31 5676   4.303  -0.222   5.875 -0.1096  0.0646 -0.2367
 1194poe    c31 5677   1.227   6.810   1.062 -0.4953 -0.4083  0.7378
 1194poe     o2 5678   1.172   6.926   1.121 -0.4140 -0.2127  0.4284
 1194poe    c23 5679   1.079   6.986   1.034  0.1198 -0.1518 -0.1083
 1194poe    c23 5680   0.997   7.087   1.117  0.5565 -0.4602  0.7151
 1194poe     o2 5681   1.057   7.210   1.151  0.2145  0.0645 -0.5004
 1194poe    c23 5682   0.963   7.308   1.187  0.2993  0.0109 -0.1293
 1194poe    c23 5683   1.022   7.448   1.165  0.3973 -0.0739 -0.4059
 1194poe     o2 5684   1.073   7.470   1.035  0.9286 -0.1172 -0.2107
 1194poe    c23 5685   1.138   7.595   1.026  0.0467  0.4002  0.4347
 1194poe    c23 5686   1.216   7.620   0.896 -0.1502  0.1869  0.2732
 1194poe     o2 5687   1.345   7.562   0.906 -0.1566  0.0472 -0.4471
 1194poe    c31 5688   1.432   7.604   0.804  0.9787 -0.6491  0.2214
 1195poe    c31 5689   1.839   6.384   5.606  0.3279 -0.2509  0.2721
 1195poe     o2 5690   1.729   6.381   5.694 -0.5808 -0.5670 -0.8439
 1195poe    c23 5691   1.710   6.256   5.756  0.0658 -0.1473  0.2358
 1195poe    c23 5692   1.560   6.226   5.779 -0.0810  0.2443 -0.2049
 1195poe     o2 5693   1.498   6.347   5.818 -0.2328 -0.0591  0.5025
 1195poe    c23 5694   1.362   6.337   5.851 -0.2652 -0.1894  0.3337
 1195poe    c23 5695   1.307   6.481   5.852 -0.0280 -0.0956 -0.2834
 1195poe     o2 5696   1.377   6.551   5.751 -0.5389  0.2128 -0.4243
 1195poe    c23 5697   1.397   6.689   5.770  0.3094  0.0290  0.0726
 1195poe    c23 5698   1.536   6.721   5.827  0.2800  0.1354  0.0856
 1195poe     o2 5699   1.630   6.649   5.750 -0.1079 -0.7564  0.4270
 1195poe    c31 5700   1.764   6.674   5.787 -0.0195  0.1862 -0.4708
 1196poe    c31 5701   0.258   3.117   1.871 -0.1837 -0.4455  0.0315
 1196poe     o2 5702   0.224   3.132   2.007  0.0050 -0.1594  0.0487
 1196poe    c23 5703   0.309   3.215   2.083 -0.2201 -0.1146  0.2554
 1196poe    c23 5704   0.249   3.222   2.224 -0.0859  0.3542  0.2910
 1196poe     o2 5705   0.132   3.301   2.223 -0.2748  0.0741  0.2345
 1196poe    c23 5706   0.086   3.315   2.356 -0.4025 -0.3124  0.2325
 1196poe    c23 5707  -0.038   3.406   2.356  0.2831  0.6291 -0.1184
 1196poe     o2 5708  -0.130   3.364   2.258  0.2640  0.3285  0.0289
 1196poe    c23 5709  -0.242   3.448   2.276  0.0265  0.0167  0.0191
 1196poe    c23 5710  -0.328   3.407   2.155 -0.0829  0.2231  0.0262
 1196poe     o2 5711  -0.248   3.364   2.046  0.4051  0.9436  0.0907
 1196poe    c31 5712  -0.328   3.387   1.932  0.0912 -0.5667 -0.0120
 1197poe    c31 5713   1.252   3.798   4.601 -0.3830  0.3862  0.5771
 1197poe     o2 5714   1.324   3.714   4.688 -0.1040 -0.0091 -0.0337
 1197poe    c23 5715   1.407   3.780   4.781 -0.0384 -0.0315 -0.0761
 1197poe    c23 5716   1.535   3.706   4.824  0.2334  0.4218 -0.1003
 1197poe     o2 5717   1.513   3.600   4.915  0.5687  0.4159 -0.0263
 1197poe    c23 5718   1.629   3.535   4.963  0.2931  0.0331  0.1264
 1197poe    c23 5719   1.596   3.447   5.084 -0.3978  0.2828  0.1238
 1197poe     o2 5720   1.473   3.387   5.049  0.0049 -0.4480 -0.0542
 1197poe    c23 5721   1.447   3.280   5.138  0.2814 -0.5972 -0.1509
 1197poe    c23 5722   1.305   3.223   5.119 -0.3558  0.9029 -0.0654
 1197poe     o2 5723   1.278   3.142   5.007 -0.3805 -0.3008  0.7833
 1197poe    c31 5724   1.328   3.011   5.018 -0.0956 -0.2952 -0.3099
 1198poe    c31 5725   4.507   2.194   5.739  0.0709 -0.2325 -0.1000
 1198poe     o2 5726   4.455   2.071   5.784  0.0219 -0.2081 -0.0899
 1198poe    c23 5727   4.339   2.042   5.709  0.3081 -0.6736 -0.3538
 1198poe    c23 5728   4.304   1.892   5.717 -0.6889 -0.4337 -0.0883
 1198poe     o2 5729   4.268   1.846   5.846  0.1283 -0.1084  0.2622
 1198poe    c23 5730   4.203   1.721   5.851  0.2828 -0.1836  0.3890
 1198poe    c23 5731   4.141   1.720   5.992 -0.0562  0.6179  0.2515
 1198poe     o2 5732   4.241   1.773   6.077  1.0492  0.1366 -0.7171
 1198poe    c23 5733   4.220   1.764   6.216  0.2139 -0.9346 -0.9002
 1198poe    c23 5734   4.349   1.806   6.288 -0.0647  0.0458 -0.9642
 1198poe     o2 5735   4.385   1.935   6.242  0.8848  0.1032 -0.1122
 1198poe    c31 5736   4.487   1.987   6.324  0.7898  0.3234 -0.1333
 1199poe    c31 5737   1.462   6.082   6.426 -0.0087  0.4553 -0.2041
 1199poe     o2 5738   1.441   6.160   6.542  0.5746  0.0221  0.2023
 1199poe    c23 5739   1.391   6.284   6.497  0.1880 -0.0706  0.3726
 1199poe    c23 5740   1.381   6.394   6.605 -0.0857  0.0689  0.2054
 1199poe     o2 5741   1.511   6.427   6.646 -0.0329  0.2960 -0.1445
 1199poe    c23 5742   1.512   6.526   6.746 -0.2150 -0.0327  0.1840
 1199poe    c23 5743   1.660   6.560   6.772 -0.2293 -0.1215  0.3823
 1199poe     o2 5744   1.721   6.436   6.801 -0.4340 -0.3359 -0.0796
 1199poe    c23 5745   1.854   6.455   6.842 -0.3998 -0.7492  0.0051
 1199poe    c23 5746   1.920   6.316   6.834  0.4653 -0.3385 -0.2057
 1199poe     o2 5747   1.894   6.275   6.702 -0.4590 -0.2424 -0.0612
 1199poe    c31 5748   1.985   6.178   6.655 -0.3159 -0.3008  0.3370
 1200poe    c31 5749   1.575   2.698   5.090 -0.7102 -0.3841 -0.5003
 1200poe     o2 5750   1.541   2.581   5.018 -0.1194 -0.2549 -0.9947
 1200poe    c23 5751   1.472   2.483   5.093 -0.4351  0.3658 -0.4679
 1200poe    c23 5752   1.435   2.355   5.015 -0.5854  0.4745 -0.5771
 1200poe     o2 5753   1.546   2.270   4.996 -0.7547  0.1833 -0.2640
 1200poe    c23 5754   1.522   2.165   4.904  0.2329 -0.3067  0.0241
 1200poe    c23 5755   1.640   2.073   4.868  0.0277 -0.2660 -0.7760
 1200poe     o2 5756   1.731   2.150   4.793  0.4858  0.0894  0.1229
 1200poe    c23 5757   1.831   2.069   4.736  0.4984  0.3210 -0.1836
 1200poe    c23 5758   1.965   2.136   4.698  0.4888  0.5055  0.1075
 1200poe     o2 5759   2.034   2.144   4.821  0.3721  0.5973  0.1681
 1200poe    c31 5760   2.163   2.196   4.796  0.3903  0.5807  0.2287
 1201poe    c31 5761   3.235   6.151   4.736  0.2971  0.1990 -0.4288
 1201poe     o2 5762   3.322   6.158   4.846  0.3259  0.8035 -0.4836
 1201poe    c23 5763   3.454   6.137   4.800  0.3553 -0.2298  0.0404
 1201poe    c23 5764   3.556   6.145   4.915  0.1981 -0.1443  0.1733
 1201poe     o2 5765   3.539   6.279   4.956 -0.4531 -0.1714  0.0090
 1201poe    c23 5766   3.648   6.341   5.020 -0.3866 -0.6305  0.3397
 1201poe    c23 5767   3.630   6.344   5.173  0.0628 -0.2928  0.3893
 1201poe     o2 5768   3.503   6.398   5.207 -0.0635 -0.1518 -0.3013
 1201poe    c23 5769   3.487   6.390   5.346 -0.0675 -0.2142 -0.3050
 1201poe    c23 5770   3.369   6.480   5.386  0.2825  0.2285 -0.2561
 1201poe     o2 5771   3.278   6.459   5.280  0.3996  0.0207 -0.3152
 1201poe    c31 5772   3.164   6.542   5.289  0.0436 -0.4903 -0.0938
 1202poe    c31 5773   5.072   3.116   5.049  0.7652 -0.1004  0.0452
 1202poe     o2 5774   5.029   3.027   4.948  0.3514 -0.1455  0.2543
 1202poe    c23 5775   5.095   2.904   4.966  0.3796 -0.2000 -0.1934
 1202poe    c23 5776   5.000   2.822   4.878  0.0150 -0.1951  0.1910
 1202poe     o2 5777   4.981   2.897   4.760 -0.5288 -0.0065  0.3941
 1202poe    c23 5778   4.929   2.823   4.651  0.0854  0.4699 -0.2296
 1202poe    c23 5779   4.889   2.930   4.547 -0.4774 -0.1544 -0.6564
 1202poe     o2 5780   4.807   3.021   4.617  0.4848 -0.1896  0.5509
 1202poe    c23 5781   4.771   3.133   4.539  0.3524 -0.0480  0.8138
 1202poe    c23 5782   4.634   3.194   4.574  0.3924  0.2185  0.5126
 1202poe     o2 5783   4.620   3.209   4.713  0.6155  0.6382  0.4891
 1202poe    c31 5784   4.492   3.263   4.738  0.1974  0.0426 -0.3311
 1203poe    c31 5785   4.737   0.654   3.700  0.6151  0.4687  0.0522
 1203poe     o2 5786   4.691   0.521   3.715 -0.1289  0.6614 -0.4803
 1203poe    c23 5787   4.556   0.512   3.675 -0.2709 -0.0611  0.1418
 1203poe    c23 5788   4.513   0.365   3.659 -0.1476 -0.0614 -0.2016
 1203poe     o2 5789   4.576   0.294   3.763 -0.1311 -0.0270 -0.1882
 1203poe    c23 5790   4.565   0.156   3.733  0.0829  0.1004 -0.8648
 1203poe    c23 5791   4.658   0.085   3.833 -0.9108  0.4833  0.3551
 1203poe     o2 5792   4.783   0.151   3.828 -0.3021 -0.6223  0.6484
 1203poe    c23 5793   4.874   0.066   3.894  0.0020 -0.1450  0.8417
 1203poe    c23 5794   5.017   0.125   3.891  0.0974 -0.4080 -0.0730
 1203poe     o2 5795   5.058   0.151   3.759  0.1792 -0.3266 -0.0314
 1203poe    c31 5796   5.104   0.038   3.687 -0.3637 -0.5264 -0.0664
 1204poe    c31 5797   3.134   5.675   6.253  0.5445  0.3230  0.2335
 1204poe     o2 5798   3.268   5.719   6.267  0.5643  0.1300  0.6574
 1204poe    c23 5799   3.344   5.691   6.152 -0.1949  0.2179  0.1295
 1204poe    c23 5800   3.471   5.618   6.196 -0.1316 -0.0372 -0.4623
 1204poe     o2 5801   3.526   5.695   6.301  0.7596  0.0708 -0.9928
 1204poe    c23 5802   3.655   5.663   6.347  0.2900 -0.1334  0.2299
 1204poe    c23 5803   3.690   5.773   6.449 -0.4396  0.7490 -0.4574
 1204poe     o2 5804   3.584   5.789   6.541  0.1930  0.4950  0.3259
 1204poe    c23 5805   3.646   5.787   6.668  0.2876  0.1265  0.2755
 1204poe    c23 5806   3.546   5.806   6.783 -0.0838  0.1786 -0.0518
 1204poe     o2 5807   3.439   5.714   6.788  0.0476  0.0651  0.8209
 1204poe    c31 5808   3.334   5.764   6.867 -0.0994  0.3352  0.4563
 1205poe    c31 5809   4.976   2.179   5.531  0.3690 -0.2278 -0.6235
 1205poe     o2 5810   5.101   2.209   5.588  0.2529 -0.6050 -0.1630
 1205poe    c23 5811   5.101   2.163   5.721 -0.0212 -0.3070 -0.0603
 1205poe    c23 5812   5.250   2.164   5.758 -0.0622 -0.2843  0.1073
 1205poe     o2 5813   5.318   2.093   5.657  0.8302 -0.2410  0.6605
 1205poe    c23 5814   5.454   2.118   5.680  0.6393  1.1365  0.3659
 1205poe    c23 5815   5.528   2.104   5.545  0.3171  0.4168  0.2597
 1205poe     o2 5816   5.458   2.199   5.467  0.2327  0.0701 -0.0905
 1205poe    c23 5817   5.510   2.217   5.337 -0.0887 -0.3822 -0.2862
 1205poe    c23 5818   5.401   2.302   5.270  0.4670  0.5782 -0.0015
 1205poe     o2 5819   5.274   2.265   5.320  0.6090  0.4095  0.2335
 1205poe    c31 5820   5.192   2.364   5.264  0.1082  0.3481  0.8500
 1206poe    c31 5821   4.675   1.192   6.623 -0.2013 -0.3558  0.3836
 1206poe     o2 5822   4.782   1.099   6.625  0.1696  0.0589  0.0663
 1206poe    c23 5823   4.744   0.985   6.699  0.0802  0.1862  0.2169
 1206poe    c23 5824   4.838   0.868   6.664  0.2033  0.2340  0.3859
 1206poe     o2 5825   4.974   0.899   6.681  0.3270  0.1351 -0.3804
 1206poe    c23 5826   5.009   0.906   6.818  0.2071  0.0981 -0.3481
 1206poe    c23 5827   5.091   1.034   6.844  0.4963 -0.1360 -0.1002
 1206poe     o2 5828   5.203   1.020   6.760  0.6198  0.5244 -0.0477
 1206poe    c23 5829   5.296   1.121   6.792  0.0966  0.8566  0.4306
 1206poe    c23 5830   5.387   1.113   6.668 -0.1222 -0.3564  0.3357
 1206poe     o2 5831   5.312   1.078   6.554  0.1261  0.3636 -0.0579
 1206poe    c31 5832   5.420   1.081   6.464  0.2486 -0.3067  0.0653
 1207poe    c31 5833   2.804   5.380   2.522 -0.1445  0.3170 -0.1450
 1207poe     o2 5834   2.726   5.418   2.633  0.6115  0.3129  0.3963
 1207poe    c23 5835   2.612   5.487   2.587  0.1191 -0.7284  0.0278
 1207poe    c23 5836   2.528   5.530   2.709  0.2581  0.1145 -0.1683
 1207poe     o2 5837   2.626   5.571   2.801  0.3890  0.1615 -0.3270
 1207poe    c23 5838   2.576   5.663   2.896  0.1024 -0.5187  0.1898
 1207poe    c23 5839   2.637   5.668   3.037  0.0705 -0.3768  0.1986
 1207poe     o2 5840   2.770   5.621   3.030 -0.0267 -0.5833 -0.3355
 1207poe    c23 5841   2.824   5.609   3.160  0.0858 -0.4872 -0.3731
 1207poe    c23 5842   2.972   5.567   3.165 -0.0057 -0.7700  0.0046
 1207poe     o2 5843   2.984   5.459   3.075  0.0648 -0.0954 -0.8025
 1207poe    c31 5844   3.110   5.410   3.113  0.4112  0.3855 -1.3100
 1208poe    c31 5845   2.230   1.864   3.717 -0.4205  0.1402 -0.1808
 1208poe     o2 5846   2.104   1.853   3.777 -0.0494  0.3240  0.6413
 1208poe    c23 5847   2.033   1.973   3.755 -0.4758  0.0305  0.3944
 1208poe    c23 5848   1.879   1.965   3.745 -0.4265 -0.2457 -0.1384
 1208poe     o2 5849   1.811   1.925   3.861 -0.3000  0.6725  0.2622
 1208poe    c23 5850   1.675   1.896   3.833 -0.1828  0.4992 -0.1341
 1208poe    c23 5851   1.591   1.854   3.955 -0.2267  0.2331 -0.2558
 1208poe     o2 5852   1.647   1.733   4.003  0.1013  0.7074  0.5774
 1208poe    c23 5853   1.563   1.660   4.088 -0.0540 -0.6179 -0.6733
 1208poe    c23 5854   1.620   1.552   4.183  0.3245 -0.1475 -0.3581
 1208poe     o2 5855   1.712   1.470   4.114  0.1817 -0.4327 -0.2082
 1208poe    c31 5856   1.824   1.448   4.197  0.6074 -0.4247 -0.7800
 1209poe    c31 5857   1.504   4.910   3.311  0.4032 -0.6593  0.2529
 1209poe     o2 5858   1.641   4.936   3.289  0.2980 -0.0657  0.2713
 1209poe    c23 5859   1.684   4.920   3.155 -0.4324 -0.1303  0.0415
 1209poe    c23 5860   1.821   4.974   3.113 -0.2663  0.0475  0.7831
 1209poe     o2 5861   1.922   4.918   3.193  0.1387 -0.5761 -0.1368
 1209poe    c23 5862   2.054   4.927   3.144  0.0218  0.7193 -0.2330
 1209poe    c23 5863   2.164   4.860   3.229 -0.2000  0.3985 -0.1994
 1209poe     o2 5864   2.137   4.921   3.353  0.3510 -0.3864  0.3153
 1209poe    c23 5865   2.228   4.863   3.444  0.7269 -0.1481  0.0932
 1209poe    c23 5866   2.203   4.925   3.583  0.4514 -0.8297  0.3512
 1209poe     o2 5867   2.072   4.888   3.621  0.1840 -0.3022 -0.0297
 1209poe    c31 5868   2.056   4.902   3.761 -0.0973  0.1473 -0.1077
 1210poe    c31 5869   3.466   0.180   1.211 -0.5945  0.3387 -0.1097
 1210poe     o2 5870   3.427   0.238   1.334 -0.2139  0.2806  0.0398
 1210poe    c23 5871   3.414   0.151   1.445 -0.6833 -0.2866 -0.4496
 1210poe    c23 5872   3.370   0.223   1.574 -0.3827 -0.0526 -0.4747
 1210poe     o2 5873   3.458   0.313   1.637 -0.2436 -0.5794  0.0897
 1210poe    c23 5874   3.417   0.405   1.735  0.3531  0.1149 -0.3022
 1210poe    c23 5875   3.513   0.525   1.721  0.1683  0.3432  0.3347
 1210poe     o2 5876   3.488   0.595   1.602  0.2348 -0.4997 -0.1846
 1210poe    c23 5877   3.601   0.674   1.573  0.1176 -0.1744  0.2452
 1210poe    c23 5878   3.562   0.801   1.494 -0.5198 -0.1609  0.5749
 1210poe     o2 5879   3.498   0.775   1.372  0.4244  0.2242 -0.0117
 1210poe    c31 5880   3.463   0.901   1.320 -0.3258  0.1613  0.3302
 1211poe    c31 5881   3.038   3.365   5.991  0.1297 -0.3518  0.1032
 1211poe     o2 5882   2.954   3.334   5.882  0.0887  0.1701 -0.0161
 1211poe    c23 5883   3.003   3.396   5.766  0.1425  0.0144 -0.0767
 1211poe    c23 5884   2.942   3.333   5.639  0.1863  0.0154 -0.0986
 1211poe     o2 5885   2.801   3.345   5.638  0.1675 -0.2417 -0.3460
 1211poe    c23 5886   2.762   3.265   5.528 -0.0188 -0.7654  0.0981
 1211poe    c23 5887   2.621   3.217   5.565 -0.1500 -0.3675  0.1233
 1211poe     o2 5888   2.543   3.319   5.624  0.3463  0.2719 -0.3243
 1211poe    c23 5889   2.433   3.268   5.697  0.5735  0.3638  0.0890
 1211poe    c23 5890   2.367   3.396   5.752  0.1277  0.5564 -0.8681
 1211poe     o2 5891   2.466   3.477   5.811  0.3772 -0.1214 -0.3438
 1211poe    c31 5892   2.392   3.572   5.884 -0.7491 -1.0642 -0.2412
 1212poe    c31 5893   4.701   2.870   4.015 -0.4157  0.4046 -0.2721
 1212poe     o2 5894   4.812   2.784   4.028 -0.3338  0.3985 -0.9675
 1212poe    c23 5895   4.933   2.828   3.970  0.3193  0.0752  0.1326
 1212poe    c23 5896   5.036   2.715   3.992  0.1126 -0.2071 -0.3263
 1212poe     o2 5897   5.037   2.661   4.122 -0.0915  0.2065 -0.1488
 1212poe    c23 5898   5.084   2.528   4.116  0.4337  0.3873 -0.0989
 1212poe    c23 5899   5.054   2.454   4.247 -0.2364  0.5331 -0.1693
 1212poe     o2 5900   4.924   2.401   4.258 -0.1091  0.2315 -0.1146
 1212poe    c23 5901   4.925   2.301   4.358 -0.5938  0.6287  0.2939
 1212poe    c23 5902   4.801   2.214   4.326 -0.3112 -0.0791  1.0769
 1212poe     o2 5903   4.697   2.297   4.280  0.2790  0.1036  0.0230
 1212poe    c31 5904   4.585   2.224   4.234  0.0232  0.1944  0.4909
 1213poe    c31 5905   6.132   1.885   6.560 -0.4634 -0.3735 -0.7225
 1213poe     o2 5906   6.269   1.862   6.531  0.0332  0.5125  0.8064
 1213poe    c23 5907   6.343   1.968   6.586  0.2529  0.6072  0.3367
 1213poe    c23 5908   6.492   1.955   6.550  0.3179  0.1104  0.7760
 1213poe     o2 5909   6.552   1.852   6.625 -0.1715 -0.3580  0.5317
 1213poe    c23 5910   6.675   1.816   6.565 -0.1504 -0.2542  0.5122
 1213poe    c23 5911   6.751   1.710   6.646  0.4737 -0.1462  0.0755
 1213poe     o2 5912   6.673   1.593   6.661  0.2743 -0.0339 -0.0905
 1213poe    c23 5913   6.732   1.484   6.728  0.1675  0.1144  0.2445
 1213poe    c23 5914   6.630   1.368   6.718  0.3717  0.0097 -0.6682
 1213poe     o2 5915   6.497   1.412   6.699  0.3938  0.1457 -0.5111
 1213poe    c31 5916   6.404   1.308   6.683  0.6068 -0.0806 -0.3022
 1214poe    c31 5917   2.493   1.105   0.792 -0.4279  0.5655  0.5264
 1214poe     o2 5918   2.625   1.132   0.751 -0.1715 -0.7187  0.4711
 1214poe    c23 5919   2.688   1.009   0.725  0.1289 -0.6044  0.6537
 1214poe    c23 5920   2.841   1.026   0.728  0.1275 -0.3128 -0.3311
 1214poe     o2 5921   2.870   1.128   0.822  0.0478 -0.7664  0.1936
 1214poe    c23 5922   3.008   1.154   0.824  0.0337 -0.7182  0.4911
 1214poe    c23 5923   3.034   1.236   0.952  0.4884  0.2830 -0.2306
 1214poe     o2 5924   2.924   1.323   0.968  0.0264 -0.2308 -0.6247
 1214poe    c23 5925   2.951   1.422   1.064 -0.3040 -0.7265 -0.0108
 1214poe    c23 5926   2.828   1.507   1.100 -0.0379 -0.1716 -0.3864
 1214poe     o2 5927   2.745   1.436   1.190  0.4437 -0.3204 -0.0596
 1214poe    c31 5928   2.636   1.515   1.228  0.5313 -0.1576 -0.1447
 1215poe    c31 5929   4.336   2.958   0.965 -0.1058  0.3671  0.3465
 1215poe     o2 5930   4.353   2.828   1.017  0.1963  0.3575  0.2251
 1215poe    c23 5931   4.232   2.756   1.015  0.5484 -0.2209 -0.9731
 1215poe    c23 5932   4.264   2.606   1.030 -0.0129 -0.2548 -0.0365
 1215poe     o2 5933   4.326   2.561   1.148 -0.1441  0.2979  0.2453
 1215poe    c23 5934   4.383   2.433   1.133 -0.1438  0.2306  0.7934
 1215poe    c23 5935   4.491   2.392   1.235 -0.0927 -0.6806  0.3825
 1215poe     o2 5936   4.598   2.483   1.246 -0.3940 -0.2899  0.0933
 1215poe    c23 5937   4.713   2.424   1.301  0.3629  0.5350 -0.5784
 1215poe    c23 5938   4.773   2.535   1.390 -0.4328  0.2820  0.2939
 1215poe     o2 5939   4.779   2.652   1.310 -0.2108 -0.1071 -0.2682
 1215poe    c31 5940   4.905   2.715   1.301 -0.0109 -0.5752 -0.7733
 1216poe    c31 5941   4.068   5.381   3.242  0.0962 -0.4729  0.0957
 1216poe     o2 5942   3.937   5.393   3.291  0.0176 -0.3917 -0.1361
 1216poe    c23 5943   3.931   5.319   3.410  0.0211  0.3623  0.3388
 1216poe    c23 5944   3.790   5.336   3.468 -0.1098  0.1639  0.0820
 1216poe     o2 5945   3.744   5.468   3.450 -0.3815  0.0664  0.0571
 1216poe    c23 5946   3.616   5.498   3.502 -0.4475  0.0345 -0.0853
 1216poe    c23 5947   3.596   5.639   3.445 -0.1348  0.2153  0.2446
 1216poe     o2 5948   3.640   5.650   3.311 -0.5051 -0.1897  0.0895
 1216poe    c23 5949   3.611   5.771   3.246  0.2336 -0.3221 -0.4972
 1216poe    c23 5950   3.685   5.897   3.296  0.4557 -0.6758  0.0683
 1216poe     o2 5951   3.817   5.896   3.248  0.3400  0.2043 -0.2902
 1216poe    c31 5952   3.882   6.017   3.278  0.4083  0.1438 -0.1890
 1217poe    c31 5953   2.602   6.187   1.688  0.0416  0.2255  0.1096
 1217poe     o2 5954   2.636   6.308   1.625 -0.3538  0.1095 -0.3361
 1217poe    c23 5955   2.740   6.287   1.533 -0.2217  0.4119 -0.2578
 1217poe    c23 5956   2.761   6.420   1.459 -0.3070  0.3295 -0.4310
 1217poe     o2 5957   2.748   6.519   1.559  0.2669 -0.2522  0.2282
 1217poe    c23 5958   2.763   6.653   1.520  0.3771 -0.2156  0.3979
 1217poe    c23 5959   2.749   6.764   1.625  0.0008 -0.1479  0.2770
 1217poe     o2 5960   2.612   6.776   1.658 -0.1473 -0.0095 -0.3803
 1217poe    c23 5961   2.595   6.849   1.776  0.0197 -0.0935 -0.3025
 1217poe    c23 5962   2.447   6.848   1.821  0.1123  0.0250  0.0065
 1217poe     o2 5963   2.428   6.725   1.887 -0.8386 -0.0914 -0.4705
 1217poe    c31 5964   2.333   6.724   1.992  0.1796 -0.0195  0.4749
 1218poe    c31 5965   0.312   5.201   5.164  0.3114  0.0926  0.0681
 1218poe     o2 5966   0.308   5.179   5.303 -0.2484 -0.8731 -0.0999
 1218poe    c23 5967   0.409   5.088   5.340  0.4668 -0.0898 -0.1088
 1218poe    c23 5968   0.427   5.088   5.493 -0.0731  0.7844 -0.0409
 1218poe     o2 5969   0.325   5.023   5.565  0.2724  0.3802  0.0883
 1218poe    c23 5970   0.301   5.107   5.676 -0.7533  0.9349 -0.5303
 1218poe    c23 5971   0.216   5.020   5.771 -0.2355  0.3008 -0.6354
 1218poe     o2 5972   0.107   4.978   5.692 -0.3033 -0.1970 -0.2760
 1218poe    c23 5973   0.013   4.900   5.763  0.2323 -0.7406 -0.1569
 1218poe    c23 5974  -0.086   4.856   5.654  0.0548 -0.2284 -0.2044
 1218poe     o2 5975  -0.002   4.787   5.564  0.4703 -0.1662  0.1327
 1218poe    c31 5976  -0.077   4.708   5.475  0.0170  0.0820  0.2902
 1219poe    c31 5977   5.923   1.878   2.575  0.2028  0.3221 -0.0345
 1219poe     o2 5978   5.921   2.011   2.621  0.8306  0.5197 -0.5585
 1219poe    c23 5979   6.013   2.032   2.726  0.5984 -0.2696 -0.1910
 1219poe    c23 5980   6.035   2.181   2.756  0.2391 -0.1961 -0.2786
 1219poe     o2 5981   5.906   2.233   2.776  0.2594 -0.2596  0.0184
 1219poe    c23 5982   5.918   2.373   2.786  0.0095 -0.1239 -1.4164
 1219poe    c23 5983   5.782   2.432   2.825  0.4011  0.3216 -0.7037
 1219poe     o2 5984   5.687   2.431   2.721 -0.2956 -0.1759 -0.0766
 1219poe    c23 5985   5.563   2.491   2.753 -0.1620 -0.1824  0.4565
 1219poe    c23 5986   5.469   2.481   2.632 -0.3592  0.2427  0.5718
 1219poe     o2 5987   5.484   2.348   2.585 -0.0418  0.3181  0.4616
 1219poe    c31 5988   5.366   2.299   2.526  0.5475 -0.2690 -0.2562
 1220poe    c31 5989   5.320   3.048   5.771 -0.4138 -0.3487 -0.8931
 1220poe     o2 5990   5.310   3.160   5.686 -0.2106  0.1419 -0.2770
 1220poe    c23 5991   5.426   3.174   5.607 -0.2065  0.2014 -0.2609
 1220poe    c23 5992   5.404   3.268   5.487 -0.1493  0.1092 -0.3441
 1220poe     o2 5993   5.318   3.370   5.533 -0.0846 -0.0720  0.1851
 1220poe    c23 5994   5.259   3.422   5.416  0.3369 -0.1896 -0.0824
 1220poe    c23 5995   5.166   3.524   5.486  0.3177 -0.1467 -0.1702
 1220poe     o2 5996   5.096   3.438   5.573 -0.3407  0.0883 -0.4663
 1220poe    c23 5997   4.956   3.436   5.555 -0.3415 -0.0711 -0.4414
 1220poe    c23 5998   4.916   3.333   5.662  0.0547  0.0230 -0.2007
 1220poe     o2 5999   5.020   3.238   5.678  0.1632  0.0924 -0.4784
 1220poe    c31 6000   4.974   3.118   5.620 -0.5563 -0.1627  0.5866
 1221poe    c31 6001   2.498   5.575   0.237  0.3279 -0.6864  0.1523
 1221poe     o2 6002   2.400   5.545   0.141  0.2332  0.1238 -0.0053
 1221poe    c23 6003   2.430   5.422   0.079 -0.6809  0.1257 -0.4667
 1221poe    c23 6004   2.341   5.407  -0.046 -0.2921 -0.8050 -0.6392
 1221poe     o2 6005   2.218   5.462  -0.003 -0.0014 -0.6169 -0.0512
 1221poe    c23 6006   2.148   5.496  -0.120 -0.2021  0.5091  0.3864
 1221poe    c23 6007   2.007   5.545  -0.081 -0.4241  0.0782  0.1265
 1221poe     o2 6008   2.012   5.640   0.023  0.2832  0.3933 -0.1914
 1221poe    c23 6009   1.890   5.710   0.039 -0.0628 -0.3245  0.3500
 1221poe    c23 6010   1.926   5.829   0.131  0.4761  0.0026 -0.2750
 1221poe     o2 6011   2.019   5.917   0.072  0.4595  0.1407 -0.0967
 1221poe    c31 6012   2.032   6.046   0.126 -0.3385  0.0924  0.2250
 1222poe    c31 6013   2.750   6.625   0.284 -0.1573  0.0768 -0.5794
 1222poe     o2 6014   2.760   6.563   0.158 -0.1472 -0.2114 -0.4365
 1222poe    c23 6015   2.776   6.423   0.160 -0.5905 -0.2612 -0.3383
 1222poe    c23 6016   2.768   6.353   0.024  0.0925 -0.7208 -0.1478
 1222poe     o2 6017   2.885   6.384  -0.049  0.0725  0.2769  0.2347
 1222poe    c23 6018   2.872   6.312  -0.169  0.0248  0.4686  0.1243
 1222poe    c23 6019   2.986   6.351  -0.265  0.2654 -0.1632  0.1479
 1222poe     o2 6020   3.095   6.412  -0.201  0.2467 -0.1947  0.2103
 1222poe    c23 6021   3.182   6.463  -0.300 -0.0026  0.1877  0.1850
 1222poe    c23 6022   3.290   6.544  -0.225  0.4708 -0.5037  0.2583
 1222poe     o2 6023   3.231   6.607  -0.114  0.4286  0.3881 -0.2655
 1222poe    c31 6024   3.286   6.736  -0.096 -0.3303  0.7230 -0.3057
 1223poe    c31 6025   3.519   0.824   3.551 -0.0271  0.4746  0.6532
 1223poe     o2 6026   3.396   0.755   3.547  0.0071  0.4418  0.1093
 1223poe    c23 6027   3.407   0.657   3.446 -0.4664  0.5054 -0.0055
 1223poe    c23 6028   3.277   0.655   3.363 -0.1611  0.7516 -0.4982
 1223poe     o2 6029   3.169   0.619   3.447  0.4091  0.3607  0.0798
 1223poe    c23 6030   3.059   0.698   3.409  0.0305 -0.1598  0.0990
 1223poe    c23 6031   2.930   0.656   3.482 -0.3988  0.0935 -0.5035
 1223poe     o2 6032   2.956   0.660   3.620 -0.5312 -0.1808 -0.4701
 1223poe    c23 6033   2.837   0.646   3.695 -0.2817  0.9388  0.1480
 1223poe    c23 6034   2.881   0.671   3.841 -0.1669 -0.6881  0.4084
 1223poe     o2 6035   3.001   0.603   3.866  0.0624 -0.3171  0.3203
 1223poe    c31 6036   3.025   0.613   4.005  0.7643 -0.0158  0.1857
 1224poe    c31 6037   1.983   4.131   6.670  0.2483 -0.0232 -0.5509
 1224poe     o2 6038   2.089   4.099   6.583  0.2247 -0.1170 -0.5452
 1224poe    c23 6039   2.219   4.112   6.638 -0.1699 -0.2315  0.4329
 1224poe    c23 6040   2.262   3.976   6.695  0.4463 -0.1654  0.1266
 1224poe     o2 6041   2.269   3.880   6.592  0.5284  0.0616 -0.0794
 1224poe    c23 6042   2.253   3.753   6.652  0.2092  0.1003 -0.0801
 1224poe    c23 6043   2.285   3.660   6.534  0.4486  0.2910 -0.1668
 1224poe     o2 6044   2.229   3.716   6.416 -0.3446  0.0726  0.0987
 1224poe    c23 6045   2.250   3.640   6.299 -0.3218 -0.1245  0.2291
 1224poe    c23 6046   2.167   3.702   6.185  0.2952  0.0555 -0.1269
 1224poe     o2 6047   2.210   3.836   6.171  0.1072  0.2116  0.6939
 1224poe    c31 6048   2.165   3.896   6.052  0.3501 -0.0681  0.4562
 1225poe    c31 6049   5.536   2.131   4.429  0.4111 -0.5746 -0.1284
 1225poe     o2 6050   5.447   2.032   4.475 -0.3391 -0.0247 -0.3826
 1225poe    c23 6051   5.316   2.081   4.454 -0.3834  0.1589  0.2986
 1225poe    c23 6052   5.219   1.962   4.455 -0.3768  0.1532  0.2312
 1225poe     o2 6053   5.235   1.882   4.340  0.2152  0.4246  0.1210
 1225poe    c23 6054   5.182   1.751   4.353  0.7608  0.2017  0.1059
 1225poe    c23 6055   5.226   1.671   4.229  0.1624  0.1795 -0.0950
 1225poe     o2 6056   5.218   1.748   4.111  0.4599  0.3270 -0.0201
 1225poe    c23 6057   5.263   1.670   4.003 -0.0302  0.0990 -0.0611
 1225poe    c23 6058   5.299   1.762   3.885  0.0745  0.1218 -0.0110
 1225poe     o2 6059   5.393   1.857   3.931  0.5104 -0.3932  0.1766
 1225poe    c31 6060   5.429   1.938   3.821 -0.6554  0.2094  0.2226
 1226poe    c31 6061   2.895   1.649   6.215  1.7046 -0.2858  0.2407
 1226poe     o2 6062   2.873   1.699   6.345  0.0686 -0.0789 -0.0933
 1226poe    c23 6063   2.739   1.680   6.384  0.0423  0.2565 -0.0179
 1226poe    c23 6064   2.743   1.686   6.537  0.0773 -0.3085  0.0033
 1226poe     o2 6065   2.808   1.803   6.581 -0.6702  0.1923 -0.2204
 1226poe    c23 6066   2.775   1.827   6.716  0.2569  0.2480  0.0055
 1226poe    c23 6067   2.838   1.964   6.748 -0.1416  0.4434 -0.0273
 1226poe     o2 6068   2.970   1.964   6.697 -0.0973 -0.5325  0.0515
 1226poe    c23 6069   3.027   2.091   6.722 -0.1619 -0.4268 -0.3346
 1226poe    c23 6070   3.149   2.132   6.637 -0.4621  0.5877 -0.2885
 1226poe     o2 6071   3.113   2.151   6.502  0.0101 -0.0866 -0.5116
 1226poe    c31 6072   3.115   2.282   6.449 -1.1616  0.2199  0.1785
 1227poe    c31 6073   4.242   5.934   0.651 -0.4484 -0.0623  0.7372
 1227poe     o2 6074   4.131   5.888   0.578 -0.3559  0.3459  0.3330
 1227poe    c23 6075   4.153   5.900   0.439 -0.5355  0.0154  0.2755
 1227poe    c23 6076   4.149   5.759   0.378 -0.2751 -0.1379  0.6077
 1227poe     o2 6077   4.022   5.700   0.397 -0.2617 -0.2503  0.3526
 1227poe    c23 6078   4.020   5.574   0.333  0.1964 -0.2492  0.3272
 1227poe    c23 6079   3.878   5.515   0.341 -0.1018  0.3694 -0.2876
 1227poe     o2 6080   3.835   5.551   0.470 -0.1260 -0.0005 -0.1897
 1227poe    c23 6081   3.708   5.501   0.507 -0.1265  0.2079  0.0888
 1227poe    c23 6082   3.683   5.564   0.646 -0.2842  0.2412  0.0457
 1227poe     o2 6083   3.662   5.702   0.623 -0.7625  0.1444 -0.1005
 1227poe    c31 6084   3.609   5.767   0.737 -0.1565 -0.2060  0.3883
 1228poe    c31 6085   1.725   0.298   3.564 -0.0299  0.4377 -0.1815
 1228poe     o2 6086   1.697   0.160   3.558  0.4792  0.3236  0.0428
 1228poe    c23 6087   1.802   0.085   3.615 -0.0732  0.1439  0.8480
 1228poe    c23 6088   1.741  -0.049   3.660 -0.7307  0.0225 -0.3758
 1228poe     o2 6089   1.679  -0.110   3.549 -0.4103 -0.3453 -0.3531
 1228poe    c23 6090   1.776  -0.184   3.479  0.3124  0.4933 -0.2577
 1228poe    c23 6091   1.703  -0.259   3.365  0.4088 -0.0886  0.0635
 1228poe     o2 6092   1.664  -0.170   3.264  0.1406  0.1712  0.3951
 1228poe    c23 6093   1.579  -0.233   3.171  0.0033  0.7532  0.1229
 1228poe    c23 6094   1.651  -0.291   3.048 -0.1364 -0.4910  0.6135
 1228poe     o2 6095   1.724  -0.406   3.083  0.5271 -0.0619  0.6501
 1228poe    c31 6096   1.746  -0.485   2.969 -0.0170  0.7732 -0.0459
 1229poe    c31 6097   1.473   2.330   0.086 -0.2274 -0.3033  0.2808
 1229poe     o2 6098   1.422   2.309  -0.044  0.7407 -0.3464 -0.0965
 1229poe    c23 6099   1.447   2.407  -0.143  0.2114  0.1822  0.2889
 1229poe    c23 6100   1.352   2.388  -0.263 -0.2738 -0.0069  0.6988
 1229poe     o2 6101   1.356   2.253  -0.305 -0.1687  0.2448 -0.1052
 1229poe    c23 6102   1.366   2.252  -0.446 -0.0627 -0.1351 -0.0943
 1229poe    c23 6103   1.319   2.116  -0.501 -0.4244 -0.0290 -0.0547
 1229poe     o2 6104   1.355   2.008  -0.416 -0.3845 -0.0955 -0.1551
 1229poe    c23 6105   1.318   1.884  -0.472  0.3190 -0.2879 -0.1940
 1229poe    c23 6106   1.359   1.766  -0.381  0.7073  0.1478  0.2019
 1229poe     o2 6107   1.276   1.766  -0.267  0.4541  0.0722  0.0196
 1229poe    c31 6108   1.296   1.645  -0.199  0.0509 -0.1507 -0.2583
 1230poe    c31 6109   1.722   1.219   3.571  0.1166 -0.8481  0.1941
 1230poe     o2 6110   1.734   1.314   3.674  0.4631 -0.0911 -0.5353
 1230poe    c23 6111   1.739   1.446   3.625  0.1360  0.0403 -0.2192
 1230poe    c23 6112   1.876   1.513   3.600  0.2145 -0.1736 -0.3576
 1230poe     o2 6113   1.964   1.519   3.710 -0.4375 -0.5896  0.1977
 1230poe    c23 6114   2.087   1.528   3.643 -0.3997  0.5393  0.3897
 1230poe    c23 6115   2.197   1.515   3.750 -0.1306  0.6970  0.1352
 1230poe     o2 6116   2.168   1.589   3.867 -0.0773 -0.1538  0.7008
 1230poe    c23 6117   2.272   1.591   3.961  0.1615 -0.0609  0.4347
 1230poe    c23 6118   2.215   1.630   4.098 -0.2151  0.1282  0.2240
 1230poe     o2 6119   2.140   1.747   4.076 -0.0454  0.2007  0.0280
 1230poe    c31 6120   2.077   1.788   4.195 -0.2046 -0.1314  0.0581
 1231poe    c31 6121   1.661   5.261   0.658  0.4356 -0.0195 -0.1859
 1231poe     o2 6122   1.576   5.198   0.565 -0.1877  0.0723  0.3089
 1231poe    c23 6123   1.442   5.227   0.596 -0.0251  0.7456  0.4123
 1231poe    c23 6124   1.347   5.146   0.504  0.2576  0.6099  0.2388
 1231poe     o2 6125   1.406   5.147   0.376  0.1890 -0.0853  0.1985
 1231poe    c23 6126   1.306   5.110   0.284  0.3600 -0.2919  0.0966
 1231poe    c23 6127   1.344   5.111   0.135 -0.2414 -0.0735 -0.0567
 1231poe     o2 6128   1.442   5.012   0.110  0.5561  0.5382  0.6205
 1231poe    c23 6129   1.498   5.014  -0.019 -0.3461  0.3181  0.2213
 1231poe    c23 6130   1.644   4.969   0.001 -0.3600  0.4325  0.5914
 1231poe     o2 6131   1.723   5.062   0.071  0.0082  0.4932  0.1037
 1231poe    c31 6132   1.765   5.181   0.010  0.6693  0.5515  0.6647
 1232poe    c31 6133   4.652   0.705   5.250  0.0972  0.4657 -0.1042
 1232poe     o2 6134   4.738   0.661   5.146  0.1119  0.0631  0.0746
 1232poe    c23 6135   4.709   0.531   5.100 -0.5556  0.0871  0.4034
 1232poe    c23 6136   4.709   0.530   4.946  0.5499  0.4648  0.3895
 1232poe     o2 6137   4.606   0.611   4.896  0.4522  0.1753  0.1189
 1232poe    c23 6138   4.615   0.627   4.756 -0.0188  0.0403  0.0692
 1232poe    c23 6139   4.597   0.776   4.719 -0.3148  0.1964  0.8140
 1232poe     o2 6140   4.722   0.841   4.715 -0.0370 -0.3574  0.0113
 1232poe    c23 6141   4.703   0.972   4.666  0.4913 -0.4548 -0.4603
 1232poe    c23 6142   4.835   1.051   4.675  0.3407 -0.2143 -0.3319
 1232poe     o2 6143   4.895   1.018   4.799  0.2435 -0.4406 -0.3446
 1232poe    c31 6144   5.005   1.103   4.821 -0.0303 -0.2778  0.3935
 1233poe    c31 6145   3.409   6.227   6.915  0.2233  0.3439  0.0526
 1233poe     o2 6146   3.511   6.281   6.997  0.5650  0.3604 -0.3804
 1233poe    c23 6147   3.462   6.335   7.118 -0.0925  0.1104 -0.5305
 1233poe    c23 6148   3.574   6.411   7.190 -0.2689 -0.5365  0.4457
 1233poe     o2 6149   3.681   6.320   7.183  0.0418 -0.1786  0.5155
 1233poe    c23 6150   3.792   6.360   7.261 -0.0198  0.0553  0.4825
 1233poe    c23 6151   3.888   6.243   7.237 -0.0584  0.1215 -0.0005
 1233poe     o2 6152   3.883   6.199   7.103 -0.1717  0.3876 -0.0843
 1233poe    c23 6153   3.979   6.096   7.094 -0.4377  0.1429 -0.1729
 1233poe    c23 6154   3.980   5.999   6.975  0.2209 -0.3822  0.2529
 1233poe     o2 6155   3.858   5.927   6.985 -0.1775  0.1183 -0.8214
 1233poe    c31 6156   3.871   5.798   6.928  0.2859 -0.0852 -0.2673
 1234poe    c31 6157   2.619   5.913   0.791  0.1461 -0.6185  0.6551
 1234poe     o2 6158   2.688   5.829   0.702 -0.1274  0.1924 -0.3388
 1234poe    c23 6159   2.618   5.713   0.663 -0.1756  0.1465 -0.1153
 1234poe    c23 6160   2.718   5.599   0.688 -0.0726  0.3461  0.3796
 1234poe     o2 6161   2.845   5.652   0.655 -0.1543  0.3269  0.0420
 1234poe    c23 6162   2.938   5.546   0.647  0.0447  0.4742  0.3966
 1234poe    c23 6163   3.075   5.609   0.615  0.3612 -0.1756  0.4727
 1234poe     o2 6164   3.095   5.728   0.688 -0.7066  0.1116  0.3090
 1234poe    c23 6165   3.228   5.774   0.683 -0.6055 -0.1659  0.3834
 1234poe    c23 6166   3.252   5.915   0.741  0.3381 -0.1250 -0.0941
 1234poe     o2 6167   3.181   5.922   0.862 -0.1726 -0.5168 -0.3673
 1234poe    c31 6168   3.254   5.986   0.965 -0.4286  0.3467 -0.7109
 1235poe    c31 6169   1.163   2.571   0.488 -0.3657  0.2646  0.0585
 1235poe     o2 6170   1.290   2.520   0.522 -0.5990 -0.0338  0.4912
 1235poe    c23 6171   1.305   2.386   0.563  0.1720  0.0020  0.3488
 1235poe    c23 6172   1.251   2.346   0.702  0.0357 -0.7767  0.0798
 1235poe     o2 6173   1.314   2.411   0.810  0.0007 -0.1721 -0.2585
 1235poe    c23 6174   1.267   2.384   0.941 -0.2685 -0.2265 -0.3648
 1235poe    c23 6175   1.350   2.452   1.051 -0.1931 -0.0980 -0.5003
 1235poe     o2 6176   1.328   2.590   1.039 -0.3849 -0.0733  0.0986
 1235poe    c23 6177   1.444   2.654   1.087 -0.3209  0.0331 -0.1961
 1235poe    c23 6178   1.448   2.802   1.044  0.3305  0.1067  0.0958
 1235poe     o2 6179   1.422   2.828   0.908  0.1640 -0.1048  0.0866
 1235poe    c31 6180   1.472   2.955   0.871 -0.3084  0.1261  0.2270
 1236poe    c31 6181   1.984   3.376   0.787 -0.5887 -0.1320 -0.4544
 1236poe     o2 6182   2.081   3.441   0.709  0.5406 -0.4631  0.6352
 1236poe    c23 6183   2.213   3.402   0.738  0.6927  0.1020  0.7295
 1236poe    c23 6184   2.292   3.504   0.653 -0.2410  0.1080 -0.1551
 1236poe     o2 6185   2.239   3.530   0.525 -0.0705  0.0529 -0.2367
 1236poe    c23 6186   2.280   3.656   0.477 -0.1454  0.0115 -0.4103
 1236poe    c23 6187   2.195   3.678   0.351  0.0621  0.0616 -0.5417
 1236poe     o2 6188   2.057   3.653   0.365  0.1327 -0.1486 -0.2246
 1236poe    c23 6189   1.985   3.682   0.248 -0.5653  0.0707  0.2483
 1236poe    c23 6190   1.866   3.772   0.283 -0.6958 -0.0519  0.1214
 1236poe     o2 6191   1.907   3.905   0.305 -0.2332 -0.2956  0.7432
 1236poe    c31 6192   1.806   4.003   0.302 -0.0868 -0.1658  0.0606
 1237poe    c31 6193   3.719   3.706   4.553  0.0042  0.6520  0.9257
 1237poe     o2 6194   3.615   3.648   4.628 -0.4706  0.4410  0.1249
 1237poe    c23 6195   3.638   3.509   4.634 -0.4349  0.4676  0.6600
 1237poe    c23 6196   3.534   3.442   4.727 -0.6351 -0.2203 -0.0520
 1237poe     o2 6197   3.509   3.506   4.850  0.2456  0.2094 -0.0883
 1237poe    c23 6198   3.436   3.424   4.938  0.1916  0.1896 -0.1510
 1237poe    c23 6199   3.427   3.502   5.071  0.5636  0.1851 -0.1226
 1237poe     o2 6200   3.444   3.642   5.059 -0.8689  0.4441  0.6222
 1237poe    c23 6201   3.463   3.717   5.177  0.0547  0.1607  0.6607
 1237poe    c23 6202   3.506   3.864   5.162  0.0985  0.0910  0.0734
 1237poe     o2 6203   3.633   3.908   5.119 -0.0465  0.0427 -0.4111
 1237poe    c31 6204   3.636   4.048   5.141  0.1919 -0.0730  0.2978
 1238poe    c31 6205   1.795   6.333   3.423  0.4534 -0.4130  0.2711
 1238poe     o2 6206   1.693   6.239   3.451 -0.3141  0.4654  0.4694
 1238poe    c23 6207   1.737   6.144   3.546  0.2165  0.2580  0.0240
 1238poe    c23 6208   1.632   6.032   3.532 -0.2657  0.6844  0.1966
 1238poe     o2 6209   1.496   6.069   3.542 -0.1896  0.8046  0.8727
 1238poe    c23 6210   1.406   5.960   3.538  0.3942  0.3461 -0.0658
 1238poe    c23 6211   1.273   6.032   3.561  0.2454  0.0681 -0.0536
 1238poe     o2 6212   1.239   6.140   3.476 -0.5694  0.1109  0.3092
 1238poe    c23 6213   1.099   6.150   3.482 -0.5787  0.2018 -0.0673
 1238poe    c23 6214   1.066   6.266   3.385  0.2739 -0.1327 -0.7768
 1238poe     o2 6215   1.147   6.379   3.412  0.5342 -0.2781 -0.9503
 1238poe    c31 6216   1.093   6.497   3.358 -0.4024 -0.2317  0.0473
 1239poe    c31 6217   4.924   6.343   2.314  0.1103 -0.3050 -0.0738
 1239poe     o2 6218   4.966   6.299   2.441 -0.2541 -0.1376  0.1060
 1239poe    c23 6219   5.032   6.393   2.523 -0.3071 -0.4503  0.5161
 1239poe    c23 6220   5.104   6.310   2.631  0.4340 -0.0463  0.3409
 1239poe     o2 6221   5.002   6.218   2.662  0.1172  0.1675 -0.0598
 1239poe    c23 6222   5.016   6.172   2.794  0.0866  0.1562 -0.0603
 1239poe    c23 6223   4.921   6.052   2.811  0.5820 -0.2514 -0.1231
 1239poe     o2 6224   4.958   5.951   2.720 -0.3868 -0.1082 -0.6914
 1239poe    c23 6225   4.889   5.831   2.746 -0.1380 -0.0478  0.3090
 1239poe    c23 6226   4.743   5.827   2.695 -0.1014  0.5368  0.1492
 1239poe     o2 6227   4.735   5.847   2.555  0.0090  0.1456  0.0858
 1239poe    c31 6228   4.605   5.820   2.508  0.0046 -0.0614  0.2139
 1240poe    c31 6229   0.057   5.127   1.317  0.5002  0.1162 -0.3837
 1240poe     o2 6230  -0.013   5.229   1.385  0.2714  0.0312 -0.4915
 1240poe    c23 6231  -0.120   5.283   1.310 -0.2286  0.1309  0.2874
 1240poe    c23 6232  -0.224   5.343   1.407 -0.5543  0.6523 -0.3716
 1240poe     o2 6233  -0.289   5.248   1.489 -0.2392  0.5608 -0.2266
 1240poe    c23 6234  -0.399   5.306   1.555 -0.1828  0.0233  0.3485
 1240poe    c23 6235  -0.485   5.190   1.610 -0.5663  0.5089  0.7762
 1240poe     o2 6236  -0.394   5.104   1.674  0.2023  0.4638 -0.3634
 1240poe    c23 6237  -0.468   4.988   1.704  0.2040  0.3486 -0.7909
 1240poe    c23 6238  -0.383   4.861   1.727 -0.2613  0.2182  0.2638
 1240poe     o2 6239  -0.320   4.821   1.608 -0.3446 -0.0685  0.3144
 1240poe    c31 6240  -0.357   4.691   1.569 -0.6450  0.0670  0.1422
 1241poe    c31 6241   0.064   2.613   0.878  0.3482 -0.2532  0.4590
 1241poe     o2 6242   0.164   2.516   0.899  0.3762 -0.3264 -0.0017
 1241poe    c23 6243   0.100   2.407   0.960  0.5651 -0.8455 -0.7180
 1241poe    c23 6244   0.215   2.316   1.007  0.8665 -0.1867 -0.1747
 1241poe     o2 6245   0.310   2.309   0.904  0.6498 -0.2060 -0.3731
 1241poe    c23 6246   0.411   2.222   0.949  0.2515 -0.3547  0.2280
 1241poe    c23 6247   0.501   2.196   0.827 -0.3972 -0.8948 -0.1427
 1241poe     o2 6248   0.414   2.193   0.716 -0.1523 -0.3907 -0.3482
 1241poe    c23 6249   0.475   2.177   0.590  0.1394  0.7184 -0.3569
 1241poe    c23 6250   0.380   2.155   0.471  0.1539 -0.0121 -0.2371
 1241poe     o2 6251   0.297   2.265   0.439  0.0293  0.1356  0.5879
 1241poe    c31 6252   0.177   2.234   0.373  0.2241 -0.6162  0.5841
 1242poe    c31 6253   3.176   1.116   1.280 -0.0067  0.4122  0.0437
 1242poe     o2 6254   3.208   1.224   1.364  0.0802  0.7064 -0.3602
 1242poe    c23 6255   3.113   1.235   1.468  0.0025  0.3846 -0.3971
 1242poe    c23 6256   3.060   1.378   1.485 -0.5910  0.1428 -0.1499
 1242poe     o2 6257   3.163   1.460   1.536 -0.2668 -0.3094 -0.0696
 1242poe    c23 6258   3.124   1.594   1.554 -0.5796 -0.4220  0.0935
 1242poe    c23 6259   3.196   1.666   1.670  0.4409 -0.9346 -0.2178
 1242poe     o2 6260   3.329   1.623   1.649  0.5478 -0.5779 -0.2757
 1242poe    c23 6261   3.429   1.685   1.726  0.3388 -0.1566 -0.3399
 1242poe    c23 6262   3.562   1.650   1.656  0.3073  0.3567 -0.6629
 1242poe     o2 6263   3.535   1.521   1.606 -0.2397  0.1467  0.1483
 1242poe    c31 6264   3.651   1.441   1.606  0.2819  0.8923  0.4856
 1243poe    c31 6265   5.268   3.317   6.822  0.0311  0.8701  0.3733
 1243poe     o2 6266   5.157   3.243   6.775  0.3210  0.3491  0.5009
 1243poe    c23 6267   5.028   3.301   6.782  0.1878  0.1691 -0.4365
 1243poe    c23 6268   4.936   3.240   6.674  0.0921  0.5516 -0.5719
 1243poe     o2 6269   4.910   3.105   6.704 -0.2090  0.8128  0.3918
 1243poe    c23 6270   4.797   3.081   6.623  0.0747 -0.3378  0.3145
 1243poe    c23 6271   4.775   2.938   6.571 -0.2656 -0.1432 -0.0819
 1243poe     o2 6272   4.807   2.861   6.685  0.3354 -0.0699 -0.1997
 1243poe    c23 6273   4.818   2.724   6.654 -0.0948 -0.0550 -0.4279
 1243poe    c23 6274   4.851   2.656   6.788  0.1315  0.0385 -0.4348
 1243poe     o2 6275   4.940   2.745   6.850 -0.0639 -0.0210 -0.0635
 1243poe    c31 6276   4.998   2.692   6.967  0.1094  0.6489  0.1592
 1244poe    c31 6277   1.471   0.218   0.940  0.3274  0.2944  0.1716
 1244poe     o2 6278   1.517   0.164   0.819 -0.3052  0.4455 -0.1372
 1244poe    c23 6279   1.644   0.207   0.775 -0.1349 -0.1802 -0.2673
 1244poe    c23 6280   1.645   0.270   0.635  0.1569  0.4042 -0.0047
 1244poe     o2 6281   1.632   0.189   0.521 -0.2765 -0.2700  0.5196
 1244poe    c23 6282   1.585   0.255   0.406 -0.4155 -0.7816  0.2771
 1244poe    c23 6283   1.617   0.154   0.294 -0.2820 -0.0404 -0.3712
 1244poe     o2 6284   1.558   0.035   0.342  0.5729 -0.4115 -0.2165
 1244poe    c23 6285   1.539  -0.065   0.244 -0.4328 -0.2314 -0.2220
 1244poe    c23 6286   1.431  -0.161   0.297 -0.7911  0.2501 -0.0725
 1244poe     o2 6287   1.463  -0.202   0.428 -0.1797  0.2380 -0.2193
 1244poe    c31 6288   1.384  -0.317   0.448  0.0291  0.1480  0.0809
 1245poe    c31 6289   1.795   6.425   3.919  0.5161  0.9232 -0.1025
 1245poe     o2 6290   1.845   6.295   3.894  0.0142  0.7280 -0.0991
 1245poe    c23 6291   1.981   6.302   3.856  0.0644  0.2436 -0.0116
 1245poe    c23 6292   2.030   6.163   3.811  0.1978  0.2027  0.2565
 1245poe     o2 6293   2.019   6.066   3.913 -0.2124 -0.2367 -0.2013
 1245poe    c23 6294   2.046   5.936   3.864 -0.4775 -0.3378 -0.0824
 1245poe    c23 6295   2.054   5.830   3.976  0.0502 -0.3808 -0.1588
 1245poe     o2 6296   2.151   5.879   4.065 -0.0956  0.0858 -0.2527
 1245poe    c23 6297   2.189   5.769   4.145 -0.3334  0.0294 -0.2186
 1245poe    c23 6298   2.326   5.799   4.207 -0.2179  0.4284 -0.6607
 1245poe     o2 6299   2.346   5.922   4.273  0.1669 -0.0714  0.1776
 1245poe    c31 6300   2.464   5.929   4.350  0.6744 -0.3984 -0.5532
 1246poe    c31 6301   5.776   0.103   3.306 -0.4697 -0.4239 -0.0671
 1246poe     o2 6302   5.839   0.195   3.393 -0.5755 -0.0971 -0.3318
 1246poe    c23 6303   5.756   0.225   3.503  0.3580 -0.5112  0.5101
 1246poe    c23 6304   5.828   0.318   3.602  0.0069  0.2960  0.0208
 1246poe     o2 6305   5.942   0.264   3.666  0.1778  0.1368 -0.4146
 1246poe    c23 6306   6.046   0.356   3.638  0.2740  0.1912  0.1141
 1246poe    c23 6307   6.164   0.342   3.736  0.2026 -0.4012  0.1217
 1246poe     o2 6308   6.178   0.203   3.754 -0.3506 -0.4196  0.4313
 1246poe    c23 6309   6.247   0.177   3.875 -0.0538  0.0235  0.3615
 1246poe    c23 6310   6.269   0.025   3.891 -0.1801 -0.0124  0.2041
 1246poe     o2 6311   6.140  -0.026   3.868 -0.0353 -0.0947 -0.4297
 1246poe    c31 6312   6.143  -0.166   3.858 -0.2320 -0.1210 -0.1408
 1247poe    c31 6313   5.221   5.639   6.088 -0.3827 -0.1446 -0.3066
 1247poe     o2 6314   5.334   5.670   6.010 -0.1710  0.9273  0.4151
 1247poe    c23 6315   5.455   5.645   6.079 -0.0139  0.4501 -0.0275
 1247poe    c23 6316   5.561   5.718   5.994  0.2709  0.1240  0.0469
 1247poe     o2 6317   5.535   5.852   5.959 -0.1845  0.0011 -0.0819
 1247poe    c23 6318   5.638   5.912   5.885 -0.6644  0.2180 -0.5846
 1247poe    c23 6319   5.627   6.065   5.874  0.0616  0.3298  0.1102
 1247poe     o2 6320   5.487   6.084   5.863 -0.0637 -0.7807 -0.3551
 1247poe    c23 6321   5.460   6.219   5.835 -0.3006 -0.5392  0.9472
 1247poe    c23 6322   5.311   6.248   5.809 -0.1125 -0.2900  0.0893
 1247poe     o2 6323   5.260   6.168   5.706 -0.4257 -0.1163  0.1084
 1247poe    c31 6324   5.120   6.181   5.697 -0.4510 -0.0887  0.5354
 1248poe    c31 6325   3.449   2.829   1.396  0.2384  0.1937 -0.1837
 1248poe     o2 6326   3.356   2.791   1.494  0.6228  0.0372  0.1238
 1248poe    c23 6327   3.342   2.895   1.589  0.1539  0.0268  0.0691
 1248poe    c23 6328   3.222   2.860   1.679  0.2797  0.2012  0.3038
 1248poe     o2 6329   3.125   2.838   1.579  0.3871  0.3154  0.1731
 1248poe    c23 6330   2.998   2.808   1.633  0.1201  0.4062 -0.4013
 1248poe    c23 6331   2.897   2.797   1.518  0.3207 -0.1388 -0.5271
 1248poe     o2 6332   2.968   2.733   1.414  0.3976  0.2464 -0.7167
 1248poe    c23 6333   2.877   2.694   1.314  0.2395 -0.5240 -0.2810
 1248poe    c23 6334   2.858   2.541   1.320 -0.3502 -0.4303  0.4077
 1248poe     o2 6335   2.966   2.464   1.271 -0.6454 -0.5306 -0.0884
 1248poe    c31 6336   2.992   2.342   1.338  0.3148 -0.4647 -0.3300
 1249poe    c31 6337   6.616   2.029   1.948  0.3391  0.4901  0.9990
 1249poe     o2 6338   6.723   1.938   1.940  0.0148  0.1888 -0.0952
 1249poe    c23 6339   6.687   1.821   2.010  0.3702  0.4011  0.4562
 1249poe    c23 6340   6.802   1.725   2.043 -0.1367 -0.3998 -0.0564
 1249poe     o2 6341   6.915   1.788   2.100 -0.2020  0.2303 -0.6152
 1249poe    c23 6342   7.013   1.695   2.141  0.0554  0.2822 -1.0914
 1249poe    c23 6343   7.118   1.771   2.225 -0.0149 -0.6076 -0.1840
 1249poe     o2 6344   7.174   1.870   2.142 -0.1006 -0.5081 -0.1238
 1249poe    c23 6345   7.250   1.952   2.228 -0.6895 -0.1372  0.0440
 1249poe    c23 6346   7.287   2.074   2.140 -0.9041 -0.3309 -0.3181
 1249poe     o2 6347   7.170   2.117   2.074 -0.6122  0.2604 -0.4498
 1249poe    c31 6348   7.178   2.253   2.036 -0.9723  0.2997 -0.3837
 1250poe    c31 6349   4.972   4.039   2.421 -0.2209  0.3769  0.4673
 1250poe     o2 6350   4.971   4.146   2.513  0.5462  0.5280  0.3135
 1250poe    c23 6351   5.074   4.125   2.606  0.4658 -0.1033  0.2635
 1250poe    c23 6352   5.063   4.237   2.711 -0.0829  0.3879 -0.3113
 1250poe     o2 6353   4.931   4.221   2.757  0.3800 -0.8388  0.6625
 1250poe    c23 6354   4.883   4.301   2.863 -0.2917 -0.6364  0.2154
 1250poe    c23 6355   4.735   4.261   2.850 -0.4100 -0.1104 -0.0905
 1250poe     o2 6356   4.700   4.262   2.714  0.0415 -0.1187 -0.2071
 1250poe    c23 6357   4.603   4.165   2.680  0.0425 -0.2427  0.1410
 1250poe    c23 6358   4.569   4.197   2.533 -0.3491  0.3644  0.3573
 1250poe     o2 6359   4.690   4.199   2.461 -0.0417  0.0442  0.8527
 1250poe    c31 6360   4.662   4.178   2.324  0.3332 -0.3393  0.8339
 1251poe    c31 6361   5.742   1.961   5.863  0.5402  0.4516  0.3285
 1251poe     o2 6362   5.800   1.844   5.917 -0.2712 -0.2545 -0.3097
 1251poe    c23 6363   5.722   1.774   6.011 -0.0530  0.7249  0.6100
 1251poe    c23 6364   5.807   1.726   6.131 -0.3118 -0.3041  0.3895
 1251poe     o2 6365   5.916   1.651   6.084  0.0464  0.4436  0.0146
 1251poe    c23 6366   6.002   1.607   6.186  0.6061 -0.1867 -0.7088
 1251poe    c23 6367   6.119   1.696   6.234  0.0994  0.2487 -0.2583
 1251poe     o2 6368   6.204   1.711   6.122  0.3631 -0.4709 -0.1624
 1251poe    c23 6369   6.293   1.818   6.145 -0.5874  0.3507 -0.1934
 1251poe    c23 6370   6.393   1.812   6.028 -0.4369  0.8321 -0.0904
 1251poe     o2 6371   6.315   1.825   5.911 -0.4823 -0.8309 -0.2685
 1251poe    c31 6372   6.400   1.810   5.799  0.4238 -0.9352  0.4138
 1252poe    c31 6373   4.861   2.608   2.491 -0.2834  0.7031 -0.5988
 1252poe     o2 6374   4.851   2.675   2.614  0.2895 -0.4561  0.1003
 1252poe    c23 6375   4.952   2.773   2.632 -0.3170  0.0293  0.9030
 1252poe    c23 6376   4.912   2.868   2.747 -0.1729  0.6769  0.4241
 1252poe     o2 6377   4.878   2.794   2.862  0.2269 -0.5637 -0.2379
 1252poe    c23 6378   4.863   2.885   2.969  0.5965 -0.6615 -0.1012
 1252poe    c23 6379   4.867   2.802   3.099 -0.3856  0.0392  0.3871
 1252poe     o2 6380   4.793   2.685   3.071  0.4961 -0.3270 -0.5101
 1252poe    c23 6381   4.778   2.621   3.196  0.2079  0.5325 -0.0938
 1252poe    c23 6382   4.902   2.542   3.239  0.0496  0.2515 -0.1531
 1252poe     o2 6383   4.942   2.433   3.159  0.1802  0.0869  0.1331
 1252poe    c31 6384   5.039   2.358   3.227  0.1448  0.3751  0.5020
 1253poe    c31 6385   3.963   3.194   1.495  0.1789 -0.0584  0.0549
 1253poe     o2 6386   3.890   3.117   1.401 -0.6435  0.1096  0.5440
 1253poe    c23 6387   3.878   2.986   1.451  0.0820  0.0654  0.6120
 1253poe    c23 6388   3.883   2.889   1.331  0.1338  1.0514 -0.2050
 1253poe     o2 6389   3.778   2.925   1.244 -0.2366  0.2535 -0.1005
 1253poe    c23 6390   3.765   2.852   1.125  0.0560  0.5812 -0.3345
 1253poe    c23 6391   3.647   2.911   1.045 -0.1261  0.2677 -0.2981
 1253poe     o2 6392   3.677   3.048   1.037  1.0413  0.0557  0.1496
 1253poe    c23 6393   3.627   3.102   0.916  0.1940  0.1208  0.5210
 1253poe    c23 6394   3.687   3.237   0.875  0.8804 -0.3403 -0.0317
 1253poe     o2 6395   3.671   3.332   0.978 -0.4373 -0.3321 -0.2264
 1253poe    c31 6396   3.735   3.451   0.938  0.4482 -0.6412  0.2416
 1254poe    c31 6397   4.612   3.349   1.892 -0.5578 -0.4545 -0.0036
 1254poe     o2 6398   4.536   3.449   1.829 -0.3937  0.0576  0.6009
 1254poe    c23 6399   4.413   3.389   1.795 -0.1710 -0.1915  0.2321
 1254poe    c23 6400   4.325   3.485   1.714 -0.0665 -0.5573 -0.3166
 1254poe     o2 6401   4.420   3.541   1.626  0.0897  0.3874  0.4513
 1254poe    c23 6402   4.365   3.650   1.555 -0.0374 -0.1091 -0.2170
 1254poe    c23 6403   4.484   3.716   1.482  0.0167  0.1391  0.0932
 1254poe     o2 6404   4.585   3.745   1.576 -0.1171 -0.3203  0.3839
 1254poe    c23 6405   4.687   3.822   1.516 -0.2753 -0.6216 -0.2868
 1254poe    c23 6406   4.822   3.838   1.588 -0.5382  0.3842 -0.0017
 1254poe     o2 6407   4.804   3.914   1.706 -0.3064  0.4761 -0.0253
 1254poe    c31 6408   4.925   3.981   1.731 -0.0714 -0.2308  0.7571
 1255poe    c31 6409   2.319   2.724   3.504 -0.5080 -0.1029  0.4410
 1255poe     o2 6410   2.275   2.624   3.415  0.1683  0.1451 -0.1792
 1255poe    c23 6411   2.235   2.503   3.474 -0.1724  0.2148 -0.2635
 1255poe    c23 6412   2.182   2.416   3.358  0.0802 -0.0533 -0.1800
 1255poe     o2 6413   2.282   2.416   3.258  0.3590  0.3046  0.0957
 1255poe    c23 6414   2.248   2.345   3.141 -0.1916 -0.2030  0.5549
 1255poe    c23 6415   2.384   2.320   3.073 -0.1968 -0.1627  0.5297
 1255poe     o2 6416   2.450   2.441   3.042  0.1844 -0.4958  0.0354
 1255poe    c23 6417   2.576   2.416   2.983  0.2240  0.0250 -0.1096
 1255poe    c23 6418   2.652   2.537   2.927 -0.0902  0.2020 -0.1573
 1255poe     o2 6419   2.657   2.630   3.033 -0.2369  0.0849 -0.0473
 1255poe    c31 6420   2.785   2.686   3.048 -0.2771 -0.0422  0.8155
 1256poe    c31 6421   0.333   3.814   3.573  0.6948 -0.0534 -0.6284
 1256poe     o2 6422   0.466   3.825   3.619  0.3323 -0.4664  0.5749
 1256poe    c23 6423   0.471   3.833   3.760 -0.0810 -0.3924  0.5880
 1256poe    c23 6424   0.599   3.771   3.819  0.0245 -0.9141 -0.1706
 1256poe     o2 6425   0.714   3.849   3.794 -0.4203 -0.1607  0.1186
 1256poe    c23 6426   0.831   3.771   3.799 -0.3254  0.0051  0.4592
 1256poe    c23 6427   0.943   3.877   3.806 -0.4706  0.1426  0.7502
 1256poe     o2 6428   0.927   3.973   3.703  0.4819 -0.1806  0.2842
 1256poe    c23 6429   1.044   4.042   3.668 -0.1615  1.0303  0.4624
 1256poe    c23 6430   1.025   4.147   3.557  0.0590  0.1953 -0.3829
 1256poe     o2 6431   0.993   4.079   3.438  0.4799 -0.4209 -0.1502
 1256poe    c31 6432   0.983   4.166   3.328  0.3577  0.0638  0.2359
 1257poe    c31 6433   3.814   6.704   4.736 -0.4200 -0.0719  0.3074
 1257poe     o2 6434   3.871   6.799   4.823  0.5247 -0.6188  0.2936
 1257poe    c23 6435   3.783   6.831   4.928  0.2775  0.2122 -0.1502
 1257poe    c23 6436   3.845   6.950   5.003  0.2748  0.0997  0.0326
 1257poe     o2 6437   3.977   6.941   5.051  0.1595  0.3405  0.3994
 1257poe    c23 6438   4.018   7.056   5.122 -0.0341  0.5323  0.2036
 1257poe    c23 6439   4.157   7.032   5.184 -0.3701 -0.5888  0.5491
 1257poe     o2 6440   4.231   6.954   5.093 -0.0263  0.0326  0.2840
 1257poe    c23 6441   4.344   6.896   5.154  0.0508  0.1451  0.2466
 1257poe    c23 6442   4.410   6.825   5.035 -0.2519  0.3543 -0.0458
 1257poe     o2 6443   4.300   6.776   4.962  0.1638 -0.1233 -0.3587
 1257poe    c31 6444   4.349   6.676   4.875  0.1229 -0.6980  0.2723
 1258poe    c31 6445   0.094   2.595   6.792  0.2565  0.6521 -0.4349
 1258poe     o2 6446   0.129   2.647   6.919  0.2990 -0.0863 -0.1440
 1258poe    c23 6447   0.179   2.543   7.000 -0.0611 -0.3609 -0.2700
 1258poe    c23 6448   0.135   2.547   7.148  0.8459  0.1839 -0.0120
 1258poe     o2 6449   0.114   2.679   7.193  0.6410 -0.0679  0.6363
 1258poe    c23 6450   0.056   2.682   7.322 -0.2992  0.5178  0.2095
 1258poe    c23 6451  -0.009   2.820   7.338 -0.2559  0.5706 -0.0614
 1258poe     o2 6452  -0.081   2.843   7.218 -0.2135 -0.0565 -0.2085
 1258poe    c23 6453  -0.126   2.976   7.223  0.2544  0.0920  0.1371
 1258poe    c23 6454  -0.237   3.002   7.119  0.0648  0.6291  0.4719
 1258poe     o2 6455  -0.195   2.959   6.992 -0.0789  0.6800  0.4068
 1258poe    c31 6456  -0.266   3.029   6.892 -0.0276  0.3761  0.1585
 1259poe    c31 6457   6.612   1.363   4.371 -0.5160 -0.5107 -0.0822
 1259poe     o2 6458   6.578   1.494   4.331 -0.0361 -0.2082  0.4739
 1259poe    c23 6459   6.439   1.519   4.326  0.1037  0.5351  0.1742
 1259poe    c23 6460   6.418   1.671   4.317  0.2395  0.5876  0.7109
 1259poe     o2 6461   6.497   1.703   4.205  0.0410  0.3819  0.5118
 1259poe    c23 6462   6.469   1.821   4.133  0.2363  0.6465  0.8630
 1259poe    c23 6463   6.588   1.875   4.053 -0.1650 -0.0589 -0.2286
 1259poe     o2 6464   6.619   1.777   3.956  0.5332 -0.4750  0.4006
 1259poe    c23 6465   6.740   1.817   3.895 -0.0470  0.3690 -0.2223
 1259poe    c23 6466   6.777   1.727   3.776 -0.5460 -0.1703  0.0234
 1259poe     o2 6467   6.795   1.595   3.822 -0.2922 -0.0147  0.3686
 1259poe    c31 6468   6.791   1.505   3.714 -0.4764 -0.2198  0.5461
 1260poe    c31 6469   4.194   5.393   3.721 -0.2383 -0.1415  0.4089
 1260poe     o2 6470   4.123   5.428   3.838  0.1333  0.4555  0.4587
 1260poe    c23 6471   4.194   5.402   3.957  0.0931  0.1157  0.4093
 1260poe    c23 6472   4.118   5.480   4.065 -0.2854  0.5442 -0.1623
 1260poe     o2 6473   3.978   5.461   4.060 -0.2156 -0.1249  0.3357
 1260poe    c23 6474   3.907   5.554   4.139 -0.0901 -0.3588  0.7303
 1260poe    c23 6475   3.757   5.548   4.105  0.1446 -0.1663 -0.3892
 1260poe     o2 6476   3.754   5.525   3.966 -0.4651  0.0769 -0.4200
 1260poe    c23 6477   3.637   5.575   3.905 -0.6580  0.2780  0.1065
 1260poe    c23 6478   3.616   5.723   3.869 -0.3327  0.2334 -0.2790
 1260poe     o2 6479   3.702   5.749   3.760  0.6287  0.2011  0.4581
 1260poe    c31 6480   3.662   5.878   3.718  0.4619 -0.2281 -0.7534
 1261poe    c31 6481   6.606   4.762   6.026 -0.1115  0.3695  0.4943
 1261poe     o2 6482   6.634   4.669   6.128 -0.5463 -0.3010  0.0079
 1261poe    c23 6483   6.684   4.738   6.240  0.2038 -0.1498 -0.4134
 1261poe    c23 6484   6.696   4.650   6.366  0.0980  0.0068 -0.2932
 1261poe     o2 6485   6.798   4.553   6.367  0.6160  0.5424  0.2453
 1261poe    c23 6486   6.804   4.476   6.485  0.5169 -0.2467 -0.2514
 1261poe    c23 6487   6.860   4.335   6.461  0.5354 -0.3468  0.3709
 1261poe     o2 6488   6.796   4.261   6.359 -0.1752 -0.3549  0.8131
 1261poe    c23 6489   6.877   4.153   6.317  0.3670  0.3578 -0.0062
 1261poe    c23 6490   6.804   4.059   6.219  0.1002  0.2979  0.2464
 1261poe     o2 6491   6.714   4.138   6.145 -0.1686  0.0855  0.3479
 1261poe    c31 6492   6.646   4.056   6.052 -0.0703 -0.1742  0.5044
 1262poe    c31 6493   3.870   5.766   2.603  0.1931 -0.5622  0.2710
 1262poe     o2 6494   3.776   5.847   2.537  0.6127  0.2202  0.6184
 1262poe    c23 6495   3.776   5.851   2.396 -0.1009 -0.0329  0.6049
 1262poe    c23 6496   3.636   5.886   2.343  0.3211  0.6607 -0.0698
 1262poe     o2 6497   3.583   6.006   2.393 -0.1324  0.5234 -0.2148
 1262poe    c23 6498   3.462   6.034   2.326 -0.3372  0.1241 -0.0161
 1262poe    c23 6499   3.425   6.172   2.384 -0.0517  0.1533  0.0977
 1262poe     o2 6500   3.448   6.175   2.523 -0.7041 -0.3644  0.2194
 1262poe    c23 6501   3.386   6.277   2.598 -0.1517  0.2909 -0.2074
 1262poe    c23 6502   3.454   6.297   2.734 -0.1582  0.3445 -0.2119
 1262poe     o2 6503   3.587   6.342   2.727  0.0462 -0.1723  0.2330
 1262poe    c31 6504   3.645   6.353   2.854  0.2545 -0.0602  0.1291
 1263poe    c31 6505   4.000   2.215   4.550  0.2277 -0.3196  0.2895
 1263poe     o2 6506   3.943   2.276   4.663  0.1885  0.3367 -0.0830
 1263poe    c23 6507   3.812   2.298   4.616 -0.0131  0.2491  0.4321
 1263poe    c23 6508   3.772   2.421   4.532 -0.4094 -0.0229  0.2159
 1263poe     o2 6509   3.840   2.539   4.569 -0.0776 -0.1061 -0.1267
 1263poe    c23 6510   3.814   2.632   4.466  0.5046 -0.0155 -0.1982
 1263poe    c23 6511   3.886   2.762   4.507 -0.3838  0.5547 -0.4124
 1263poe     o2 6512   3.844   2.794   4.637  0.2141  0.2534 -0.1418
 1263poe    c23 6513   3.929   2.898   4.681  0.7263 -0.1423 -0.1821
 1263poe    c23 6514   3.893   2.889   4.831 -0.3568 -0.9886 -0.4760
 1263poe     o2 6515   3.909   2.754   4.868  0.2712 -0.7008  0.3273
 1263poe    c31 6516   3.935   2.743   5.007  0.0527  0.2213  0.4540
 1264poe    c31 6517   3.044   1.377   2.498  0.0553  0.2335 -0.4820
 1264poe     o2 6518   2.917   1.317   2.505  0.0193  0.4009  0.3610
 1264poe    c23 6519   2.932   1.188   2.451 -0.0886  0.5278  0.0256
 1264poe    c23 6520   2.799   1.122   2.411  0.4345 -0.1500 -0.6292
 1264poe     o2 6521   2.730   1.186   2.307 -0.5109  0.3035  0.2525
 1264poe    c23 6522   2.601   1.131   2.296 -0.0729 -0.7240  0.1899
 1264poe    c23 6523   2.488   1.216   2.355  0.5289  0.0403  0.2542
 1264poe     o2 6524   2.490   1.334   2.277 -0.1570 -0.0558  0.0847
 1264poe    c23 6525   2.389   1.422   2.320 -0.1406  0.1067 -0.2128
 1264poe    c23 6526   2.380   1.543   2.225 -0.4879  0.5280  0.3556
 1264poe     o2 6527   2.512   1.574   2.186 -0.3948  0.3130  0.4955
 1264poe    c31 6528   2.514   1.686   2.099 -0.2844  0.0270  0.1261
 1265poe    c31 6529   6.660   1.386   2.092 -0.2098  0.0369 -0.4704
 1265poe     o2 6530   6.524   1.364   2.125 -0.0760 -0.0126  0.0537
 1265poe    c23 6531   6.428   1.445   2.060 -0.1237 -0.1052  0.0074
 1265poe    c23 6532   6.282   1.411   2.094  0.1261 -1.0349  0.1732
 1265poe     o2 6533   6.297   1.388   2.232 -0.1643  0.0591  0.3966
 1265poe    c23 6534   6.174   1.392   2.299 -0.4136 -0.4433 -0.0258
 1265poe    c23 6535   6.219   1.337   2.436  0.5149  0.1425 -0.0891
 1265poe     o2 6536   6.289   1.215   2.433  0.1549 -0.0745  0.2591
 1265poe    c23 6537   6.277   1.162   2.563  0.8805  0.9721  0.7657
 1265poe    c23 6538   6.346   1.024   2.563  0.1803  0.6152  0.2621
 1265poe     o2 6539   6.483   1.042   2.535  0.0378  0.4242 -0.5786
 1265poe    c31 6540   6.559   0.924   2.540  0.4384  0.6670 -0.8388
 1266poe    c31 6541   4.429   0.789   6.093  0.1824 -0.3481  0.4705
 1266poe     o2 6542   4.564   0.751   6.073  0.1034 -0.4368  0.0868
 1266poe    c23 6543   4.561   0.610   6.084 -0.3499 -0.4585 -0.3036
 1266poe    c23 6544   4.697   0.558   6.036 -0.2126 -0.2001 -0.1971
 1266poe     o2 6545   4.780   0.621   6.131 -0.4171 -0.3089  0.0572
 1266poe    c23 6546   4.910   0.598   6.080 -0.2101 -0.1216  0.5001
 1266poe    c23 6547   4.977   0.736   6.098  0.1096 -0.2226  0.1040
 1266poe     o2 6548   4.882   0.840   6.099  0.2901 -0.0547 -0.1316
 1266poe    c23 6549   4.945   0.966   6.103  0.1031  0.0335  0.0641
 1266poe    c23 6550   4.842   1.080   6.106  0.2648  0.1825  0.0027
 1266poe     o2 6551   4.734   1.017   6.172  0.0445 -0.1133 -0.6400
 1266poe    c31 6552   4.630   1.110   6.191  0.1634 -0.1872  0.4202
 1267poe    c31 6553   4.237   0.622   5.017 -0.0626 -0.5393 -0.0339
 1267poe     o2 6554   4.172   0.740   5.060  0.4375 -0.0314 -0.6653
 1267poe    c23 6555   4.274   0.837   5.072  0.2053  0.1203  0.1424
 1267poe    c23 6556   4.203   0.973   5.084 -0.2937 -0.0307 -0.9633
 1267poe     o2 6557   4.081   0.951   5.152  0.0277  0.0875 -0.3354
 1267poe    c23 6558   4.019   1.071   5.194 -0.6295 -0.2047 -0.4629
 1267poe    c23 6559   3.887   1.009   5.244 -0.2388 -0.5627  0.1390
 1267poe     o2 6560   3.848   0.933   5.132  0.1950  0.0084 -0.4061
 1267poe    c23 6561   3.710   0.910   5.116  0.1384  0.1346 -0.1047
 1267poe    c23 6562   3.654   0.935   4.975 -0.5766 -0.2989  0.0951
 1267poe     o2 6563   3.704   0.834   4.889 -0.6501 -0.3007  0.0545
 1267poe    c31 6564   3.625   0.814   4.774  0.1546  0.2728 -0.6042
 1268poe    c31 6565   1.393   3.778   3.951  0.4326  0.1809  0.1754
 1268poe     o2 6566   1.431   3.698   4.060  0.3858 -0.5268 -0.3235
 1268poe    c23 6567   1.478   3.778   4.167 -0.1980 -0.0185 -0.4434
 1268poe    c23 6568   1.495   3.693   4.294 -0.0658  0.1800 -0.3295
 1268poe     o2 6569   1.612   3.616   4.304 -0.3093 -0.1673 -0.1283
 1268poe    c23 6570   1.597   3.525   4.411 -0.3065 -0.5415 -0.4453
 1268poe    c23 6571   1.696   3.408   4.394  0.2694 -0.0617 -0.4088
 1268poe     o2 6572   1.670   3.346   4.270 -0.0027  0.0006 -0.3825
 1268poe    c23 6573   1.765   3.242   4.265 -0.4346 -0.4464  0.5289
 1268poe    c23 6574   1.726   3.164   4.138  0.9715  0.2885 -0.3755
 1268poe     o2 6575   1.681   3.249   4.035 -0.2408  0.5858  0.3783
 1268poe    c31 6576   1.616   3.177   3.933  0.5742  0.0282  0.2395
 1269poe    c31 6577   2.763   4.982   0.381 -0.4520  0.3257  0.4621
 1269poe     o2 6578   2.691   4.872   0.329  0.3175  0.0361 -0.0194
 1269poe    c23 6579   2.762   4.829   0.216 -0.2196  0.0347 -0.3606
 1269poe    c23 6580   2.739   4.689   0.156  0.2129  0.0141 -0.4861
 1269poe     o2 6581   2.611   4.682   0.097  0.0069 -0.4245  0.0009
 1269poe    c23 6582   2.559   4.562   0.044 -0.8120  0.0427 -0.2697
 1269poe    c23 6583   2.526   4.451   0.145 -0.3826  0.5044  0.3878
 1269poe     o2 6584   2.437   4.491   0.247  0.0103  0.4018  0.7748
 1269poe    c23 6585   2.430   4.389   0.344  0.0242  0.3037  0.6727
 1269poe    c23 6586   2.318   4.418   0.446 -0.3163  0.2242  0.3216
 1269poe     o2 6587   2.293   4.556   0.461 -0.0060  0.2918  0.2184
 1269poe    c31 6588   2.242   4.580   0.591 -0.1228  0.4743  0.1391
 1270poe    c31 6589   1.202   3.402   2.752 -0.1793  0.2318 -0.2704
 1270poe     o2 6590   1.305   3.481   2.808  0.2420 -0.2645 -0.3277
 1270poe    c23 6591   1.391   3.540   2.713  0.3895 -0.1710 -0.1358
 1270poe    c23 6592   1.513   3.603   2.782  0.0565  0.4447 -0.1014
 1270poe     o2 6593   1.473   3.711   2.864 -0.1599  0.5269 -0.3153
 1270poe    c23 6594   1.575   3.747   2.954 -0.3187 -0.0001  0.0736
 1270poe    c23 6595   1.532   3.858   3.052 -0.0112 -0.0474  0.2653
 1270poe     o2 6596   1.398   3.835   3.090 -0.2804  0.3955 -0.4007
 1270poe    c23 6597   1.360   3.940   3.177  0.3159 -0.0756  0.4374
 1270poe    c23 6598   1.211   3.916   3.207  0.2718  0.0505  0.3185
 1270poe     o2 6599   1.154   3.908   3.078 -0.4035  0.0706  0.6169
 1270poe    c31 6600   1.018   3.871   3.091 -0.3686 -0.2124  0.1780
 1271poe    c31 6601   4.949   3.779   3.098 -0.5741  0.1796  0.2251
 1271poe     o2 6602   4.929   3.726   3.227  0.1779  0.1627  0.3371
 1271poe    c23 6603   5.008   3.795   3.321  0.0590  0.2267  0.3901
 1271poe    c23 6604   4.957   3.743   3.457  0.1547 -0.6120  0.1139
 1271poe     o2 6605   4.817   3.748   3.449  0.1756 -0.1190 -0.0098
 1271poe    c23 6606   4.738   3.709   3.560  0.0720  0.0429 -0.0265
 1271poe    c23 6607   4.590   3.721   3.521 -0.0311 -0.1047  0.3107
 1271poe     o2 6608   4.572   3.664   3.393 -0.3407  0.5254  0.0697
 1271poe    c23 6609   4.434   3.655   3.367 -0.3927  0.6474  0.3004
 1271poe    c23 6610   4.397   3.583   3.236  0.4580  0.4002  0.1947
 1271poe     o2 6611   4.450   3.642   3.119  0.1014  0.4342  0.0505
 1271poe    c31 6612   4.389   3.588   3.003  0.0524  0.1608  0.2016
 1272poe    c31 6613   0.561   2.264   1.604  0.3767  0.0905  0.3641
 1272poe     o2 6614   0.532   2.141   1.666  0.4739 -0.0446  0.1401
 1272poe    c23 6615   0.399   2.096   1.658  0.5641 -0.2988  0.0355
 1272poe    c23 6616   0.385   1.986   1.764  0.0201 -0.1059  0.1680
 1272poe     o2 6617   0.514   1.932   1.775  0.1674  0.1609 -0.2371
 1272poe    c23 6618   0.521   1.850   1.890 -0.6387  0.1775 -0.1759
 1272poe    c23 6619   0.660   1.783   1.892 -0.4667  0.5475  0.3465
 1272poe     o2 6620   0.758   1.876   1.932 -0.1052  0.2659  0.1095
 1272poe    c23 6621   0.868   1.808   1.987 -0.3296 -0.1871  0.0020
 1272poe    c23 6622   0.935   1.915   2.075 -0.1105 -0.0249 -0.3618
 1272poe     o2 6623   1.004   2.018   2.008 -0.7051  0.3887 -0.3363
 1272poe    c31 6624   0.996   2.139   2.080  0.0383 -0.2569  0.8504
 1273poe    c31 6625   4.259   4.181   4.959  0.1830  0.2089  0.0921
 1273poe     o2 6626   4.158   4.267   5.007  0.1799  0.2756 -0.0323
 1273poe    c23 6627   4.030   4.208   5.017  0.1742  0.3619  0.4375
 1273poe    c23 6628   3.927   4.299   5.087 -0.6194 -0.0099 -0.2313
 1273poe     o2 6629   3.933   4.430   5.035 -0.1430  0.1752  0.2817
 1273poe    c23 6630   3.874   4.533   5.111 -0.0288  0.5925 -0.1891
 1273poe    c23 6631   3.972   4.578   5.222  0.2552 -0.5479  0.0345
 1273poe     o2 6632   4.101   4.621   5.187  0.1314 -0.3049 -0.1247
 1273poe    c23 6633   4.142   4.720   5.278 -0.1288 -0.3862  0.0844
 1273poe    c23 6634   4.296   4.727   5.273 -0.1368 -0.3983 -0.2117
 1273poe     o2 6635   4.332   4.727   5.136 -0.2185 -0.3594 -0.2330
 1273poe    c31 6636   4.473   4.725   5.136 -0.1988  0.4322 -0.0575
 1274poe    c31 6637   5.347   0.655   4.674  0.2415 -0.1845 -0.2375
 1274poe     o2 6638   5.388   0.547   4.593  0.6032 -0.2750  0.0634
 1274poe    c23 6639   5.397   0.583   4.457  0.2434 -0.2190  0.0526
 1274poe    c23 6640   5.371   0.461   4.366 -0.1276 -0.4159  0.4149
 1274poe     o2 6641   5.427   0.344   4.420  0.4813 -0.2103  0.2385
 1274poe    c23 6642   5.409   0.236   4.331 -0.1873 -0.3797  0.5807
 1274poe    c23 6643   5.486   0.107   4.365 -0.4913 -0.6411  0.2815
 1274poe     o2 6644   5.442   0.058   4.490 -0.1514  0.1822  0.7298
 1274poe    c23 6645   5.548   0.018   4.575  0.2989 -0.7169 -0.2312
 1274poe    c23 6646   5.501  -0.054   4.703 -0.0906 -0.1706 -0.0649
 1274poe     o2 6647   5.429   0.038   4.782 -0.1538 -0.2572 -0.0221
 1274poe    c31 6648   5.393  -0.029   4.901  0.0967 -0.0437  0.1769
 1275poe    c31 6649   4.453   5.525   4.896  0.0808  0.1748 -0.9091
 1275poe     o2 6650   4.423   5.649   4.835 -0.0442  0.7045  0.2122
 1275poe    c23 6651   4.346   5.634   4.718 -0.2424 -0.3538  0.4677
 1275poe    c23 6652   4.310   5.770   4.656  0.3361 -0.6319 -0.4997
 1275poe     o2 6653   4.429   5.846   4.655 -0.2924  0.3848  0.1022
 1275poe    c23 6654   4.412   5.982   4.621  0.2065  0.4734  0.2074
 1275poe    c23 6655   4.552   6.040   4.592  0.4935 -0.2308  0.1471
 1275poe     o2 6656   4.647   6.000   4.688 -0.1208 -0.6237  0.5975
 1275poe    c23 6657   4.770   6.062   4.660 -0.1198 -0.9007 -0.0196
 1275poe    c23 6658   4.892   6.040   4.752 -0.4657  0.2599  0.7328
 1275poe     o2 6659   4.944   5.909   4.744  0.2148  0.5585  0.0887
 1275poe    c31 6660   5.061   5.902   4.821  0.0465  0.6434  0.3534
 1276poe    c31 6661   5.637   3.933   6.293  0.4260 -0.2742  0.2743
 1276poe     o2 6662   5.504   3.979   6.300  0.4914  0.0041 -0.3165
 1276poe    c23 6663   5.463   3.973   6.435 -0.0124 -0.0344 -0.4696
 1276poe    c23 6664   5.310   3.994   6.432  0.0051  0.0592 -0.7605
 1276poe     o2 6665   5.285   4.101   6.343  0.3744  0.6270 -0.1918
 1276poe    c23 6666   5.150   4.111   6.304  0.1610  0.0868  0.3917
 1276poe    c23 6667   5.118   4.226   6.207 -0.2129 -0.5776 -0.2823
 1276poe     o2 6668   5.211   4.225   6.100 -0.1467 -0.1479 -0.2303
 1276poe    c23 6669   5.192   4.346   6.030 -0.7302 -0.1250 -0.0437
 1276poe    c23 6670   5.278   4.338   5.903  0.2830  0.5385  0.5834
 1276poe     o2 6671   5.418   4.331   5.921  0.2643 -0.5476  0.3456
 1276poe    c31 6672   5.480   4.349   5.796  0.0230  0.0275  0.3067
 1277poe    c31 6673   3.780   1.055   5.962  0.1291 -0.2001  0.1772
 1277poe     o2 6674   3.896   1.004   5.900  0.1886  0.2764 -0.1085
 1277poe    c23 6675   3.878   0.979   5.762 -0.4610 -0.6682  0.1358
 1277poe    c23 6676   3.997   0.905   5.697 -0.0160  0.0476  0.1226
 1277poe     o2 6677   4.111   0.983   5.671 -0.0021 -0.1766 -0.5229
 1277poe    c23 6678   4.216   0.920   5.601 -0.2223  0.3435 -1.3355
 1277poe    c23 6679   4.339   1.008   5.574 -0.2560  0.6147 -0.6198
 1277poe     o2 6680   4.344   1.097   5.684 -0.0603  0.0037 -0.1245
 1277poe    c23 6681   4.431   1.207   5.666  0.0059  0.0235  0.3128
 1277poe    c23 6682   4.437   1.298   5.791  0.6441 -0.2716  0.4975
 1277poe     o2 6683   4.305   1.287   5.839  0.2484 -0.3039 -0.5729
 1277poe    c31 6684   4.295   1.392   5.932 -0.6946 -0.7118 -0.2075
 1278poe    c31 6685   4.905   0.118   2.861 -0.1737  0.0176 -0.0289
 1278poe     o2 6686   4.984   0.040   2.774  0.5587  0.2193  0.4506
 1278poe    c23 6687   4.947  -0.095   2.789 -0.7324  0.4182 -0.7592
 1278poe    c23 6688   5.051  -0.188   2.724 -0.1644  0.1605  0.4980
 1278poe     o2 6689   5.067  -0.122   2.600  0.1843 -0.0191  0.4447
 1278poe    c23 6690   5.183  -0.165   2.533 -0.0977 -0.2487  0.0997
 1278poe    c23 6691   5.186  -0.065   2.416  0.1610  0.0583  0.3662
 1278poe     o2 6692   5.167   0.054   2.489  0.2608  0.2854  0.0261
 1278poe    c23 6693   5.183   0.173   2.415  0.2772  0.2676  0.0009
 1278poe    c23 6694   5.189   0.269   2.535  0.0319  0.3352 -0.0406
 1278poe     o2 6695   5.080   0.259   2.624  0.1954  0.3966  0.1672
 1278poe    c31 6696   5.075   0.370   2.711  0.3933  0.1340  0.5160
 1279poe    c31 6697   4.863   0.234   1.133 -0.6675  0.3020 -0.4511
 1279poe     o2 6698   4.902   0.335   1.042  0.0314  0.4970  0.0516
 1279poe    c23 6699   4.849   0.326   0.911  0.2062  0.0513  0.0108
 1279poe    c23 6700   4.924   0.433   0.830 -0.4146  0.5650  0.1081
 1279poe     o2 6701   4.891   0.558   0.887 -0.1452  0.3820  0.6736
 1279poe    c23 6702   4.972   0.661   0.836 -0.4079  0.2130 -0.0996
 1279poe    c23 6703   4.960   0.791   0.919  0.2319  0.3346 -0.1901
 1279poe     o2 6704   4.984   0.761   1.054 -0.4424 -0.0888 -0.1546
 1279poe    c23 6705   4.958   0.874   1.135  0.3827  0.1505 -0.2131
 1279poe    c23 6706   5.011   0.856   1.278  0.0539  0.0278 -0.1054
 1279poe     o2 6707   5.021   0.718   1.302  0.2568  0.1384  0.4805
 1279poe    c31 6708   5.049   0.687   1.437  0.5051  0.6159  0.5396
 1280poe    c31 6709   0.848   4.132   5.717  0.0688  0.1056 -0.3511
 1280poe     o2 6710   0.825   4.040   5.822  0.1904  0.4840  0.0121
 1280poe    c23 6711   0.925   4.039   5.922  0.2820  0.3229 -0.0801
 1280poe    c23 6712   0.848   3.969   6.035  0.4156 -0.2556 -0.3454
 1280poe     o2 6713   0.785   3.857   5.976  0.4548 -0.3492 -0.2118
 1280poe    c23 6714   0.721   3.776   6.072  0.4036 -0.1601 -0.0840
 1280poe    c23 6715   0.673   3.648   6.002  0.1497 -0.0254 -0.1544
 1280poe     o2 6716   0.624   3.682   5.874  0.0401  0.1206 -0.0741
 1280poe    c23 6717   0.601   3.562   5.803 -1.1875  0.3849 -0.1479
 1280poe    c23 6718   0.560   3.583   5.656 -0.4799  0.8783 -0.2784
 1280poe     o2 6719   0.667   3.622   5.573  0.3156 -0.5427  0.0384
 1280poe    c31 6720   0.624   3.614   5.439  0.2418 -0.3994  0.0542
 1281poe    c31 6721   0.557   2.278   6.168  0.4159  1.1108 -0.3268
 1281poe     o2 6722   0.456   2.314   6.260 -0.0088 -0.1496 -0.2835
 1281poe    c23 6723   0.507   2.380   6.374 -0.0452  0.1721 -0.4527
 1281poe    c23 6724   0.392   2.412   6.471  0.2750  0.6190 -0.2186
 1281poe     o2 6725   0.291   2.472   6.394 -0.0291  0.1032 -0.2216
 1281poe    c23 6726   0.167   2.484   6.460  0.3977 -0.1908  0.6445
 1281poe    c23 6727   0.070   2.552   6.362 -0.2140 -0.6437  0.9291
 1281poe     o2 6728   0.075   2.476   6.243  0.4868  0.8804 -0.0531
 1281poe    c23 6729  -0.036   2.516   6.165  0.3923  0.4455 -0.1457
 1281poe    c23 6730  -0.033   2.475   6.017  0.1287  0.1317 -0.0656
 1281poe     o2 6731   0.081   2.533   5.956  0.1291 -0.1113 -0.2984
 1281poe    c31 6732   0.091   2.482   5.825 -0.3867 -0.5266 -0.1793
 1282poe    c31 6733   3.013   4.687   4.059  0.3371  0.6033 -0.6603
 1282poe     o2 6734   3.148   4.647   4.070 -0.0121 -0.4560 -0.0581
 1282poe    c23 6735   3.207   4.765   4.121 -0.1527 -0.1860 -0.5164
 1282poe    c23 6736   3.360   4.784   4.115 -0.0461 -0.8947 -0.1809
 1282poe     o2 6737   3.433   4.713   4.213 -0.1103 -0.1806  0.3916
 1282poe    c23 6738   3.573   4.711   4.198 -0.2058 -0.5409 -0.5261
 1282poe    c23 6739   3.617   4.608   4.303 -0.5903 -0.0566  0.1203
 1282poe     o2 6740   3.549   4.487   4.278  0.0643 -0.4408  0.1648
 1282poe    c23 6741   3.575   4.401   4.387 -0.1170 -0.1706  0.4225
 1282poe    c23 6742   3.481   4.279   4.390 -0.8070  0.3616  0.7410
 1282poe     o2 6743   3.358   4.344   4.366 -0.3628  0.8086 -0.3854
 1282poe    c31 6744   3.253   4.252   4.353  0.2161  0.1166 -0.2210
 1283poe    c31 6745   5.713   4.413   3.557 -0.2815 -0.4974 -0.3325
 1283poe     o2 6746   5.735   4.361   3.686  0.3955 -0.2552 -0.3447
 1283poe    c23 6747   5.733   4.467   3.779  0.5560 -0.2548 -0.3412
 1283poe    c23 6748   5.770   4.425   3.922  0.3681  0.4805 -0.0699
 1283poe     o2 6749   5.897   4.365   3.927  0.1545  0.0179 -0.0784
 1283poe    c23 6750   5.944   4.343   4.058  0.7381  0.4215 -0.2119
 1283poe    c23 6751   6.077   4.269   4.035  0.4791  0.0021 -0.3951
 1283poe     o2 6752   6.048   4.161   3.950  0.2851 -0.5062  0.3063
 1283poe    c23 6753   6.150   4.066   3.972  0.8322  0.0217  0.0911
 1283poe    c23 6754   6.120   3.939   3.891  0.1063  0.4583 -0.3308
 1283poe     o2 6755   6.096   3.937   3.752  0.3550  0.0918 -0.3702
 1283poe    c31 6756   6.048   3.807   3.726  0.1565 -0.0403  0.6085
 1284poe    c31 6757   6.643   4.688   0.385 -0.4488 -0.3472 -0.5406
 1284poe     o2 6758   6.729   4.619   0.296  0.0293 -0.3554 -0.0741
 1284poe    c23 6759   6.664   4.514   0.229  0.0626 -0.5695  0.2279
 1284poe    c23 6760   6.764   4.415   0.166  0.3432 -0.3187  0.2786
 1284poe     o2 6761   6.849   4.475   0.071 -0.0869  0.0501  0.1207
 1284poe    c23 6762   6.950   4.395   0.013 -0.4145  0.0165 -0.4172
 1284poe    c23 6763   7.041   4.483  -0.074  0.1006 -0.4150 -0.3227
 1284poe     o2 6764   7.111   4.573   0.009  0.2460 -0.6475 -0.1944
 1284poe    c23 6765   7.198   4.659  -0.062  0.3321 -0.7392 -0.2012
 1284poe    c23 6766   7.200   4.787   0.024 -0.9229 -0.6419 -0.2916
 1284poe     o2 6767   7.227   4.755   0.159  0.1065 -0.0556 -0.3468
 1284poe    c31 6768   7.220   4.871   0.239  0.4189 -0.3209  0.0620
 1285poe    c31 6769   6.104   3.799   2.849 -0.3620 -0.0060 -0.4745
 1285poe     o2 6770   5.986   3.729   2.882 -0.1027 -0.1675  0.1116
 1285poe    c23 6771   5.871   3.810   2.895  0.1913  0.1835  0.5713
 1285poe    c23 6772   5.778   3.755   3.005 -0.2452  0.0715  0.1523
 1285poe     o2 6773   5.743   3.620   2.986 -0.1805  0.0863 -0.0702
 1285poe    c23 6774   5.711   3.558   3.108  0.3356 -0.1250 -0.0379
 1285poe    c23 6775   5.680   3.408   3.097  0.3647 -0.1551  0.2828
 1285poe     o2 6776   5.743   3.361   2.980  0.4059 -0.2159  0.3301
 1285poe    c23 6777   5.718   3.222   2.967 -0.7255 -0.0312  0.4208
 1285poe    c23 6778   5.799   3.193   2.839 -0.3633 -0.0470  0.6506
 1285poe     o2 6779   5.765   3.290   2.743 -0.0017 -0.5131  0.0426
 1285poe    c31 6780   5.779   3.251   2.608 -0.2005  0.9916 -0.4368
 1286poe    c31 6781   0.493   2.088   5.740 -0.4927  0.1056 -1.0701
 1286poe     o2 6782   0.391   2.018   5.807  0.4493  0.0352  0.3295
 1286poe    c23 6783   0.361   2.070   5.935 -0.5120  0.7711 -0.1828
 1286poe    c23 6784   0.258   1.978   6.003  0.2762  0.3400  0.4343
 1286poe     o2 6785   0.304   1.859   6.064  0.0427 -0.0269 -0.0909
 1286poe    c23 6786   0.191   1.809   6.131 -0.1544  0.6317  0.0834
 1286poe    c23 6787   0.218   1.676   6.204  0.1465  0.6891  0.0774
 1286poe     o2 6788   0.271   1.604   6.096  0.0414  0.2646  0.3051
 1286poe    c23 6789   0.292   1.467   6.123  0.3207  0.2675  0.1065
 1286poe    c23 6790   0.376   1.406   6.009 -0.1139  0.3038 -0.2364
 1286poe     o2 6791   0.460   1.499   5.944 -0.3469  0.5678 -0.1600
 1286poe    c31 6792   0.538   1.445   5.840  0.1245  0.4875  0.2351
 1287poe    c31 6793   1.126   4.027   0.006  0.2170  0.4775 -0.4266
 1287poe     o2 6794   1.111   4.164  -0.024 -0.3902  0.4848 -0.1102
 1287poe    c23 6795   1.141   4.175  -0.162  0.5158 -0.0594  0.0370
 1287poe    c23 6796   1.115   4.316  -0.217 -0.0681 -0.1433  0.0888
 1287poe     o2 6797   0.992   4.351  -0.277 -0.0072 -0.2220 -0.0857
 1287poe    c23 6798   0.876   4.346  -0.197  0.3911  0.4029  0.5461
 1287poe    c23 6799   0.755   4.395  -0.280  0.0771 -0.4702  0.4755
 1287poe     o2 6800   0.796   4.523  -0.322 -0.1861 -0.4807  0.1859
 1287poe    c23 6801   0.691   4.609  -0.360  0.0943 -0.3292 -0.2591
 1287poe    c23 6802   0.751   4.745  -0.399  0.4369 -0.2069  0.6866
 1287poe     o2 6803   0.855   4.710  -0.488  0.2677  0.5386  0.1915
 1287poe    c31 6804   0.869   4.804  -0.592  0.4327  0.7605  0.4118
 1288poe    c31 6805   4.390   3.117   1.392  0.4184 -0.1641 -0.4523
 1288poe     o2 6806   4.395   2.985   1.442  0.1888 -0.0345 -0.0806
 1288poe    c23 6807   4.486   2.993   1.549 -0.0604  0.2012  0.1160
 1288poe    c23 6808   4.530   2.851   1.592 -0.5220 -0.0513 -0.2422
 1288poe     o2 6809   4.421   2.766   1.622 -0.1759 -0.6203 -0.5875
 1288poe    c23 6810   4.489   2.643   1.640  0.2252 -0.3212  0.0016
 1288poe    c23 6811   4.394   2.528   1.678  0.0236 -0.2392 -0.2488
 1288poe     o2 6812   4.319   2.488   1.566 -0.0300 -0.1508 -0.2447
 1288poe    c23 6813   4.247   2.377   1.615  0.3268 -0.1390  0.3033
 1288poe    c23 6814   4.156   2.346   1.495 -0.3698  0.2809  0.7156
 1288poe     o2 6815   4.060   2.445   1.465 -0.1268  0.3060 -0.0126
 1288poe    c31 6816   4.032   2.433   1.328  0.6527 -0.2258 -0.1286
 1289poe    c31 6817   4.448   5.294   6.500  0.1291  0.2538 -0.3484
 1289poe     o2 6818   4.450   5.171   6.431 -0.0373 -0.1132  0.2962
 1289poe    c23 6819   4.322   5.120   6.404 -0.3319  0.5891  0.3271
 1289poe    c23 6820   4.333   4.968   6.378 -0.2714  0.6378  0.0689
 1289poe     o2 6821   4.408   4.954   6.260 -0.4417  0.3412 -0.0041
 1289poe    c23 6822   4.367   4.831   6.204 -0.1871  0.3452 -0.2070
 1289poe    c23 6823   4.481   4.765   6.124  0.0370  0.2291  0.2034
 1289poe     o2 6824   4.577   4.703   6.205 -0.0643 -0.2402 -0.0346
 1289poe    c23 6825   4.649   4.612   6.125 -0.2957 -0.5590  0.1180
 1289poe    c23 6826   4.589   4.471   6.110  0.0938 -0.6695 -0.4163
 1289poe     o2 6827   4.649   4.394   6.212 -0.0139 -0.1896  0.0140
 1289poe    c31 6828   4.624   4.255   6.200  0.1764 -0.2629  0.4374
 1290poe    c31 6829   3.390   6.630   6.312  0.2051  0.8809 -0.3331
 1290poe     o2 6830   3.251   6.628   6.339  0.0995  0.3304 -0.9044
 1290poe    c23 6831   3.186   6.529   6.263 -0.4358 -0.5482  0.6759
 1290poe    c23 6832   3.041   6.508   6.311 -0.5974 -0.5876  0.1680
 1290poe     o2 6833   2.957   6.613   6.267  0.0918 -0.3350 -0.5735
 1290poe    c23 6834   2.833   6.610   6.333  0.3117 -0.4326 -0.1621
 1290poe    c23 6835   2.745   6.711   6.257  0.1755 -0.5245 -0.1286
 1290poe     o2 6836   2.815   6.834   6.247 -0.2739 -0.2431  0.1466
 1290poe    c23 6837   2.735   6.945   6.213  0.3966  0.1093 -0.3009
 1290poe    c23 6838   2.807   7.062   6.282  0.1371  0.1281 -0.0573
 1290poe     o2 6839   2.939   7.064   6.232  0.0988 -0.0589 -0.1679
 1290poe    c31 6840   3.006   7.179   6.280  0.0554 -0.0671 -0.0873
 1291poe    c31 6841   5.572   4.694   2.990  0.2244 -0.1512 -0.2742
 1291poe     o2 6842   5.478   4.609   3.049 -0.0155 -0.0882 -0.5613
 1291poe    c23 6843   5.390   4.552   2.955 -0.2291 -0.5437 -0.0909
 1291poe    c23 6844   5.264   4.479   3.006 -0.5006  0.0850  0.1450
 1291poe     o2 6845   5.303   4.363   3.077 -0.1044  0.2117  0.1355
 1291poe    c23 6846   5.200   4.267   3.072 -0.2015  0.3309 -0.2471
 1291poe    c23 6847   5.238   4.158   3.174  0.0496 -0.0651 -0.7578
 1291poe     o2 6848   5.252   4.226   3.297 -0.1931 -0.2338 -0.6362
 1291poe    c23 6849   5.309   4.131   3.383 -0.7644  0.0716  0.0933
 1291poe    c23 6850   5.313   4.196   3.523 -0.2985 -0.1233  0.1729
 1291poe     o2 6851   5.320   4.336   3.506 -0.3420 -0.1503 -0.0787
 1291poe    c31 6852   5.280   4.392   3.629  1.0450  0.7521 -0.0143
 1292poe    c31 6853   3.835   4.943   1.419 -0.7188  0.7611 -0.3599
 1292poe     o2 6854   3.808   5.017   1.302 -0.6023  0.3873 -0.6220
 1292poe    c23 6855   3.668   5.024   1.289 -0.6864 -0.0099  0.0178
 1292poe    c23 6856   3.622   5.082   1.154 -0.5818  0.0223 -0.0041
 1292poe     o2 6857   3.649   4.992   1.049  0.1071  0.1973  0.0175
 1292poe    c23 6858   3.664   5.061   0.928 -0.6107  0.2055 -0.0669
 1292poe    c23 6859   3.720   4.954   0.833 -0.0623  0.1927  0.2690
 1292poe     o2 6860   3.854   4.923   0.863  0.1512  0.8531  0.0044
 1292poe    c23 6861   3.919   4.878   0.746  0.3870  0.2066  0.3800
 1292poe    c23 6862   4.043   4.968   0.733  0.3300  0.1643 -0.5133
 1292poe     o2 6863   4.117   4.987   0.851 -0.1576  0.0873 -0.1953
 1292poe    c31 6864   4.196   5.104   0.844 -0.0224  0.0599  0.6645
 1293poe    c31 6865   3.607   6.656   0.816 -0.0909 -0.1130  0.3141
 1293poe     o2 6866   3.692   6.765   0.791 -0.6508  0.2128 -0.1987
 1293poe    c23 6867   3.644   6.830   0.675 -0.3852 -0.3108 -0.6052
 1293poe    c23 6868   3.740   6.948   0.650  0.2455 -0.5932  0.4335
 1293poe     o2 6869   3.872   6.907   0.622  0.4772  0.2993  0.1745
 1293poe    c23 6870   3.962   7.012   0.595  0.2269  0.4562 -0.0593
 1293poe    c23 6871   4.108   6.969   0.569  0.3332  0.7522  0.0421
 1293poe     o2 6872   4.145   6.898   0.685  0.1410 -0.1298 -0.4213
 1293poe    c23 6873   4.277   6.851   0.668  0.0822 -0.4087 -0.1309
 1293poe    c23 6874   4.291   6.774   0.800  0.3790  0.2684  0.2356
 1293poe     o2 6875   4.201   6.666   0.803 -0.0144  0.6004  0.4621
 1293poe    c31 6876   4.246   6.568   0.892 -0.8279  0.3591  0.6207
 1294poe    c31 6877   0.444   6.277   0.239  0.0168 -0.1456 -0.2580
 1294poe     o2 6878   0.414   6.393   0.165 -0.0873  0.1230  0.2014
 1294poe    c23 6879   0.323   6.476   0.234 -0.3122 -0.2114  0.3074
 1294poe    c23 6880   0.295   6.589   0.134 -0.1527 -0.0108  0.4885
 1294poe     o2 6881   0.425   6.640   0.112 -0.1919  0.1068  0.5300
 1294poe    c23 6882   0.421   6.763   0.044  0.1025 -0.4781 -0.5534
 1294poe    c23 6883   0.564   6.819   0.063  0.1180 -0.6349 -0.2173
 1294poe     o2 6884   0.674   6.747   0.013 -0.0452 -0.4882 -0.7993
 1294poe    c23 6885   0.794   6.812   0.050 -0.4579  0.0289 -0.3654
 1294poe    c23 6886   0.914   6.726   0.009 -0.3085 -0.3124  0.7317
 1294poe     o2 6887   0.911   6.592   0.052 -0.0348 -0.3710  0.5733
 1294poe    c31 6888   1.012   6.517  -0.011 -0.1294 -0.1070  0.1045
 1295poe    c31 6889   5.136   6.948   4.668 -0.2843  0.7590 -0.2228
 1295poe     o2 6890   5.070   6.932   4.545 -0.3684 -0.6933 -0.0065
 1295poe    c23 6891   5.140   6.861   4.444  0.1031 -0.0986 -0.1006
 1295poe    c23 6892   5.058   6.906   4.322  0.2384  0.6719  0.0841
 1295poe     o2 6893   4.922   6.884   4.356  0.2409  0.5885  0.0402
 1295poe    c23 6894   4.842   6.905   4.242 -0.4467 -0.7148  0.2666
 1295poe    c23 6895   4.700   6.871   4.291 -1.0252  0.4037 -0.5902
 1295poe     o2 6896   4.690   6.931   4.419  0.0016 -0.5543 -0.0459
 1295poe    c23 6897   4.568   6.896   4.480  0.3114 -0.0699  0.8577
 1295poe    c23 6898   4.492   7.026   4.515  0.1443  0.1575 -0.3182
 1295poe     o2 6899   4.533   7.086   4.635 -0.1972 -0.0220 -0.1100
 1295poe    c31 6900   4.428   7.168   4.683  0.0942  0.3000 -0.0160
 1296poe    c31 6901   6.932   1.019   0.037 -0.1083  0.1304  0.1799
 1296poe     o2 6902   6.925   0.983   0.173 -0.1449  0.0328  0.1521
 1296poe    c23 6903   7.046   0.936   0.228 -0.2570 -0.6178 -0.1455
 1296poe    c23 6904   7.014   0.899   0.374 -0.1907  0.1317  0.0657
 1296poe     o2 6905   6.924   0.998   0.417 -0.3150 -0.0295  0.1813
 1296poe    c23 6906   6.948   1.053   0.544 -0.2889  0.0359  0.1484
 1296poe    c23 6907   6.802   1.084   0.580 -0.0883  0.7652  0.3530
 1296poe     o2 6908   6.735   1.147   0.473  0.2666  0.1691 -0.2247
 1296poe    c23 6909   6.621   1.216   0.519  0.2074 -0.1678  0.1366
 1296poe    c23 6910   6.486   1.169   0.460 -0.0500  0.2812  0.3611
 1296poe     o2 6911   6.464   1.209   0.327 -0.1171 -0.2921  0.1957
 1296poe    c31 6912   6.336   1.265   0.309 -0.2280 -0.4913  0.3582
 1297poe    c31 6913   5.750   6.108   0.008 -0.5079 -0.4107  0.2757
 1297poe     o2 6914   5.729   6.226  -0.068 -0.1848 -0.7405 -0.3349
 1297poe    c23 6915   5.822   6.234  -0.174  0.0088 -0.8340 -0.1741
 1297poe    c23 6916   5.760   6.217  -0.314  0.0553  0.0854 -0.3138
 1297poe     o2 6917   5.727   6.081  -0.328  0.0050  0.0320  0.2772
 1297poe    c23 6918   5.653   6.054  -0.445 -0.2484  0.2575  0.3840
 1297poe    c23 6919   5.586   5.915  -0.440 -0.0883  0.1572 -0.1301
 1297poe     o2 6920   5.491   5.892  -0.338  0.0374  0.1500 -0.0144
 1297poe    c23 6921   5.435   5.765  -0.356  0.4708 -0.0941  0.3344
 1297poe    c23 6922   5.350   5.709  -0.240  0.0941 -0.3174 -0.0453
 1297poe     o2 6923   5.249   5.792  -0.188  0.4483 -0.1111  0.3182
 1297poe    c31 6924   5.221   5.755  -0.055  0.2063 -0.0801  0.2760
 1298poe    c31 6925   4.177   0.989   3.140  0.4291  0.1105  0.2114
 1298poe     o2 6926   4.122   1.106   3.083 -0.1642 -0.0392  0.4651
 1298poe    c23 6927   4.163   1.103   2.949  0.1112 -0.4625  0.5576
 1298poe    c23 6928   4.161   1.242   2.883  0.1415 -0.5064  0.4620
 1298poe     o2 6929   4.060   1.309   2.957 -0.3491 -0.3373 -0.3547
 1298poe    c23 6930   4.020   1.432   2.902 -0.2232 -0.2068 -0.1521
 1298poe    c23 6931   3.925   1.503   3.001 -0.0957 -0.1947 -0.0383
 1298poe     o2 6932   3.799   1.442   3.016 -0.0796 -0.3701 -0.5864
 1298poe    c23 6933   3.733   1.473   3.137 -0.0727  0.2810 -0.7445
 1298poe    c23 6934   3.600   1.397   3.133  0.2758 -0.3752 -0.1706
 1298poe     o2 6935   3.600   1.257   3.153 -0.1141 -0.3470  0.0566
 1298poe    c31 6936   3.544   1.230   3.279 -0.2818 -0.0624  0.0438
 1299poe    c31 6937   6.710   4.468   1.254  0.4108 -0.1427  0.1882
 1299poe     o2 6938   6.827   4.470   1.175  0.0886  0.1678 -0.2817
 1299poe    c23 6939   6.881   4.600   1.180 -0.6278  0.4708 -0.1572
 1299poe    c23 6940   7.005   4.598   1.088 -0.0932 -0.0964  0.5595
 1299poe     o2 6941   7.079   4.481   1.115  0.1724  0.0180  0.3409
 1299poe    c23 6942   7.200   4.469   1.046 -0.2578 -0.3456 -0.3558
 1299poe    c23 6943   7.296   4.377   1.124  0.3155  0.2429 -0.3597
 1299poe     o2 6944   7.240   4.248   1.134 -0.1321  0.4606 -0.0606
 1299poe    c23 6945   7.300   4.181   1.243  0.0460  0.5775 -0.0860
 1299poe    c23 6946   7.221   4.056   1.285  0.2260  0.5499  0.1722
 1299poe     o2 6947   7.108   4.083   1.366  0.4013 -0.1718  0.6719
 1299poe    c31 6948   7.018   3.975   1.372  0.3355 -0.2134 -0.6659
 1300poe    c31 6949   1.394   1.298   5.930 -0.1575  0.3148  0.2092
 1300poe     o2 6950   1.275   1.294   5.854  0.0213  0.4598 -0.0787
 1300poe    c23 6951   1.200   1.411   5.830  0.1168  0.4764 -0.2945
 1300poe    c23 6952   1.265   1.527   5.752  0.5074  0.0745 -0.5695
 1300poe     o2 6953   1.281   1.518   5.612  0.6202 -0.3193 -0.5342
 1300poe    c23 6954   1.375   1.613   5.566  0.5282  0.0370  0.0054
 1300poe    c23 6955   1.425   1.613   5.421  0.3594  0.5810 -0.0521
 1300poe     o2 6956   1.320   1.598   5.327  0.3775 -0.8801  0.1427
 1300poe    c23 6957   1.359   1.587   5.192 -0.6888 -0.3494 -0.2164
 1300poe    c23 6958   1.250   1.656   5.108 -0.6870 -0.3891 -0.2515
 1300poe     o2 6959   1.129   1.630   5.175 -0.2028  0.2346  0.9084
 1300poe    c31 6960   1.021   1.689   5.105 -0.1065 -0.2372  0.3496
 1301poe    c31 6961   6.327   3.314   4.632 -0.2726  0.0269 -0.6387
 1301poe     o2 6962   6.198   3.327   4.688  0.0582 -0.4438  0.2409
 1301poe    c23 6963   6.210   3.345   4.828 -0.1684  0.5136  0.1398
 1301poe    c23 6964   6.085   3.288   4.896 -0.0356 -0.2799 -0.2780
 1301poe     o2 6965   5.977   3.354   4.834  0.3225  0.2745 -0.3119
 1301poe    c23 6966   5.858   3.279   4.841  0.5177 -0.0843 -0.7727
 1301poe    c23 6967   5.758   3.341   4.742  0.1830  0.5295 -0.0627
 1301poe     o2 6968   5.828   3.341   4.620 -0.2141  0.4199 -0.2912
 1301poe    c23 6969   5.739   3.359   4.512 -0.1981  0.4814 -0.2943
 1301poe    c23 6970   5.691   3.224   4.454  0.0024  0.3084 -0.0579
 1301poe     o2 6971   5.801   3.144   4.418 -0.0477 -0.0962  0.6480
 1301poe    c31 6972   5.776   3.024   4.349  0.2411 -0.0145  0.3963
 1302poe    c31 6973   5.325   2.318   3.615  0.4248 -0.1578 -0.4140
 1302poe     o2 6974   5.303   2.248   3.494 -0.4179  0.2013 -0.4716
 1302poe    c23 6975   5.238   2.124   3.507 -0.5304  0.3062 -0.0073
 1302poe    c23 6976   5.174   2.067   3.379  0.1078  0.5381 -0.4361
 1302poe     o2 6977   5.272   2.025   3.288 -0.2197 -0.8848 -0.1627
 1302poe    c23 6978   5.230   1.975   3.163 -0.6980  0.3085 -0.4955
 1302poe    c23 6979   5.357   1.957   3.077  0.0584  0.2047  0.6214
 1302poe     o2 6980   5.463   2.048   3.093  0.4973 -0.1829 -0.0197
 1302poe    c23 6981   5.568   2.045   2.999 -0.0929  0.5249 -0.7104
 1302poe    c23 6982   5.695   2.116   3.050  0.2719 -0.6859  0.1139
 1302poe     o2 6983   5.657   2.201   3.156  0.2590 -0.2164 -0.2633
 1302poe    c31 6984   5.766   2.269   3.215  0.4360 -0.3133 -0.4792
 1303poe    c31 6985   4.616   3.319   6.423 -0.4234  0.3470  0.2965
 1303poe     o2 6986   4.722   3.379   6.351 -0.3046 -0.3885 -0.1461
 1303poe    c23 6987   4.666   3.488   6.282  0.1704  0.0378  0.1369
 1303poe    c23 6988   4.735   3.620   6.321 -0.3042  0.2887  0.1287
 1303poe     o2 6989   4.869   3.618   6.279 -0.1085 -0.0939  0.7677
 1303poe    c23 6990   4.941   3.727   6.333  0.2868  0.0764 -0.0905
 1303poe    c23 6991   5.075   3.736   6.258  0.4129 -0.4868  0.0627
 1303poe     o2 6992   5.125   3.604   6.266  0.7333 -0.3230  0.7843
 1303poe    c23 6993   5.245   3.602   6.192  0.1902  0.0813 -0.1216
 1303poe    c23 6994   5.321   3.476   6.239  0.2753  0.3921  0.5850
 1303poe     o2 6995   5.238   3.366   6.211  0.9122  0.2534 -0.8622
 1303poe    c31 6996   5.301   3.249   6.258  0.0945  0.0181 -0.3236
 1304poe    c31 6997   5.249   5.121   3.220  0.2312 -0.0094  0.0762
 1304poe     o2 6998   5.319   5.228   3.160 -0.1297  0.0415 -0.2596
 1304poe    c23 6999   5.289   5.355   3.213 -0.1779  0.1624 -0.5785
 1304poe    c23 7000   5.373   5.456   3.133  0.1069 -0.1275 -0.6440
 1304poe     o2 7001   5.506   5.409   3.120  0.1785  0.0288 -0.4884
 1304poe    c23 7002   5.601   5.512   3.106 -0.1586  0.4094 -0.0244
 1304poe    c23 7003   5.720   5.453   3.028 -0.3310 -0.6625  0.5003
 1304poe     o2 7004   5.667   5.399   2.909  0.2474  0.2115 -0.1670
 1304poe    c23 7005   5.744   5.297   2.848  0.6311  0.5367 -0.2313
 1304poe    c23 7006   5.715   5.258   2.702 -0.3024  0.5195 -0.0457
 1304poe     o2 7007   5.581   5.214   2.692 -0.0368 -0.2493 -0.2668
 1304poe    c31 7008   5.547   5.175   2.560  0.1615 -0.4277 -0.2649
 1305poe    c31 7009   2.846   4.282   3.874  0.4355  0.3119 -0.1199
 1305poe     o2 7010   2.941   4.244   3.778  0.2534 -0.4339 -0.0104
 1305poe    c23 7011   2.874   4.178   3.673 -0.4224 -0.2271  0.2888
 1305poe    c23 7012   2.981   4.155   3.565 -0.4707  0.3549  0.1177
 1305poe     o2 7013   3.046   4.280   3.562  0.7678 -0.2841 -0.2701
 1305poe    c23 7014   3.124   4.284   3.445  0.4171 -0.0701 -0.4976
 1305poe    c23 7015   3.202   4.415   3.424  0.2766  0.0223 -0.4437
 1305poe     o2 7016   3.264   4.434   3.550 -0.4538  0.0794 -0.0923
 1305poe    c23 7017   3.357   4.540   3.553  0.2732 -0.5746  0.8145
 1305poe    c23 7018   3.317   4.637   3.667 -0.0476  0.0347  0.1885
 1305poe     o2 7019   3.195   4.706   3.651 -0.0494  0.0573  0.3010
 1305poe    c31 7020   3.215   4.844   3.673  0.2515 -0.0673  0.8303
 1306poe    c31 7021   6.236   3.772   1.227 -0.1464  0.4354  0.3322
 1306poe     o2 7022   6.221   3.651   1.156  0.5805  0.6560 -0.2174
 1306poe    c23 7023   6.342   3.592   1.116  0.0445 -0.3032 -0.4779
 1306poe    c23 7024   6.361   3.541   0.972  0.1159 -0.0204 -0.5704
 1306poe     o2 7025   6.373   3.656   0.892  0.1478  0.3655 -0.0210
 1306poe    c23 7026   6.408   3.607   0.764 -0.8936 -0.2691 -0.0744
 1306poe    c23 7027   6.398   3.712   0.652  0.4273  0.2084  0.2354
 1306poe     o2 7028   6.270   3.772   0.664  0.2781  0.0029 -0.2844
 1306poe    c23 7029   6.213   3.795   0.537  0.2993 -0.2430 -0.3392
 1306poe    c23 7030   6.095   3.702   0.502  0.0945 -0.0726 -0.1012
 1306poe     o2 7031   5.992   3.726   0.595 -0.2227 -0.3824 -0.3729
 1306poe    c31 7032   5.867   3.674   0.556 -0.4392  0.1410 -0.3863
 1307poe    c31 7033   0.258   1.231   5.431  0.1290 -0.0658  0.0726
 1307poe     o2 7034   0.384   1.199   5.376  0.0702 -0.0744 -0.0561
 1307poe    c23 7035   0.473   1.299   5.420 -0.0427 -0.0652  0.1523
 1307poe    c23 7036   0.580   1.311   5.310  0.0444 -0.1375  0.2298
 1307poe     o2 7037   0.600   1.185   5.249  0.6285 -0.1197  0.3757
 1307poe    c23 7038   0.694   1.204   5.145  0.5494  0.2021  0.3617
 1307poe    c23 7039   0.762   1.067   5.134  0.0074 -0.0563  0.2262
 1307poe     o2 7040   0.672   0.958   5.143 -0.2095  0.0536 -0.5194
 1307poe    c23 7041   0.749   0.843   5.169  0.3560  0.4749 -0.2950
 1307poe    c23 7042   0.664   0.717   5.142  0.0295  0.5249  0.4749
 1307poe     o2 7043   0.569   0.690   5.242 -0.5711  0.1317 -0.1899
 1307poe    c31 7044   0.495   0.573   5.217  0.3815 -0.6711  0.6925
 1308poe    c31 7045   2.645   3.593   1.504 -0.5567  0.5364  0.1864
 1308poe     o2 7046   2.563   3.488   1.550 -0.5194  0.4190 -0.0135
 1308poe    c23 7047   2.557   3.386   1.453 -0.4612  0.1574  0.2589
 1308poe    c23 7048   2.487   3.271   1.529 -0.1362 -0.4068 -0.2863
 1308poe     o2 7049   2.358   3.309   1.571 -0.0363 -0.4312  0.0474
 1308poe    c23 7050   2.298   3.218   1.659 -0.4122  0.0661  0.3115
 1308poe    c23 7051   2.155   3.271   1.681 -0.3853  0.2976 -0.0675
 1308poe     o2 7052   2.173   3.395   1.746 -0.5610  0.7078 -0.7879
 1308poe    c23 7053   2.055   3.468   1.767 -0.7001  0.1216  0.5714
 1308poe    c23 7054   2.067   3.576   1.877 -0.3123 -0.0002  0.6503
 1308poe     o2 7055   2.159   3.680   1.855 -0.4532 -0.0936 -0.4331
 1308poe    c31 7056   2.133   3.777   1.954 -0.3435  0.2400 -0.7288
 1309poe    c31 7057   3.793   6.841   3.031 -0.2608  0.3827  0.2817
 1309poe     o2 7058   3.713   6.817   3.144 -0.2626 -0.2754  0.1403
 1309poe    c23 7059   3.592   6.752   3.113 -0.2143 -0.1525 -0.3039
 1309poe    c23 7060   3.509   6.743   3.242 -0.1510  0.1555 -0.2407
 1309poe     o2 7061   3.481   6.873   3.288  0.3865  0.2214 -0.1013
 1309poe    c23 7062   3.341   6.889   3.295  0.3015 -0.5948  0.2271
 1309poe    c23 7063   3.325   7.042   3.300 -0.1398 -0.6206 -0.3525
 1309poe     o2 7064   3.409   7.079   3.407 -0.1417  0.0150 -0.5635
 1309poe    c23 7065   3.407   7.215   3.443  0.2676 -0.0142 -0.4273
 1309poe    c23 7066   3.494   7.236   3.569  0.3527  0.2311 -0.5273
 1309poe     o2 7067   3.626   7.203   3.531  0.3540 -0.2108 -0.1408
 1309poe    c31 7068   3.700   7.256   3.638 -0.0615 -0.6740  0.3835
 1310poe    c31 7069   6.129   1.101   1.322  0.1186  0.5048  0.7242
 1310poe     o2 7070   6.183   0.971   1.313 -0.8120  0.1088  0.7285
 1310poe    c23 7071   6.108   0.912   1.210  0.0491  0.0773  0.1028
 1310poe    c23 7072   6.162   0.769   1.192 -0.7911 -0.2492  0.1019
 1310poe     o2 7073   6.159   0.684   1.305 -0.1804 -0.3455  0.0539
 1310poe    c23 7074   6.283   0.626   1.337  0.1111  0.6767  0.8083
 1310poe    c23 7075   6.251   0.520   1.444  0.0728  0.1713  0.3004
 1310poe     o2 7076   6.180   0.582   1.549 -0.0024  0.4785  0.0692
 1310poe    c23 7077   6.158   0.483   1.646  0.2372  0.2307 -0.1299
 1310poe    c23 7078   6.085   0.564   1.754  0.4321  0.7441 -0.3803
 1310poe     o2 7079   5.974   0.643   1.718 -0.5536 -0.4743 -0.0899
 1310poe    c31 7080   5.907   0.699   1.829  0.3326  0.1367  0.1389
 1311poe    c31 7081   0.687   4.373   4.485  0.2706 -0.4538 -0.0185
 1311poe     o2 7082   0.601   4.477   4.525  0.2442 -0.5669  0.2225
 1311poe    c23 7083   0.480   4.477   4.452  0.3981  0.5010 -0.0585
 1311poe    c23 7084   0.360   4.534   4.529  0.2417 -0.2300  0.2540
 1311poe     o2 7085   0.327   4.476   4.653  0.4885 -0.1243  0.3703
 1311poe    c23 7086   0.235   4.554   4.726  0.2983 -0.1702  0.1807
 1311poe    c23 7087   0.234   4.515   4.875  0.4084 -0.4344  0.1124
 1311poe     o2 7088   0.353   4.554   4.939  0.3911  0.1787 -0.2229
 1311poe    c23 7089   0.324   4.535   5.076  0.4045  0.5682 -0.1668
 1311poe    c23 7090   0.450   4.532   5.164 -0.0950  0.2379  0.5444
 1311poe     o2 7091   0.559   4.479   5.093  0.0525  1.2153  0.0314
 1311poe    c31 7092   0.670   4.427   5.164  0.2514  0.0198 -1.1228
 1312poe    c31 7093   0.333   0.218   0.788 -0.4266  0.0458 -0.6466
 1312poe     o2 7094   0.236   0.169   0.877  0.1929 -0.2541 -0.1312
 1312poe    c23 7095   0.256   0.030   0.891  0.6807 -0.0950  0.8947
 1312poe    c23 7096   0.193  -0.041   1.012 -0.1275 -0.1239  0.4659
 1312poe     o2 7097   0.053  -0.023   1.024 -0.2000 -0.3503 -0.0484
 1312poe    c23 7098   0.012  -0.007   1.158 -0.0976  0.1097 -0.0724
 1312poe    c23 7099  -0.137   0.033   1.164 -0.0316  0.2474  0.6298
 1312poe     o2 7100  -0.183   0.160   1.125 -0.0058  0.2236  0.5227
 1312poe    c23 7101  -0.260   0.162   1.007 -0.0128  0.2341  0.5274
 1312poe    c23 7102  -0.315   0.301   0.970 -0.1550 -0.0541 -0.3800
 1312poe     o2 7103  -0.234   0.415   0.951  0.0357 -0.1096  0.0812
 1312poe    c31 7104  -0.311   0.530   0.926  0.8006  0.3647 -0.1304
 1313poe    c31 7105   3.273   3.596   6.826  0.2220  0.5489 -0.3171
 1313poe     o2 7106   3.143   3.606   6.880  0.1193 -0.1841 -0.4252
 1313poe    c23 7107   3.056   3.503   6.842 -0.0557 -0.4177  0.5675
 1313poe    c23 7108   2.912   3.532   6.888  0.1570  0.1039  0.9018
 1313poe     o2 7109   2.853   3.641   6.820  0.3607 -0.2566  0.1449
 1313poe    c23 7110   2.742   3.680   6.897  0.0389  0.1525 -0.5155
 1313poe    c23 7111   2.642   3.764   6.816 -0.8626  0.0249  0.4391
 1313poe     o2 7112   2.698   3.892   6.793 -0.2197 -0.2711  0.3511
 1313poe    c23 7113   2.642   3.957   6.682 -0.0328 -0.4925  0.1228
 1313poe    c23 7114   2.683   4.105   6.668 -0.2173 -0.4274  0.2617
 1313poe     o2 7115   2.817   4.130   6.701 -0.0805 -0.9007  0.0737
 1313poe    c31 7116   2.855   4.256   6.650  0.0111 -0.8664  0.2243
 1314poe    c31 7117   4.770   5.536   2.062  0.2535 -0.1516 -0.2848
 1314poe     o2 7118   4.861   5.436   2.102  0.8324  0.5025  0.0760
 1314poe    c23 7119   4.859   5.333   2.005  0.7178  0.5619  0.0149
 1314poe    c23 7120   4.883   5.203   2.084  0.1720  0.1874 -0.4244
 1314poe     o2 7121   4.968   5.233   2.193 -0.4142  0.0246  0.0857
 1314poe    c23 7122   5.008   5.115   2.259 -0.2321  0.1058  0.1224
 1314poe    c23 7123   5.134   5.152   2.339  0.0441  0.0549 -0.2856
 1314poe     o2 7124   5.103   5.272   2.406 -0.2378 -0.2094  0.0635
 1314poe    c23 7125   5.228   5.316   2.454 -0.2765  0.4153 -0.4014
 1314poe    c23 7126   5.188   5.425   2.555 -0.3302 -0.0056  0.0317
 1314poe     o2 7127   5.139   5.541   2.492  0.1817  0.4321  0.4272
 1314poe    c31 7128   5.239   5.626   2.439  0.1350  0.0524 -0.2799
 1315poe    c31 7129   0.921   6.656   2.503  0.3098  0.5809 -0.2085
 1315poe     o2 7130   1.043   6.599   2.546 -0.0897 -0.1129  0.0202
 1315poe    c23 7131   1.077   6.467   2.513  0.0817 -0.1210  0.2248
 1315poe    c23 7132   1.211   6.421   2.573  0.4321 -0.0623 -0.4955
 1315poe     o2 7133   1.297   6.533   2.581  0.6696 -0.2556 -0.3022
 1315poe    c23 7134   1.425   6.499   2.627  0.4963 -0.0996  0.3014
 1315poe    c23 7135   1.517   6.621   2.645  0.1098  0.4019 -1.0407
 1315poe     o2 7136   1.475   6.706   2.749  0.0139 -0.1731 -0.6027
 1315poe    c23 7137   1.546   6.825   2.721 -0.0358  0.0337  0.1388
 1315poe    c23 7138   1.476   6.959   2.750 -0.4845 -0.0963 -0.3363
 1315poe     o2 7139   1.392   6.989   2.641 -0.3118  0.1806 -0.3942
 1315poe    c31 7140   1.327   7.114   2.648 -0.0273  0.3202 -0.1880
 1316poe    c31 7141   4.225   2.568   5.116  0.2328  0.2867 -0.8566
 1316poe     o2 7142   4.349   2.623   5.078  0.3120  0.4982 -0.3042
 1316poe    c23 7143   4.376   2.590   4.944 -0.4795  0.2232 -0.4049
 1316poe    c23 7144   4.478   2.702   4.915  0.1393 -0.1680  0.2231
 1316poe     o2 7145   4.565   2.702   5.025  0.4693  0.0375 -0.0343
 1316poe    c23 7146   4.659   2.807   5.022 -0.0887  0.5509  0.4022
 1316poe    c23 7147   4.746   2.775   5.145  0.3366  0.4139  0.0658
 1316poe     o2 7148   4.668   2.779   5.262 -0.1538 -0.5225 -0.2153
 1316poe    c23 7149   4.740   2.754   5.381 -0.2111 -0.0532 -0.0805
 1316poe    c23 7150   4.710   2.851   5.497  0.5423 -0.6334  0.6110
 1316poe     o2 7151   4.571   2.840   5.516  0.4827 -0.2161  0.4261
 1316poe    c31 7152   4.531   2.944   5.603 -0.5982 -0.0191 -0.2763
 1317poe    c31 7153   5.599   1.421   2.144 -0.2236  0.2142  0.0567
 1317poe     o2 7154   5.612   1.357   2.268  0.3639 -0.4574 -0.3426
 1317poe    c23 7155   5.582   1.453   2.367 -0.3208 -0.6848 -0.3244
 1317poe    c23 7156   5.585   1.393   2.509  0.4221 -0.1067 -0.0904
 1317poe     o2 7157   5.555   1.257   2.486 -0.3947  0.0763 -0.1447
 1317poe    c23 7158   5.567   1.176   2.601 -0.1697 -0.0512 -0.2587
 1317poe    c23 7159   5.528   1.031   2.564 -0.3811 -0.0763  0.0615
 1317poe     o2 7160   5.602   0.986   2.453  0.0473  0.0967  0.2725
 1317poe    c23 7161   5.597   0.845   2.445  0.3995  0.1139 -0.3256
 1317poe    c23 7162   5.671   0.801   2.318  0.3813  0.0518 -0.3143
 1317poe     o2 7163   5.597   0.815   2.198 -0.3587 -0.6805  0.0459
 1317poe    c31 7164   5.662   0.756   2.088 -0.1539  0.1925 -0.3095
 1318poe    c31 7165   6.292   5.575   5.350  0.8551 -0.3280 -0.1172
 1318poe     o2 7166   6.341   5.649   5.460 -0.1583 -0.3148  0.3339
 1318poe    c23 7167   6.479   5.663   5.438 -0.2663 -0.0966 -0.2087
 1318poe    c23 7168   6.540   5.703   5.573 -0.2060  0.2129 -0.3263
 1318poe     o2 7169   6.486   5.627   5.679  0.1251  0.8139  0.2812
 1318poe    c23 7170   6.552   5.661   5.799  0.2305  0.8702  0.2077
 1318poe    c23 7171   6.481   5.584   5.912  0.7165  0.4190  0.2096
 1318poe     o2 7172   6.343   5.599   5.890  0.6012 -0.4354  0.3155
 1318poe    c23 7173   6.263   5.578   6.005 -0.1720 -0.1519 -0.1600
 1318poe    c23 7174   6.156   5.682   6.041 -0.4082 -0.4603  0.0294
 1318poe     o2 7175   6.069   5.702   5.932 -0.2102 -0.4603 -0.1292
 1318poe    c31 7176   5.991   5.807   5.985 -0.0871 -0.6479  0.4336
 1319poe    c31 7177   1.087   1.323   5.277  0.1126 -0.1025 -0.0258
 1319poe     o2 7178   1.074   1.432   5.366 -0.2629 -0.4597  0.3601
 1319poe    c23 7179   0.949   1.448   5.429 -0.5261  1.0133 -0.4948
 1319poe    c23 7180   0.944   1.571   5.521 -0.1743  0.4486  0.2830
 1319poe     o2 7181   1.005   1.670   5.442  0.1032 -0.0902 -0.1876
 1319poe    c23 7182   0.984   1.804   5.482 -0.3381 -0.0968 -0.3839
 1319poe    c23 7183   1.048   1.916   5.399 -0.3697 -0.0019 -0.2808
 1319poe     o2 7184   1.182   1.889   5.361 -0.1903  0.2787  0.1420
 1319poe    c23 7185   1.239   1.986   5.277 -0.2970  0.2334  0.0159
 1319poe    c23 7186   1.391   1.963   5.268 -0.2689  0.1421  0.7106
 1319poe     o2 7187   1.448   2.048   5.365  0.5751  0.2946  0.0962
 1319poe    c31 7188   1.583   2.011   5.382  0.2153 -0.9323  0.3433
 1320poe    c31 7189   0.573   3.578   2.654  0.1828  0.2319  0.3720
 1320poe     o2 7190   0.664   3.475   2.684 -0.1855 -0.2434 -0.1167
 1320poe    c23 7191   0.684   3.388   2.575  0.1384 -0.1699 -0.1160
 1320poe    c23 7192   0.792   3.295   2.634  0.3509  0.1151 -0.0539
 1320poe     o2 7193   0.778   3.273   2.773  0.3164 -0.0591 -0.0848
 1320poe    c23 7194   0.859   3.166   2.815 -0.2015 -0.3443  0.1919
 1320poe    c23 7195   0.780   3.138   2.945 -0.1109 -0.5273  0.2092
 1320poe     o2 7196   0.784   3.248   3.033 -0.0971 -0.0583 -0.3665
 1320poe    c23 7197   0.908   3.252   3.099 -0.0834 -0.5461 -0.3610
 1320poe    c23 7198   0.916   3.373   3.194  0.2035 -0.3365 -0.6528
 1320poe     o2 7199   0.890   3.502   3.143  0.3965 -0.0875 -0.1285
 1320poe    c31 7200   0.867   3.607   3.235 -0.2836 -0.1117 -0.2698
 1321poe    c31 7201   0.374   1.713   2.941 -0.3235 -0.0481 -0.4023
 1321poe     o2 7202   0.498   1.782   2.944 -0.1362 -0.4061  0.0715
 1321poe    c23 7203   0.553   1.775   2.815 -0.2995  0.1393 -0.0290
 1321poe    c23 7204   0.655   1.887   2.786 -0.4635  0.3141  0.0627
 1321poe     o2 7205   0.732   1.883   2.904 -0.2917  0.0777 -0.0540
 1321poe    c23 7206   0.835   1.980   2.906 -0.3683  0.1587 -0.0027
 1321poe    c23 7207   0.925   1.967   3.031 -0.0258  0.2438 -0.2375
 1321poe     o2 7208   0.848   1.924   3.142  0.2239  0.2270 -0.0702
 1321poe    c23 7209   0.911   1.911   3.267  0.3513  0.4080 -0.1139
 1321poe    c23 7210   0.820   1.863   3.382  0.1777  0.1224 -0.3685
 1321poe     o2 7211   0.770   1.733   3.360 -0.0243  0.1337  0.0162
 1321poe    c31 7212   0.688   1.678   3.461 -0.0260  0.0173 -0.0480
 1322poe    c31 7213   2.862   4.587   1.992  0.3627  0.4619 -0.5425
 1322poe     o2 7214   2.736   4.528   1.968  0.5780  0.0135 -0.5702
 1322poe    c23 7215   2.744   4.396   2.017 -0.2167  0.1533 -0.0599
 1322poe    c23 7216   2.636   4.313   1.944 -0.0664  0.0413 -0.1557
 1322poe     o2 7217   2.529   4.405   1.946 -0.1470 -0.0501 -0.2280
 1322poe    c23 7218   2.405   4.348   1.978  0.0142 -0.0237  0.4493
 1322poe    c23 7219   2.291   4.450   1.996 -0.0419 -0.0426  0.2029
 1322poe     o2 7220   2.287   4.541   1.888 -0.0089 -0.4883 -0.1771
 1322poe    c23 7221   2.159   4.582   1.844 -0.1099 -0.1596  0.4085
 1322poe    c23 7222   2.160   4.724   1.785  0.8106 -0.2652  0.1510
 1322poe     o2 7223   2.190   4.725   1.647  0.0322 -0.5018 -0.0255
 1322poe    c31 7224   2.151   4.853   1.603  0.0205 -0.5680 -0.2058
 1323poe    c31 7225   3.231   4.672   2.566 -0.0300  0.2977  0.7242
 1323poe     o2 7226   3.096   4.670   2.605 -0.0905 -0.4303  0.4905
 1323poe    c23 7227   3.041   4.548   2.561 -0.3163 -0.1518 -0.0115
 1323poe    c23 7228   2.901   4.525   2.621 -0.1197  0.6299  0.7800
 1323poe     o2 7229   2.790   4.581   2.553 -0.3479 -0.2135  0.4357
 1323poe    c23 7230   2.744   4.707   2.598 -0.2578 -0.0533  0.0846
 1323poe    c23 7231   2.633   4.754   2.502  0.1410  0.0388 -0.3325
 1323poe     o2 7232   2.535   4.653   2.490 -0.3024  0.4255  0.0302
 1323poe    c23 7233   2.425   4.687   2.409 -0.2466 -0.0868 -0.2592
 1323poe    c23 7234   2.331   4.566   2.432 -0.0316 -0.2494 -0.2352
 1323poe     o2 7235   2.399   4.443   2.416  0.0484 -0.2870  0.3693
 1323poe    c31 7236   2.302   4.341   2.408  0.5609 -0.7288 -0.3154
 1324poe    c31 7237   3.874   3.051   6.806 -0.0828  0.6970 -0.5789
 1324poe     o2 7238   3.811   3.152   6.883 -0.1978  0.1534  0.0468
 1324poe    c23 7239   3.684   3.131   6.940  0.0325 -0.2587  0.4111
 1324poe    c23 7240   3.656   3.235   7.051  0.2196  0.2204  0.0106
 1324poe     o2 7241   3.706   3.362   7.016 -0.2908  0.4640  0.1507
 1324poe    c23 7242   3.674   3.456   7.115  0.3956 -0.0804  0.9052
 1324poe    c23 7243   3.757   3.585   7.102  0.0116  0.1336  0.5331
 1324poe     o2 7244   3.894   3.560   7.122  0.0099 -0.2650  0.0448
 1324poe    c23 7245   3.980   3.667   7.091  0.1290 -0.1283  0.8377
 1324poe    c23 7246   4.117   3.655   7.161  0.6492  0.1650 -0.1043
 1324poe     o2 7247   4.183   3.538   7.117  0.1883 -0.0587 -0.2066
 1324poe    c31 7248   4.317   3.539   7.161  0.0502 -0.8446  0.2638
 1325poe    c31 7249   4.434   1.249   1.835  0.0158  0.3153  0.4262
 1325poe     o2 7250   4.537   1.345   1.846  0.2475  0.0942  0.2005
 1325poe    c23 7251   4.516   1.433   1.737 -0.2618 -0.2987 -0.0207
 1325poe    c23 7252   4.541   1.578   1.781  0.2099 -0.4977  0.3652
 1325poe     o2 7253   4.664   1.583   1.851  0.3188  0.1256  0.1350
 1325poe    c23 7254   4.727   1.709   1.845  0.1363  0.1957 -0.3652
 1325poe    c23 7255   4.839   1.713   1.950 -0.1585 -0.1432 -0.0350
 1325poe     o2 7256   4.944   1.635   1.899  0.3235  0.4077  0.1047
 1325poe    c23 7257   5.052   1.628   1.989  0.1413  0.2445  0.3111
 1325poe    c23 7258   5.070   1.494   2.063  0.0848 -0.1581 -0.3917
 1325poe     o2 7259   4.989   1.462   2.174  0.6548 -0.2671  0.0010
 1325poe    c31 7260   4.959   1.556   2.275  0.6670  0.0970 -0.3336
 1326poe    c31 7261   2.791   0.190   6.618  0.1526  0.0459  0.2719
 1326poe     o2 7262   2.783   0.091   6.718  0.4955 -0.1050  0.1511
 1326poe    c23 7263   2.646   0.065   6.742  0.4656 -0.7540 -0.6488
 1326poe    c23 7264   2.602  -0.027   6.857  0.1780  0.4612  0.2395
 1326poe     o2 7265   2.616   0.043   6.979  0.3719  0.1155  0.4165
 1326poe    c23 7266   2.565  -0.038   7.082 -0.5451  0.6939  0.4224
 1326poe    c23 7267   2.571   0.039   7.215  0.1005  0.2468  0.6558
 1326poe     o2 7268   2.684   0.124   7.214  0.6320 -0.4587  0.1303
 1326poe    c23 7269   2.687   0.172   7.346 -0.0652  0.4164 -0.1639
 1326poe    c23 7270   2.797   0.280   7.351  0.5479 -0.2182  0.2009
 1326poe     o2 7271   2.787   0.382   7.254 -0.6077 -0.6169 -0.1249
 1326poe    c31 7272   2.836   0.510   7.288  0.1788 -0.9177 -0.1011
 1327poe    c31 7273   3.578   1.933   4.529  0.0737 -0.1402 -0.0461
 1327poe     o2 7274   3.640   1.807   4.517  0.0730 -0.0582 -1.0110
 1327poe    c23 7275   3.535   1.714   4.512  0.0792 -0.1209 -0.1670
 1327poe    c23 7276   3.608   1.579   4.499 -0.3117 -0.4087  0.5657
 1327poe     o2 7277   3.624   1.560   4.360 -0.2282 -0.5065  0.5892
 1327poe    c23 7278   3.707   1.449   4.331  0.5420  0.0312  0.6907
 1327poe    c23 7279   3.716   1.452   4.177  0.7787  0.2333  0.7086
 1327poe     o2 7280   3.780   1.570   4.134  0.0220  0.4202  0.0814
 1327poe    c23 7281   3.790   1.563   3.993 -0.1266  0.9351  0.0416
 1327poe    c23 7282   3.864   1.695   3.967  0.4279  0.7064  0.4358
 1327poe     o2 7283   3.786   1.784   4.044 -0.1210  0.3514  0.2962
 1327poe    c31 7284   3.829   1.914   4.009  0.5060  0.0874  0.0670
 1328poe    c31 7285   5.451   5.956   4.988 -0.3557 -0.0968  0.6375
 1328poe     o2 7286   5.570   6.026   4.957 -0.6391  0.1149 -0.0029
 1328poe    c23 7287   5.542   6.068   4.826  0.3690  0.0761 -0.2370
 1328poe    c23 7288   5.675   6.097   4.753  0.3069  0.9322 -0.0235
 1328poe     o2 7289   5.768   6.012   4.816 -0.2920  0.2578 -0.0350
 1328poe    c23 7290   5.881   5.987   4.736 -0.1797  0.0700  0.1813
 1328poe    c23 7291   6.010   5.936   4.804 -0.1262 -0.0073  0.0233
 1328poe     o2 7292   5.989   5.861   4.922  0.4310 -0.1102  0.0582
 1328poe    c23 7293   6.110   5.829   4.987  0.2675 -0.1922  0.3224
 1328poe    c23 7294   6.084   5.749   5.116  0.0483 -0.0200  0.3855
 1328poe     o2 7295   5.997   5.834   5.188  0.0566  0.5060 -0.2083
 1328poe    c31 7296   5.963   5.767   5.308  0.5918 -0.0558 -0.3609
 1329poe    c31 7297   5.833   0.031   6.091 -0.3585 -0.4055 -0.1271
 1329poe     o2 7298   5.927  -0.066   6.053 -0.2674 -0.3057 -0.1585
 1329poe    c23 7299   5.995  -0.134   6.157  0.0738  0.1219 -0.0998
 1329poe    c23 7300   6.048  -0.256   6.081 -0.1833 -0.1228  0.1106
 1329poe     o2 7301   6.122  -0.216   5.968 -0.3739 -0.0330  0.0187
 1329poe    c23 7302   6.200  -0.326   5.928 -0.2033  0.1858 -0.2616
 1329poe    c23 7303   6.303  -0.283   5.822 -0.1386  0.0886 -0.2377
 1329poe     o2 7304   6.227  -0.275   5.703 -0.3628 -0.0055 -0.1024
 1329poe    c23 7305   6.328  -0.294   5.606 -0.1647  0.9148 -0.0863
 1329poe    c23 7306   6.283  -0.305   5.459 -0.5559  0.1257  0.0837
 1329poe     o2 7307   6.258  -0.178   5.402  0.5715  0.3843  0.1447
 1329poe    c31 7308   6.188  -0.189   5.280  0.1913 -0.1220  0.4071
 1330poe    c31 7309   3.851   2.796   3.866 -1.1363 -0.0104 -0.3301
 1330poe     o2 7310   3.889   2.672   3.922 -0.5533  0.2062 -0.2346
 1330poe    c23 7311   3.783   2.639   4.010 -0.2777 -1.1746 -0.3925
 1330poe    c23 7312   3.830   2.531   4.108  0.6680  0.1889  0.7059
 1330poe     o2 7313   3.904   2.433   4.040  0.0067  0.1759 -0.0061
 1330poe    c23 7314   3.951   2.335   4.130 -0.0505 -0.1748 -0.3493
 1330poe    c23 7315   3.993   2.219   4.039 -0.1827 -0.3701 -0.1614
 1330poe     o2 7316   4.087   2.253   3.940 -0.0598  0.2676  0.1727
 1330poe    c23 7317   4.162   2.138   3.908  0.2255  0.3254  0.6302
 1330poe    c23 7318   4.293   2.183   3.841  0.0966 -0.0810  0.1026
 1330poe     o2 7319   4.247   2.275   3.744 -0.0543  0.0951  0.3400
 1330poe    c31 7320   4.352   2.314   3.659  0.4276 -0.8020  0.5108
 1331poe    c31 7321   6.464   0.754   6.595 -0.1552  0.1579 -0.1846
 1331poe     o2 7322   6.331   0.785   6.559 -0.0989  0.0528 -0.4861
 1331poe    c23 7323   6.246   0.675   6.582  0.3652 -0.1590  0.2528
 1331poe    c23 7324   6.105   0.735   6.561  0.5751  0.3096  0.1883
 1331poe     o2 7325   6.102   0.823   6.450 -0.1773  0.1108  0.0518
 1331poe    c23 7326   5.979   0.847   6.384 -0.0108 -0.0517 -0.3166
 1331poe    c23 7327   6.015   0.926   6.257 -0.0938  0.3261 -0.1059
 1331poe     o2 7328   6.095   1.035   6.297  0.1927  0.0056  0.1993
 1331poe    c23 7329   6.102   1.132   6.196 -0.1343  0.1184  0.2843
 1331poe    c23 7330   6.205   1.242   6.231  0.0799  0.2758 -0.7792
 1331poe     o2 7331   6.341   1.206   6.233  0.0954  0.3365 -0.7470
 1331poe    c31 7332   6.428   1.316   6.246  0.0989  0.2208  0.3578
 1332poe    c31 7333   4.243   1.917   1.955  0.3232 -0.5336 -0.2980
 1332poe     o2 7334   4.335   1.910   2.062  0.3925 -0.2608 -0.3393
 1332poe    c23 7335   4.354   1.779   2.112 -0.1504 -0.1132  0.2748
 1332poe    c23 7336   4.494   1.779   2.177 -0.1241 -0.2229  0.2188
 1332poe     o2 7337   4.506   1.879   2.277  0.2698  0.1109 -0.1581
 1332poe    c23 7338   4.636   1.924   2.307  0.2343  0.0567  0.0807
 1332poe    c23 7339   4.638   2.020   2.427 -0.1041  0.6384 -0.3694
 1332poe     o2 7340   4.562   2.139   2.421 -0.0998  0.6737  0.1662
 1332poe    c23 7341   4.567   2.199   2.548  1.0576 -0.2015  0.5531
 1332poe    c23 7342   4.541   2.348   2.520 -0.5415 -0.5715 -0.0258
 1332poe     o2 7343   4.434   2.369   2.430 -0.5481  0.2855  0.1718
 1332poe    c31 7344   4.324   2.434   2.490 -0.3525  0.9430 -0.1717
 1333poe    c31 7345   4.519   1.881   3.703 -0.6524  0.1801 -0.3592
 1333poe     o2 7346   4.561   1.864   3.569 -0.1614 -0.4194 -0.1333
 1333poe    c23 7347   4.679   1.938   3.548 -0.4616  0.0601 -0.1402
 1333poe    c23 7348   4.736   1.916   3.407 -0.0214  0.3722 -0.0135
 1333poe     o2 7349   4.651   1.955   3.301 -0.0797 -0.3753 -0.2494
 1333poe    c23 7350   4.712   1.918   3.180  0.4870 -0.5824  0.0929
 1333poe    c23 7351   4.652   1.991   3.058  0.1351 -0.7042  0.1932
 1333poe     o2 7352   4.513   1.994   3.082  0.1696  0.1456  0.2935
 1333poe    c23 7353   4.440   2.061   2.982  0.2571 -0.1453  0.0351
 1333poe    c23 7354   4.297   2.073   3.038  0.1621  0.7209 -0.3725
 1333poe     o2 7355   4.317   2.096   3.175  0.3679  0.0007 -0.2763
 1333poe    c31 7356   4.187   2.107   3.229  0.2197 -0.2774 -0.5724
 1334poe    c31 7357   2.463   4.226   4.136  0.4452  0.2350 -0.4814
 1334poe     o2 7358   2.424   4.308   4.244  0.3707 -0.6216  0.1592
 1334poe    c23 7359   2.528   4.313   4.339  0.2305 -0.1620  0.2907
 1334poe    c23 7360   2.487   4.410   4.451  0.6121 -0.4071  0.6437
 1334poe     o2 7361   2.353   4.378   4.478  0.3255 -0.1884 -0.4840
 1334poe    c23 7362   2.290   4.465   4.570  0.2415 -0.5084 -0.2374
 1334poe    c23 7363   2.165   4.387   4.614 -0.2524  0.4084 -0.0015
 1334poe     o2 7364   2.090   4.360   4.498 -0.0908  0.3151 -0.0842
 1334poe    c23 7365   1.952   4.373   4.526 -0.0389 -0.0534  0.3440
 1334poe    c23 7366   1.873   4.310   4.409 -0.3858  0.1015  0.4949
 1334poe     o2 7367   1.903   4.362   4.282 -0.1444 -0.5163  0.2921
 1334poe    c31 7368   1.777   4.411   4.241  0.3106 -0.3683 -0.9759
 1335poe    c31 7369   0.505   2.757   2.176  0.4430  0.7155  0.6799
 1335poe     o2 7370   0.434   2.731   2.294  0.3575 -0.0849  0.4604
 1335poe    c23 7371   0.335   2.829   2.313  0.1095 -0.2416 -0.0318
 1335poe    c23 7372   0.255   2.800   2.441  0.3240  0.0987  0.1801
 1335poe     o2 7373   0.344   2.767   2.545 -0.0490 -0.5086  0.3135
 1335poe    c23 7374   0.303   2.773   2.679  0.2891 -0.2465  0.4066
 1335poe    c23 7375   0.417   2.723   2.771  0.5465  0.2736  0.3747
 1335poe     o2 7376   0.492   2.625   2.702 -0.4228 -0.1100 -0.1528
 1335poe    c23 7377   0.603   2.584   2.778 -0.2006  0.4719 -0.1560
 1335poe    c23 7378   0.710   2.693   2.797  0.2315  0.0389 -0.0789
 1335poe     o2 7379   0.755   2.763   2.683  0.2961 -0.2368 -0.2230
 1335poe    c31 7380   0.887   2.808   2.702  0.3456 -0.1795 -0.6878
 1336poe    c31 7381   0.696   6.596   3.437 -0.1748  0.5646  0.0748
 1336poe     o2 7382   0.570   6.636   3.388 -0.1722  0.4330 -0.0387
 1336poe    c23 7383   0.580   6.700   3.263  0.2439  0.4005 -0.0231
 1336poe    c23 7384   0.438   6.745   3.223  0.1098  0.0127  0.0175
 1336poe     o2 7385   0.354   6.632   3.216  0.2251 -0.0767  0.0718
 1336poe    c23 7386   0.220   6.657   3.182  0.1505  0.1175  0.5096
 1336poe    c23 7387   0.155   6.521   3.212 -0.2914  0.2236  0.0546
 1336poe     o2 7388   0.178   6.489   3.348  0.0529 -0.0211 -0.0592
 1336poe    c23 7389   0.104   6.375   3.384 -0.0460  0.3001  0.7682
 1336poe    c23 7390   0.126   6.339   3.532 -0.5721 -0.0293  0.7668
 1336poe     o2 7391   0.096   6.452   3.611  0.2978  0.4565  0.4063
 1336poe    c31 7392   0.140   6.426   3.742  0.2481 -0.0457  0.3272
 1337poe    c31 7393   1.267   0.703   2.907  0.3667 -0.1718  0.5027
 1337poe     o2 7394   1.269   0.828   2.843 -0.6490 -0.3994  0.0112
 1337poe    c23 7395   1.293   0.927   2.940 -0.6311 -0.2608 -0.1342
 1337poe    c23 7396   1.312   1.058   2.861  0.2530 -0.1258  0.2928
 1337poe     o2 7397   1.414   1.036   2.765 -0.0779 -0.4481  0.0121
 1337poe    c23 7398   1.468   1.155   2.712  0.4165 -0.6587  0.0357
 1337poe    c23 7399   1.607   1.114   2.661  0.6137  0.3167 -0.2342
 1337poe     o2 7400   1.599   1.016   2.560 -0.3446 -0.0218  0.1519
 1337poe    c23 7401   1.725   0.966   2.517 -0.2908 -0.3233  0.6526
 1337poe    c23 7402   1.702   0.872   2.397 -0.4469 -0.0850  0.4945
 1337poe     o2 7403   1.653   0.752   2.452 -0.5375 -0.2551  0.0396
 1337poe    c31 7404   1.631   0.642   2.365  0.0507 -0.0497 -0.3765
 1338poe    c31 7405   3.407   1.434   0.462 -0.4735 -0.1672 -0.6642
 1338poe     o2 7406   3.495   1.327   0.485 -0.3912  0.0650  0.1105
 1338poe    c23 7407   3.501   1.234   0.379  0.4114  0.1132  0.1012
 1338poe    c23 7408   3.602   1.132   0.432  0.1024 -0.1842  0.1192
 1338poe     o2 7409   3.718   1.193   0.483  0.2173 -0.4597  0.1914
 1338poe    c23 7410   3.824   1.105   0.513  0.6727 -0.1731 -0.5535
 1338poe    c23 7411   3.941   1.175   0.585  0.1363  0.1418  0.0238
 1338poe     o2 7412   3.892   1.268   0.678 -0.3593  0.0571 -0.1487
 1338poe    c23 7413   3.991   1.322   0.762 -0.4606 -0.0717  0.0534
 1338poe    c23 7414   3.942   1.424   0.866  0.0810  0.0180  0.2272
 1338poe     o2 7415   3.864   1.529   0.815  0.1107 -0.2612 -0.4001
 1338poe    c31 7416   3.809   1.608   0.918 -0.1104 -0.3260 -0.4680
 1339poe    c31 7417   1.256   3.896   1.344 -0.0810  0.5955  0.4486
 1339poe     o2 7418   1.136   3.926   1.275  0.2499  0.0245 -0.4006
 1339poe    c23 7419   1.021   3.866   1.330  0.5827  0.2129  0.5195
 1339poe    c23 7420   0.905   3.875   1.229  0.3572 -0.0632  0.7514
 1339poe     o2 7421   0.905   3.775   1.130 -0.1649  0.2437  0.4411
 1339poe    c23 7422   0.775   3.769   1.075  0.1689 -0.0642 -0.3230
 1339poe    c23 7423   0.799   3.689   0.946 -0.6032 -0.6764 -0.0939
 1339poe     o2 7424   0.873   3.573   0.977 -0.2742 -0.4975 -0.2010
 1339poe    c23 7425   0.879   3.479   0.872 -0.3295 -0.6441 -0.0750
 1339poe    c23 7426   1.005   3.400   0.908  0.1521  0.0041 -0.3044
 1339poe     o2 7427   1.110   3.485   0.948  0.0734 -0.0378 -0.0040
 1339poe    c31 7428   1.235   3.456   0.888  0.4446  0.5298  0.4838
 1340poe    c31 7429   3.342   5.536   2.651  0.0171  0.0098 -0.2885
 1340poe     o2 7430   3.417   5.468   2.553 -0.0632  0.0718 -0.3933
 1340poe    c23 7431   3.553   5.503   2.568  0.0159 -0.3503 -0.1124
 1340poe    c23 7432   3.638   5.468   2.445 -0.3177  0.2915 -0.5328
 1340poe     o2 7433   3.687   5.337   2.426 -0.7633  0.0014  0.2819
 1340poe    c23 7434   3.771   5.285   2.527 -0.1646  0.3101 -0.0540
 1340poe    c23 7435   3.874   5.181   2.483 -0.2346  0.1173  0.2364
 1340poe     o2 7436   3.818   5.064   2.427 -0.4447  0.4137 -0.1734
 1340poe    c23 7437   3.763   4.976   2.523  0.1499  0.4084  0.1634
 1340poe    c23 7438   3.666   4.874   2.460  0.2652  0.3037  0.1554
 1340poe     o2 7439   3.541   4.933   2.433  0.1878  0.1401  0.1575
 1340poe    c31 7440   3.455   4.845   2.365 -0.2396  0.6168  0.0802
 1341poe    c31 7441   0.989   1.713   1.555  0.3156 -0.0964 -0.3752
 1341poe     o2 7442   0.977   1.852   1.539  0.0257 -0.1715 -0.8166
 1341poe    c23 7443   1.092   1.922   1.496  0.1790 -0.2290 -0.4956
 1341poe    c23 7444   1.089   2.076   1.495  0.3642 -0.2106  0.3556
 1341poe     o2 7445   1.074   2.139   1.619  0.5501  0.2717  0.1366
 1341poe    c23 7446   1.065   2.279   1.606  0.2396  0.2191 -0.2139
 1341poe    c23 7447   1.025   2.343   1.740 -0.2828  0.5074 -0.5037
 1341poe     o2 7448   0.900   2.330   1.804  0.0283  0.4286  0.0951
 1341poe    c23 7449   0.865   2.415   1.911 -0.5411  0.4101 -0.0711
 1341poe    c23 7450   0.724   2.394   1.968 -0.2641  0.0108  0.4757
 1341poe     o2 7451   0.620   2.452   1.893  0.2097  0.1506 -0.0838
 1341poe    c31 7452   0.508   2.484   1.973  0.3908 -0.5274  0.4500
 1342poe    c31 7453   4.867   6.238   3.252  0.0903 -0.3345 -0.7272
 1342poe     o2 7454   4.726   6.240   3.244  0.0568  0.2401 -0.0694
 1342poe    c23 7455   4.681   6.236   3.110  0.1174  0.3070 -0.0921
 1342poe    c23 7456   4.530   6.214   3.131  0.1300  0.0768 -0.2381
 1342poe     o2 7457   4.494   6.085   3.175  0.2831  0.3011  0.5552
 1342poe    c23 7458   4.359   6.085   3.134  0.3177  0.2646  0.4423
 1342poe    c23 7459   4.274   5.962   3.172  0.0124  0.2229 -0.3606
 1342poe     o2 7460   4.317   5.853   3.093  0.0997  0.2580 -0.3611
 1342poe    c23 7461   4.216   5.759   3.068 -0.1501  0.4982 -0.2592
 1342poe    c23 7462   4.276   5.657   2.969  0.0824  0.3051  0.0792
 1342poe     o2 7463   4.390   5.622   3.045  0.4113  0.1041 -0.5004
 1342poe    c31 7464   4.454   5.506   2.996  0.3179 -0.0866 -0.1774
 1343poe    c31 7465   2.434   3.196   6.319  0.0955 -0.0014 -0.4024
 1343poe     o2 7466   2.433   3.092   6.223 -0.0662 -0.1039 -0.2895
 1343poe    c23 7467   2.501   3.131   6.106  0.2303 -0.4049 -0.2200
 1343poe    c23 7468   2.489   3.015   6.006 -0.0052 -0.0247 -0.6353
 1343poe     o2 7469   2.370   3.020   5.931 -0.3223  0.1638 -0.1209
 1343poe    c23 7470   2.350   2.901   5.858  0.3041  0.3098 -0.5348
 1343poe    c23 7471   2.201   2.880   5.827  0.1949  0.1412  0.0843
 1343poe     o2 7472   2.131   2.870   5.949  0.1713 -0.9805 -0.0042
 1343poe    c23 7473   1.994   2.862   5.915  0.1164  0.1618 -0.1001
 1343poe    c23 7474   1.923   2.834   6.049  0.7103 -0.1630  0.1508
 1343poe     o2 7475   1.983   2.918   6.144  0.5633 -0.1793  0.2576
 1343poe    c31 7476   1.937   2.904   6.277 -0.4460  0.0602 -0.0568
 1344poe    c31 7477   5.275   6.550   2.058 -0.2229 -0.0894 -0.0260
 1344poe     o2 7478   5.243   6.495   1.932 -0.2072  0.4872 -0.2826
 1344poe    c23 7479   5.356   6.481   1.849 -0.1566  0.4742 -0.2108
 1344poe    c23 7480   5.323   6.357   1.763  0.4390 -0.0968  0.3735
 1344poe     o2 7481   5.196   6.381   1.707  0.7116 -0.2254 -0.2986
 1344poe    c23 7482   5.148   6.268   1.637  0.0880 -0.2250  0.1255
 1344poe    c23 7483   5.001   6.278   1.595  0.3242  0.9245 -0.4558
 1344poe     o2 7484   4.938   6.336   1.708  0.4921 -0.6180  0.4505
 1344poe    c23 7485   4.799   6.310   1.703  0.3877 -0.0377  0.3267
 1344poe    c23 7486   4.732   6.364   1.831  0.5300 -0.5281  0.6116
 1344poe     o2 7487   4.742   6.503   1.847 -0.3564 -0.3851  0.0141
 1344poe    c31 7488   4.645   6.553   1.936  0.8470  1.0495  0.5554
 1345poe    c31 7489   1.445   3.382   6.862 -0.6882  0.1343 -0.3219
 1345poe     o2 7490   1.439   3.478   6.965 -0.1547 -0.0779 -0.0849
 1345poe    c23 7491   1.570   3.522   6.989  0.0164 -0.6704  0.0755
 1345poe    c23 7492   1.579   3.625   7.103  0.2946  0.1979 -0.7160
 1345poe     o2 7493   1.498   3.740   7.095  0.1291  0.1534  0.2214
 1345poe    c23 7494   1.414   3.771   7.204  0.2803  0.2468  0.3104
 1345poe    c23 7495   1.318   3.663   7.255  0.2338 -0.0331 -0.3673
 1345poe     o2 7496   1.239   3.605   7.154 -0.3569 -0.0419  0.0933
 1345poe    c23 7497   1.147   3.513   7.210 -0.1089 -0.3504 -0.0012
 1345poe    c23 7498   1.062   3.451   7.098 -0.5055 -0.5502  0.4090
 1345poe     o2 7499   1.153   3.437   6.992 -0.2446  0.1926  0.5255
 1345poe    c31 7500   1.080   3.414   6.873  0.0764  0.4981  0.2651
 1346poe    c31 7501   6.875   6.598   0.825 -0.6543  0.4720  0.6663
 1346poe     o2 7502   6.847   6.689   0.722 -0.4772  0.0497  0.2418
 1346poe    c23 7503   6.791   6.806   0.778  0.3970  0.3333  0.5503
 1346poe    c23 7504   6.734   6.895   0.666  0.0002 -0.2467  0.2811
 1346poe     o2 7505   6.825   6.883   0.560 -0.9578 -0.4703 -0.5294
 1346poe    c23 7506   6.827   7.010   0.498  0.1112 -0.0418  0.3560
 1346poe    c23 7507   6.934   7.029   0.389  0.5653  0.3488  0.8628
 1346poe     o2 7508   7.060   7.001   0.444  0.9133  0.1917 -0.0011
 1346poe    c23 7509   7.157   7.008   0.342  0.3242 -0.7002 -0.6259
 1346poe    c23 7510   7.294   6.942   0.365  0.4833 -0.2389 -0.2532
 1346poe     o2 7511   7.281   6.810   0.412  0.2986 -0.1704 -0.1060
 1346poe    c31 7512   7.408   6.762   0.452  0.1035 -0.4253  0.2095
 1347poe    c31 7513   0.008   1.852   2.918  0.2198 -0.0098 -0.5353
 1347poe     o2 7514  -0.045   1.732   2.866 -0.0480 -0.0062 -0.2759
 1347poe    c23 7515  -0.074   1.759   2.731 -0.0042  0.4658 -0.1921
 1347poe    c23 7516  -0.135   1.622   2.697  0.2649  0.2649  0.1259
 1347poe     o2 7517  -0.239   1.582   2.784  0.0959 -0.2202 -0.2895
 1347poe    c23 7518  -0.339   1.504   2.724  0.3552 -0.4567 -0.4179
 1347poe    c23 7519  -0.449   1.466   2.825  0.0673  0.2281 -0.4658
 1347poe     o2 7520  -0.404   1.435   2.955 -0.5944 -0.5051 -0.4024
 1347poe    c23 7521  -0.485   1.475   3.063 -0.0394  0.0690 -0.1932
 1347poe    c23 7522  -0.418   1.467   3.201 -0.2161  0.5138 -0.0796
 1347poe     o2 7523  -0.296   1.537   3.213 -0.2488  0.5426  0.0925
 1347poe    c31 7524  -0.259   1.550   3.348 -0.0081 -0.0452  0.0855
 1348poe    c31 7525   0.111   6.540   1.914 -0.2852  0.3714 -0.0626
 1348poe     o2 7526   0.169   6.413   1.898 -0.5234  0.3347 -0.6362
 1348poe    c23 7527   0.292   6.428   1.830  0.0176 -0.3018  0.1772
 1348poe    c23 7528   0.327   6.321   1.725  0.1299  0.1666 -0.2706
 1348poe     o2 7529   0.230   6.304   1.624 -0.0882  0.0382 -0.0428
 1348poe    c23 7530   0.251   6.192   1.539 -0.0749 -0.1776  0.2431
 1348poe    c23 7531   0.361   6.207   1.432 -0.1964  0.6810  0.2259
 1348poe     o2 7532   0.308   6.318   1.364 -0.7774  0.2395 -0.0493
 1348poe    c23 7533   0.359   6.326   1.233  0.2823 -0.0716  0.3368
 1348poe    c23 7534   0.321   6.466   1.181 -0.0237 -0.2808 -0.0021
 1348poe     o2 7535   0.181   6.462   1.201 -0.0255 -0.1397  0.0118
 1348poe    c31 7536   0.124   6.563   1.122 -0.0165 -0.3169 -0.2209
 1349poe    c31 7537   1.347   5.536   6.436 -0.1334 -0.3782  0.2681
 1349poe     o2 7538   1.279   5.465   6.335  0.2766 -0.1122 -0.2007
 1349poe    c23 7539   1.147   5.445   6.381  0.2318  0.2235 -0.1784
 1349poe    c23 7540   1.069   5.370   6.271 -0.4817  0.3582  0.2271
 1349poe     o2 7541   1.146   5.258   6.234 -0.4742  0.3427  0.2903
 1349poe    c23 7542   1.067   5.173   6.153  0.2971 -0.0953 -0.0112
 1349poe    c23 7543   1.152   5.054   6.105  0.5648 -0.0055  0.2368
 1349poe     o2 7544   1.262   5.095   6.026  0.0990 -0.3119 -0.5760
 1349poe    c23 7545   1.350   4.985   6.033 -0.0647 -0.3775  0.5992
 1349poe    c23 7546   1.490   5.018   5.979 -0.5001  0.4062 -0.0704
 1349poe     o2 7547   1.562   5.117   6.047 -0.5499 -0.0136  0.6052
 1349poe    c31 7548   1.695   5.115   6.000 -0.7538 -0.0875  0.0177
 1350poe    c31 7549   1.023   4.849   5.657 -0.7015 -0.0204 -0.1366
 1350poe     o2 7550   1.086   4.969   5.618 -0.1606 -0.0085  0.7582
 1350poe    c23 7551   1.025   5.085   5.670 -0.0612  0.0938  0.6456
 1350poe    c23 7552   1.074   5.221   5.617 -0.0035 -0.2679 -0.2543
 1350poe     o2 7553   1.192   5.187   5.549  0.2257  0.0955 -0.0424
 1350poe    c23 7554   1.265   5.304   5.519  0.2175  0.3152  0.7744
 1350poe    c23 7555   1.385   5.266   5.429 -0.3834  0.0797  0.0638
 1350poe     o2 7556   1.335   5.198   5.316 -0.2089 -0.1216  0.1059
 1350poe    c23 7557   1.441   5.134   5.250 -0.1300  0.1924 -0.0738
 1350poe    c23 7558   1.393   5.092   5.110  0.3464 -0.2325 -0.1130
 1350poe     o2 7559   1.305   4.983   5.127  0.0776  0.0124  0.0774
 1350poe    c31 7560   1.358   4.854   5.102  0.1652  0.0218  0.2162
 1351poe    c31 7561   2.399   1.003   2.948  0.4266  0.7360  0.0809
 1351poe     o2 7562   2.270   0.996   3.004  0.5411 -0.0305  0.2577
 1351poe    c23 7563   2.243   0.858   3.013 -0.3763  0.1438  0.2717
 1351poe    c23 7564   2.091   0.846   3.040 -0.2229 -0.5665  0.8579
 1351poe     o2 7565   2.067   0.935   3.147  0.0494  0.5630  0.0052
 1351poe    c23 7566   1.930   0.948   3.176 -0.0505 -0.0583 -0.1674
 1351poe    c23 7567   1.920   0.999   3.321 -0.2620  0.1541 -0.2559
 1351poe     o2 7568   2.014   1.104   3.321 -0.1090  0.0237  0.2281
 1351poe    c23 7569   2.122   1.074   3.405  0.2179 -0.0847 -0.2259
 1351poe    c23 7570   2.242   1.167   3.382  0.5332 -0.4937 -0.2640
 1351poe     o2 7571   2.269   1.166   3.243  0.0834  0.1759 -0.3631
 1351poe    c31 7572   2.376   1.243   3.196  0.1834  0.2218 -0.0647
 1352poe    c31 7573   1.691   0.109   5.939  0.1945  0.2041  0.3109
 1352poe     o2 7574   1.828   0.127   5.966  0.2741 -0.0874  0.0980
 1352poe    c23 7575   1.843   0.154   6.103  0.0109  0.1347  0.0825
 1352poe    c23 7576   1.990   0.194   6.123  0.0773  0.0384 -0.2164
 1352poe     o2 7577   2.076   0.082   6.129 -0.1553 -0.1301 -0.0541
 1352poe    c23 7578   2.200   0.130   6.175 -0.3342  0.3276 -0.0435
 1352poe    c23 7579   2.310   0.071   6.086  0.1207  0.2133  0.5876
 1352poe     o2 7580   2.288  -0.067   6.066  0.1793  0.2374  0.3420
 1352poe    c23 7581   2.356  -0.131   5.961 -0.1167  0.6485 -0.1053
 1352poe    c23 7582   2.298  -0.274   5.966 -0.4484  0.7938  0.2604
 1352poe     o2 7583   2.161  -0.262   5.937 -0.6206 -0.1397  0.6545
 1352poe    c31 7584   2.100  -0.389   5.936 -0.3977 -0.2470  0.0961
 1353poe    c31 7585   3.398   5.487   1.283  0.0356  0.2973 -0.2281
 1353poe     o2 7586   3.373   5.382   1.374 -0.2746  0.2594 -0.3549
 1353poe    c23 7587   3.423   5.419   1.501  0.0063  0.1019 -0.4186
 1353poe    c23 7588   3.427   5.292   1.589  0.0693  0.6090  0.3142
 1353poe     o2 7589   3.298   5.270   1.642 -0.0316 -0.4389 -0.3502
 1353poe    c23 7590   3.283   5.160   1.729 -0.6242  0.1750  0.3387
 1353poe    c23 7591   3.225   5.044   1.645 -0.0031  0.0658  0.0483
 1353poe     o2 7592   3.095   5.076   1.600 -0.0569  0.2813  0.3473
 1353poe    c23 7593   3.041   4.965   1.532 -0.2966  0.3357  0.4494
 1353poe    c23 7594   2.905   5.017   1.480 -0.2768  0.3990  0.4624
 1353poe     o2 7595   2.926   5.145   1.424  0.0071  0.1966  0.0987
 1353poe    c31 7596   2.813   5.226   1.398  0.1380  0.3721  0.0781
 1354poe    c31 7597   4.095   4.467   0.487  0.0461 -0.0311  0.0314
 1354poe     o2 7598   4.169   4.449   0.606  0.0307 -0.2016  0.0155
 1354poe    c23 7599   4.087   4.408   0.713  0.2916 -0.1086  0.2512
 1354poe    c23 7600   4.158   4.457   0.841  0.0912  0.5593  0.1142
 1354poe     o2 7601   4.295   4.422   0.846  0.0734  0.4215 -0.2972
 1354poe    c23 7602   4.357   4.441   0.971  0.2449 -0.1483 -0.2923
 1354poe    c23 7603   4.503   4.394   0.965  0.2361 -0.2286  0.0653
 1354poe     o2 7604   4.563   4.444   0.847 -0.3224 -0.2929 -0.2456
 1354poe    c23 7605   4.692   4.392   0.829 -0.1825 -0.0276 -0.0052
 1354poe    c23 7606   4.769   4.457   0.712 -0.1551  0.3815  0.2395
 1354poe     o2 7607   4.705   4.450   0.586  0.2926 -0.2215  0.0414
 1354poe    c31 7608   4.751   4.539   0.487 -0.0343 -0.1921 -0.0837
 1355poe    c31 7609   4.839   0.195   6.650 -0.2375 -0.6813  0.8004
 1355poe     o2 7610   4.755   0.090   6.609 -0.4724  0.0387 -0.6353
 1355poe    c23 7611   4.653   0.080   6.706 -0.3905 -0.1340 -0.5672
 1355poe    c23 7612   4.572  -0.051   6.713 -0.3427 -0.1148  0.4187
 1355poe     o2 7613   4.644  -0.161   6.764 -0.4755 -0.1845  0.4566
 1355poe    c23 7614   4.578  -0.284   6.746 -0.4048 -0.1492 -0.0420
 1355poe    c23 7615   4.650  -0.375   6.644 -0.7663 -0.3017 -0.1657
 1355poe     o2 7616   4.636  -0.337   6.509 -0.4453 -0.3811 -0.2228
 1355poe    c23 7617   4.686  -0.431   6.416 -0.0614 -0.3119 -0.0874
 1355poe    c23 7618   4.733  -0.373   6.282 -0.2414  0.3489  0.1316
 1355poe     o2 7619   4.640  -0.276   6.241 -0.0895  0.4461  0.0120
 1355poe    c31 7620   4.632  -0.241   6.105  0.1766 -0.2220 -0.1787
 1356poe    c31 7621   6.724   5.788   1.154 -0.2217  0.0956  0.3321
 1356poe     o2 7622   6.786   5.667   1.117 -0.3041  0.0328  0.3965
 1356poe    c23 7623   6.851   5.700   0.995  0.2412  0.7956  0.8790
 1356poe    c23 7624   6.960   5.597   0.958 -0.8184  0.0125 -0.1607
 1356poe     o2 7625   6.925   5.466   0.920  0.3983 -0.2917 -0.2753
 1356poe    c23 7626   7.038   5.394   0.877  0.2985 -0.6388  0.0484
 1356poe    c23 7627   7.002   5.287   0.773  0.0778 -0.3792 -0.1433
 1356poe     o2 7628   6.948   5.358   0.664  0.1728 -0.5368 -0.2935
 1356poe    c23 7629   6.895   5.264   0.574 -0.0279 -0.3321 -0.3904
 1356poe    c23 7630   6.777   5.318   0.490 -0.3723 -0.1266  0.2209
 1356poe     o2 7631   6.661   5.350   0.563 -0.1881 -0.0086  0.4623
 1356poe    c31 7632   6.556   5.378   0.474  0.2251  0.6430  0.1719
 1357poe    c31 7633   6.151   6.588   1.615 -0.7252 -0.1846 -0.3947
 1357poe     o2 7634   6.056   6.595   1.720 -0.1318 -0.3155  0.1540
 1357poe    c23 7635   6.122   6.629   1.840  0.2786  0.2342 -0.2200
 1357poe    c23 7636   6.021   6.630   1.957 -0.0417 -0.1666 -0.4917
 1357poe     o2 7637   5.921   6.728   1.951 -0.0802 -0.1628  0.1861
 1357poe    c23 7638   5.831   6.723   2.060  0.0392 -0.3732  0.2754
 1357poe    c23 7639   5.720   6.830   2.064 -0.0987 -0.4833 -0.4205
 1357poe     o2 7640   5.672   6.849   1.933  0.1034 -0.0465 -0.4300
 1357poe    c23 7641   5.576   6.951   1.915 -0.1603 -0.2266 -0.0693
 1357poe    c23 7642   5.566   6.937   1.762  0.3914 -0.6904 -0.0679
 1357poe     o2 7643   5.697   6.947   1.710  0.4330  0.1749  0.1926
 1357poe    c31 7644   5.711   6.985   1.575  0.3047 -0.2512  0.0573
 1358poe    c31 7645   1.518   4.788   1.522 -0.2584 -0.4367  0.8053
 1358poe     o2 7646   1.620   4.847   1.598  0.2587  0.1642 -0.3330
 1358poe    c23 7647   1.597   4.814   1.733  0.0319 -0.0816 -0.4320
 1358poe    c23 7648   1.703   4.873   1.828  0.0110 -0.3318 -0.2527
 1358poe     o2 7649   1.711   5.013   1.822 -0.4599 -0.2940 -0.0671
 1358poe    c23 7650   1.786   5.065   1.930 -0.2433 -0.0080 -0.3520
 1358poe    c23 7651   1.856   5.191   1.877 -0.0525 -0.1445 -0.4232
 1358poe     o2 7652   1.754   5.285   1.855 -0.5463 -0.5308  0.2029
 1358poe    c23 7653   1.805   5.410   1.816 -0.2787 -0.7419 -0.1270
 1358poe    c23 7654   1.681   5.495   1.784  0.5719  0.2975 -0.7117
 1358poe     o2 7655   1.576   5.412   1.741  0.0613  0.1900  0.7063
 1358poe    c31 7656   1.471   5.500   1.706  0.0836  0.0993  0.4120
 1359poe    c31 7657   1.049   5.187   3.821  0.1761  0.1996 -0.0218
 1359poe     o2 7658   1.112   5.100   3.913 -0.3276 -0.0591  0.0806
 1359poe    c23 7659   1.094   5.166   4.037  0.3034 -0.1876  0.2442
 1359poe    c23 7660   1.121   5.064   4.149  0.2125  0.3928  0.8021
 1359poe     o2 7661   1.028   4.958   4.140  0.4799  0.2476 -0.5400
 1359poe    c23 7662   0.934   4.964   4.245  0.3944 -0.3833 -0.5753
 1359poe    c23 7663   0.820   4.869   4.204 -0.0416 -0.1880  0.1780
 1359poe     o2 7664   0.894   4.756   4.164  0.2304 -0.0111  0.1807
 1359poe    c23 7665   0.802   4.650   4.157 -0.2425  0.4435 -0.6689
 1359poe    c23 7666   0.878   4.529   4.099 -0.3837  0.0340 -0.0010
 1359poe     o2 7667   0.923   4.548   3.967 -0.0390  0.2270  0.1452
 1359poe    c31 7668   0.975   4.430   3.912  0.1933 -0.0348  0.9080
 1360poe    c31 7669   3.972   6.429   3.925 -0.3095  0.4057 -0.4386
 1360poe     o2 7670   3.852   6.433   3.998  0.0077  0.3780  0.0870
 1360poe    c23 7671   3.844   6.561   4.057 -0.1633  0.6331 -0.4815
 1360poe    c23 7672   3.723   6.567   4.152 -0.0501  0.0798 -0.2993
 1360poe     o2 7673   3.603   6.554   4.078 -0.1513 -0.1477 -0.0972
 1360poe    c23 7674   3.490   6.592   4.153  0.3617 -0.3528  0.7844
 1360poe    c23 7675   3.363   6.533   4.090  0.2833  0.2721  0.3488
 1360poe     o2 7676   3.372   6.392   4.098 -0.0361  0.2294 -0.0158
 1360poe    c23 7677   3.265   6.319   4.042  0.2811 -0.1832 -0.0918
 1360poe    c23 7678   3.273   6.182   4.111 -0.3791 -0.0319  0.2982
 1360poe     o2 7679   3.398   6.131   4.070 -0.4931  0.1747 -0.3300
 1360poe    c31 7680   3.384   6.010   4.000 -0.4327  0.1674 -0.3295
 1361poe    c31 7681   1.348   5.494   5.133 -0.1204  0.2659  0.4216
 1361poe     o2 7682   1.389   5.608   5.205 -0.5035  0.6191  0.0858
 1361poe    c23 7683   1.283   5.678   5.267 -0.4379  0.5574  0.2685
 1361poe    c23 7684   1.348   5.781   5.361 -0.2782  0.1458  0.6082
 1361poe     o2 7685   1.390   5.895   5.290  0.0899 -0.3042  0.0970
 1361poe    c23 7686   1.455   5.980   5.382 -0.1486 -0.4824  0.4274
 1361poe    c23 7687   1.495   6.113   5.317  0.3299 -0.8048  0.0589
 1361poe     o2 7688   1.576   6.096   5.203 -0.1306  0.3806 -0.4664
 1361poe    c23 7689   1.615   6.215   5.138  0.6996  0.4740  0.1861
 1361poe    c23 7690   1.719   6.172   5.032  0.1822 -0.0056 -0.1344
 1361poe     o2 7691   1.659   6.061   4.969  0.2207 -0.0077 -0.1655
 1361poe    c31 7692   1.719   6.044   4.842 -0.2625  0.0113 -0.3996
 1362poe    c31 7693   4.994   1.989   1.178 -0.4907  0.8126 -0.0579
 1362poe     o2 7694   4.874   1.917   1.160  0.0477 -0.1083 -0.0182
 1362poe    c23 7695   4.775   2.001   1.106 -0.0730 -0.0038  0.3617
 1362poe    c23 7696   4.662   1.912   1.049  0.3314 -0.3082  0.0346
 1362poe     o2 7697   4.623   1.814   1.142  0.3423 -0.1076  0.2514
 1362poe    c23 7698   4.517   1.745   1.081  0.1145  0.1733  0.3298
 1362poe    c23 7699   4.480   1.631   1.179 -0.6110 -0.3394 -0.5273
 1362poe     o2 7700   4.601   1.576   1.224 -0.8168 -0.2382  0.1523
 1362poe    c23 7701   4.585   1.473   1.319  0.4103  0.1008  0.7546
 1362poe    c23 7702   4.581   1.325   1.275 -0.1646  0.3115  0.0833
 1362poe     o2 7703   4.455   1.288   1.224  0.0949 -0.6806  0.1458
 1362poe    c31 7704   4.447   1.283   1.083 -0.5257 -0.8509  0.1836
 1363poe    c31 7705   1.985   4.507   1.158 -0.0497  0.0845 -0.1249
 1363poe     o2 7706   1.915   4.629   1.146 -0.3297 -0.0708 -0.0751
 1363poe    c23 7707   1.874   4.692   1.265  0.5032  0.1481  0.1013
 1363poe    c23 7708   1.779   4.812   1.245 -0.0463 -0.2474  0.3152
 1363poe     o2 7709   1.837   4.912   1.165 -0.3963 -0.3799 -0.1117
 1363poe    c23 7710   1.788   5.041   1.193  0.2968 -0.1709  0.1673
 1363poe    c23 7711   1.875   5.153   1.133 -0.1449  0.0001 -0.1552
 1363poe     o2 7712   1.902   5.108   1.002  0.3346 -0.3181  0.0496
 1363poe    c23 7713   1.982   5.196   0.925  0.2133 -0.2459  0.0052
 1363poe    c23 7714   1.992   5.124   0.789 -0.7750 -0.6506  0.1339
 1363poe     o2 7715   2.034   4.990   0.803  0.1032 -0.3927  0.0842
 1363poe    c31 7716   2.088   4.939   0.684 -0.1908  0.2178 -0.3159
 1364poe    c31 7717   4.859   3.953   0.066  0.1957 -0.4201  0.2593
 1364poe     o2 7718   4.816   3.828   0.017 -0.2695 -0.0444 -0.3009
 1364poe    c23 7719   4.880   3.718   0.078 -0.1288  0.2336  0.0580
 1364poe    c23 7720   4.845   3.599  -0.013  0.1408 -0.0626  0.3428
 1364poe     o2 7721   4.711   3.603  -0.055  0.3011  0.5530 -0.1214
 1364poe    c23 7722   4.669   3.519  -0.161  0.3150 -0.1640  0.4374
 1364poe    c23 7723   4.517   3.543  -0.160  0.3080 -0.2001  0.1300
 1364poe     o2 7724   4.479   3.678  -0.175 -0.2116 -0.3458  0.1177
 1364poe    c23 7725   4.339   3.697  -0.174 -0.1439  0.1768 -0.0200
 1364poe    c23 7726   4.278   3.837  -0.154 -0.0094  0.2488 -0.1113
 1364poe     o2 7727   4.317   3.879  -0.025  0.4309  0.6831 -0.3810
 1364poe    c31 7728   4.218   3.975   0.003 -0.0844  0.0701 -0.0819
 1365poe    c31 7729   0.653   4.736   5.881 -0.5044 -0.4212 -0.6502
 1365poe     o2 7730   0.611   4.609   5.925 -0.1430 -0.2781  0.1247
 1365poe    c23 7731   0.709   4.515   5.885 -0.2024  0.1401 -1.0360
 1365poe    c23 7732   0.698   4.389   5.972 -0.1124  1.2167  0.5867
 1365poe     o2 7733   0.566   4.350   5.941  0.1104  0.7222  0.2307
 1365poe    c23 7734   0.530   4.236   6.015  0.2774  0.6010  0.1227
 1365poe    c23 7735   0.381   4.200   6.001  0.2484  0.8209 -0.1508
 1365poe     o2 7736   0.304   4.319   6.008 -0.5098  0.3305  0.0562
 1365poe    c23 7737   0.170   4.290   5.975 -0.3081 -0.2198 -0.3028
 1365poe    c23 7738   0.086   4.407   6.030  0.3981  0.0427  0.2452
 1365poe     o2 7739   0.103   4.535   5.974 -0.4691 -0.1378 -0.4666
 1365poe    c31 7740   0.032   4.626   6.055  0.2823 -0.2293  0.3142
 1366poe    c31 7741   2.246   4.323   3.644  0.5088  0.2573  0.1527
 1366poe     o2 7742   2.148   4.415   3.689  0.3531  0.0486  0.2432
 1366poe    c23 7743   2.158   4.435   3.828  0.0637 -0.2756  0.3108
 1366poe    c23 7744   2.020   4.501   3.847  0.0302 -0.2914  0.1298
 1366poe     o2 7745   1.917   4.430   3.783 -0.1908  0.1142  0.0302
 1366poe    c23 7746   1.793   4.495   3.796  0.0707  0.6538 -0.1493
 1366poe    c23 7747   1.697   4.460   3.681 -0.0774  0.4344  0.0393
 1366poe     o2 7748   1.767   4.454   3.559 -0.0525 -0.3009  0.0833
 1366poe    c23 7749   1.687   4.415   3.449  0.1676 -0.6449  0.0433
 1366poe    c23 7750   1.711   4.487   3.315  0.3554 -0.5172  0.1433
 1366poe     o2 7751   1.836   4.471   3.252  0.4622  0.6990  0.0260
 1366poe    c31 7752   1.821   4.457   3.112  0.5391 -0.4535  0.1219
 1367poe    c31 7753   4.706   3.216   2.400  0.0308  0.2066 -0.6596
 1367poe     o2 7754   4.608   3.216   2.501  0.3352 -0.3591 -0.3599
 1367poe    c23 7755   4.621   3.335   2.576  0.0930 -0.5629  0.0048
 1367poe    c23 7756   4.553   3.330   2.714  0.5756  0.4738  0.2834
 1367poe     o2 7757   4.413   3.315   2.714  0.5093  1.0521  0.1477
 1367poe    c23 7758   4.369   3.235   2.822  0.3580 -0.0232 -0.6985
 1367poe    c23 7759   4.218   3.208   2.803  0.2463 -0.4314  0.6529
 1367poe     o2 7760   4.141   3.326   2.797  0.3555 -0.3831  0.1358
 1367poe    c23 7761   4.003   3.297   2.794  0.2087  0.2797  0.3057
 1367poe    c23 7762   3.928   3.432   2.788  0.5989  0.4935  0.1499
 1367poe     o2 7763   3.958   3.480   2.659  0.0311 -0.2210 -0.2611
 1367poe    c31 7764   3.863   3.583   2.645 -0.5462 -0.6966  0.1330
 1368poe    c31 7765   1.185   2.649   6.909 -0.0867 -0.5592 -0.1795
 1368poe     o2 7766   1.047   2.621   6.900 -0.3647  0.4915  0.6970
 1368poe    c23 7767   1.001   2.701   6.793  0.3137  0.0667  0.0775
 1368poe    c23 7768   0.855   2.654   6.775  0.3465 -0.2443  0.6069
 1368poe     o2 7769   0.784   2.689   6.892 -0.2436  0.7022 -0.0189
 1368poe    c23 7770   0.645   2.698   6.873 -0.2685 -0.5218 -0.5429
 1368poe    c23 7771   0.575   2.756   6.998  0.2167 -0.5953 -0.2374
 1368poe     o2 7772   0.574   2.667   7.107 -0.0976 -0.2042  0.0803
 1368poe    c23 7773   0.485   2.709   7.208  0.4218  0.1626  0.3903
 1368poe    c23 7774   0.554   2.680   7.342  0.4876  0.1009  0.3429
 1368poe     o2 7775   0.625   2.559   7.323  0.3584  0.0041  0.4822
 1368poe    c31 7776   0.690   2.531   7.445  0.2498 -0.1833  0.4977
 1369poe    c31 7777   6.124   4.674   1.880 -0.4161 -0.6973  0.4056
 1369poe     o2 7778   6.181   4.557   1.934  0.3359 -0.5526 -0.0508
 1369poe    c23 7779   6.077   4.476   1.983  0.3112 -0.7340 -0.4033
 1369poe    c23 7780   6.135   4.340   2.027 -0.0631 -0.6200  0.4764
 1369poe     o2 7781   6.269   4.353   2.071  0.0921  0.2131 -0.2088
 1369poe    c23 7782   6.323   4.231   2.116  0.0855  0.0494 -0.6469
 1369poe    c23 7783   6.468   4.247   2.166 -0.0935 -0.1748 -0.0480
 1369poe     o2 7784   6.563   4.266   2.064  0.0902  0.1711  0.1877
 1369poe    c23 7785   6.689   4.320   2.100  0.0011  0.4288  0.1150
 1369poe    c23 7786   6.688   4.468   2.144 -0.0877  0.4248  0.1285
 1369poe     o2 7787   6.720   4.558   2.040 -0.3272  0.1501 -0.1844
 1369poe    c31 7788   6.758   4.678   2.104  0.2054  0.1377 -0.4739
 1370poe    c31 7789   4.347   5.856   5.333 -0.1911 -0.4417 -0.1315
 1370poe     o2 7790   4.390   5.894   5.462 -0.3028 -0.3828 -0.1114
 1370poe    c23 7791   4.321   5.814   5.555 -0.0452 -0.6053 -0.1102
 1370poe    c23 7792   4.311   5.888   5.689  0.0859 -0.4035 -0.2112
 1370poe     o2 7793   4.432   5.911   5.757  0.1321 -0.0090 -0.4228
 1370poe    c23 7794   4.413   6.011   5.855 -0.6210 -0.4136 -0.1473
 1370poe    c23 7795   4.538   6.002   5.944 -0.5535 -0.1983 -0.2180
 1370poe     o2 7796   4.639   5.972   5.851 -0.2141  0.2588 -0.0000
 1370poe    c23 7797   4.753   5.921   5.917  0.0992  0.3294 -0.4802
 1370poe    c23 7798   4.864   5.929   5.810  0.2226  0.1481 -0.3643
 1370poe     o2 7799   4.815   5.855   5.701 -0.1490 -0.3532  0.1370
 1370poe    c31 7800   4.900   5.870   5.590 -0.3109  0.2440  0.0922
 1371poe    c31 7801   1.788   5.634   5.887  0.6120 -0.0825 -0.0997
 1371poe     o2 7802   1.757   5.589   5.757 -0.0232  0.3400 -0.0959
 1371poe    c23 7803   1.670   5.685   5.702  0.0622  0.1772 -0.5189
 1371poe    c23 7804   1.671   5.675   5.548  0.0331 -0.0789 -0.5013
 1371poe     o2 7805   1.659   5.543   5.499  0.9771 -0.4365  0.2075
 1371poe    c23 7806   1.722   5.535   5.373  0.2809  0.7691 -0.2343
 1371poe    c23 7807   1.821   5.417   5.366  0.2850  0.7836 -0.4351
 1371poe     o2 7808   1.881   5.421   5.494 -0.1928  0.0546 -0.1854
 1371poe    c23 7809   1.991   5.336   5.516 -0.1223  0.3373  0.5861
 1371poe    c23 7810   2.053   5.360   5.655 -0.0999  0.6370  0.5267
 1371poe     o2 7811   1.953   5.360   5.755 -0.3591  0.3233  0.2686
 1371poe    c31 7812   2.006   5.319   5.878  0.1801 -0.4461 -0.2121
 1372poe    c31 7813   0.646   2.960   4.044  0.2183 -0.3931  0.3682
 1372poe     o2 7814   0.728   3.056   3.980 -0.4386 -0.3620 -0.4423
 1372poe    c23 7815   0.799   3.004   3.871  0.0037 -0.1619 -0.2510
 1372poe    c23 7816   0.884   3.116   3.807 -0.1989  0.1904  0.0979
 1372poe     o2 7817   0.953   3.177   3.914 -0.0865  0.1831  0.0299
 1372poe    c23 7818   1.028   3.284   3.860  0.2537  0.0547  0.2511
 1372poe    c23 7819   1.134   3.333   3.961  0.4948 -0.4833  0.2617
 1372poe     o2 7820   1.067   3.402   4.064 -0.1059 -0.7710  0.0688
 1372poe    c23 7821   1.154   3.485   4.137 -0.3544 -0.6051  0.1766
 1372poe    c23 7822   1.093   3.554   4.261  0.2857 -0.4451  0.4078
 1372poe     o2 7823   1.040   3.462   4.354 -0.9382 -0.2332 -0.0584
 1372poe    c31 7824   0.987   3.522   4.469  0.0472  0.3868  0.0843
 1373poe    c31 7825   6.366   6.546   6.910  0.4878  0.4177 -0.4062
 1373poe     o2 7826   6.307   6.560   7.038  0.8294 -0.2386 -0.1680
 1373poe    c23 7827   6.250   6.689   7.045  0.0230 -0.5773 -0.3653
 1373poe    c23 7828   6.218   6.727   7.190  0.4429  0.6856 -0.5928
 1373poe     o2 7829   6.325   6.674   7.266  0.0771  0.6924 -0.0623
 1373poe    c23 7830   6.317   6.740   7.390  0.4134 -0.1509  0.4143
 1373poe    c23 7831   6.425   6.703   7.494  0.1849 -0.2159  0.6285
 1373poe     o2 7832   6.443   6.563   7.499  0.3116 -0.2449 -0.3501
 1373poe    c23 7833   6.554   6.538   7.584 -0.0660  0.4528  0.3646
 1373poe    c23 7834   6.583   6.387   7.576 -0.1744  0.4648 -0.4186
 1373poe     o2 7835   6.623   6.346   7.447  0.1728 -0.4746 -0.0258
 1373poe    c31 7836   6.737   6.266   7.462  0.0573 -0.8229 -0.9622
 1374poe    c31 7837   5.540   3.933   0.757  0.8354  0.0749 -0.4866
 1374poe     o2 7838   5.479   3.914   0.631  0.1731 -0.0840 -0.1444
 1374poe    c23 7839   5.451   3.777   0.611 -0.3279 -0.1023  0.6303
 1374poe    c23 7840   5.425   3.750   0.462 -0.1874 -0.1323  0.6110
 1374poe     o2 7841   5.332   3.837   0.401 -0.0160 -0.3069  0.0980
 1374poe    c23 7842   5.344   3.852   0.261 -0.2345  0.2991  0.1377
 1374poe    c23 7843   5.322   3.999   0.223 -0.3024  0.0761 -0.7028
 1374poe     o2 7844   5.191   4.038   0.260 -0.1902 -0.2003  0.0022
 1374poe    c23 7845   5.144   4.135   0.169 -0.2980  0.1429  0.4224
 1374poe    c23 7846   5.086   4.246   0.259 -0.0476  0.5278  0.1143
 1374poe     o2 7847   4.967   4.211   0.326 -0.2405 -0.3560 -0.6676
 1374poe    c31 7848   4.854   4.265   0.261 -0.3490 -0.1338 -0.2933
 1375poe    c31 7849   6.494   5.263   3.270  0.1888  0.3267 -0.2407
 1375poe     o2 7850   6.521   5.346   3.159  0.4667  0.3829 -0.1337
 1375poe    c23 7851   6.409   5.393   3.087  0.4704 -0.2493 -0.5639
 1375poe    c23 7852   6.463   5.499   2.989  0.2365  0.0804 -0.3370
 1375poe     o2 7853   6.570   5.568   3.051 -0.0722 -0.1453  0.4606
 1375poe    c23 7854   6.586   5.700   3.004  0.5000 -0.6378 -0.7827
 1375poe    c23 7855   6.692   5.784   3.078 -0.1126 -0.2387 -0.3541
 1375poe     o2 7856   6.823   5.734   3.075  0.0345  0.0650  0.6660
 1375poe    c23 7857   6.912   5.833   3.123 -0.0653  0.5234 -0.0730
 1375poe    c23 7858   7.055   5.779   3.105 -0.1209  0.3455  0.0154
 1375poe     o2 7859   7.094   5.746   2.973 -0.1059  0.1957  0.0564
 1375poe    c31 7860   7.211   5.669   2.977 -0.1012  0.1883 -0.2166
 1376poe    c31 7861   6.377   1.494   3.929  0.1108 -0.0406 -0.5302
 1376poe     o2 7862   6.377   1.416   3.811  0.2989 -0.4360 -0.2728
 1376poe    c23 7863   6.252   1.440   3.749  0.1864  0.1839  0.1761
 1376poe    c23 7864   6.269   1.453   3.596 -0.5548  0.0839  0.0846
 1376poe     o2 7865   6.318   1.336   3.534 -0.0232  0.6914 -0.6521
 1376poe    c23 7866   6.224   1.234   3.511  0.6541 -0.0767 -0.0431
 1376poe    c23 7867   6.280   1.093   3.482 -0.0168 -0.3529 -0.0079
 1376poe     o2 7868   6.352   1.044   3.593  0.2356  0.2572  0.1040
 1376poe    c23 7869   6.317   0.908   3.611 -0.0162  0.3406  0.2481
 1376poe    c23 7870   6.372   0.873   3.750  0.4797 -1.1581 -0.3076
 1376poe     o2 7871   6.502   0.928   3.761  0.1308 -0.3321 -0.2370
 1376poe    c31 7872   6.555   0.897   3.888 -0.2072  0.0389 -0.0011
 1377poe    c31 7873   6.430   0.781   2.880  0.4840 -0.3202 -0.0601
 1377poe     o2 7874   6.502   0.902   2.893 -0.2806  0.1364 -0.0365
 1377poe    c23 7875   6.464   0.982   3.002 -0.1523  0.2755 -0.0928
 1377poe    c23 7876   6.545   1.112   3.011  0.2343  0.0033  0.4466
 1377poe     o2 7877   6.685   1.101   3.023  0.2246 -0.4362  0.1617
 1377poe    c23 7878   6.743   1.221   3.070  0.2645 -0.6064  0.5483
 1377poe    c23 7879   6.892   1.222   3.030  0.1072  0.1915 -0.0410
 1377poe     o2 7880   6.931   1.091   3.066 -0.1358  0.2778  0.5403
 1377poe    c23 7881   7.066   1.064   3.037 -0.2963  0.2272 -0.1661
 1377poe    c23 7882   7.071   0.920   3.089 -0.4245  0.1573 -0.3454
 1377poe     o2 7883   6.960   0.856   3.031 -0.1723 -0.4030 -0.2239
 1377poe    c31 7884   6.978   0.717   3.041  0.2842 -0.3255  0.0425
 1378poe    c31 7885   5.949   2.688   1.447 -0.1200 -0.6785  0.1918
 1378poe     o2 7886   6.019   2.760   1.347 -0.1894 -0.6415  0.1704
 1378poe    c23 7887   5.947   2.730   1.230  0.0259 -0.2508 -0.0601
 1378poe    c23 7888   6.023   2.791   1.110 -0.0434  0.0651  0.0568
 1378poe     o2 7889   6.141   2.716   1.091 -0.0335  0.0443  0.1962
 1378poe    c23 7890   6.244   2.798   1.042  0.0240 -0.0153  0.2187
 1378poe    c23 7891   6.382   2.735   1.017  0.1543  0.3337  0.0294
 1378poe     o2 7892   6.434   2.682   1.137  0.7648 -0.1852 -0.4554
 1378poe    c23 7893   6.547   2.601   1.114  0.0751 -1.3298  0.0787
 1378poe    c23 7894   6.610   2.559   1.248 -0.0319 -0.6358  0.3488
 1378poe     o2 7895   6.500   2.520   1.327 -0.3747  0.4376  0.4147
 1378poe    c31 7896   6.534   2.456   1.448  0.4576 -0.1296 -0.1095
 1379poe    c31 7897   0.659   0.714   4.562  0.1919  0.1791 -0.6341
 1379poe     o2 7898   0.783   0.749   4.619 -0.3982  0.2596  0.6342
 1379poe    c23 7899   0.782   0.886   4.653  0.0996  0.3689  0.2231
 1379poe    c23 7900   0.908   0.906   4.739  0.3003  0.4317 -0.0847
 1379poe     o2 7901   0.923   0.785   4.810  0.4294  0.4593 -0.0653
 1379poe    c23 7902   1.037   0.791   4.893 -0.1643 -0.0256  0.8094
 1379poe    c23 7903   1.102   0.655   4.924  0.6081  0.2986  0.6333
 1379poe     o2 7904   1.009   0.586   5.004  0.4213 -0.1652  0.0208
 1379poe    c23 7905   1.046   0.450   5.014  0.2497 -0.1908  0.3256
 1379poe    c23 7906   0.937   0.382   5.098  0.1836 -0.2281  0.2103
 1379poe     o2 7907   0.809   0.404   5.041  0.3304  0.0349 -0.0189
 1379poe    c31 7908   0.720   0.309   5.094  0.2408  0.2512  0.2185
 1380poe    c31 7909   1.335   3.030   6.138 -0.3121  1.1830 -0.1038
 1380poe     o2 7910   1.282   2.992   6.012 -0.0616 -0.5197  0.2710
 1380poe    c23 7911   1.155   2.932   6.021 -0.3051 -0.0498  0.0243
 1380poe    c23 7912   1.096   2.908   5.881 -0.0754 -0.8071  0.0497
 1380poe     o2 7913   1.191   2.946   5.784 -0.3414 -0.1324  0.0418
 1380poe    c23 7914   1.145   2.897   5.660  0.0095 -0.1788 -0.0722
 1380poe    c23 7915   1.239   2.951   5.551 -0.2711 -0.4864 -0.4643
 1380poe     o2 7916   1.369   2.907   5.581 -0.2258  0.2959  0.5181
 1380poe    c23 7917   1.462   3.005   5.539  0.1458 -0.3496 -0.2045
 1380poe    c23 7918   1.545   3.050   5.660 -0.2800 -0.5078  0.1512
 1380poe     o2 7919   1.462   3.084   5.769  0.1655 -0.0225  0.3468
 1380poe    c31 7920   1.500   3.211   5.819 -0.0700  0.3200 -0.3292
 1381poe    c31 7921   4.293   2.367   6.230 -0.7907 -0.1268 -0.0991
 1381poe     o2 7922   4.259   2.454   6.125 -0.5581  0.0718 -0.0102
 1381poe    c23 7923   4.372   2.458   6.041 -0.4741  0.3378  0.1128
 1381poe    c23 7924   4.343   2.508   5.898  1.2400  0.0196 -0.3677
 1381poe     o2 7925   4.297   2.639   5.874  0.2035 -0.2862 -0.1122
 1381poe    c23 7926   4.219   2.639   5.756 -0.0494 -0.1772  0.0552
 1381poe    c23 7927   4.167   2.778   5.713 -0.2663 -0.2847 -0.0324
 1381poe     o2 7928   4.131   2.855   5.826 -0.0245 -0.4203  0.1383
 1381poe    c23 7929   4.173   2.987   5.800  0.7825 -0.6352  0.3324
 1381poe    c23 7930   4.154   3.066   5.930  0.1844  0.0058 -0.1438
 1381poe     o2 7931   4.259   3.038   6.020  0.1368  0.5983  0.1046
 1381poe    c31 7932   4.262   3.122   6.133  0.2872  0.3825  0.2612
 1382poe    c31 7933   1.995   5.831   1.937  0.1877  0.2579 -0.0462
 1382poe     o2 7934   2.134   5.853   1.941  0.2779 -0.3737  0.4716
 1382poe    c23 7935   2.177   5.894   1.813 -0.1815  0.0772  0.4615
 1382poe    c23 7936   2.330   5.888   1.813 -0.1983 -0.3586  0.3496
 1382poe     o2 7937   2.355   5.750   1.830 -0.1206 -0.4054 -0.1255
 1382poe    c23 7938   2.489   5.732   1.869  0.1216 -0.1735 -0.8219
 1382poe    c23 7939   2.502   5.581   1.897 -0.7594 -0.1970 -0.4986
 1382poe     o2 7940   2.397   5.541   1.983 -0.4324  0.1212  0.0528
 1382poe    c23 7941   2.418   5.417   2.048  0.5569  0.3125  0.1233
 1382poe    c23 7942   2.393   5.300   1.952  0.7609  0.4329 -0.0792
 1382poe     o2 7943   2.253   5.305   1.934  0.6989 -0.3025  0.1493
 1382poe    c31 7944   2.211   5.200   1.850  0.2639  0.0851 -0.1240
 1383poe    c31 7945   2.877   5.900   1.906  0.3092 -0.8045  0.0607
 1383poe     o2 7946   2.967   5.999   1.860 -0.0747 -0.5529 -0.1507
 1383poe    c23 7947   2.969   6.003   1.719 -0.1044 -0.2972 -0.1437
 1383poe    c23 7948   3.063   6.110   1.660 -0.4644 -0.0516 -0.2798
 1383poe     o2 7949   3.063   6.221   1.745 -0.2310 -0.0729 -0.2508
 1383poe    c23 7950   3.174   6.304   1.719 -0.2042 -0.1068 -0.2444
 1383poe    c23 7951   3.182   6.419   1.822  0.5109 -0.3176 -0.0582
 1383poe     o2 7952   3.148   6.366   1.948 -0.4787  0.2890 -0.0595
 1383poe    c23 7953   3.142   6.476   2.036 -0.0229  0.1652  0.1298
 1383poe    c23 7954   3.102   6.435   2.179 -0.0005  0.2240  0.1533
 1383poe     o2 7955   2.963   6.409   2.188  0.0338  0.1190  0.3672
 1383poe    c31 7956   2.915   6.369   2.315 -0.5659  0.4940  0.2613
 1384poe    c31 7957   0.919   2.839   1.380  0.1119  0.8065  0.9072
 1384poe     o2 7958   0.816   2.816   1.474 -0.2317 -0.3798  0.2719
 1384poe    c23 7959   0.857   2.715   1.563 -0.0824 -0.5483  0.0144
 1384poe    c23 7960   0.732   2.659   1.634 -0.2112  0.0494  0.2646
 1384poe     o2 7961   0.620   2.677   1.552  0.0169  0.3170  0.0089
 1384poe    c23 7962   0.498   2.676   1.623 -0.2752 -0.0982 -0.4919
 1384poe    c23 7963   0.475   2.820   1.670 -0.3414 -0.2265 -0.1261
 1384poe     o2 7964   0.515   2.895   1.558  0.2126 -0.1044  0.1504
 1384poe    c23 7965   0.506   3.033   1.586 -1.0307 -0.1792  0.1532
 1384poe    c23 7966   0.534   3.104   1.452 -0.4362 -0.7070 -0.0029
 1384poe     o2 7967   0.645   3.038   1.394 -0.2282 -0.6789  0.3550
 1384poe    c31 7968   0.701   3.099   1.280 -0.6943 -0.5414  0.1940
 1385poe    c31 7969   0.554   2.972   5.014  0.2253 -0.7192 -0.0803
 1385poe     o2 7970   0.465   2.982   5.122  0.0213  0.0276 -0.3165
 1385poe    c23 7971   0.405   2.858   5.152 -0.1818  0.1372 -0.2609
 1385poe    c23 7972   0.312   2.861   5.274  0.0716  0.1697 -0.0687
 1385poe     o2 7973   0.378   2.882   5.397  0.0315 -0.4486  0.0610
 1385poe    c23 7974   0.283   2.924   5.492  0.2212  0.1235 -0.0009
 1385poe    c23 7975   0.343   2.917   5.634  0.1181 -0.4613  0.0136
 1385poe     o2 7976   0.475   2.967   5.628 -0.2533  0.5377  0.0113
 1385poe    c23 7977   0.534   2.966   5.756  0.2576 -0.1646 -0.2199
 1385poe    c23 7978   0.664   3.046   5.739  0.0586  0.2019 -0.0419
 1385poe     o2 7979   0.716   3.006   5.614  0.6554 -0.4818  0.4176
 1385poe    c31 7980   0.838   3.076   5.600  0.4044 -0.1523 -0.1167
 1386poe    c31 7981   4.605   1.199   4.260  0.5445  0.3084  0.1237
 1386poe     o2 7982   4.472   1.171   4.221  0.5161  0.1773  0.3100
 1386poe    c23 7983   4.378   1.254   4.286  0.1259 -0.3464  0.4203
 1386poe    c23 7984   4.240   1.261   4.219 -0.0076  0.1819  0.7481
 1386poe     o2 7985   4.179   1.134   4.216 -0.1155  0.2425  0.1698
 1386poe    c23 7986   4.044   1.124   4.177 -0.1235 -0.2097  0.3015
 1386poe    c23 7987   4.018   0.974   4.158  0.3706 -0.2504 -0.0580
 1386poe     o2 7988   4.039   0.901   4.277  0.6437  0.3283  0.2511
 1386poe    c23 7989   4.016   0.768   4.239 -0.4181  0.5945 -0.0845
 1386poe    c23 7990   4.082   0.679   4.346 -0.0362  0.0985 -0.7241
 1386poe     o2 7991   4.216   0.714   4.369 -0.2089  0.4084 -0.1874
 1386poe    c31 7992   4.244   0.623   4.474 -0.9108  0.5736  0.1459
 1387poe    c31 7993   0.398   4.165   0.602 -0.0381 -0.2868  0.1630
 1387poe     o2 7994   0.472   4.095   0.700  0.2609 -0.1116  0.0598
 1387poe    c23 7995   0.419   4.110   0.829  0.0907  0.2289 -0.0471
 1387poe    c23 7996   0.316   4.004   0.872  0.2778  0.0906  0.0652
 1387poe     o2 7997   0.372   3.876   0.893  0.3031 -0.0275 -0.7041
 1387poe    c23 7998   0.287   3.768   0.926  0.2040  0.1934 -0.2312
 1387poe    c23 7999   0.361   3.633   0.935 -0.0239  0.0713 -0.2020
 1387poe     o2 8000   0.398   3.583   0.809  0.3151  0.5517 -0.2964
 1387poe    c23 8001   0.493   3.479   0.798  0.6857  0.8558  0.0177
 1387poe    c23 8002   0.580   3.462   0.672 -0.4209 -0.0454 -0.6447
 1387poe     o2 8003   0.636   3.582   0.624 -0.5982  0.2849 -0.0428
 1387poe    c31 8004   0.714   3.536   0.516 -0.4103 -0.2607  0.3217
 1388poe    c31 8005   0.522   1.631   4.426  0.3200 -0.2373 -0.2424
 1388poe     o2 8006   0.481   1.496   4.427 -0.1486 -0.0982 -0.4897
 1388poe    c23 8007   0.593   1.420   4.464 -0.1546  0.1078 -0.0394
 1388poe    c23 8008   0.571   1.268   4.453 -0.3065  0.1413 -0.2018
 1388poe     o2 8009   0.541   1.221   4.323 -0.8971  0.4872 -0.1943
 1388poe    c23 8010   0.524   1.082   4.340 -0.5368  0.4888  0.2198
 1388poe    c23 8011   0.471   1.024   4.207  0.4104  0.1862 -0.0345
 1388poe     o2 8012   0.371   1.107   4.151  0.1879  0.1244  0.2643
 1388poe    c23 8013   0.344   1.075   4.017  0.5588  0.2760  0.1520
 1388poe    c23 8014   0.232   1.167   3.965  0.1313 -0.2393  0.1563
 1388poe     o2 8015   0.272   1.298   3.998  0.1730 -0.2068 -0.0200
 1388poe    c31 8016   0.189   1.387   3.927 -0.0703 -0.3143  0.1275
 1389poe    c31 8017   2.134   5.767   6.143 -0.2799 -0.2598  0.0373
 1389poe     o2 8018   2.176   5.890   6.198 -0.0364  0.0261 -0.7769
 1389poe    c23 8019   2.073   5.968   6.254  0.1247 -0.3420  0.0373
 1389poe    c23 8020   2.165   6.077   6.311  0.2259 -0.3523 -0.1056
 1389poe     o2 8021   2.234   6.145   6.208  0.1425 -0.0603  0.0302
 1389poe    c23 8022   2.334   6.230   6.259 -0.2753  0.7132 -0.4207
 1389poe    c23 8023   2.389   6.308   6.138  0.3231  0.2808 -0.4293
 1389poe     o2 8024   2.405   6.218   6.030 -0.3245  0.2035 -0.4630
 1389poe    c23 8025   2.456   6.296   5.925 -0.0752  0.4524 -0.1584
 1389poe    c23 8026   2.426   6.226   5.791 -0.0731  0.2605 -0.0588
 1389poe     o2 8027   2.286   6.217   5.779 -0.0693  0.4149 -0.2307
 1389poe    c31 8028   2.251   6.238   5.644  0.1176  0.2541 -0.3050
 1390poe    c31 8029   1.724   3.360   3.028  0.0818  0.3609  0.7260
 1390poe     o2 8030   1.807   3.277   3.105  0.1184 -0.3736 -0.0869
 1390poe    c23 8031   1.740   3.261   3.228 -0.0827 -0.5854 -0.2231
 1390poe    c23 8032   1.837   3.195   3.328  0.1138  0.0379  0.0020
 1390poe     o2 8033   1.843   3.055   3.312 -0.1867 -0.0469  0.6013
 1390poe    c23 8034   1.941   3.002   3.399 -0.0279  0.0254  0.4675
 1390poe    c23 8035   1.951   2.854   3.361  0.4782  0.2485 -0.2791
 1390poe     o2 8036   1.983   2.841   3.224 -0.3451  0.0581 -0.4632
 1390poe    c23 8037   2.043   2.715   3.204  0.3466  0.3239 -0.0931
 1390poe    c23 8038   2.050   2.699   3.051 -0.2915 -0.2849 -0.0623
 1390poe     o2 8039   1.951   2.786   3.002  0.2459  0.3906  0.0321
 1390poe    c31 8040   1.935   2.770   2.862  0.1603 -0.0299  0.0886
 1391poe    c31 8041   0.596   3.611   6.566 -0.5220  0.6508  0.8841
 1391poe     o2 8042   0.607   3.494   6.645  0.1766 -0.0034 -0.1535
 1391poe    c23 8043   0.662   3.531   6.770  0.0309 -0.1524 -0.0451
 1391poe    c23 8044   0.668   3.410   6.865  0.5105 -0.2260 -0.1697
 1391poe     o2 8045   0.728   3.319   6.776  1.0078 -0.3982  0.3360
 1391poe    c23 8046   0.745   3.198   6.846 -0.1463 -0.4123  0.6110
 1391poe    c23 8047   0.821   3.102   6.752 -0.3937  0.4490 -0.4796
 1391poe     o2 8048   0.756   3.089   6.627 -0.2510 -0.0270 -0.5042
 1391poe    c23 8049   0.819   2.977   6.569  0.8134  0.3005 -0.0084
 1391poe    c23 8050   0.711   2.905   6.486  0.4362  0.2708  0.5034
 1391poe     o2 8051   0.589   2.867   6.546  0.2810 -0.0050  0.0234
 1391poe    c31 8052   0.523   2.777   6.460  0.2058 -0.5811  0.6707
 1392poe    c31 8053   4.456   6.183   2.350  0.4043  0.4699  0.4120
 1392poe     o2 8054   4.317   6.208   2.338  0.3780  0.0370 -0.2030
 1392poe    c23 8055   4.244   6.092   2.305 -0.0129  0.3467 -0.4435
 1392poe    c23 8056   4.093   6.118   2.303 -0.1525 -0.3616  0.2867
 1392poe     o2 8057   4.075   6.251   2.260  0.0051 -0.4450 -0.0397
 1392poe    c23 8058   3.945   6.303   2.277  0.2116  0.0949 -0.0852
 1392poe    c23 8059   3.933   6.434   2.197  0.2432 -0.0832 -0.3846
 1392poe     o2 8060   4.035   6.520   2.243  0.1070  0.1704 -0.5577
 1392poe    c23 8061   4.012   6.650   2.192 -0.3155  0.3772  0.1439
 1392poe    c23 8062   4.093   6.753   2.271  0.2758  0.4343 -0.5203
 1392poe     o2 8063   4.233   6.741   2.259  0.2727 -0.5266  0.2748
 1392poe    c31 8064   4.304   6.843   2.325  0.0811 -0.2435  0.0498
 1393poe    c31 8065   5.036   1.927   2.252 -0.0216 -0.1522 -0.2488
 1393poe     o2 8066   5.037   2.021   2.146  0.4804  0.2546  0.1131
 1393poe    c23 8067   5.010   2.142   2.213 -0.0755  0.0756  0.2173
 1393poe    c23 8068   4.998   2.250   2.103 -0.1752 -0.1813 -0.0248
 1393poe     o2 8069   5.094   2.240   2.001  0.4135  0.2222  0.4836
 1393poe    c23 8070   5.094   2.353   1.917 -0.2218 -0.4117 -0.3876
 1393poe    c23 8071   5.244   2.360   1.883 -0.0292  0.3225  0.5559
 1393poe     o2 8072   5.266   2.231   1.829 -0.1003  0.2368  0.7333
 1393poe    c23 8073   5.371   2.240   1.736 -0.6184  0.1199  0.1360
 1393poe    c23 8074   5.359   2.124   1.635  0.6017 -0.1805  0.3199
 1393poe     o2 8075   5.381   1.999   1.697  0.4860 -0.3359  0.0499
 1393poe    c31 8076   5.516   1.962   1.679  0.5951  0.1222 -0.0807
 1394poe    c31 8077   5.722   2.113   0.590  0.0150 -0.3346 -0.3617
 1394poe     o2 8078   5.726   2.185   0.469  0.1795  0.2442 -0.0160
 1394poe    c23 8079   5.850   2.249   0.451  0.3489 -0.0954 -0.0729
 1394poe    c23 8080   5.855   2.344   0.330  0.4466  0.1896  0.1544
 1394poe     o2 8081   5.868   2.265   0.214  0.0301 -0.0365  0.2604
 1394poe    c23 8082   5.932   2.321   0.102  0.1686 -0.6055  0.0492
 1394poe    c23 8083   5.901   2.226  -0.016 -0.0006  0.2478 -0.6057
 1394poe     o2 8084   5.910   2.093   0.029 -0.4426  0.3754 -0.1383
 1394poe    c23 8085   5.869   1.994  -0.063 -0.3505  0.0540  0.1627
 1394poe    c23 8086   5.910   1.850  -0.028 -0.2174  0.1546  0.4268
 1394poe     o2 8087   5.838   1.799   0.082 -0.4808  0.2352  0.2938
 1394poe    c31 8088   5.850   1.659   0.094 -0.2679  0.3356  1.3795
 1395poe    c31 8089   2.980   4.124   0.891 -0.0392  0.4622  0.4122
 1395poe     o2 8090   2.874   4.141   0.801  0.1060 -0.0084  0.1479
 1395poe    c23 8091   2.776   4.219   0.865  0.1988 -0.1354  0.4437
 1395poe    c23 8092   2.646   4.138   0.872  0.4340 -0.6255 -0.6522
 1395poe     o2 8093   2.596   4.090   0.749 -0.4413  0.4322 -0.7197
 1395poe    c23 8094   2.510   3.980   0.768  0.0697  0.0955 -0.3175
 1395poe    c23 8095   2.377   4.007   0.695  0.0665  0.3057 -0.2358
 1395poe     o2 8096   2.274   4.063   0.773  0.3401  0.4402  0.0325
 1395poe    c23 8097   2.161   4.064   0.689  0.1617  0.2677  0.2688
 1395poe    c23 8098   2.028   4.029   0.759 -0.1791 -0.0366 -0.5107
 1395poe     o2 8099   2.011   3.890   0.775  0.3864  0.0281  0.7415
 1395poe    c31 8100   2.020   3.843   0.908  1.0404 -0.0730  0.6627
 1396poe    c31 8101   2.778   0.713   2.879  0.0523 -0.2394  0.0997
 1396poe     o2 8102   2.827   0.583   2.902 -0.3880 -0.3509  0.4297
 1396poe    c23 8103   2.968   0.594   2.904 -0.3786 -0.2134 -0.4324
 1396poe    c23 8104   3.028   0.454   2.882  0.4172  0.1778 -0.7825
 1396poe     o2 8105   3.010   0.385   2.760  0.0813 -0.2046 -0.5195
 1396poe    c23 8106   3.113   0.293   2.732 -0.2292 -0.7167 -0.0010
 1396poe    c23 8107   3.098   0.251   2.585 -0.7611 -0.1689 -0.1079
 1396poe     o2 8108   2.960   0.225   2.576 -0.8689  0.2408  0.3319
 1396poe    c23 8109   2.919   0.193   2.445  0.0278 -0.0841  0.1224
 1396poe    c23 8110   2.766   0.176   2.442 -0.0404  0.6266 -0.8675
 1396poe     o2 8111   2.704   0.263   2.534  0.0566  0.0647 -0.2658
 1396poe    c31 8112   2.564   0.248   2.526  0.1180 -0.4970 -0.2772
 1397poe    c31 8113   1.779   1.197   6.223 -0.2810  0.0051  0.3701
 1397poe     o2 8114   1.872   1.141   6.313 -0.1720 -0.1136  0.1868
 1397poe    c23 8115   1.913   1.242   6.403 -0.0071 -0.1139  0.1115
 1397poe    c23 8116   2.001   1.180   6.512  0.1718 -0.5435 -0.2729
 1397poe     o2 8117   1.933   1.076   6.579 -0.2039 -0.2107 -0.1343
 1397poe    c23 8118   2.026   1.037   6.677 -0.1190 -0.5899 -0.3649
 1397poe    c23 8119   1.959   0.924   6.756  0.1961 -0.9196 -0.5643
 1397poe     o2 8120   1.825   0.916   6.711  0.0383 -0.3678 -0.2054
 1397poe    c23 8121   1.768   0.829   6.806 -0.0189 -0.4171 -0.2850
 1397poe    c23 8122   1.617   0.804   6.787 -0.1867 -0.0775  0.5454
 1397poe     o2 8123   1.593   0.739   6.664  0.8281 -0.2674  0.4364
 1397poe    c31 8124   1.480   0.657   6.681  0.3353  0.3116 -0.0187
 1398poe    c31 8125   4.271   5.507   0.603 -1.1172  0.2051 -0.8332
 1398poe     o2 8126   4.327   5.399   0.532  0.3003  0.1984  0.2353
 1398poe    c23 8127   4.262   5.274   0.534  0.2563  0.1987 -0.7549
 1398poe    c23 8128   4.249   5.200   0.399  0.0163  0.2150 -0.7421
 1398poe     o2 8129   4.381   5.206   0.350  0.3514  0.2710  0.1517
 1398poe    c23 8130   4.422   5.089   0.282  0.1978  0.4661 -0.2776
 1398poe    c23 8131   4.569   5.107   0.240  0.4244 -0.3971  0.1290
 1398poe     o2 8132   4.612   5.222   0.309  0.1077 -0.3218  0.2028
 1398poe    c23 8133   4.726   5.279   0.247 -0.0394  0.4059  0.5876
 1398poe    c23 8134   4.850   5.266   0.337 -0.2511 -0.3964  0.7736
 1398poe     o2 8135   4.842   5.373   0.428 -0.9875 -0.3241  0.6294
 1398poe    c31 8136   4.961   5.369   0.503 -0.6353  0.4097  0.1181
 1399poe    c31 8137   0.194   5.151   2.061  0.2971  0.0828  0.1180
 1399poe     o2 8138   0.195   5.063   2.171  0.0735  0.2284  0.2367
 1399poe    c23 8139   0.221   4.930   2.133  0.0675  0.3084 -0.0531
 1399poe    c23 8140   0.230   4.831   2.251  0.1853  0.0882 -0.2487
 1399poe     o2 8141   0.344   4.856   2.330 -0.0217 -0.2929  0.1768
 1399poe    c23 8142   0.345   4.762   2.435  0.3280  0.0717  0.5070
 1399poe    c23 8143   0.388   4.820   2.570  0.2958  0.0681  0.5189
 1399poe     o2 8144   0.327   4.934   2.628 -0.2499 -0.2570  0.5926
 1399poe    c23 8145   0.382   4.953   2.756  0.4864 -0.0325  0.2525
 1399poe    c23 8146   0.274   5.041   2.823  0.5160  0.0705  0.1649
 1399poe     o2 8147   0.239   5.145   2.734 -0.3924 -0.0256  0.3952
 1399poe    c31 8148   0.135   5.220   2.791 -0.0370  0.4843  0.3787
 1400poe    c31 8149   5.131   4.586   6.340 -0.1558  0.1045  0.0433
 1400poe     o2 8150   5.057   4.609   6.458 -0.2508 -0.2195  0.0483
 1400poe    c23 8151   5.101   4.523   6.561 -0.0264  0.2103  0.3157
 1400poe    c23 8152   5.050   4.570   6.698  0.3258  0.3190  0.4089
 1400poe     o2 8153   4.914   4.585   6.667  0.4304  0.0032 -0.2128
 1400poe    c23 8154   4.842   4.606   6.786  0.0531 -0.7518 -0.2984
 1400poe    c23 8155   4.694   4.616   6.745  0.0183 -0.3721 -0.0850
 1400poe     o2 8156   4.669   4.736   6.674  0.2787 -0.4651 -0.3339
 1400poe    c23 8157   4.538   4.727   6.624  0.1334 -0.0101 -0.0432
 1400poe    c23 8158   4.442   4.808   6.713 -0.2617  0.4977 -0.9255
 1400poe     o2 8159   4.466   4.946   6.693  0.6121  0.5101  0.0912
 1400poe    c31 8160   4.398   5.030   6.784  0.2165  0.3135 -0.0199
 1401poe    c31 8161   5.278   3.820   1.507  0.0468 -0.2451 -0.0986
 1401poe     o2 8162   5.347   3.905   1.418 -0.0699  0.0652  0.1061
 1401poe    c23 8163   5.472   3.917   1.482 -0.2764  0.7930  0.3866
 1401poe    c23 8164   5.552   4.030   1.415  0.7186 -0.2370 -0.1971
 1401poe     o2 8165   5.509   4.160   1.448  0.0630 -0.5010  0.0124
 1401poe    c23 8166   5.622   4.244   1.440 -0.4625  0.1520 -0.6836
 1401poe    c23 8167   5.593   4.391   1.403 -0.3079  0.4446  0.3279
 1401poe     o2 8168   5.467   4.416   1.462 -0.0542  0.7585  0.7462
 1401poe    c23 8169   5.411   4.526   1.394 -0.3165  0.0741 -0.1673
 1401poe    c23 8170   5.280   4.542   1.474 -0.2247 -0.1339  0.0250
 1401poe     o2 8171   5.211   4.424   1.509 -0.0633 -0.2522 -0.0551
 1401poe    c31 8172   5.075   4.459   1.517  0.0239  0.1318 -0.2748
 1402poe    c31 8173   1.920   2.555   1.119  0.3662  0.3204  0.0205
 1402poe     o2 8174   1.932   2.415   1.133 -0.2393  0.2724  0.0613
 1402poe    c23 8175   1.838   2.358   1.222 -0.3316 -0.0175 -0.2183
 1402poe    c23 8176   1.856   2.206   1.234  0.1438  0.0474 -0.0808
 1402poe     o2 8177   1.840   2.127   1.118 -0.6511 -0.4604  0.3647
 1402poe    c23 8178   1.863   1.991   1.149  0.4033 -0.3175  0.2438
 1402poe    c23 8179   1.862   1.920   1.012  0.2266 -0.3039  0.2378
 1402poe     o2 8180   1.955   1.983   0.928 -0.2389 -0.1258 -0.1452
 1402poe    c23 8181   1.959   1.921   0.801  0.7427 -0.3035 -0.0358
 1402poe    c23 8182   2.086   1.975   0.733 -0.0025  0.4826 -0.8235
 1402poe     o2 8183   2.084   2.115   0.748 -0.3260  0.4272 -0.3275
 1402poe    c31 8184   2.165   2.177   0.651  0.2507  0.0496 -0.0892
 1403poe    c31 8185   2.701   1.329   3.749  0.6309 -0.5270 -0.3489
 1403poe     o2 8186   2.768   1.364   3.630  0.4572  0.0052 -0.2928
 1403poe    c23 8187   2.758   1.274   3.522  0.5087 -0.2313 -0.1034
 1403poe    c23 8188   2.777   1.359   3.395  0.5602 -0.9006 -0.5512
 1403poe     o2 8189   2.891   1.441   3.409 -0.1156  0.0051 -0.1729
 1403poe    c23 8190   2.918   1.528   3.302 -0.5681  0.0228 -0.2755
 1403poe    c23 8191   3.070   1.551   3.314 -0.4553 -1.1530  0.6440
 1403poe     o2 8192   3.108   1.619   3.432 -0.3311 -0.4532  0.2053
 1403poe    c23 8193   3.232   1.685   3.432 -0.5207 -0.0925 -0.0705
 1403poe    c23 8194   3.224   1.829   3.486  0.1594 -0.1104  0.0911
 1403poe     o2 8195   3.162   1.915   3.392  0.6595 -0.1785 -0.3015
 1403poe    c31 8196   3.141   2.048   3.434 -0.1016 -0.2045 -0.5851
 1404poe    c31 8197   6.937   3.006   3.429 -0.2396  0.5288 -0.1055
 1404poe     o2 8198   7.054   2.978   3.355 -0.2688  0.5024 -0.1417
 1404poe    c23 8199   7.033   3.061   3.242  0.0846  0.0887 -0.5170
 1404poe    c23 8200   7.132   3.014   3.134  0.5208  1.2399 -0.6256
 1404poe     o2 8201   7.246   2.967   3.201 -0.6007 -0.6651  0.0080
 1404poe    c23 8202   7.350   2.943   3.109 -0.3612 -0.4741  0.2256
 1404poe    c23 8203   7.479   2.952   3.193 -0.1259 -0.0372 -0.1765
 1404poe     o2 8204   7.477   2.869   3.307  0.3243  0.3814  0.1390
 1404poe    c23 8205   7.600   2.878   3.375 -0.0162 -0.2497  0.8436
 1404poe    c23 8206   7.601   2.797   3.506 -0.4512 -1.0479  0.3623
 1404poe     o2 8207   7.526   2.854   3.611 -0.5838  0.4267 -0.5132
 1404poe    c31 8208   7.511   2.760   3.715 -0.0593  0.4846 -0.3860
 1405poe    c31 8209   1.874   2.498   5.023  0.1553  0.1248 -0.2787
 1405poe     o2 8210   1.952   2.403   5.092 -0.1779  0.0300 -0.0329
 1405poe    c23 8211   2.039   2.474   5.177  0.2154 -0.3580 -0.1108
 1405poe    c23 8212   2.133   2.383   5.258 -0.0678 -0.6520 -0.1117
 1405poe     o2 8213   2.040   2.289   5.308 -0.6864 -0.0938 -0.2051
 1405poe    c23 8214   2.084   2.206   5.413 -0.0203  0.5670  0.0498
 1405poe    c23 8215   1.951   2.143   5.459 -0.2217  0.8632 -0.1187
 1405poe     o2 8216   1.886   2.053   5.372 -0.2626 -0.0177  0.8046
 1405poe    c23 8217   1.949   1.927   5.360 -0.1996  0.0707  0.1695
 1405poe    c23 8218   1.890   1.837   5.251  0.1568  0.3013 -0.2160
 1405poe     o2 8219   1.920   1.884   5.122  0.0592  0.3650 -0.2156
 1405poe    c31 8220   1.937   1.778   5.031 -0.8212  0.1816 -0.1754
 1406poe    c31 8221   6.666   5.985   6.636 -0.1500  0.0923  0.3811
 1406poe     o2 8222   6.528   6.011   6.650 -0.2283 -0.0961 -0.0454
 1406poe    c23 8223   6.493   6.133   6.590  0.2786  0.1347  0.1197
 1406poe    c23 8224   6.341   6.147   6.612  0.1588 -0.2191 -0.4581
 1406poe     o2 8225   6.254   6.053   6.554 -0.1024 -0.6067  0.5403
 1406poe    c23 8226   6.120   6.083   6.584 -0.1801  0.0767 -0.4428
 1406poe    c23 8227   6.028   5.961   6.564 -0.0222  0.0333 -0.9095
 1406poe     o2 8228   6.090   5.843   6.607  0.2355  0.3522 -0.3900
 1406poe    c23 8229   5.992   5.741   6.605  0.5631  0.0059  0.6095
 1406poe    c23 8230   6.074   5.612   6.629  0.0735 -0.3783  0.2345
 1406poe     o2 8231   6.197   5.610   6.560  0.0885  0.1477  0.2398
 1406poe    c31 8232   6.257   5.483   6.575  0.0887  0.1390  0.1672
 1407poe    c31 8233   1.639   6.905   4.067 -0.2314  0.2675 -0.1473
 1407poe     o2 8234   1.572   6.935   4.187  0.3957  0.3808  0.1783
 1407poe    c23 8235   1.639   7.045   4.244  0.4658  0.5774 -0.2773
 1407poe    c23 8236   1.560   7.114   4.357  0.1599 -0.4052  0.1212
 1407poe     o2 8237   1.462   7.197   4.298 -0.5847 -1.1242  0.3314
 1407poe    c23 8238   1.353   7.217   4.385 -0.0723  0.2516  0.6857
 1407poe    c23 8239   1.234   7.266   4.299  0.2654  0.1717  0.1676
 1407poe     o2 8240   1.172   7.176   4.211  0.5897  0.1803 -0.0718
 1407poe    c23 8241   1.049   7.232   4.168  0.1709 -0.4829  0.2500
 1407poe    c23 8242   0.951   7.128   4.111 -0.0888  0.1773 -0.5207
 1407poe     o2 8243   1.003   7.051   4.005  0.0908 -0.6920  0.1873
 1407poe    c31 8244   0.892   6.976   3.960 -0.2390  0.1509 -0.4323
 1408poe    c31 8245   2.055   2.773   1.487  0.0947 -0.1533 -0.2375
 1408poe     o2 8246   2.030   2.787   1.625 -0.1449  0.1078 -0.3055
 1408poe    c23 8247   1.960   2.906   1.651 -0.1399  0.0235  0.1136
 1408poe    c23 8248   1.984   2.926   1.801  0.6028 -0.0826  0.0107
 1408poe     o2 8249   1.930   2.813   1.867  0.2904 -0.1832 -0.4113
 1408poe    c23 8250   1.952   2.827   2.006 -0.5133 -0.2042 -0.2794
 1408poe    c23 8251   1.906   2.686   2.050 -0.2191 -0.2816 -0.2143
 1408poe     o2 8252   1.974   2.579   1.989  0.7407  0.2455 -0.0901
 1408poe    c23 8253   1.948   2.449   2.038  0.0864  0.2704 -0.3522
 1408poe    c23 8254   2.072   2.359   2.058 -0.1783  0.0599  0.3396
 1408poe     o2 8255   2.146   2.350   1.939 -0.4226  0.0852  0.1836
 1408poe    c31 8256   2.262   2.270   1.949 -0.3176  0.2441  0.2285
 1409poe    c31 8257   4.040   1.312   2.424  0.0117  0.1412  0.3246
 1409poe     o2 8258   4.008   1.187   2.482  0.0316 -0.1567 -0.3063
 1409poe    c23 8259   3.873   1.179   2.521 -0.0144 -0.7231 -0.5732
 1409poe    c23 8260   3.842   1.064   2.619 -0.4981 -0.0586  0.0555
 1409poe     o2 8261   3.882   0.937   2.576  0.2613  0.0405  0.4421
 1409poe    c23 8262   3.880   0.833   2.671  0.1694 -0.0057  0.3905
 1409poe    c23 8263   3.914   0.697   2.607 -0.3818  0.3954 -0.7816
 1409poe     o2 8264   4.035   0.722   2.541  0.6401  0.4569  1.0390
 1409poe    c23 8265   4.105   0.601   2.520 -0.4761 -0.0639  0.2234
 1409poe    c23 8266   4.240   0.630   2.453 -0.8221  0.1625 -0.3882
 1409poe     o2 8267   4.224   0.734   2.360 -0.3043  0.2560 -0.3762
 1409poe    c31 8268   4.352   0.764   2.308 -0.0813  0.2329  0.1546
 1410poe    c31 8269   2.530   0.946   4.681 -0.2464  0.3522 -0.1020
 1410poe     o2 8270   2.549   1.069   4.748  0.4258  0.4677 -0.4930
 1410poe    c23 8271   2.461   1.163   4.691 -0.3685  0.1753  0.2182
 1410poe    c23 8272   2.462   1.288   4.781 -0.2057 -0.1396  0.6563
 1410poe     o2 8273   2.590   1.295   4.838  0.2188 -0.0933 -0.2868
 1410poe    c23 8274   2.598   1.413   4.916  0.1193 -0.4057  0.1970
 1410poe    c23 8275   2.750   1.436   4.931  0.0920  0.2475 -0.4763
 1410poe     o2 8276   2.816   1.319   4.975 -0.2073  0.0847 -0.4552
 1410poe    c23 8277   2.953   1.347   4.990 -0.2521 -0.0509  0.2750
 1410poe    c23 8278   3.031   1.230   5.053  0.5621  0.3391  0.0016
 1410poe     o2 8279   3.023   1.120   4.966  0.1976 -0.0794  0.5550
 1410poe    c31 8280   3.115   1.016   4.993 -0.1568 -0.4807  0.2337
 1411poe    c31 8281   5.015   2.653   1.633 -0.3073  0.5933  0.5081
 1411poe     o2 8282   5.132   2.731   1.622  0.0820  0.0116  0.4791
 1411poe    c23 8283   5.251   2.658   1.640  0.1970 -0.0047 -0.3390
 1411poe    c23 8284   5.367   2.739   1.700 -0.1276 -0.2340  0.6044
 1411poe     o2 8285   5.455   2.798   1.607  0.2907 -0.4866  0.8348
 1411poe    c23 8286   5.543   2.892   1.665 -0.0043 -0.0685  0.6107
 1411poe    c23 8287   5.630   2.956   1.555 -0.6501 -0.0176  0.1247
 1411poe     o2 8288   5.534   3.001   1.462 -0.4179  0.4347  0.1002
 1411poe    c23 8289   5.591   3.108   1.391  0.4769 -0.1125 -0.0155
 1411poe    c23 8290   5.474   3.204   1.362  0.4561 -0.2165 -0.2841
 1411poe     o2 8291   5.358   3.131   1.328  0.4993 -0.3579 -0.1326
 1411poe    c31 8292   5.241   3.208   1.315  0.7861  0.1010 -0.0006
 1412poe    c31 8293   4.040   3.702   0.863  0.3728  0.5259  0.7703
 1412poe     o2 8294   4.052   3.825   0.931  0.6868  0.8727  0.1006
 1412poe    c23 8295   4.173   3.811   1.003  0.5364  0.1097  0.2116
 1412poe    c23 8296   4.206   3.946   1.067 -0.0090  0.3092  0.0788
 1412poe     o2 8297   4.082   3.967   1.131 -0.2917  0.3902 -0.4950
 1412poe    c23 8298   4.058   4.070   1.224  0.1215  0.2911 -0.2757
 1412poe    c23 8299   3.905   4.070   1.239  0.0948  0.0457 -0.5164
 1412poe     o2 8300   3.848   4.061   1.111 -0.6355  0.2486 -0.2161
 1412poe    c23 8301   3.726   3.995   1.132 -0.2724 -0.2997  0.1995
 1412poe    c23 8302   3.673   3.951   0.994  0.0227 -0.1357  0.0339
 1412poe     o2 8303   3.788   3.919   0.918  0.1654  0.4348  0.0019
 1412poe    c31 8304   3.743   3.883   0.789 -0.1972  0.6707  0.0618
 1413poe    c31 8305   1.388   1.326   0.544 -0.2604 -0.7358  0.6690
 1413poe     o2 8306   1.385   1.203   0.475 -0.5207 -0.5015  0.2576
 1413poe    c23 8307   1.507   1.139   0.445 -0.3101 -0.0161  0.0722
 1413poe    c23 8308   1.481   0.995   0.398  0.1848  0.0502 -0.4122
 1413poe     o2 8309   1.420   0.994   0.271 -0.3007  0.0234 -0.1790
 1413poe    c23 8310   1.366   0.865   0.249 -0.4270  0.0321  0.0717
 1413poe    c23 8311   1.335   0.855   0.098  0.0773 -0.5536  0.0025
 1413poe     o2 8312   1.252   0.966   0.073  0.0139 -0.5920  0.0413
 1413poe    c23 8313   1.225   0.972  -0.065 -0.1136 -0.1922  0.0843
 1413poe    c23 8314   1.149   1.106  -0.079 -0.1378 -0.2158 -0.0132
 1413poe     o2 8315   1.228   1.196  -0.005 -0.1103 -0.6420  0.4817
 1413poe    c31 8316   1.210   1.334  -0.030 -0.4924 -0.7534  0.1343
 1414poe    c31 8317   5.042   6.745   0.438  0.2498 -0.5419 -0.1301
 1414poe     o2 8318   5.104   6.669   0.539  0.0001 -0.3982  0.1347
 1414poe    c23 8319   5.233   6.725   0.552  0.0248 -0.3206 -0.4223
 1414poe    c23 8320   5.340   6.640   0.624 -0.4420 -0.3722  0.2206
 1414poe     o2 8321   5.318   6.615   0.760 -0.7858 -0.6681  0.1119
 1414poe    c23 8322   5.420   6.533   0.813 -0.1691 -0.5104 -0.8173
 1414poe    c23 8323   5.371   6.460   0.939 -0.5724  0.7601 -0.2144
 1414poe     o2 8324   5.254   6.388   0.905  0.1205 -0.4669 -0.0830
 1414poe    c23 8325   5.175   6.350   1.015 -0.2411 -0.0140 -0.1814
 1414poe    c23 8326   5.087   6.229   0.978  0.2777 -0.3212 -0.4180
 1414poe     o2 8327   5.088   6.222   0.837  0.1437  0.3730 -0.4584
 1414poe    c31 8328   4.984   6.130   0.810  0.4840 -0.2256  0.2267
 1415poe    c31 8329   6.552   6.840   2.421 -0.1656 -0.2055 -0.1025
 1415poe     o2 8330   6.644   6.841   2.314 -0.2285 -0.2372 -0.1563
 1415poe    c23 8331   6.768   6.880   2.370 -0.5346  0.2738  0.1845
 1415poe    c23 8332   6.832   6.996   2.291 -0.2627 -0.0745 -0.1126
 1415poe     o2 8333   6.877   6.966   2.161  0.3631  0.4676 -0.0236
 1415poe    c23 8334   7.012   6.978   2.122  0.3552 -0.2947 -0.2889
 1415poe    c23 8335   7.037   6.896   1.993 -0.7788 -0.8511 -0.1689
 1415poe     o2 8336   6.950   6.934   1.889 -0.7790 -0.2075  0.0605
 1415poe    c23 8337   7.002   6.896   1.764 -0.0370 -0.0068  0.3057
 1415poe    c23 8338   7.027   7.000   1.654  0.7144 -0.1875  0.2975
 1415poe     o2 8339   6.899   7.054   1.629  0.7142 -0.1764  0.3239
 1415poe    c31 8340   6.903   7.179   1.564 -0.6095 -0.1140  0.3341
 1416poe    c31 8341   2.341   5.717   3.471 -0.1444 -0.1885  0.4080
 1416poe     o2 8342   2.448   5.633   3.509 -0.1862 -0.0991  0.7251
 1416poe    c23 8343   2.436   5.504   3.455 -0.0116 -0.0763  0.6292
 1416poe    c23 8344   2.531   5.427   3.548  0.1716 -0.4151  0.1655
 1416poe     o2 8345   2.660   5.484   3.540 -0.0382 -0.0284 -0.5792
 1416poe    c23 8346   2.758   5.425   3.624 -0.1207  0.2024 -0.3197
 1416poe    c23 8347   2.889   5.489   3.576  0.1164  0.0668  0.1442
 1416poe     o2 8348   2.899   5.628   3.598 -0.2391  0.0824  0.2120
 1416poe    c23 8349   3.019   5.683   3.548 -0.2099 -0.0870  0.0965
 1416poe    c23 8350   3.031   5.835   3.525  0.2274 -0.1441 -0.0674
 1416poe     o2 8351   2.948   5.865   3.416 -0.2586  0.3657  0.4335
 1416poe    c31 8352   2.982   5.995   3.374  0.7294  0.3810  1.2509
 1417poe    c31 8353   4.758   0.921   0.507 -0.0242 -0.5303  0.0755
 1417poe     o2 8354   4.683   0.814   0.455 -0.1310 -0.6615  0.5011
 1417poe    c23 8355   4.555   0.872   0.439  0.2718  0.1482  0.1495
 1417poe    c23 8356   4.468   0.770   0.363  0.1016  0.6421 -0.3203
 1417poe     o2 8357   4.550   0.719   0.260  0.0511 -0.1954  0.0495
 1417poe    c23 8358   4.461   0.676   0.159  0.0702 -0.1387  0.0086
 1417poe    c23 8359   4.546   0.614   0.046  0.0706  0.0283 -0.0823
 1417poe     o2 8360   4.640   0.517   0.086 -0.3351 -0.2240  0.2645
 1417poe    c23 8361   4.716   0.459  -0.017 -0.7425  0.1764 -0.2659
 1417poe    c23 8362   4.820   0.368   0.050 -0.3624  0.5323 -0.3677
 1417poe     o2 8363   4.909   0.440   0.132 -0.2440  0.2103 -0.2084
 1417poe    c31 8364   5.035   0.377   0.140 -0.5034 -0.2060  0.7021
 1418poe    c31 8365   0.008   1.373   1.426  0.2589  0.1920 -0.6223
 1418poe     o2 8366   0.033   1.261   1.343 -0.1041 -0.4974  0.1775
 1418poe    c23 8367   0.169   1.225   1.339  0.1173  0.3371 -0.0824
 1418poe    c23 8368   0.210   1.130   1.225 -0.3814  0.3578 -0.2801
 1418poe     o2 8369   0.103   1.039   1.223 -0.0459 -0.0413 -0.2284
 1418poe    c23 8370   0.130   0.932   1.136 -0.1815 -0.3679  0.1253
 1418poe    c23 8371  -0.003   0.855   1.131 -0.2117 -0.3232  0.2560
 1418poe     o2 8372  -0.111   0.944   1.139 -0.1926 -0.2627 -0.1418
 1418poe    c23 8373  -0.222   0.866   1.100 -0.2781 -0.2639  0.1009
 1418poe    c23 8374  -0.336   0.961   1.059 -0.3823 -0.6320 -0.4811
 1418poe     o2 8375  -0.393   1.022   1.174  0.2190  0.2382 -0.6319
 1418poe    c31 8376  -0.513   1.090   1.145  0.0573  0.5508  0.7449
 1419poe    c31 8377   6.136   4.673   0.368 -0.1467  0.3185 -0.1051
 1419poe     o2 8378   6.066   4.760   0.453  0.5999  0.6841  0.1420
 1419poe    c23 8379   6.015   4.691   0.565  0.0916  0.1890 -0.3856
 1419poe    c23 8380   5.928   4.785   0.652  0.0225  0.3296 -0.6065
 1419poe     o2 8381   6.007   4.892   0.697  0.4630 -0.4215  0.4609
 1419poe    c23 8382   5.940   4.950   0.806 -0.0081 -0.8580  0.4087
 1419poe    c23 8383   6.038   5.060   0.853  0.0198 -0.6227 -0.1912
 1419poe     o2 8384   6.089   5.123   0.738 -0.2680  0.0203  0.0296
 1419poe    c23 8385   6.113   5.262   0.751  1.0349 -0.1781 -0.1251
 1419poe    c23 8386   6.136   5.336   0.618  0.6087 -1.1506 -0.7560
 1419poe     o2 8387   6.017   5.346   0.544  0.0860 -1.0261  0.0882
 1419poe    c31 8388   6.035   5.404   0.417 -0.4186 -0.2619  0.3565
 1420poe    c31 8389   6.515   0.333   3.079 -0.2317 -0.8061  0.2335
 1420poe     o2 8390   6.511   0.323   3.220 -0.0631  0.2832  0.3273
 1420poe    c23 8391   6.396   0.254   3.265  0.2373 -0.3160  0.1840
 1420poe    c23 8392   6.427   0.187   3.400 -0.1686  0.2956  0.5834
 1420poe     o2 8393   6.550   0.118   3.403 -0.6277 -0.5576 -0.0283
 1420poe    c23 8394   6.562   0.062   3.531 -0.0956  0.1966  0.2567
 1420poe    c23 8395   6.690  -0.023   3.519 -0.0488  0.1415  1.0405
 1420poe     o2 8396   6.799   0.065   3.502 -0.0294 -0.0611  0.0437
 1420poe    c23 8397   6.927   0.010   3.524  0.0307  0.2187  0.3891
 1420poe    c23 8398   7.039   0.113   3.497  0.5064 -0.2249  0.6378
 1420poe     o2 8399   6.996   0.240   3.542  0.5440 -0.1615  0.4946
 1420poe    c31 8400   7.105   0.324   3.573  0.1137  0.5776  0.0204
 1421poe    c31 8401   0.511   6.386   5.417 -0.0206  0.0014 -0.7105
 1421poe     o2 8402   0.458   6.438   5.297 -0.1421  0.8181 -0.3144
 1421poe    c23 8403   0.539   6.401   5.188 -0.5994 -0.7521 -0.1532
 1421poe    c23 8404   0.483   6.446   5.052  0.0990 -0.1369 -0.2427
 1421poe     o2 8405   0.344   6.451   5.074  0.1105 -0.0089 -0.1962
 1421poe    c23 8406   0.277   6.461   4.950  0.2774  0.1689 -0.2748
 1421poe    c23 8407   0.126   6.440   4.976  0.2911  0.2345 -0.1404
 1421poe     o2 8408   0.066   6.552   5.036  0.3123 -0.2543  0.8099
 1421poe    c23 8409  -0.061   6.536   5.095  0.0169  0.0499  0.2603
 1421poe    c23 8410  -0.126   6.664   5.152  0.0558  0.1041  0.1848
 1421poe     o2 8411  -0.056   6.713   5.264  0.0407  0.3690  0.0797
 1421poe    c31 8412  -0.119   6.821   5.329  0.2906  0.8086 -0.4088
 1422poe    c31 8413   2.940   5.121   6.125  1.1237 -0.5691 -0.1879
 1422poe     o2 8414   2.963   5.241   6.055 -0.1977 -0.0539  0.2198
 1422poe    c23 8415   2.896   5.355   6.104  0.0316  0.2631 -0.1990
 1422poe    c23 8416   2.833   5.448   5.999  1.0096 -0.0109 -1.0486
 1422poe     o2 8417   2.742   5.381   5.914  0.3102 -0.5902  0.1371
 1422poe    c23 8418   2.614   5.438   5.934  0.5277 -0.0253 -0.0673
 1422poe    c23 8419   2.499   5.418   5.833  0.2491 -0.4045  0.3233
 1422poe     o2 8420   2.472   5.284   5.797 -0.0099 -0.2786  0.0427
 1422poe    c23 8421   2.389   5.256   5.687  0.2042  0.5672 -0.3431
 1422poe    c23 8422   2.351   5.109   5.710  0.5087  0.5436  0.0227
 1422poe     o2 8423   2.467   5.030   5.727  0.4036  0.4349  0.2374
 1422poe    c31 8424   2.426   4.896   5.745  0.5033  0.3135 -0.4076
 1423poe    c31 8425   6.536   0.546   5.689 -0.2609 -0.0962 -0.0968
 1423poe     o2 8426   6.638   0.526   5.784  0.2393 -0.1493 -0.6406
 1423poe    c23 8427   6.725   0.420   5.753  0.2377 -0.3032 -0.1369
 1423poe    c23 8428   6.830   0.419   5.865  0.5060 -0.1389 -0.3831
 1423poe     o2 8429   6.940   0.503   5.837  0.0533  0.4114 -0.5224
 1423poe    c23 8430   7.051   0.461   5.912 -0.2550  0.1787 -0.1927
 1423poe    c23 8431   7.165   0.564   5.910 -0.6165  0.5833 -0.1655
 1423poe     o2 8432   7.172   0.606   5.775  0.0231 -0.2439 -0.4069
 1423poe    c23 8433   7.308   0.632   5.748  0.0540 -0.1135 -0.1391
 1423poe    c23 8434   7.303   0.667   5.598 -0.0203  0.3010 -0.0404
 1423poe     o2 8435   7.173   0.700   5.552  0.0609  0.7704  0.0646
 1423poe    c31 8436   7.168   0.765   5.427  0.0884  0.1992 -0.2362
 1424poe    c31 8437   0.592   4.823   0.866 -0.4667 -0.1696  0.2129
 1424poe     o2 8438   0.657   4.854   0.745 -0.1702  0.0342  0.4221
 1424poe    c23 8439   0.795   4.829   0.760 -0.2513 -0.6365  0.0884
 1424poe    c23 8440   0.855   4.835   0.618 -0.1065 -0.0196  0.1765
 1424poe     o2 8441   0.828   4.960   0.558  0.6998  0.0457 -0.0655
 1424poe    c23 8442   0.873   4.972   0.425  0.1041  0.3585 -0.2434
 1424poe    c23 8443   0.844   5.117   0.382 -0.0285  0.1937 -0.7180
 1424poe     o2 8444   0.731   5.164   0.452  0.0707 -0.7521  0.0948
 1424poe    c23 8445   0.615   5.156   0.371  0.3713 -0.3360 -0.3844
 1424poe    c23 8446   0.500   5.182   0.470  0.2478 -0.3235 -0.5308
 1424poe     o2 8447   0.516   5.086   0.572  0.2455 -0.0356 -0.2578
 1424poe    c31 8448   0.388   5.059   0.625  0.5198 -0.3406  0.2625
 1425poe    c31 8449   5.774   1.229   0.101 -0.1913 -0.1275 -0.4228
 1425poe     o2 8450   5.687   1.340   0.100 -0.2232 -0.1433  0.2043
 1425poe    c23 8451   5.598   1.340  -0.009 -0.3208  0.1472  0.2833
 1425poe    c23 8452   5.501   1.458   0.007 -0.0898  0.3484  0.1980
 1425poe     o2 8453   5.403   1.436   0.106 -0.2343 -0.1186 -0.0465
 1425poe    c23 8454   5.327   1.555   0.116 -0.1369  0.0069 -0.7258
 1425poe    c23 8455   5.222   1.529   0.225  0.7015  0.8911  0.3143
 1425poe     o2 8456   5.279   1.465   0.337  0.1640 -0.4371 -0.1486
 1425poe    c23 8457   5.190   1.455   0.445  0.5212  0.4240  0.2386
 1425poe    c23 8458   5.273   1.453   0.575  0.0732  0.1271  0.5287
 1425poe     o2 8459   5.393   1.384   0.547  0.0763  0.3184  0.0508
 1425poe    c31 8460   5.486   1.371   0.652  0.2514 -0.8362 -0.2409
 1426poe    c31 8461   3.049   2.400   0.973 -0.1297  0.0154  0.5107
 1426poe     o2 8462   3.085   2.275   0.920 -0.0589  0.2715 -0.0585
 1426poe    c23 8463   3.183   2.261   0.819 -0.4743 -0.1526 -0.4070
 1426poe    c23 8464   3.242   2.119   0.809  0.1176  0.0059  0.7147
 1426poe     o2 8465   3.133   2.035   0.779 -0.0371  0.5395 -0.2433
 1426poe    c23 8466   3.174   1.914   0.720  0.0951  0.2720  0.3931
 1426poe    c23 8467   3.053   1.821   0.744 -0.2684  0.5983 -0.1693
 1426poe     o2 8468   2.940   1.883   0.688 -0.2530  0.3129 -0.5230
 1426poe    c23 8469   2.823   1.811   0.719 -0.2369  0.6413  0.3254
 1426poe    c23 8470   2.693   1.888   0.691 -0.4486 -0.0371 -0.6040
 1426poe     o2 8471   2.713   2.021   0.733 -0.2713 -0.3674  0.3797
 1426poe    c31 8472   2.587   2.084   0.726 -0.1460 -0.1614 -0.0220
 1427poe    c31 8473   6.427   0.794   1.678 -0.2514  0.1174 -0.0365
 1427poe     o2 8474   6.474   0.813   1.810 -0.3355  0.5291 -0.0679
 1427poe    c23 8475   6.439   0.703   1.890 -0.2656  0.2584 -0.4082
 1427poe    c23 8476   6.487   0.727   2.034 -0.1001  0.3524 -0.4786
 1427poe     o2 8477   6.588   0.825   2.035  0.1169  0.1295 -0.2329
 1427poe    c23 8478   6.672   0.815   2.148 -0.1596 -0.1700 -0.0515
 1427poe    c23 8479   6.753   0.946   2.139 -0.0572 -0.2527 -0.3515
 1427poe     o2 8480   6.822   0.965   2.018  0.5945 -0.6150 -0.0380
 1427poe    c23 8481   6.903   1.080   2.030  0.2225 -0.3469 -0.1040
 1427poe    c23 8482   6.993   1.084   1.905  0.1671  0.4192 -0.1250
 1427poe     o2 8483   6.926   1.091   1.781 -0.0612 -0.3454 -0.0496
 1427poe    c31 8484   7.024   1.091   1.681 -0.1452 -0.3384 -0.1313
 1428poe    c31 8485   0.976   1.992   6.557  0.4124  0.9150 -0.0425
 1428poe     o2 8486   1.064   2.088   6.609  0.8602  0.4979 -0.0277
 1428poe    c23 8487   1.019   2.130   6.736 -0.1445  0.2150 -0.2837
 1428poe    c23 8488   1.084   2.048   6.849  0.1186 -0.0296 -0.6096
 1428poe     o2 8489   1.225   2.054   6.851  0.1153 -0.0826  0.4701
 1428poe    c23 8490   1.276   1.980   6.959  0.0027 -0.5168  0.2295
 1428poe    c23 8491   1.429   2.000   6.967 -0.0638 -0.0984  0.4935
 1428poe     o2 8492   1.480   2.021   6.838 -0.5962 -0.5034  0.2124
 1428poe    c23 8493   1.614   1.981   6.820 -0.4742  0.2300 -0.5835
 1428poe    c23 8494   1.665   1.992   6.675  0.4113 -0.3599 -0.3274
 1428poe     o2 8495   1.674   2.123   6.623  0.5643 -0.2225  0.0410
 1428poe    c31 8496   1.714   2.124   6.487  0.3747  0.1136 -0.0136
 1429poe    c31 8497   6.498   5.554   4.897 -0.2216  0.2297 -0.2073
 1429poe     o2 8498   6.635   5.571   4.923 -0.2957  0.0358  0.3266
 1429poe    c23 8499   6.670   5.708   4.928 -0.4430  0.0609  0.6668
 1429poe    c23 8500   6.818   5.705   4.973 -0.2876  0.2015  0.1786
 1429poe     o2 8501   6.882   5.621   4.880  0.2957  1.0767 -0.2216
 1429poe    c23 8502   7.019   5.603   4.908  0.1063  0.4170  0.3080
 1429poe    c23 8503   7.077   5.471   4.856  0.0800  0.5299 -0.0089
 1429poe     o2 8504   6.980   5.369   4.864  0.7854 -0.1834 -0.3699
 1429poe    c23 8505   7.044   5.244   4.862  0.1113 -0.5289 -0.6448
 1429poe    c23 8506   6.959   5.116   4.877 -0.0427 -0.3358  0.1635
 1429poe     o2 8507   6.875   5.122   4.991  0.0831 -0.1671  0.2472
 1429poe    c31 8508   6.889   5.003   5.065 -0.6737 -0.0884  0.5199
 1430poe    c31 8509   2.812   1.628   5.824  0.8111  0.8793  0.5050
 1430poe     o2 8510   2.847   1.640   5.688 -0.7778  0.0848 -0.0036
 1430poe    c23 8511   2.882   1.511   5.645 -0.3844  0.2808 -0.2783
 1430poe    c23 8512   2.845   1.525   5.496 -0.5913 -0.3629 -0.2893
 1430poe     o2 8513   2.923   1.631   5.446 -0.1338 -0.5292  0.0570
 1430poe    c23 8514   2.901   1.639   5.307  0.5730 -0.5417 -0.0617
 1430poe    c23 8515   2.977   1.746   5.227 -0.1470  0.2392  0.2861
 1430poe     o2 8516   2.951   1.877   5.272  0.0124  0.0499  0.9339
 1430poe    c23 8517   3.018   1.980   5.203 -0.3020 -0.3360  0.0418
 1430poe    c23 8518   3.074   2.096   5.287  0.2681 -0.4347 -0.1932
 1430poe     o2 8519   3.148   2.046   5.397  0.2451 -0.3073 -0.1191
 1430poe    c31 8520   3.203   2.156   5.467 -0.2120 -0.2706  0.1821
 1431poe    c31 8521   3.479   6.324   1.481 -0.0471 -0.2735  0.0679
 1431poe     o2 8522   3.498   6.445   1.411  0.2708 -0.1371  0.3877
 1431poe    c23 8523   3.499   6.553   1.502  0.3072 -0.1818  0.4403
 1431poe    c23 8524   3.560   6.676   1.434 -0.0558 -0.0331  0.3817
 1431poe     o2 8525   3.698   6.662   1.409 -0.0664  0.4080  0.0491
 1431poe    c23 8526   3.747   6.775   1.341 -0.1930  0.1661 -0.4460
 1431poe    c23 8527   3.900   6.776   1.354 -0.2594 -0.2676  0.4700
 1431poe     o2 8528   3.941   6.645   1.320  0.4459 -0.1156  0.7176
 1431poe    c23 8529   4.061   6.632   1.247  0.1790  0.1718  0.2173
 1431poe    c23 8530   4.135   6.513   1.311  0.5124 -0.0905 -0.6425
 1431poe     o2 8531   4.049   6.403   1.329  0.8763 -0.2293  0.2824
 1431poe    c31 8532   4.090   6.296   1.248 -0.1244 -0.0020 -0.5360
 1432poe    c31 8533   3.428   2.419   1.100 -0.2856  0.1350  0.2235
 1432poe     o2 8534   3.502   2.348   1.197 -0.2294 -0.1515 -0.0263
 1432poe    c23 8535   3.422   2.246   1.253  0.0417 -0.3267  0.0436
 1432poe    c23 8536   3.513   2.169   1.351  0.2698 -0.2501 -0.1085
 1432poe     o2 8537   3.633   2.118   1.296  0.3718 -0.0307 -0.0874
 1432poe    c23 8538   3.720   2.087   1.403  0.3076  0.4903  0.1217
 1432poe    c23 8539   3.841   2.012   1.344 -0.5460 -0.3678 -0.5772
 1432poe     o2 8540   3.867   2.075   1.220  0.2976  0.0842 -0.1773
 1432poe    c23 8541   3.978   2.028   1.147  0.4083 -0.3638  0.2739
 1432poe    c23 8542   3.984   2.117   1.022 -0.5797 -0.5191  0.1100
 1432poe     o2 8543   3.860   2.181   1.003 -0.4496 -0.2579  0.1262
 1432poe    c31 8544   3.878   2.258   0.887 -0.0726  0.3579  0.5897
 1433poe    c31 8545   6.510   5.564   0.123 -0.5997  0.2777 -0.4730
 1433poe     o2 8546   6.605   5.491   0.050  0.0390  0.6216 -0.0043
 1433poe    c23 8547   6.578   5.523  -0.085  0.3651  0.5084 -0.0978
 1433poe    c23 8548   6.663   5.450  -0.191  0.0439 -0.0879  0.0509
 1433poe     o2 8549   6.605   5.322  -0.201 -0.0484 -0.0758  0.3993
 1433poe    c23 8550   6.697   5.248  -0.279 -0.2201  0.2595 -0.1253
 1433poe    c23 8551   6.692   5.095  -0.262  0.5333  0.2428 -0.0426
 1433poe     o2 8552   6.742   5.067  -0.132  0.0524 -0.0550  0.0805
 1433poe    c23 8553   6.752   4.927  -0.120  0.2144 -0.0620 -0.1234
 1433poe    c23 8554   6.816   4.922   0.020  0.0470  0.0645 -0.0428
 1433poe     o2 8555   6.751   5.012   0.107  0.1481 -0.3254  0.4422
 1433poe    c31 8556   6.811   4.990   0.233  0.2676 -0.1224  0.4206
 1434poe    c31 8557   3.943   6.282   4.443  0.2883  1.1569 -0.4124
 1434poe     o2 8558   4.074   6.240   4.410 -0.0305 -0.1754 -0.0464
 1434poe    c23 8559   4.066   6.162   4.293 -0.4725 -0.0155 -0.1266
 1434poe    c23 8560   4.204   6.102   4.260 -0.3976  0.2073 -0.2232
 1434poe     o2 8561   4.282   6.219   4.256 -0.4081  0.2058 -0.5656
 1434poe    c23 8562   4.363   6.220   4.140  0.2022  0.1894 -0.1489
 1434poe    c23 8563   4.505   6.243   4.193  0.1619 -0.2474  0.1579
 1434poe     o2 8564   4.497   6.370   4.254 -0.2505 -0.0745 -0.2507
 1434poe    c23 8565   4.622   6.433   4.270  0.0443 -0.7345  0.1161
 1434poe    c23 8566   4.603   6.527   4.391 -0.4478 -0.1294 -0.4267
 1434poe     o2 8567   4.574   6.459   4.510 -0.3084 -0.1598 -0.4104
 1434poe    c31 8568   4.619   6.524   4.626  0.0853 -0.0713 -0.6132
 1435poe    c31 8569   5.837   5.366   5.269 -0.2808 -0.3094  0.3701
 1435poe     o2 8570   5.704   5.365   5.223 -0.1672 -0.4959  0.0402
 1435poe    c23 8571   5.620   5.385   5.335 -0.1867 -0.3553  0.0018
 1435poe    c23 8572   5.484   5.336   5.281 -0.3817 -0.2670  0.4112
 1435poe     o2 8573   5.470   5.374   5.146  0.2731  0.0741  0.4373
 1435poe    c23 8574   5.393   5.492   5.150  0.7590  0.4005  0.3207
 1435poe    c23 8575   5.363   5.558   5.014 -0.0895  0.3290  0.4627
 1435poe     o2 8576   5.474   5.616   4.948 -0.0390 -0.4103 -0.1170
 1435poe    c23 8577   5.447   5.620   4.810 -0.0996  0.0878 -0.0925
 1435poe    c23 8578   5.548   5.689   4.716 -0.0881 -0.1010 -0.2195
 1435poe     o2 8579   5.676   5.632   4.730  0.0932  0.2911 -0.2552
 1435poe    c31 8580   5.734   5.669   4.607 -0.2972  0.4034 -0.4087
 1436poe    c31 8581   0.863   0.238   2.674  0.4140 -0.5960 -0.3548
 1436poe     o2 8582   0.746   0.163   2.696 -0.0419  0.2312  0.1450
 1436poe    c23 8583   0.722   0.135   2.832 -0.1014  0.2559  0.1395
 1436poe    c23 8584   0.601   0.051   2.876  0.2640 -0.0918  0.4932
 1436poe     o2 8585   0.472   0.089   2.834  0.2895 -0.2929  0.2336
 1436poe    c23 8586   0.382  -0.020   2.843  0.4089 -0.4925 -0.8237
 1436poe    c23 8587   0.243   0.017   2.789  0.1628  0.0998  0.1892
 1436poe     o2 8588   0.251   0.056   2.653  0.0356 -0.5040  0.0072
 1436poe    c23 8589   0.121   0.103   2.622  0.0013 -0.4425  0.2400
 1436poe    c23 8590   0.142   0.190   2.496 -0.0195 -0.3490  0.3003
 1436poe     o2 8591   0.264   0.259   2.498 -0.4335  0.4116 -0.4506
 1436poe    c31 8592   0.277   0.343   2.385  0.2100  0.5150 -0.3056
 1437poe    c31 8593   0.897   0.681   0.312 -0.0009  0.2736 -0.0231
 1437poe     o2 8594   0.927   0.564   0.385 -0.5108 -0.3281 -0.7686
 1437poe    c23 8595   1.065   0.539   0.385 -0.3855  0.3271 -0.1905
 1437poe    c23 8596   1.105   0.412   0.462  0.1467  0.4401 -0.2775
 1437poe     o2 8597   1.056   0.426   0.594  0.1651 -0.5187 -0.1638
 1437poe    c23 8598   1.003   0.305   0.644 -0.5927 -0.1320 -0.0346
 1437poe    c23 8599   0.900   0.342   0.753 -0.5681 -0.1393 -0.0088
 1437poe     o2 8600   0.811   0.436   0.696 -0.0379  0.1375 -0.3856
 1437poe    c23 8601   0.721   0.495   0.787  0.2033  0.2218 -0.2007
 1437poe    c23 8602   0.621   0.567   0.694  0.1448  0.0576 -0.2648
 1437poe     o2 8603   0.660   0.611   0.566  0.3593  0.0819 -0.1906
 1437poe    c31 8604   0.550   0.668   0.501 -0.1097  0.1184  0.6194
 1438poe    c31 8605   3.699   6.561   2.544  0.2581 -0.1120 -0.2265
 1438poe     o2 8606   3.679   6.664   2.451 -0.2623  0.0997  0.1115
 1438poe    c23 8607   3.578   6.624   2.361 -0.1632  0.3098 -0.0951
 1438poe    c23 8608   3.547   6.740   2.264 -0.0988  0.1807 -0.2695
 1438poe     o2 8609   3.484   6.858   2.309  0.0046 -0.1435  0.7545
 1438poe    c23 8610   3.451   6.944   2.202  0.2153 -0.1847  0.6544
 1438poe    c23 8611   3.374   7.065   2.258 -0.5707 -0.2858 -0.1813
 1438poe     o2 8612   3.460   7.131   2.349 -0.5717 -0.1326 -0.2902
 1438poe    c23 8613   3.409   7.251   2.401  0.7899  0.2718  0.1425
 1438poe    c23 8614   3.510   7.276   2.515  0.4929 -0.0933  0.4868
 1438poe     o2 8615   3.494   7.159   2.593 -0.3893  0.0834  0.5785
 1438poe    c31 8616   3.571   7.162   2.711  0.2876  0.2266  0.1376
 1439poe    c31 8617   0.209   4.437   3.175 -0.4261  0.1920 -0.5370
 1439poe     o2 8618   0.290   4.541   3.126 -0.2801  0.2838 -0.1077
 1439poe    c23 8619   0.251   4.650   3.206 -0.5876 -0.0554  0.2109
 1439poe    c23 8620   0.320   4.779   3.158 -0.3657 -0.2109  0.1090
 1439poe     o2 8621   0.455   4.740   3.148 -0.2988  0.0563 -0.0407
 1439poe    c23 8622   0.536   4.846   3.102  0.4671 -0.4714  0.0751
 1439poe    c23 8623   0.679   4.788   3.102  0.5886 -0.1772 -0.2244
 1439poe     o2 8624   0.690   4.659   3.045  0.1863 -0.5870  0.6111
 1439poe    c23 8625   0.826   4.624   3.037  0.2278 -0.3789  0.3963
 1439poe    c23 8626   0.840   4.476   2.998  0.9317 -0.1883 -0.0956
 1439poe     o2 8627   0.791   4.384   3.093 -0.0112  0.3954  0.0014
 1439poe    c31 8628   0.804   4.253   3.042  0.0962  0.2883  0.3020
 1440poe    c31 8629   3.884   0.683   6.541 -0.5563 -0.2241  0.6749
 1440poe     o2 8630   3.796   0.713   6.435  0.0637 -1.0815 -0.0994
 1440poe    c23 8631   3.664   0.722   6.483  0.2512  0.1650  0.1911
 1440poe    c23 8632   3.589   0.653   6.368 -0.0249  0.0722  0.4261
 1440poe     o2 8633   3.649   0.687   6.245 -0.3146  0.4260  0.3798
 1440poe    c23 8634   3.581   0.641   6.131  0.6105 -0.6009  0.2216
 1440poe    c23 8635   3.676   0.681   6.016  0.0694 -0.1025 -0.0608
 1440poe     o2 8636   3.801   0.648   6.071  0.1230 -0.2881 -0.2934
 1440poe    c23 8637   3.869   0.536   6.019  0.2173 -0.4321  0.1386
 1440poe    c23 8638   4.000   0.532   6.101  0.4027  0.2611 -0.1197
 1440poe     o2 8639   3.975   0.532   6.239 -0.3782 -0.2670 -0.2525
 1440poe    c31 8640   4.014   0.406   6.288  0.0520  0.0333  0.1923
 1441poe    c31 8641   5.487   3.005   4.744  0.4014 -0.5427  0.4136
 1441poe     o2 8642   5.477   2.865   4.733 -0.0605 -0.4707 -0.1048
 1441poe    c23 8643   5.418   2.826   4.611  0.1983  0.0608 -0.4037
 1441poe    c23 8644   5.389   2.675   4.620  0.8455 -0.0532 -0.1986
 1441poe     o2 8645   5.484   2.597   4.688 -0.0085 -0.3390  0.6971
 1441poe    c23 8646   5.459   2.460   4.665 -0.7789 -0.1450  0.3621
 1441poe    c23 8647   5.583   2.385   4.715 -0.3114  0.2267 -0.2299
 1441poe     o2 8648   5.644   2.436   4.832  0.4018 -0.2656 -0.3745
 1441poe    c23 8649   5.741   2.349   4.884 -0.1919 -0.6250  0.1369
 1441poe    c23 8650   5.820   2.424   4.992 -0.2934 -0.7614  0.3081
 1441poe     o2 8651   5.732   2.456   5.097 -0.4097  0.1861 -0.0691
 1441poe    c31 8652   5.789   2.474   5.225  0.2683  0.3736 -0.3919
 1442poe    c31 8653   0.335   2.313   5.101  0.9989  0.2138 -0.3127
 1442poe     o2 8654   0.291   2.251   4.982 -0.0344  0.4341 -0.0459
 1442poe    c23 8655   0.232   2.349   4.899 -0.2531  0.2172 -0.1467
 1442poe    c23 8656   0.215   2.300   4.753 -0.1089 -0.0427 -0.0768
 1442poe     o2 8657   0.189   2.162   4.741  0.4180 -0.0804 -0.7802
 1442poe    c23 8658   0.098   2.135   4.637 -0.4764 -0.3531  0.0586
 1442poe    c23 8659   0.047   1.992   4.661 -0.0617 -0.4553  0.3327
 1442poe     o2 8660   0.146   1.920   4.731  0.3413 -0.3989 -0.1732
 1442poe    c23 8661   0.149   1.795   4.668 -0.3964 -0.2224 -0.5648
 1442poe    c23 8662   0.224   1.687   4.749  0.2385  0.6587  0.0299
 1442poe     o2 8663   0.359   1.727   4.761  0.4934 -0.0115 -0.5234
 1442poe    c31 8664   0.437   1.619   4.807  0.0668  0.0541  0.3661
 1443poe    c31 8665   0.300   2.925   1.206 -0.0890 -0.4654 -0.2007
 1443poe     o2 8666   0.167   2.954   1.169  0.0520 -0.3503 -0.6339
 1443poe    c23 8667   0.067   2.871   1.226  0.1213 -0.0915 -0.1312
 1443poe    c23 8668  -0.069   2.932   1.187  0.1226 -0.0173 -0.0216
 1443poe     o2 8669  -0.080   3.070   1.214  0.1935 -0.0071 -0.0437
 1443poe    c23 8670  -0.215   3.110   1.209  0.1794 -0.0858 -0.3704
 1443poe    c23 8671  -0.209   3.263   1.231 -0.6240 -0.0681 -0.2431
 1443poe     o2 8672  -0.097   3.307   1.158 -0.5425  0.0145 -0.0704
 1443poe    c23 8673  -0.050   3.437   1.183  0.1730 -0.1461 -0.5369
 1443poe    c23 8674   0.092   3.454   1.126  0.0572  0.5902 -0.6210
 1443poe     o2 8675   0.163   3.338   1.165 -0.0697  0.6567 -0.1806
 1443poe    c31 8676   0.303   3.338   1.152 -0.0691 -0.1861 -0.2089
 1444poe    c31 8677   2.985   5.893   6.667  0.1534  0.4343 -0.0353
 1444poe     o2 8678   2.884   5.795   6.660  0.4914  0.0801 -0.0363
 1444poe    c23 8679   2.935   5.677   6.604 -0.2363 -0.2791  0.0442
 1444poe    c23 8680   2.844   5.645   6.485 -0.2525  0.0135 -0.0215
 1444poe     o2 8681   2.714   5.676   6.530 -0.3646 -0.1860 -0.1990
 1444poe    c23 8682   2.630   5.609   6.439  0.3140 -0.9963 -0.2400
 1444poe    c23 8683   2.484   5.599   6.486  0.1739 -0.4463 -0.5556
 1444poe     o2 8684   2.442   5.720   6.545  0.6001 -0.6300  0.1361
 1444poe    c23 8685   2.317   5.710   6.610  0.1746 -0.0257 -0.5689
 1444poe    c23 8686   2.283   5.845   6.675 -0.1454 -0.6130  0.4964
 1444poe     o2 8687   2.379   5.883   6.771  0.7975 -0.1483 -0.6127
 1444poe    c31 8688   2.322   5.973   6.864  0.1782 -0.1713 -0.9618
 1445poe    c31 8689   4.121   0.875   1.764  0.8977  0.0221  0.7502
 1445poe     o2 8690   4.189   0.765   1.818  0.7375 -0.4758 -0.0445
 1445poe    c23 8691   4.101   0.716   1.917  0.5618  0.1175  0.0954
 1445poe    c23 8692   4.171   0.619   2.013  0.0205  0.2275  0.6030
 1445poe     o2 8693   4.243   0.510   1.960 -0.7314 -0.2223  0.4915
 1445poe    c23 8694   4.343   0.465   2.048  0.0065  0.0219 -0.2130
 1445poe    c23 8695   4.422   0.342   1.998 -0.3494 -0.1223 -0.4220
 1445poe     o2 8696   4.473   0.371   1.869  0.1274  0.4739 -0.1020
 1445poe    c23 8697   4.537   0.255   1.820 -0.1051  0.3123 -0.0235
 1445poe    c23 8698   4.507   0.276   1.670 -0.5067  0.2013  0.0390
 1445poe     o2 8699   4.561   0.403   1.640 -0.0836 -0.1589 -0.7533
 1445poe    c31 8700   4.544   0.432   1.503 -0.0912  0.1627 -0.6845
 1446poe    c31 8701   2.854   4.850   5.132 -0.1683 -0.4593 -0.4389
 1446poe     o2 8702   2.968   4.784   5.181 -0.0950 -0.0903 -0.1055
 1446poe    c23 8703   3.040   4.852   5.282  0.0350 -0.4275  0.0335
 1446poe    c23 8704   3.190   4.863   5.248  0.1218 -0.3140  0.4534
 1446poe     o2 8705   3.223   4.737   5.193  0.0742 -0.1642  0.0802
 1446poe    c23 8706   3.357   4.721   5.151 -0.0619 -0.3539 -0.2791
 1446poe    c23 8707   3.380   4.573   5.113  0.6669 -0.2448 -0.2640
 1446poe     o2 8708   3.327   4.531   4.990  0.4591  0.1933 -0.3250
 1446poe    c23 8709   3.337   4.395   4.955 -0.4565  0.0541 -0.0864
 1446poe    c23 8710   3.476   4.349   4.906 -0.2366 -0.0218  0.6021
 1446poe     o2 8711   3.516   4.221   4.864  0.4182  0.3251  0.1536
 1446poe    c31 8712   3.646   4.215   4.811  0.2459  0.5470 -0.3029
 1447poe    c31 8713   0.508   0.929   2.262  0.7750  0.0374  0.8977
 1447poe     o2 8714   0.430   0.828   2.323  0.2349 -0.0113  0.1430
 1447poe    c23 8715   0.293   0.838   2.289  0.1414 -0.3761  0.4052
 1447poe    c23 8716   0.213   0.761   2.396 -0.7668  0.3429  0.2560
 1447poe     o2 8717   0.262   0.827   2.511  0.1999  0.5333 -0.2511
 1447poe    c23 8718   0.194   0.792   2.629  0.5409 -0.3671 -0.3137
 1447poe    c23 8719   0.279   0.839   2.748 -0.0743  0.0300 -0.0229
 1447poe     o2 8720   0.409   0.793   2.719 -0.1578 -0.1999 -0.0316
 1447poe    c23 8721   0.486   0.790   2.837  0.1353 -0.1046 -0.2190
 1447poe    c23 8722   0.585   0.673   2.853  0.6418  0.4277  0.6243
 1447poe     o2 8723   0.660   0.638   2.739  0.0568  0.3694  0.2514
 1447poe    c31 8724   0.778   0.574   2.782  0.1520 -0.0154 -0.5556
 1448poe    c31 8725   3.081   4.830   6.893 -0.4847 -0.0436 -0.3196
 1448poe     o2 8726   3.124   4.898   7.008 -0.3026 -0.0323 -0.3945
 1448poe    c23 8727   3.261   4.877   7.033 -0.4213 -0.7260 -0.3239
 1448poe    c23 8728   3.319   4.957   7.151 -0.3272 -0.4512 -0.5537
 1448poe     o2 8729   3.307   5.096   7.137 -0.4080 -0.4051 -0.0572
 1448poe    c23 8730   3.348   5.153   7.259 -0.6703 -0.0069 -0.1535
 1448poe    c23 8731   3.354   5.307   7.255  0.4569 -0.0385 -0.0138
 1448poe     o2 8732   3.421   5.340   7.135 -0.1498 -0.0573 -0.3640
 1448poe    c23 8733   3.448   5.477   7.118 -0.6685  0.0769 -0.1130
 1448poe    c23 8734   3.564   5.486   7.017 -0.6066  0.1504 -0.0358
 1448poe     o2 8735   3.545   5.406   6.902  0.1262 -0.0992  0.0133
 1448poe    c31 8736   3.651   5.425   6.811  0.2408  0.9524  0.3525
 1449poe    c31 8737   5.062   0.212   0.498  0.1029  0.4638  0.3424
 1449poe     o2 8738   5.198   0.240   0.469  0.0058  0.1940 -0.4008
 1449poe    c23 8739   5.241   0.374   0.481 -0.1347  0.2409 -0.4138
 1449poe    c23 8740   5.382   0.397   0.424  0.1003 -0.2314 -0.0308
 1449poe     o2 8741   5.403   0.320   0.308  0.2669 -0.0660 -0.1111
 1449poe    c23 8742   5.540   0.322   0.277  0.2080 -0.0479 -0.3711
 1449poe    c23 8743   5.580   0.238   0.154  0.1337 -0.2045 -0.2884
 1449poe     o2 8744   5.518   0.114   0.176  0.3653 -0.3343 -0.3584
 1449poe    c23 8745   5.562   0.028   0.074  0.3059 -0.4705 -0.2702
 1449poe    c23 8746   5.480  -0.100   0.050 -0.0605 -0.1351 -0.8602
 1449poe     o2 8747   5.349  -0.069   0.009 -0.1864  0.0382 -0.3434
 1449poe    c31 8748   5.296  -0.189  -0.043  0.0471 -0.4656  0.5732
 1450poe    c31 8749   4.025   5.242   2.109  0.0096 -0.2907  0.4041
 1450poe     o2 8750   4.137   5.167   2.066  0.2441  0.3034 -0.0440
 1450poe    c23 8751   4.195   5.098   2.174 -0.3242 -0.0030  0.0710
 1450poe    c23 8752   4.294   4.997   2.113  0.4425  0.5315  0.4226
 1450poe     o2 8753   4.346   5.045   1.991 -0.1934 -0.6220 -0.3143
 1450poe    c23 8754   4.427   4.947   1.928  0.9481  0.1486 -0.0737
 1450poe    c23 8755   4.502   5.002   1.805  0.3260  0.5869 -0.2639
 1450poe     o2 8756   4.408   5.075   1.729 -0.1738  0.2824  0.0535
 1450poe    c23 8757   4.371   4.993   1.620 -0.1149  0.4215 -0.0716
 1450poe    c23 8758   4.293   5.059   1.505 -0.5173 -0.2754 -0.2070
 1450poe     o2 8759   4.186   5.140   1.549  0.1777  0.5076  0.0834
 1450poe    c31 8760   4.164   5.228   1.441  0.3118 -0.1940 -0.5249
 1451poe    c31 8761   6.152   4.972   2.580  0.2933  0.5121 -0.1546
 1451poe     o2 8762   6.250   4.967   2.681  0.2930  0.2006 -0.1699
 1451poe    c23 8763   6.276   4.835   2.724 -0.0791  0.2721  0.2675
 1451poe    c23 8764   6.360   4.840   2.853  0.3124 -0.5593  0.0504
 1451poe     o2 8765   6.457   4.937   2.819 -0.6001  0.4263  0.2018
 1451poe    c23 8766   6.552   4.957   2.921 -0.2890  0.2581 -0.0557
 1451poe    c23 8767   6.663   5.050   2.868  0.1954 -0.6926 -0.7477
 1451poe     o2 8768   6.607   5.165   2.808  0.4454 -0.0455  0.2308
 1451poe    c23 8769   6.697   5.269   2.779  0.2911  0.2423  0.7724
 1451poe    c23 8770   6.622   5.386   2.712  0.2561 -0.1350  0.1375
 1451poe     o2 8771   6.593   5.367   2.576 -0.0273 -0.2302  0.2117
 1451poe    c31 8772   6.703   5.423   2.507 -0.0588 -0.1960  0.1890
 1452poe    c31 8773   5.922   3.619   1.621 -0.6924  0.0884  0.1811
 1452poe     o2 8774   6.015   3.685   1.703  0.1625  0.1597 -0.8225
 1452poe    c23 8775   6.009   3.822   1.671  0.2215  0.2508 -0.4512
 1452poe    c23 8776   6.124   3.895   1.743 -0.3015  0.4827  0.1553
 1452poe     o2 8777   6.239   3.818   1.719 -0.1936  0.6465  0.1506
 1452poe    c23 8778   6.360   3.887   1.744  0.2405 -0.0985  0.1230
 1452poe    c23 8779   6.472   3.872   1.639 -0.1837 -0.0763 -0.3382
 1452poe     o2 8780   6.505   3.738   1.610 -0.3625 -0.1261 -0.3112
 1452poe    c23 8781   6.587   3.732   1.495 -0.4034 -0.2910 -0.3316
 1452poe    c23 8782   6.595   3.588   1.441 -0.4899 -0.4459  0.0650
 1452poe     o2 8783   6.474   3.515   1.444 -0.8787  0.1826 -0.2495
 1452poe    c31 8784   6.483   3.383   1.396  0.9073  0.3034 -0.3137
 1453poe    c31 8785   0.942   1.447   6.428 -0.7962  0.2420 -0.1318
 1453poe     o2 8786   0.866   1.343   6.370 -0.0322 -0.4965  0.1672
 1453poe    c23 8787   0.946   1.269   6.281 -0.3623 -0.8646  0.1724
 1453poe    c23 8788   0.864   1.144   6.247 -0.2775 -0.7939 -0.2968
 1453poe     o2 8789   0.728   1.177   6.269 -0.0891 -0.4611  0.3733
 1453poe    c23 8790   0.641   1.068   6.250 -0.3432 -0.1567 -0.2201
 1453poe    c23 8791   0.498   1.109   6.290 -0.1501  0.0211  0.2923
 1453poe     o2 8792   0.530   1.205   6.389  0.1751 -0.0797  0.2865
 1453poe    c23 8793   0.461   1.186   6.511 -0.7182  0.3354 -0.1466
 1453poe    c23 8794   0.523   1.279   6.617 -0.0591 -0.3008  0.0314
 1453poe     o2 8795   0.662   1.274   6.598 -0.0121  0.2525  0.2244
 1453poe    c31 8796   0.729   1.194   6.692  0.3606  0.2659 -0.0251
 1454poe    c31 8797   0.176   5.439   6.106 -0.5577  0.4913 -0.2347
 1454poe     o2 8798   0.217   5.490   6.231 -0.1801 -0.3116 -0.0234
 1454poe    c23 8799   0.168   5.622   6.243  0.5174 -0.0640  0.1474
 1454poe    c23 8800   0.169   5.663   6.392  0.2324  0.6168 -0.0356
 1454poe     o2 8801   0.298   5.626   6.434  0.2143  0.5800 -0.0119
 1454poe    c23 8802   0.309   5.644   6.573 -0.3876 -0.5378  0.1915
 1454poe    c23 8803   0.453   5.619   6.623 -0.3639 -0.2603  0.2663
 1454poe     o2 8804   0.498   5.505   6.553  0.4650  0.2554 -0.0495
 1454poe    c23 8805   0.616   5.450   6.607  0.0358 -0.4681  0.1615
 1454poe    c23 8806   0.648   5.312   6.548  0.0971 -0.3853  0.0022
 1454poe     o2 8807   0.694   5.328   6.415 -0.2626 -0.0088 -0.0784
 1454poe    c31 8808   0.746   5.211   6.358  0.5429  0.4429 -0.2892
 1455poe    c31 8809   0.635   0.211   6.253  0.0221 -0.3175  0.1557
 1455poe     o2 8810   0.699   0.287   6.153 -0.3635  0.0468  0.1846
 1455poe    c23 8811   0.691   0.237   6.022  0.3239  0.6303 -0.0943
 1455poe    c23 8812   0.794   0.288   5.920  0.2507  0.1682 -0.4051
 1455poe     o2 8813   0.920   0.229   5.938  0.2108  0.2401  0.1128
 1455poe    c23 8814   1.017   0.328   5.908 -0.1670  0.8076  0.7197
 1455poe    c23 8815   1.157   0.264   5.919 -0.8237 -0.7655  0.2878
 1455poe     o2 8816   1.198   0.233   6.051  0.2756 -0.2743  0.0674
 1455poe    c23 8817   1.312   0.150   6.054  0.3801 -0.1403 -0.1625
 1455poe    c23 8818   1.360   0.110   6.194 -0.1183 -0.0767  0.0266
 1455poe     o2 8819   1.263   0.106   6.297  0.1667 -0.4132  0.2860
 1455poe    c31 8820   1.282   0.210   6.390 -0.6442 -0.5675  0.6313
 1456poe    c31 8821   0.697   6.693   1.216  0.2664 -0.2694 -0.2457
 1456poe     o2 8822   0.823   6.674   1.275 -0.1296 -0.1836  0.6433
 1456poe    c23 8823   0.912   6.604   1.191 -0.1602  0.4270  0.0908
 1456poe    c23 8824   1.004   6.527   1.288 -0.2919  0.3048  0.1196
 1456poe     o2 8825   1.078   6.628   1.352  0.7536 -0.1526 -0.3496
 1456poe    c23 8826   1.180   6.596   1.444 -0.2656 -0.6667  0.6223
 1456poe    c23 8827   1.130   6.624   1.587  0.8674  0.4186  0.8188
 1456poe     o2 8828   1.105   6.760   1.616  0.0250  0.3841  0.2634
 1456poe    c23 8829   1.078   6.786   1.752 -0.5178  0.1231  0.2093
 1456poe    c23 8830   1.103   6.936   1.772  0.5666  0.0732 -0.7105
 1456poe     o2 8831   1.049   7.000   1.659 -0.1442 -0.0749 -0.4574
 1456poe    c31 8832   1.036   7.136   1.694 -0.4168 -0.2474  0.1272
 1457poe    c31 8833   1.389   2.256   2.118 -0.0119  0.1322 -0.2998
 1457poe     o2 8834   1.458   2.372   2.160 -0.1964  0.3402 -0.5729
 1457poe    c23 8835   1.401   2.483   2.094 -0.4584  0.4243 -0.2102
 1457poe    c23 8836   1.484   2.604   2.139 -0.2315  0.1023  0.2394
 1457poe     o2 8837   1.499   2.576   2.277 -0.3537  0.3240  0.2983
 1457poe    c23 8838   1.575   2.675   2.343 -0.2776  0.6665 -0.2910
 1457poe    c23 8839   1.544   2.679   2.494  0.0861  0.0786 -0.1978
 1457poe     o2 8840   1.559   2.542   2.527 -0.8062  0.0153 -0.0220
 1457poe    c23 8841   1.575   2.512   2.664  0.5402  0.1478 -0.1296
 1457poe    c23 8842   1.566   2.359   2.680 -0.1638  0.2190  0.2277
 1457poe     o2 8843   1.434   2.324   2.646 -0.1070  0.3062 -0.0881
 1457poe    c31 8844   1.347   2.290   2.751 -0.0682  0.2549 -0.0723
 1458poe    c31 8845   4.336   0.800   2.825  0.1037 -0.2237 -0.1603
 1458poe     o2 8846   4.330   0.724   2.943  0.3863 -0.3162 -0.2035
 1458poe    c23 8847   4.437   0.743   3.032  0.3480 -0.3128 -0.1582
 1458poe    c23 8848   4.402   0.658   3.156  0.5775 -0.0590  0.0821
 1458poe     o2 8849   4.393   0.528   3.104 -0.4554 -0.1259  0.4115
 1458poe    c23 8850   4.398   0.437   3.212  0.2653 -0.0550  0.4400
 1458poe    c23 8851   4.385   0.303   3.137 -0.5957  0.2027  0.1141
 1458poe     o2 8852   4.268   0.315   3.059 -0.0983  0.8030 -0.5445
 1458poe    c23 8853   4.249   0.198   2.982 -0.6052  0.1629  0.5372
 1458poe    c23 8854   4.115   0.172   2.911 -0.2782 -0.2460  0.0688
 1458poe     o2 8855   4.089   0.259   2.802  0.2718  0.1740  0.2647
 1458poe    c31 8856   3.971   0.213   2.739  0.6686  0.0944 -0.4245
 1459poe    c31 8857   4.767   6.671   3.305  0.0941 -0.5997  0.0324
 1459poe     o2 8858   4.702   6.615   3.418 -0.3915 -0.3487 -0.1200
 1459poe    c23 8859   4.598   6.704   3.454  0.1421  0.1184  0.3001
 1459poe    c23 8860   4.539   6.675   3.593  0.2538 -0.3278  0.2585
 1459poe     o2 8861   4.487   6.545   3.611 -0.3050 -0.1487 -0.0278
 1459poe    c23 8862   4.476   6.532   3.751 -0.2381 -0.3514 -0.0411
 1459poe    c23 8863   4.440   6.387   3.787 -0.4402 -0.2299  0.2508
 1459poe     o2 8864   4.545   6.302   3.748 -0.3148  0.1052 -0.1543
 1459poe    c23 8865   4.509   6.172   3.788 -0.3423  0.2213  0.2031
 1459poe    c23 8866   4.630   6.078   3.774 -0.1678  0.4185  0.3930
 1459poe     o2 8867   4.706   6.140   3.672  0.4948 -0.1302  0.5496
 1459poe    c31 8868   4.829   6.073   3.652  0.5012  0.2404 -0.7343
 1460poe    c31 8869   1.419   3.351   4.713 -0.3526 -0.0136 -0.1809
 1460poe     o2 8870   1.339   3.426   4.802 -0.4105 -0.2702 -0.0171
 1460poe    c23 8871   1.205   3.385   4.785 -0.3549 -0.2713 -0.4567
 1460poe    c23 8872   1.121   3.500   4.843  0.0589 -0.1087 -0.1723
 1460poe     o2 8873   1.174   3.519   4.972  0.5399  0.2627 -0.4235
 1460poe    c23 8874   1.082   3.605   5.037  0.1862 -0.5352  0.1505
 1460poe    c23 8875   1.147   3.661   5.165 -0.0650  0.7958 -0.2941
 1460poe     o2 8876   1.255   3.741   5.124  0.7887 -0.3002 -0.2129
 1460poe    c23 8877   1.345   3.778   5.226  0.2159  0.1873  0.1223
 1460poe    c23 8878   1.283   3.884   5.318  0.2065  0.1235  0.1901
 1460poe     o2 8879   1.278   4.004   5.245 -0.0858  0.2247  0.3704
 1460poe    c31 8880   1.171   4.083   5.292 -0.2590  0.1872  0.0417
 1461poe    c31 8881   6.880   4.086   3.525 -0.0775 -0.3385  0.1340
 1461poe     o2 8882   6.834   4.157   3.413 -0.2516 -0.8393 -0.1174
 1461poe    c23 8883   6.886   4.110   3.291 -0.0248  0.1244 -0.4021
 1461poe    c23 8884   6.792   4.119   3.170  0.2986  0.2669 -0.6453
 1461poe     o2 8885   6.778   4.255   3.135  0.5081  0.4477 -0.0391
 1461poe    c23 8886   6.705   4.281   3.017  0.2356  0.1524  0.0604
 1461poe    c23 8887   6.689   4.434   3.012  0.0642  0.1560  0.6526
 1461poe     o2 8888   6.639   4.493   3.130  0.1604  0.2012  0.6710
 1461poe    c23 8889   6.664   4.631   3.136  0.0784  0.2187  0.6008
 1461poe    c23 8890   6.569   4.691   3.242 -0.1001 -0.1413  0.6453
 1461poe     o2 8891   6.568   4.587   3.337 -0.6215 -0.7888 -0.0551
 1461poe    c31 8892   6.486   4.628   3.444  0.5231  0.9608  0.2042
 1462poe    c31 8893   1.586   5.803   1.975  0.3527 -0.2330 -0.3666
 1462poe     o2 8894   1.626   5.825   1.842  0.2131  0.5208 -0.2908
 1462poe    c23 8895   1.634   5.960   1.804 -0.2424  0.5502 -0.2838
 1462poe    c23 8896   1.761   5.963   1.717  0.1516  0.0331  0.2705
 1462poe     o2 8897   1.758   5.894   1.594  0.1538 -0.0595  0.3220
 1462poe    c23 8898   1.690   5.957   1.488  0.0259 -0.0670  0.3986
 1462poe    c23 8899   1.613   5.869   1.387  0.2936 -0.4901  0.5587
 1462poe     o2 8900   1.707   5.819   1.295  0.1381 -0.1742  0.2251
 1462poe    c23 8901   1.642   5.727   1.210  0.2396 -0.3042  0.2883
 1462poe    c23 8902   1.725   5.728   1.080 -0.0987 -0.0387  0.0739
 1462poe     o2 8903   1.861   5.692   1.080 -0.1661 -0.2977  0.8088
 1462poe    c31 8904   1.889   5.553   1.081 -0.0525 -0.2799  0.0610
 1463poe    c31 8905   0.123   1.014   5.688  0.3626 -0.2504 -0.3449
 1463poe     o2 8906   0.044   0.932   5.771 -0.1636 -0.0645 -0.6599
 1463poe    c23 8907   0.087   0.935   5.906 -0.6081 -0.0633 -0.5159
 1463poe    c23 8908   0.020   0.828   5.994  0.1456  0.1155  0.2863
 1463poe     o2 8909  -0.119   0.823   5.974  0.2151  0.0480 -0.1855
 1463poe    c23 8910  -0.187   0.740   6.065  0.0195  0.0911 -0.2903
 1463poe    c23 8911  -0.339   0.737   6.038  0.0047  0.0326 -0.2013
 1463poe     o2 8912  -0.392   0.865   6.013 -0.1940 -0.0714 -0.3100
 1463poe    c23 8913  -0.521   0.856   5.957 -0.2692  0.7410 -0.2815
 1463poe    c23 8914  -0.572   0.994   5.912 -0.3415  0.6768 -0.3988
 1463poe     o2 8915  -0.467   1.049   5.836  0.1971  0.4340  0.1618
 1463poe    c31 8916  -0.511   1.065   5.703 -0.1020  0.0583  0.2139
 1464poe    c31 8917   1.690   4.555   6.146  0.2491 -0.3680 -0.1231
 1464poe     o2 8918   1.734   4.422   6.138 -0.0494 -0.4959  0.3622
 1464poe    c23 8919   1.833   4.393   6.235  0.4369  0.2091  0.0872
 1464poe    c23 8920   1.873   4.247   6.205  0.4272  0.1989  0.1221
 1464poe     o2 8921   1.759   4.165   6.196  0.4696  0.0957  0.4965
 1464poe    c23 8922   1.776   4.026   6.176  0.0470  0.0720  0.2907
 1464poe    c23 8923   1.659   3.968   6.095 -0.1170  0.4042  0.2884
 1464poe     o2 8924   1.541   4.026   6.148 -0.2882 -0.1337  0.4985
 1464poe    c23 8925   1.435   3.972   6.073 -0.0775  0.1849 -0.0398
 1464poe    c23 8926   1.307   3.999   6.154 -0.1476 -0.0365 -0.0749
 1464poe     o2 8927   1.316   4.133   6.196  0.2492 -0.3653  0.9284
 1464poe    c31 8928   1.204   4.153   6.279 -0.2063  0.1798  0.2033
 1465poe    c31 8929   0.892   1.739   4.420  0.3872  0.1215 -0.2790
 1465poe     o2 8930   0.845   1.870   4.437 -0.8536 -0.3035 -0.3268
 1465poe    c23 8931   0.808   1.866   4.573 -0.3324 -0.2463 -0.1817
 1465poe    c23 8932   0.770   1.994   4.651  0.3038 -0.3314  0.2773
 1465poe     o2 8933   0.663   2.061   4.588  0.0600 -0.4052  0.6105
 1465poe    c23 8934   0.650   2.183   4.657  0.8788 -0.3374  0.6508
 1465poe    c23 8935   0.703   2.302   4.575  0.2577 -0.0223  0.7061
 1465poe     o2 8936   0.840   2.299   4.542  0.1940 -0.3647  0.4782
 1465poe    c23 8937   0.898   2.426   4.561 -0.1620 -0.1075 -0.1180
 1465poe    c23 8938   0.976   2.490   4.446  0.5275 -0.4450  0.1553
 1465poe     o2 8939   1.097   2.435   4.398  0.4551  0.0680 -0.6409
 1465poe    c31 8940   1.085   2.385   4.267 -0.1085  0.3462 -0.7012
 1466poe    c31 8941   4.854   0.124   5.973  0.0441 -0.2305 -0.3312
 1466poe     o2 8942   4.963   0.056   5.915  0.3186  0.1642 -0.2780
 1466poe    c23 8943   4.926  -0.073   5.875  0.2501  0.0823  0.0485
 1466poe    c23 8944   5.048  -0.167   5.869  0.0176 -0.1878 -0.5405
 1466poe     o2 8945   5.106  -0.191   5.995 -0.1844  0.1182 -0.3893
 1466poe    c23 8946   5.162  -0.318   6.016  0.6556  0.5294 -0.1073
 1466poe    c23 8947   5.188  -0.343   6.166 -0.4202  0.7138  0.1162
 1466poe     o2 8948   5.246  -0.226   6.219 -0.9572  0.6437  0.8800
 1466poe    c23 8949   5.315  -0.236   6.342  0.2818  0.4090  0.1828
 1466poe    c23 8950   5.232  -0.275   6.465  0.6261  0.4723  0.4357
 1466poe     o2 8951   5.111  -0.203   6.475 -0.0006 -0.5605  0.5113
 1466poe    c31 8952   5.086  -0.142   6.600  0.1655  0.0928  0.2287
 1467poe    c31 8953   0.995   2.240   6.215  0.1564 -0.4036 -0.1129
 1467poe     o2 8954   1.105   2.261   6.130  0.0600  0.5029 -0.0254
 1467poe    c23 8955   1.081   2.350   6.023  0.0261  0.8904  0.3021
 1467poe    c23 8956   1.208   2.373   5.939 -0.1197 -0.2598 -0.2576
 1467poe     o2 8957   1.257   2.259   5.873  0.0730 -0.4485  0.2069
 1467poe    c23 8958   1.177   2.225   5.762  0.2931  0.5364 -0.2670
 1467poe    c23 8959   1.259   2.136   5.667  0.5867  0.1628  0.3313
 1467poe     o2 8960   1.349   2.081   5.762 -0.0352 -0.2666  0.6814
 1467poe    c23 8961   1.396   1.959   5.709 -0.3062 -0.0077 -0.1826
 1467poe    c23 8962   1.536   1.941   5.771 -0.2022  0.2416 -0.3443
 1467poe     o2 8963   1.535   1.988   5.904 -0.4344 -0.0323 -0.2483
 1467poe    c31 8964   1.640   1.960   5.994 -0.6624 -0.3980 -0.0997
 1468poe    c31 8965   2.897   3.493   3.865  0.3682  0.1230 -0.2728
 1468poe     o2 8966   3.013   3.502   3.944 -0.0588  0.4676  0.3220
 1468poe    c23 8967   3.123   3.431   3.891 -0.3255  0.2919 -0.0055
 1468poe    c23 8968   3.223   3.389   4.001 -1.0339  0.0904  0.5698
 1468poe     o2 8969   3.275   3.504   4.063 -0.0698  0.1706 -0.3650
 1468poe    c23 8970   3.359   3.477   4.173 -0.6866  0.3200  0.1458
 1468poe    c23 8971   3.360   3.596   4.270  0.1617  0.1003  0.4166
 1468poe     o2 8972   3.245   3.595   4.353  0.0075 -0.1043  0.2010
 1468poe    c23 8973   3.223   3.700   4.444  0.2025  0.0321  0.0911
 1468poe    c23 8974   3.115   3.661   4.546  0.0780  0.9002  0.2977
 1468poe     o2 8975   3.014   3.593   4.476  0.4865  0.5391  0.0572
 1468poe    c31 8976   2.898   3.565   4.552  0.3059 -0.1897 -0.4675
 1469poe    c31 8977   2.095   3.394   5.210  0.2875  0.7095 -0.4202
 1469poe     o2 8978   2.227   3.367   5.168  0.3137  0.2833 -0.0762
 1469poe    c23 8979   2.305   3.307   5.269 -0.0516  0.3154  0.2280
 1469poe    c23 8980   2.451   3.280   5.228 -0.1323  0.0310  0.1208
 1469poe     o2 8981   2.454   3.209   5.106 -0.0627  0.2517 -0.0066
 1469poe    c23 8982   2.588   3.215   5.061  0.0223 -0.6186  0.1165
 1469poe    c23 8983   2.608   3.092   4.971 -0.0452 -0.3052 -0.3312
 1469poe     o2 8984   2.528   3.110   4.856  0.1442  0.2777 -0.3751
 1469poe    c23 8985   2.572   3.035   4.745  0.3926  0.4219 -0.3733
 1469poe    c23 8986   2.457   3.045   4.644  0.0395 -0.8467 -0.1114
 1469poe     o2 8987   2.344   3.031   4.728  0.4111 -0.7823  0.4041
 1469poe    c31 8988   2.240   3.012   4.634  0.3647 -0.6066  0.4203
 1470poe    c31 8989   3.358   0.972   6.050 -0.0826  0.1496  0.2736
 1470poe     o2 8990   3.256   0.915   6.129 -0.0419  0.2971  0.4346
 1470poe    c23 8991   3.158   0.857   6.046  0.0679  0.5422  0.1316
 1470poe    c23 8992   3.082   0.763   6.141  0.4895  0.3005  0.2290
 1470poe     o2 8993   3.032   0.834   6.251  0.5195  0.1811  0.3202
 1470poe    c23 8994   2.945   0.745   6.318 -0.2100  0.4821 -0.2175
 1470poe    c23 8995   2.907   0.808   6.453  0.3111  0.3414 -0.0030
 1470poe     o2 8996   3.022   0.859   6.516  0.5541 -0.5183  0.2575
 1470poe    c23 8997   2.965   0.922   6.629  0.1349 -0.0537 -0.2086
 1470poe    c23 8998   3.085   0.958   6.720 -0.4993  0.4192  0.4475
 1470poe     o2 8999   3.141   1.084   6.690  0.2425 -0.1493 -0.6355
 1470poe    c31 9000   3.251   1.104   6.775 -0.3791 -0.2615  0.2183
 1471poe    c31 9001   0.852   1.728   2.461  0.6069  0.0148 -0.3636
 1471poe     o2 9002   0.775   1.611   2.479 -0.0270  0.5732  0.6962
 1471poe    c23 9003   0.825   1.540   2.591  0.0758  0.1633  0.3916
 1471poe    c23 9004   0.731   1.427   2.636  0.3653 -0.1757  0.1538
 1471poe     o2 9005   0.756   1.378   2.766  0.3277  0.0635  0.2521
 1471poe    c23 9006   0.652   1.426   2.847  0.4208  0.2228  0.2783
 1471poe    c23 9007   0.650   1.356   2.984 -0.1774 -0.1629  0.0769
 1471poe     o2 9008   0.746   1.413   3.070 -0.2399  0.1335 -0.0489
 1471poe    c23 9009   0.745   1.319   3.176 -0.2280  0.7940  0.5495
 1471poe    c23 9010   0.841   1.375   3.282  0.0299  0.5189  0.4626
 1471poe     o2 9011   0.969   1.401   3.228 -0.1680 -0.5062 -0.5562
 1471poe    c31 9012   1.072   1.394   3.325 -0.0285 -0.3895 -0.6952
 1472poe    c31 9013   4.088   4.444   3.368 -1.0213 -0.0125  0.2127
 1472poe     o2 9014   4.049   4.373   3.252 -0.2158  0.3017 -0.2639
 1472poe    c23 9015   4.153   4.378   3.158  0.1451 -0.6216  0.0734
 1472poe    c23 9016   4.133   4.290   3.034  0.7643 -0.4644 -0.1439
 1472poe     o2 9017   4.060   4.173   3.066 -0.1009  0.0946 -0.0359
 1472poe    c23 9018   4.064   4.079   2.961 -0.3055  0.4348 -0.3515
 1472poe    c23 9019   3.988   3.958   3.018  0.3500  0.2681  0.1718
 1472poe     o2 9020   3.895   3.988   3.120  0.3332 -0.0765  0.2603
 1472poe    c23 9021   3.782   3.904   3.111  0.4958 -0.2633 -0.0763
 1472poe    c23 9022   3.676   3.953   3.213  0.7273  0.0177  0.0320
 1472poe     o2 9023   3.619   4.081   3.199  0.1505 -0.2582 -0.1782
 1472poe    c31 9024   3.509   4.084   3.288 -0.0087  0.2383 -0.3886
 1473poe    c31 9025   2.743   0.085   0.766  0.2867  0.3318  0.1645
 1473poe     o2 9026   2.814   0.117   0.883  0.2373  0.0978  0.2594
 1473poe    c23 9027   2.951   0.095   0.860  0.1234  0.3282 -0.6895
 1473poe    c23 9028   3.032   0.195   0.944 -0.6121  0.2649  0.1126
 1473poe     o2 9029   3.001   0.190   1.082  0.0323  0.4237  0.2693
 1473poe    c23 9030   3.070   0.294   1.147  0.4832 -0.0683  0.5846
 1473poe    c23 9031   3.078   0.253   1.295  0.4512  0.5270  0.7526
 1473poe     o2 9032   2.952   0.234   1.355  0.3002 -0.2436  0.1971
 1473poe    c23 9033   2.949   0.153   1.470 -0.4095 -0.3133  0.1334
 1473poe    c23 9034   2.799   0.143   1.506 -0.5354  0.1395 -0.2546
 1473poe     o2 9035   2.735   0.127   1.382 -0.0469  0.2619 -0.5286
 1473poe    c31 9036   2.594   0.128   1.397  0.0035  0.3077 -0.0554
 1474poe    c31 9037   5.163   2.208   6.559  0.3745 -0.3202 -0.3430
 1474poe     o2 9038   5.279   2.206   6.638 -0.0294  0.0973  0.2719
 1474poe    c23 9039   5.302   2.076   6.688 -0.4970 -0.2703 -0.4434
 1474poe    c23 9040   5.436   2.065   6.764 -0.3093  0.4865 -0.6540
 1474poe     o2 9041   5.434   2.170   6.857 -0.1638 -0.2553  0.2014
 1474poe    c23 9042   5.494   2.137   6.980  0.1781  0.0655  0.1251
 1474poe    c23 9043   5.486   2.246   7.089  0.6697 -0.5424  0.7832
 1474poe     o2 9044   5.539   2.359   7.025 -0.3488 -0.6540 -0.3059
 1474poe    c23 9045   5.553   2.462   7.121  0.0686 -0.7569 -0.2527
 1474poe    c23 9046   5.547   2.597   7.048 -0.1134 -0.8306 -0.3763
 1474poe     o2 9047   5.422   2.624   6.989  0.0083 -0.2169 -0.3680
 1474poe    c31 9048   5.407   2.759   6.951 -1.1147  0.0665  0.9830
 1475poe    c31 9049   1.072   4.725   2.021  0.0601 -1.1492  0.3563
 1475poe     o2 9050   0.941   4.739   1.971  0.3014 -0.1358 -0.0262
 1475poe    c23 9051   0.927   4.682   1.842  0.4516 -0.1605 -0.0315
 1475poe    c23 9052   0.781   4.692   1.795  0.4921 -0.1746 -0.1600
 1475poe     o2 9053   0.697   4.694   1.908  0.0176 -0.1866 -0.5078
 1475poe    c23 9054   0.562   4.716   1.874 -0.1728  0.0403  0.3574
 1475poe    c23 9055   0.536   4.865   1.903  0.0519  0.1239  0.1396
 1475poe     o2 9056   0.591   4.908   2.025  0.8305  0.2877 -0.2669
 1475poe    c23 9057   0.570   5.045   2.050 -0.1246  0.1018 -0.0298
 1475poe    c23 9058   0.567   5.093   2.196 -0.8079 -0.9220  0.3056
 1475poe     o2 9059   0.695   5.073   2.253 -0.5310 -0.3034 -0.0922
 1475poe    c31 9060   0.682   4.984   2.361  0.5091 -0.1376  0.1776
 1476poe    c31 9061   1.234   6.362   0.694  0.2200  0.0800 -0.1415
 1476poe     o2 9062   1.184   6.279   0.591  0.0678 -0.0925  0.0705
 1476poe    c23 9063   1.070   6.339   0.533 -0.1968  0.0122  0.6934
 1476poe    c23 9064   0.933   6.301   0.593 -0.9462  0.6047 -0.6012
 1476poe     o2 9065   0.881   6.188   0.527  0.3608 -0.2579 -0.2073
 1476poe    c23 9066   0.756   6.151   0.581  0.1955 -0.1603 -0.5186
 1476poe    c23 9067   0.691   6.022   0.526 -0.4342  0.0106 -0.1900
 1476poe     o2 9068   0.751   5.897   0.548  0.4838  0.3435 -0.6922
 1476poe    c23 9069   0.681   5.776   0.529  0.2217  0.2772  0.5786
 1476poe    c23 9070   0.760   5.644   0.517 -0.1887  0.0377  0.4604
 1476poe     o2 9071   0.867   5.636   0.426 -0.4860  0.4134  0.0730
 1476poe    c31 9072   0.922   5.506   0.426 -0.5012  0.4078 -0.1522
 1477poe    c31 9073   2.079   6.684   3.169 -0.5696  0.4418 -0.2778
 1477poe     o2 9074   2.143   6.805   3.134  0.2740  0.0747 -0.0327
 1477poe    c23 9075   2.069   6.922   3.161  0.4583  0.0715  0.4982
 1477poe    c23 9076   2.165   7.042   3.149 -0.0946  0.5469  0.7434
 1477poe     o2 9077   2.233   7.028   3.026 -0.5337  0.5070  0.5034
 1477poe    c23 9078   2.339   7.119   3.012 -0.3012  0.1711  0.0721
 1477poe    c23 9079   2.415   7.094   2.880  0.1795  0.2362  0.3342
 1477poe     o2 9080   2.472   6.965   2.879 -0.6818 -0.1526 -0.4650
 1477poe    c23 9081   2.567   6.948   2.775 -0.3270  0.2316 -0.2063
 1477poe    c23 9082   2.604   6.804   2.738  0.4472  0.3448  0.0999
 1477poe     o2 9083   2.486   6.750   2.682  0.6678 -0.0411  0.0055
 1477poe    c31 9084   2.507   6.707   2.549 -0.3062  0.5832 -0.3599
 1478poe    c31 9085   3.196   3.165   2.346  0.4134 -0.1492 -0.1683
 1478poe     o2 9086   3.178   3.055   2.260  0.0177 -0.0555 -0.2099
 1478poe    c23 9087   3.193   3.101   2.127  0.5703 -0.6721 -0.3639
 1478poe    c23 9088   3.166   2.975   2.042  0.6937 -0.3556 -0.8742
 1478poe     o2 9089   3.225   2.872   2.117 -0.2239  0.0019  0.3736
 1478poe    c23 9090   3.227   2.756   2.037  0.2016  0.3571 -0.1386
 1478poe    c23 9091   3.314   2.640   2.091  0.2463  0.2455 -0.4487
 1478poe     o2 9092   3.222   2.594   2.187  0.1446  0.0497 -0.6407
 1478poe    c23 9093   3.256   2.477   2.259 -0.4799 -0.1083 -0.5986
 1478poe    c23 9094   3.155   2.439   2.369 -0.2226  0.1240 -0.2803
 1478poe     o2 9095   3.150   2.538   2.470 -0.4937 -0.0665 -0.1047
 1478poe    c31 9096   3.053   2.505   2.566 -0.5654 -0.1762 -0.2149
 1479poe    c31 9097   3.638   4.945   3.512 -0.4617  0.7207  0.0069
 1479poe     o2 9098   3.535   4.886   3.436  0.2323  0.0468 -0.4224
 1479poe    c23 9099   3.586   4.770   3.373  0.1846 -0.0420 -0.2980
 1479poe    c23 9100   3.619   4.791   3.224  0.7726 -0.3975 -0.2223
 1479poe     o2 9101   3.510   4.778   3.135  0.4009  0.8044  0.0378
 1479poe    c23 9102   3.532   4.866   3.027  0.5763 -0.0723 -0.6609
 1479poe    c23 9103   3.435   4.854   2.909  0.0614  0.1231 -0.2598
 1479poe     o2 9104   3.311   4.915   2.938  0.0528  0.0637 -0.1718
 1479poe    c23 9105   3.236   4.946   2.822  0.0781  0.1734 -0.1592
 1479poe    c23 9106   3.117   5.038   2.852  0.0169  0.1178 -0.2290
 1479poe     o2 9107   3.068   4.992   2.977  0.3091 -0.3258 -0.2776
 1479poe    c31 9108   2.944   5.055   2.996  0.4259 -0.2019  0.0852
 1480poe    c31 9109   3.427   2.292   2.675 -0.1069 -0.2019 -0.3420
 1480poe     o2 9110   3.533   2.234   2.746 -0.4866 -0.4420  0.0361
 1480poe    c23 9111   3.552   2.105   2.691 -0.4258 -0.2346 -0.4326
 1480poe    c23 9112   3.667   2.039   2.769 -0.3838  0.4666  0.1015
 1480poe     o2 9113   3.637   2.041   2.907 -0.7973  0.3784  0.0130
 1480poe    c23 9114   3.735   1.962   2.970 -0.8328  0.5629  0.3025
 1480poe    c23 9115   3.709   1.983   3.120  0.2942  0.2282  0.5507
 1480poe     o2 9116   3.688   2.122   3.135 -0.5476  0.1644 -0.0184
 1480poe    c23 9117   3.693   2.165   3.269 -0.0297 -0.5753  0.2050
 1480poe    c23 9118   3.671   2.317   3.279  0.3167 -0.4914 -0.2844
 1480poe     o2 9119   3.553   2.362   3.217  0.5665 -0.0568 -0.4472
 1480poe    c31 9120   3.458   2.377   3.319  0.8341  0.2464 -0.2400
 1481poe    c31 9121   1.513   2.020   1.661 -0.2191 -0.1055  0.0620
 1481poe     o2 9122   1.583   1.992   1.780  0.3628  0.6924 -0.0879
 1481poe    c23 9123   1.631   2.114   1.832  0.2980  0.7095 -0.0677
 1481poe    c23 9124   1.758   2.111   1.919  0.5085 -0.6442 -0.3983
 1481poe     o2 9125   1.721   2.048   2.039  0.2041  0.2227 -0.0269
 1481poe    c23 9126   1.820   2.053   2.139 -0.0738  0.1456  0.2553
 1481poe    c23 9127   1.777   1.985   2.270 -0.0214  0.4790  0.4489
 1481poe     o2 9128   1.656   2.045   2.310 -0.1138  0.5768  0.0319
 1481poe    c23 9129   1.596   1.964   2.409 -0.0951  0.6324  0.0889
 1481poe    c23 9130   1.446   1.934   2.395  0.0413 -0.1603  0.2547
 1481poe     o2 9131   1.400   1.870   2.278 -0.0196  0.0852  0.1434
 1481poe    c31 9132   1.262   1.848   2.293 -0.0138 -0.1098 -0.0823
 1482poe    c31 9133   6.790   3.540   5.896  0.0764  0.1600  0.7545
 1482poe     o2 9134   6.746   3.572   5.766  0.5876  0.8423  0.7461
 1482poe    c23 9135   6.685   3.698   5.777  0.8262  1.0530 -0.2669
 1482poe    c23 9136   6.632   3.777   5.656 -0.6403  0.1644 -0.2320
 1482poe     o2 9137   6.734   3.798   5.561 -0.2483  0.3774  0.2357
 1482poe    c23 9138   6.684   3.850   5.440 -0.2260  0.1604  0.1314
 1482poe    c23 9139   6.795   3.948   5.396 -0.5838  0.2535 -0.5774
 1482poe     o2 9140   6.925   3.893   5.388 -0.5996  0.0849  0.2041
 1482poe    c23 9141   7.002   3.961   5.291 -0.4487 -0.3551  0.0140
 1482poe    c23 9142   7.149   3.957   5.337 -0.2298  0.1327 -0.6292
 1482poe     o2 9143   7.182   3.822   5.360  0.3977  0.3891  0.0297
 1482poe    c31 9144   7.282   3.800   5.458  0.9728  0.3138 -0.5698
 1483poe    c31 9145   3.119   5.803   5.863  0.2194 -0.0789  0.7718
 1483poe     o2 9146   3.137   5.670   5.819 -0.3306  0.1174 -0.0885
 1483poe    c23 9147   3.071   5.649   5.697  0.2457  0.0460 -0.3925
 1483poe    c23 9148   3.065   5.499   5.661  0.5881 -0.0839  0.0772
 1483poe     o2 9149   3.193   5.442   5.663  0.3913 -0.5133  0.7200
 1483poe    c23 9150   3.214   5.340   5.567 -0.2039 -0.6154  0.6941
 1483poe    c23 9151   3.365   5.311   5.559 -0.1540 -0.2449  0.2656
 1483poe     o2 9152   3.416   5.271   5.684 -0.2926 -0.3133  0.2995
 1483poe    c23 9153   3.556   5.269   5.701 -0.2518 -0.0087  0.0108
 1483poe    c23 9154   3.586   5.214   5.842  0.3871 -0.1627 -0.1824
 1483poe     o2 9155   3.480   5.245   5.930  0.3350  0.1866 -0.3700
 1483poe    c31 9156   3.521   5.208   6.059  0.7079  0.4130 -0.4185
 1484poe    c31 9157   5.355   0.636   0.877  0.1335  0.3409  0.4381
 1484poe     o2 9158   5.430   0.691   0.772 -0.4996 -0.0135 -0.2076
 1484poe    c23 9159   5.498   0.807   0.815  0.3416 -0.6905  0.3277
 1484poe    c23 9160   5.564   0.862   0.688 -0.1730 -0.9867 -0.0733
 1484poe     o2 9161   5.674   0.783   0.651  0.2690 -0.2064 -0.4594
 1484poe    c23 9162   5.730   0.831   0.531 -0.4833  0.2877 -0.6138
 1484poe    c23 9163   5.861   0.754   0.507 -0.5274  0.0174  0.0157
 1484poe     o2 9164   5.822   0.620   0.485 -0.2412 -0.0449 -0.1187
 1484poe    c23 9165   5.920   0.548   0.415 -0.5700  0.0295 -0.6590
 1484poe    c23 9166   5.866   0.405   0.433 -0.1067 -0.0693 -0.0023
 1484poe     o2 9167   5.847   0.382   0.570  0.1343 -0.3289 -0.0097
 1484poe    c31 9168   5.861   0.247   0.609  0.0319 -0.1320  0.7380
 1485poe    c31 9169   3.102   5.757   3.913  0.1413 -0.2782  0.4403
 1485poe     o2 9170   3.108   5.647   4.000  0.3449 -0.2432  0.4720
 1485poe    c23 9171   3.151   5.688   4.127  0.5864 -0.1513  0.3594
 1485poe    c23 9172   3.213   5.584   4.222  0.4980 -0.7481 -0.2316
 1485poe     o2 9173   3.142   5.462   4.231 -0.9724  0.0765 -0.3153
 1485poe    c23 9174   3.152   5.403   4.359  0.0372  0.5440 -0.1704
 1485poe    c23 9175   3.105   5.257   4.342 -0.4084  0.5972  0.5804
 1485poe     o2 9176   3.006   5.248   4.242 -0.0618  0.1635  0.2743
 1485poe    c23 9177   2.961   5.117   4.216 -0.0446  0.1573  0.2753
 1485poe    c23 9178   2.882   5.117   4.084 -0.7074  0.0350  0.6674
 1485poe     o2 9179   2.810   5.238   4.079 -0.4932  0.1476  0.2500
 1485poe    c31 9180   2.721   5.225   3.971 -0.0124  0.2210 -0.1618
 1486poe    c31 9181   3.887   3.991   6.109 -0.1179  0.4084 -0.4026
 1486poe     o2 9182   3.832   3.867   6.070  0.4213  0.1149 -0.2373
 1486poe    c23 9183   3.776   3.809   6.185 -0.2859  0.6890 -0.2845
 1486poe    c23 9184   3.697   3.686   6.136 -0.2313  0.4218  0.2856
 1486poe     o2 9185   3.790   3.602   6.071 -0.7029  0.2310 -0.1512
 1486poe    c23 9186   3.744   3.473   6.037 -0.1160  0.0127 -0.1416
 1486poe    c23 9187   3.866   3.410   5.969 -0.7378 -0.2442 -1.0366
 1486poe     o2 9188   3.930   3.495   5.876  0.2359  0.0835 -0.0864
 1486poe    c23 9189   4.033   3.427   5.808 -0.2662 -0.2529 -0.5198
 1486poe    c23 9190   4.136   3.513   5.733  0.0709 -0.1276  0.0763
 1486poe     o2 9191   4.220   3.593   5.812  0.0127  0.3920 -0.3807
 1486poe    c31 9192   4.328   3.649   5.741  0.1865 -0.5398 -0.8612
 1487poe    c31 9193   2.331   2.828   2.693  0.3409  0.1019  0.5035
 1487poe     o2 9194   2.332   2.877   2.560 -0.0619  0.3954  0.6060
 1487poe    c23 9195   2.238   2.797   2.491  0.5164 -0.0330  0.3052
 1487poe    c23 9196   2.271   2.781   2.342  0.1687 -0.1725  0.2423
 1487poe     o2 9197   2.258   2.901   2.269 -0.3875 -0.2586  0.1965
 1487poe    c23 9198   2.334   2.892   2.151 -0.6025 -0.1253  0.0468
 1487poe    c23 9199   2.352   3.033   2.092  0.5070 -0.4125 -0.3216
 1487poe     o2 9200   2.416   3.127   2.176 -0.1837 -0.4785  0.2931
 1487poe    c23 9201   2.459   3.238   2.101 -0.5935 -0.1357  0.5636
 1487poe    c23 9202   2.520   3.354   2.183  0.1194  0.1331 -0.3191
 1487poe     o2 9203   2.586   3.304   2.297  0.1206  0.7261 -0.0575
 1487poe    c31 9204   2.683   3.389   2.355  1.0433 -0.0157 -0.4837
 1488poe    c31 9205   5.932   0.956   6.782  0.4248 -0.3651 -0.3028
 1488poe     o2 9206   5.844   0.855   6.737  0.1090 -0.0017 -0.5080
 1488poe    c23 9207   5.726   0.900   6.674  0.1238  0.1008 -0.4639
 1488poe    c23 9208   5.636   0.776   6.661  0.1448  0.0760 -0.3728
 1488poe     o2 9209   5.683   0.661   6.593  0.0114 -0.2247  0.0408
 1488poe    c23 9210   5.670   0.667   6.453 -0.7535  0.0853  0.1182
 1488poe    c23 9211   5.689   0.519   6.414  0.0703  0.1882  0.1107
 1488poe     o2 9212   5.802   0.471   6.484 -0.0411 -0.2499 -0.0095
 1488poe    c23 9213   5.813   0.332   6.458  0.3240 -0.0927 -0.7319
 1488poe    c23 9214   5.890   0.262   6.571 -0.0447  0.2030 -0.2915
 1488poe     o2 9215   5.844   0.335   6.682  0.0996  0.2423 -0.2578
 1488poe    c31 9216   5.869   0.263   6.801  0.6832 -0.6080 -0.8834
 1489poe    c31 9217   6.578   3.982   2.808  0.2568  0.6563  0.2471
 1489poe     o2 9218   6.702   3.938   2.856 -0.1924 -0.5277  0.3633
 1489poe    c23 9219   6.807   3.999   2.784 -0.4348 -0.2742  0.2235
 1489poe    c23 9220   6.942   3.960   2.848 -0.1227  0.4384  0.0186
 1489poe     o2 9221   6.928   3.819   2.854 -0.2671  0.4716  0.5178
 1489poe    c23 9222   7.044   3.751   2.896 -0.7391 -0.5497  0.1850
 1489poe    c23 9223   7.081   3.756   3.045  0.6382  0.1191 -0.1636
 1489poe     o2 9224   6.989   3.687   3.127  0.4151  0.2279 -0.3228
 1489poe    c23 9225   7.018   3.709   3.263  0.0379 -0.3797 -0.1400
 1489poe    c23 9226   6.908   3.648   3.352 -0.1636  0.0004 -0.1247
 1489poe     o2 9227   6.799   3.731   3.320 -0.2308 -0.0247  0.0383
 1489poe    c31 9228   6.677   3.683   3.372 -0.3671 -0.1662 -0.4022
 1490poe    c31 9229   1.920   0.996   4.630  0.4997 -0.3496 -0.0599
 1490poe     o2 9230   1.966   1.003   4.497  0.0641  0.4378 -0.1781
 1490poe    c23 9231   1.859   1.051   4.419 -0.0193  0.0065 -0.3323
 1490poe    c23 9232   1.877   1.029   4.268  0.0414  0.0498 -0.3312
 1490poe     o2 9233   1.987   1.099   4.214  0.2063 -0.6060 -0.8695
 1490poe    c23 9234   1.976   1.107   4.074  0.1705  0.0996 -0.8297
 1490poe    c23 9235   2.042   0.987   4.003 -0.1954 -0.4457 -0.2555
 1490poe     o2 9236   2.177   0.982   4.044 -0.0162  0.3259 -0.7149
 1490poe    c23 9237   2.243   0.859   4.019 -0.1346  0.1779 -0.3160
 1490poe    c23 9238   2.374   0.863   4.099 -0.3182 -0.1826  0.0050
 1490poe     o2 9239   2.358   0.941   4.215 -0.1142 -0.4626  0.2240
 1490poe    c31 9240   2.471   0.944   4.300  0.3937  0.4745 -0.4524
 1491poe    c31 9241   0.028   5.610   3.953 -0.1413 -0.2845 -0.1024
 1491poe     o2 9242   0.008   5.749   3.966 -0.3265 -0.3319  0.1246
 1491poe    c23 9243   0.105   5.808   3.882 -0.3909  0.1854  0.4082
 1491poe    c23 9244   0.122   5.960   3.900  0.0401  0.1776  0.0711
 1491poe     o2 9245  -0.010   6.003   3.924  0.0237  0.4451 -0.4933
 1491poe    c23 9246  -0.036   6.142   3.927 -0.5148  0.3364 -0.1488
 1491poe    c23 9247  -0.189   6.156   3.937 -0.5705 -0.3779  0.0852
 1491poe     o2 9248  -0.229   6.064   4.036  0.1478 -0.2002  0.5453
 1491poe    c23 9249  -0.353   6.105   4.090 -0.2789  0.2825 -0.7608
 1491poe    c23 9250  -0.424   6.007   4.186 -0.4845  0.8414 -0.3367
 1491poe     o2 9251  -0.486   5.906   4.110 -0.0016  0.4550 -0.2214
 1491poe    c31 9252  -0.623   5.936   4.091 -0.1556 -0.2315 -0.2109
 1492poe    c31 9253   4.447   5.417   1.026 -0.1645  0.2637  0.2681
 1492poe     o2 9254   4.569   5.478   0.988  0.1982 -0.4752  0.2297
 1492poe    c23 9255   4.592   5.456   0.851  0.0067  0.2199  0.0848
 1492poe    c23 9256   4.695   5.557   0.795  0.2213 -0.1546 -0.2013
 1492poe     o2 9257   4.647   5.690   0.792 -0.2613 -0.3107  0.3108
 1492poe    c23 9258   4.744   5.773   0.732 -0.2743 -0.4582  0.0835
 1492poe    c23 9259   4.685   5.913   0.706  0.1814 -0.2568  0.1208
 1492poe     o2 9260   4.610   5.940   0.822 -0.3837 -0.3210 -0.2264
 1492poe    c23 9261   4.604   6.081   0.831 -0.1000 -0.3168 -0.0790
 1492poe    c23 9262   4.478   6.118   0.912  0.2552  0.2933  0.1981
 1492poe     o2 9263   4.484   6.065   1.042  0.2009 -0.5317 -0.1283
 1492poe    c31 9264   4.425   6.153   1.135  0.2270  0.3052 -0.8958
 1493poe    c31 9265   1.247   2.297   3.855  0.0866  0.1234  0.5692
 1493poe     o2 9266   1.163   2.408   3.835 -0.4959 -0.4788 -0.4198
 1493poe    c23 9267   1.039   2.366   3.888 -0.2166 -0.5773  0.1665
 1493poe    c23 9268   0.934   2.470   3.843  0.2603 -0.0707  0.2171
 1493poe     o2 9269   0.982   2.517   3.719  0.4159  0.2513  0.3965
 1493poe    c23 9270   0.920   2.642   3.697  0.0569  0.2171  1.1528
 1493poe    c23 9271   0.993   2.719   3.585  0.0415 -0.5045  0.6321
 1493poe     o2 9272   1.117   2.770   3.631  0.3130 -0.4107 -0.1955
 1493poe    c23 9273   1.175   2.862   3.542  0.4918 -0.4160 -0.0833
 1493poe    c23 9274   1.292   2.920   3.624  0.4300  0.0587 -0.3262
 1493poe     o2 9275   1.402   2.842   3.664  0.2913 -0.1876 -0.4228
 1493poe    c31 9276   1.532   2.887   3.631  0.4508 -0.1844  0.1961
 1494poe    c31 9277   2.903   2.759   4.747 -0.0315 -0.3640 -0.0662
 1494poe     o2 9278   2.930   2.635   4.808  0.0917 -0.0495  0.5277
 1494poe    c23 9279   2.822   2.544   4.805 -0.2596  0.3932 -0.9191
 1494poe    c23 9280   2.742   2.552   4.936  0.3739 -0.4267 -0.4727
 1494poe     o2 9281   2.839   2.567   5.038 -0.2147 -0.4641  0.0962
 1494poe    c23 9282   2.783   2.580   5.167  0.2856 -0.0289  0.2723
 1494poe    c23 9283   2.897   2.514   5.246  0.2436 -0.3199  0.0897
 1494poe     o2 9284   3.020   2.579   5.227  0.2072 -0.4264 -0.5080
 1494poe    c23 9285   3.133   2.511   5.276 -0.0699 -0.3007  0.3204
 1494poe    c23 9286   3.250   2.611   5.283 -0.2996 -0.0170  0.1375
 1494poe     o2 9287   3.278   2.669   5.158 -0.4238  0.0740  0.1519
 1494poe    c31 9288   3.391   2.751   5.168 -0.4775  0.1731 -0.0448
 1495poe    c31 9289   3.736   3.331   3.077  0.2060 -0.0805 -0.1735
 1495poe     o2 9290   3.620   3.390   3.024  0.1765  0.1136  0.1040
 1495poe    c23 9291   3.506   3.312   3.051 -0.2157  0.4411 -0.5774
 1495poe    c23 9292   3.392   3.349   2.955 -0.5476 -0.1538 -0.4201
 1495poe     o2 9293   3.381   3.488   2.978  0.1187 -0.1061 -0.3708
 1495poe    c23 9294   3.283   3.554   2.901 -0.0804  0.0764  0.0391
 1495poe    c23 9295   3.279   3.704   2.934  0.0664  0.2692 -0.7900
 1495poe     o2 9296   3.413   3.743   2.955  0.0296  0.1211 -0.2601
 1495poe    c23 9297   3.438   3.882   2.957  0.2506  0.0784  0.0521
 1495poe    c23 9298   3.468   3.935   2.816  0.6751  0.1947  0.1859
 1495poe     o2 9299   3.569   3.862   2.750 -0.1326 -0.4050 -0.4050
 1495poe    c31 9300   3.580   3.917   2.620  0.3379 -0.1761 -0.2713
 1496poe    c31 9301   3.557   4.072   1.879 -0.5462  0.3549  0.6058
 1496poe     o2 9302   3.435   4.003   1.859 -0.1543 -0.0787 -0.3181
 1496poe    c23 9303   3.348   4.112   1.837 -0.2508 -0.0930 -0.0037
 1496poe    c23 9304   3.203   4.066   1.813 -0.1353 -0.4332 -0.0540
 1496poe     o2 9305   3.166   3.974   1.914  0.1389 -0.2806  0.1864
 1496poe    c23 9306   3.044   3.913   1.876 -0.0274 -0.2487  0.6639
 1496poe    c23 9307   3.026   3.799   1.977 -0.1452 -0.3800  0.4932
 1496poe     o2 9308   3.141   3.717   1.983 -0.1599 -0.5007 -0.6042
 1496poe    c23 9309   3.134   3.627   2.091 -0.4358 -0.0339 -0.2268
 1496poe    c23 9310   3.221   3.503   2.064  0.4576  0.3989  0.5992
 1496poe     o2 9311   3.348   3.539   2.014  0.0704  0.1654 -0.5836
 1496poe    c31 9312   3.435   3.431   2.039 -0.0257  0.2800  0.2657
 1497poe    c31 9313   2.551   1.898   4.499  0.0185  0.6379 -0.4460
 1497poe     o2 9314   2.615   1.976   4.597  0.2464 -0.0224 -0.0646
 1497poe    c23 9315   2.540   2.084   4.649  0.3031  0.0169 -0.0656
 1497poe    c23 9316   2.610   2.123   4.781  0.3908 -0.6775  0.0961
 1497poe     o2 9317   2.749   2.110   4.760  0.3689 -0.7954  0.0178
 1497poe    c23 9318   2.833   2.140   4.870  0.0049  0.2799  0.0221
 1497poe    c23 9319   2.975   2.105   4.822 -0.0938  0.0807 -0.1269
 1497poe     o2 9320   2.968   1.972   4.774  0.0795  0.4042 -1.0675
 1497poe    c23 9321   3.097   1.923   4.745 -0.0468 -0.0867 -0.7950
 1497poe    c23 9322   3.117   1.814   4.637  0.3106 -0.0637 -0.7530
 1497poe     o2 9323   3.087   1.874   4.514 -0.3626  0.0424 -0.5414
 1497poe    c31 9324   3.174   1.837   4.409  0.3053 -0.8058  0.3041
 1498poe    c31 9325   4.858   5.221   5.623 -0.0546  0.5747  0.5315
 1498poe     o2 9326   4.939   5.201   5.737  0.4094 -0.1431  0.0849
 1498poe    c23 9327   4.999   5.317   5.791 -0.0271  0.2367 -0.2422
 1498poe    c23 9328   5.071   5.297   5.925  0.3814  0.4380 -0.4310
 1498poe     o2 9329   5.186   5.215   5.922  0.0414 -0.0645  0.0805
 1498poe    c23 9330   5.272   5.257   6.026 -0.2677 -0.3479  0.4545
 1498poe    c23 9331   5.398   5.168   6.024 -0.0069  0.0301 -0.4520
 1498poe     o2 9332   5.368   5.038   5.979 -0.0009 -0.0847 -0.1224
 1498poe    c23 9333   5.489   4.971   5.952  0.1327 -0.1103  0.5168
 1498poe    c23 9334   5.441   4.833   5.905  0.5694 -0.0314 -0.1949
 1498poe     o2 9335   5.341   4.856   5.808  0.2300 -0.1570  0.1201
 1498poe    c31 9336   5.349   4.758   5.707 -0.1762  0.4902 -0.5497
 1499poe    c31 9337   3.074   3.826   5.381 -0.1652 -0.1084 -0.2280
 1499poe     o2 9338   2.966   3.918   5.378 -0.1243 -0.0285  0.4885
 1499poe    c23 9339   3.003   4.012   5.280  0.1118 -0.1147  0.4926
 1499poe    c23 9340   2.885   4.111   5.283 -0.2087 -0.4951  0.6666
 1499poe     o2 9341   2.856   4.145   5.416  0.4850  0.1959  0.6510
 1499poe    c23 9342   2.798   4.270   5.449 -0.1553  0.0081  0.2578
 1499poe    c23 9343   2.825   4.286   5.600 -0.6179  0.1583  0.3257
 1499poe     o2 9344   2.788   4.166   5.664  0.4316 -0.5447 -0.3483
 1499poe    c23 9345   2.788   4.169   5.805  0.1237  0.0577 -0.3590
 1499poe    c23 9346   2.711   4.045   5.853  0.2610 -0.0086 -0.3073
 1499poe     o2 9347   2.770   3.924   5.813  0.5211 -0.0818  0.2825
 1499poe    c31 9348   2.684   3.816   5.839  0.1585  0.1294 -0.0294
 1500poe    c31 9349   6.253   5.878   3.357  1.1421  0.3131 -0.4299
 1500poe     o2 9350   6.228   5.947   3.477  0.1585 -0.3076 -0.2666
 1500poe    c23 9351   6.152   5.867   3.564  0.9130 -0.8069 -0.0568
 1500poe    c23 9352   6.172   5.944   3.696 -0.2207 -0.4147 -0.0975
 1500poe     o2 9353   6.161   6.081   3.666 -0.0574 -0.3804  0.0013
 1500poe    c23 9354   6.139   6.141   3.792  0.3427  0.2134 -0.2033
 1500poe    c23 9355   6.116   6.293   3.784 -0.2749  0.1301 -0.0678
 1500poe     o2 9356   6.004   6.325   3.703 -0.7328  0.1468  0.5643
 1500poe    c23 9357   5.992   6.465   3.688  0.2350  0.1209 -0.6075
 1500poe    c23 9358   5.859   6.465   3.610  0.0507  0.3416 -0.2972
 1500poe     o2 9359   5.877   6.405   3.483 -0.0723  0.0106 -0.1612
 1500poe    c31 9360   5.762   6.342   3.432 -0.5177  0.6681  0.0082
 1501poe    c31 9361   3.787   1.641   5.962 -0.5791  0.0631 -0.4685
 1501poe     o2 9362   3.701   1.714   6.046 -0.3654  0.0535 -0.2392
 1501poe    c23 9363   3.565   1.723   6.011 -0.4309  0.1611  0.0429
 1501poe    c23 9364   3.494   1.813   6.114 -0.3706 -0.0022  0.2282
 1501poe     o2 9365   3.530   1.783   6.247 -0.2035 -0.1383  0.1521
 1501poe    c23 9366   3.549   1.904   6.317  0.8954 -0.2517  0.0812
 1501poe    c23 9367   3.562   1.882   6.469  0.8614  0.5997  0.2138
 1501poe     o2 9368   3.678   1.810   6.503  0.1657 -0.6362  0.0202
 1501poe    c23 9369   3.691   1.815   6.643 -0.1324  0.4893  0.0171
 1501poe    c23 9370   3.796   1.713   6.692 -0.7338  0.0877  0.4833
 1501poe     o2 9371   3.806   1.604   6.603 -0.5566 -0.0798  0.7046
 1501poe    c31 9372   3.941   1.569   6.620 -0.2254  0.7462 -0.1206
 1502poe    c31 9373   0.569   5.913   4.039 -0.4895  0.2212  0.4441
 1502poe     o2 9374   0.623   5.852   4.154 -0.3426  0.1986  0.3625
 1502poe    c23 9375   0.579   5.718   4.153 -0.3086  0.1876 -0.3557
 1502poe    c23 9376   0.658   5.645   4.263 -1.0083  0.1836  0.1490
 1502poe     o2 9377   0.665   5.735   4.372 -0.2944  0.4743 -0.1267
 1502poe    c23 9378   0.714   5.668   4.486 -0.8814 -0.0176 -0.1562
 1502poe    c23 9379   0.725   5.765   4.605  0.0588 -0.1935 -0.0903
 1502poe     o2 9380   0.788   5.883   4.562  0.1979 -0.1790  0.1524
 1502poe    c23 9381   0.804   5.976   4.666  0.7751 -0.4530  0.3181
 1502poe    c23 9382   0.907   6.088   4.642 -0.2506  0.3125 -0.6168
 1502poe     o2 9383   0.901   6.190   4.739  0.0887 -0.4125  0.1731
 1502poe    c31 9384   0.998   6.151   4.833  0.2904 -0.0255  0.1281
 1503poe    c31 9385   3.089   3.713   0.257 -0.0326  0.1596 -0.8053
 1503poe     o2 9386   3.181   3.819   0.242 -0.1152  0.4573  0.6781
 1503poe    c23 9387   3.119   3.911   0.155 -0.0496 -0.2720 -0.1535
 1503poe    c23 9388   3.172   4.055   0.141  0.1789 -0.3361  0.0528
 1503poe     o2 9389   3.309   4.053   0.109  0.1268 -0.2596 -0.1765
 1503poe    c23 9390   3.376   4.177   0.101 -0.4190  0.0117 -0.5450
 1503poe    c23 9391   3.527   4.163   0.078 -0.3219 -0.1039  0.1443
 1503poe     o2 9392   3.569   4.085   0.188 -0.2327 -0.4516 -0.1316
 1503poe    c23 9393   3.709   4.076   0.173 -0.1785  0.1651 -0.0530
 1503poe    c23 9394   3.771   3.990   0.285  0.2139  0.1552 -0.2757
 1503poe     o2 9395   3.683   3.882   0.309  0.1983  0.2718  0.2083
 1503poe    c31 9396   3.746   3.779   0.382 -0.3787 -0.1301  0.1494
 1504poe    c31 9397   6.558   6.813   6.670 -0.6399  0.4990  0.1162
 1504poe     o2 9398   6.524   6.744   6.552  0.3016  0.2444 -0.0172
 1504poe    c23 9399   6.393   6.778   6.512  0.4141  0.1754 -0.4508
 1504poe    c23 9400   6.344   6.656   6.432  0.2937 -0.3114  0.3557
 1504poe     o2 9401   6.462   6.606   6.374  0.5335  0.1761  0.4238
 1504poe    c23 9402   6.451   6.489   6.296  0.6722  0.3530  0.1374
 1504poe    c23 9403   6.582   6.452   6.225  0.2433 -0.5387 -0.2037
 1504poe     o2 9404   6.698   6.473   6.303  0.0953  0.5355 -0.2535
 1504poe    c23 9405   6.822   6.445   6.242  0.2560 -0.0151  0.3150
 1504poe    c23 9406   6.893   6.359   6.348 -0.1737 -0.5393  0.1783
 1504poe     o2 9407   6.922   6.417   6.473  0.1168  0.4076 -0.3204
 1504poe    c31 9408   6.985   6.320   6.553  0.0009 -0.0926 -0.8347
 1505poe    c31 9409   1.506   5.052   4.684  0.3033 -0.7215 -0.2100
 1505poe     o2 9410   1.517   5.123   4.563 -0.0129 -0.3343 -0.0119
 1505poe    c23 9411   1.634   5.100   4.488  0.0068 -0.1256 -0.0475
 1505poe    c23 9412   1.586   5.144   4.349 -0.4255  0.0245  0.1482
 1505poe     o2 9413   1.499   5.255   4.339 -0.1711  0.2562  0.5087
 1505poe    c23 9414   1.458   5.265   4.205  0.0696 -0.3992  0.3853
 1505poe    c23 9415   1.387   5.400   4.183 -0.0377 -0.4658  0.3228
 1505poe     o2 9416   1.272   5.405   4.263 -0.5881 -0.2507 -0.4706
 1505poe    c23 9417   1.179   5.508   4.238  0.2295  0.6019 -0.0079
 1505poe    c23 9418   1.065   5.492   4.340  0.2512  0.2205 -0.0445
 1505poe     o2 9419   1.005   5.365   4.322  0.5987 -0.0117  0.4168
 1505poe    c31 9420   0.885   5.345   4.393  0.2644 -0.2086 -0.1924
 1506poe    c31 9421   0.667   5.126   3.500  0.6551 -0.2411 -0.3785
 1506poe     o2 9422   0.631   4.996   3.540 -0.0663  0.0183 -0.1579
 1506poe    c23 9423   0.490   4.992   3.544 -0.0762 -0.3475 -0.6532
 1506poe    c23 9424   0.436   4.874   3.627  0.3585 -0.5724 -0.6854
 1506poe     o2 9425   0.539   4.780   3.643  0.4789 -0.2700  0.3411
 1506poe    c23 9426   0.503   4.657   3.586 -0.3158 -0.0635  0.3840
 1506poe    c23 9427   0.639   4.585   3.582  0.1596  0.8420 -0.0834
 1506poe     o2 9428   0.727   4.662   3.503 -0.1627  0.6326 -0.6558
 1506poe    c23 9429   0.772   4.593   3.388  0.1150 -0.4748  0.0986
 1506poe    c23 9430   0.925   4.582   3.374  0.2273  0.5719  0.4330
 1506poe     o2 9431   0.973   4.713   3.350  0.1468  0.4760 -0.2470
 1506poe    c31 9432   1.103   4.710   3.295  0.1985 -0.5470 -0.0948
 1507poe    c31 9433   1.839   6.605   1.743 -0.6179 -0.3015  0.2270
 1507poe     o2 9434   1.905   6.513   1.827  0.2774  0.1337  0.0150
 1507poe    c23 9435   2.045   6.526   1.817  0.2734  0.2440  0.1045
 1507poe    c23 9436   2.108   6.392   1.859  0.6490  0.2905 -0.3015
 1507poe     o2 9437   2.091   6.366   1.997  0.0567 -0.5836 -0.5359
 1507poe    c23 9438   2.152   6.245   2.037  0.8898  0.2360  0.7134
 1507poe    c23 9439   2.127   6.209   2.185 -0.0263  0.1913  0.5525
 1507poe     o2 9440   2.005   6.271   2.218  0.0419  0.5850  0.0915
 1507poe    c23 9441   1.973   6.234   2.351  0.4267 -0.6019 -0.1321
 1507poe    c23 9442   1.822   6.249   2.377  0.5298  0.2500  0.0283
 1507poe     o2 9443   1.780   6.383   2.369 -0.0983  0.1111  0.8423
 1507poe    c31 9444   1.639   6.386   2.357 -0.0299 -0.2120 -0.1431
 1508poe    c31 9445   6.761   2.435   3.896  0.0314 -0.2295 -0.1354
 1508poe     o2 9446   6.814   2.566   3.894 -0.7179  0.0815 -0.0919
 1508poe    c23 9447   6.715   2.661   3.862 -0.5277  0.2583 -0.1520
 1508poe    c23 9448   6.766   2.806   3.853  0.4243 -0.0911 -0.4709
 1508poe     o2 9449   6.834   2.840   3.971  0.2011 -0.5087 -0.2217
 1508poe    c23 9450   6.867   2.977   3.962 -0.4081 -0.3287  0.1987
 1508poe    c23 9451   6.978   3.017   4.062 -0.3328 -0.3670  0.1296
 1508poe     o2 9452   6.943   2.945   4.178 -0.4359 -0.4980  0.0190
 1508poe    c23 9453   7.029   2.967   4.288 -0.1996  0.3703 -0.3277
 1508poe    c23 9454   6.940   2.923   4.407  0.1939  0.0266 -0.1592
 1508poe     o2 9455   6.896   2.793   4.379 -0.0373  0.0151  0.2567
 1508poe    c31 9456   6.846   2.714   4.485 -0.1863  0.1021  0.2514
 1509poe    c31 9457   2.248   0.220   4.419 -0.4623 -0.6217 -0.2704
 1509poe     o2 9458   2.355   0.207   4.511 -0.6765 -0.0392  0.0677
 1509poe    c23 9459   2.453   0.145   4.431 -0.3150  0.1630  0.3551
 1509poe    c23 9460   2.570   0.080   4.508  0.2457 -0.1802 -0.7728
 1509poe     o2 9461   2.656   0.181   4.557  0.3235 -0.2230 -0.8209
 1509poe    c23 9462   2.767   0.129   4.626 -0.2274  0.2355  0.4258
 1509poe    c23 9463   2.835   0.240   4.709  0.1467  0.6215 -0.3852
 1509poe     o2 9464   2.744   0.306   4.793  0.2157 -0.8464  0.8926
 1509poe    c23 9465   2.805   0.368   4.904 -0.1507 -0.3430  0.8200
 1509poe    c23 9466   2.694   0.447   4.975 -0.6183 -0.1521 -0.1124
 1509poe     o2 9467   2.636   0.533   4.879  0.7147  0.6400 -0.2355
 1509poe    c31 9468   2.556   0.637   4.928  0.0701  0.1411 -0.2119
 1510poe    c31 9469   4.095   5.309   6.173 -0.2981  0.3835  0.5936
 1510poe     o2 9470   3.997   5.217   6.131  0.1275  0.0270  0.3698
 1510poe    c23 9471   3.957   5.139   6.241  0.0335  0.2573  0.5002
 1510poe    c23 9472   3.849   5.040   6.194  0.6530 -0.2166  0.0654
 1510poe     o2 9473   3.897   4.992   6.070 -0.0807 -0.1886 -0.2327
 1510poe    c23 9474   3.815   4.890   6.018  0.2745 -0.5604 -0.0637
 1510poe    c23 9475   3.848   4.872   5.868  1.0505  0.1473  0.0121
 1510poe     o2 9476   3.823   4.987   5.791  0.1110 -0.0343  0.0337
 1510poe    c23 9477   3.887   4.957   5.669  0.0604 -0.1982  0.0462
 1510poe    c23 9478   3.840   5.058   5.563  0.3941 -0.4508 -0.3429
 1510poe     o2 9479   3.901   5.184   5.586  0.0480 -0.3463  0.0034
 1510poe    c31 9480   3.852   5.273   5.489 -0.2477  0.1308  0.5854
 1511poe    c31 9481   6.215   4.150   5.210 -0.7695  0.2051  0.8929
 1511poe     o2 9482   6.183   4.112   5.078  0.2623  0.7044  0.4889
 1511poe    c23 9483   6.280   4.163   4.989  0.4137 -0.0762  0.2007
 1511poe    c23 9484   6.266   4.118   4.842  0.0682  0.0495  0.1943
 1511poe     o2 9485   6.214   3.987   4.855  0.1120 -0.0138 -0.2681
 1511poe    c23 9486   6.206   3.915   4.734  0.3450  0.2393 -0.4342
 1511poe    c23 9487   6.154   3.775   4.770  0.0714  0.3115 -0.5434
 1511poe     o2 9488   6.046   3.791   4.859  0.5586 -0.2191  0.1584
 1511poe    c23 9489   5.967   3.678   4.888  0.0983 -0.0525 -0.4203
 1511poe    c23 9490   5.825   3.691   4.831 -0.1278 -0.0228  0.1446
 1511poe     o2 9491   5.817   3.674   4.691 -0.1315 -0.4767  0.1998
 1511poe    c31 9492   5.722   3.764   4.639 -0.2532 -0.7489 -0.0482
 1512poe    c31 9493   6.389   5.676   1.391 -0.5564 -0.1562  0.1719
 1512poe     o2 9494   6.295   5.780   1.407 -0.3464  0.0355  0.1661
 1512poe    c23 9495   6.233   5.815   1.285  0.5119  0.5549 -0.1273
 1512poe    c23 9496   6.139   5.934   1.310  0.4725  0.4243  0.3539
 1512poe     o2 9497   6.068   5.919   1.431 -0.1103  0.7301  0.0574
 1512poe    c23 9498   5.952   5.839   1.433  0.2702  0.1562 -0.4757
 1512poe    c23 9499   5.901   5.814   1.576  0.2747  0.3688 -0.4373
 1512poe     o2 9500   5.987   5.731   1.651 -0.9624 -0.3773  0.1962
 1512poe    c23 9501   5.968   5.595   1.619 -0.1296 -0.3973 -0.2310
 1512poe    c23 9502   6.097   5.522   1.661 -0.0287  0.2086  0.5374
 1512poe     o2 9503   6.154   5.561   1.785  0.1681  0.3403  0.4062
 1512poe    c31 9504   6.234   5.457   1.834  0.0058  0.1544  0.2793
 1513poe    c31 9505   2.520   0.498   1.738  0.8601 -0.2159  0.0433
 1513poe     o2 9506   2.570   0.603   1.819  0.0882 -0.0557  0.3160
 1513poe    c23 9507   2.480   0.707   1.849 -0.2357 -0.1974 -0.1415
 1513poe    c23 9508   2.555   0.815   1.930 -0.0618 -1.1000  0.9327
 1513poe     o2 9509   2.682   0.827   1.870 -0.5803  0.4148  0.0702
 1513poe    c23 9510   2.760   0.935   1.917 -0.4590  0.2738  0.1929
 1513poe    c23 9511   2.879   0.950   1.822 -0.4850 -0.2191  0.0786
 1513poe     o2 9512   2.942   0.826   1.799  0.0629  0.0439  0.1299
 1513poe    c23 9513   3.075   0.838   1.753  0.0022  0.0036 -0.0590
 1513poe    c23 9514   3.128   0.702   1.706  0.4205  0.1451  0.0050
 1513poe     o2 9515   3.072   0.660   1.584 -0.6565  0.4710  0.3753
 1513poe    c31 9516   3.095   0.522   1.564  0.4114  0.6995 -0.0662
 1514poe    c31 9517   1.325   5.221   2.840 -0.0600  0.0248  0.0873
 1514poe     o2 9518   1.394   5.339   2.876 -0.5413  0.3344  0.0086
 1514poe    c23 9519   1.530   5.305   2.858 -0.5974  0.1430 -0.0537
 1514poe    c23 9520   1.612   5.393   2.953 -0.6152  0.2717 -0.1561
 1514poe     o2 9521   1.590   5.357   3.088 -0.1792  0.0042 -0.1559
 1514poe    c23 9522   1.661   5.441   3.176  0.0715 -0.4734  0.1075
 1514poe    c23 9523   1.651   5.359   3.305  0.0374 -0.1493  0.3114
 1514poe     o2 9524   1.518   5.336   3.345 -0.0245 -1.2834 -0.5039
 1514poe    c23 9525   1.516   5.303   3.482 -0.2205 -0.0438 -0.1996
 1514poe    c23 9526   1.374   5.259   3.521 -0.2102  0.0597 -0.0422
 1514poe     o2 9527   1.291   5.330   3.432 -0.1415 -0.3875 -0.4696
 1514poe    c31 9528   1.157   5.314   3.471  0.1618 -0.7039  0.4749
 1515poe    c31 9529   2.244   1.855   1.133 -0.6869 -0.4608  0.4360
 1515poe     o2 9530   2.262   1.787   1.255 -0.0756 -0.1458  0.5232
 1515poe    c23 9531   2.278   1.651   1.219  0.3674  0.2396 -0.8049
 1515poe    c23 9532   2.317   1.588   1.354 -0.0039  0.6806 -0.4876
 1515poe     o2 9533   2.424   1.654   1.417  0.0874  0.1318 -0.0651
 1515poe    c23 9534   2.463   1.624   1.550  0.1982  0.2755 -0.0650
 1515poe    c23 9535   2.560   1.732   1.601 -0.1497  0.1322  0.9257
 1515poe     o2 9536   2.469   1.838   1.576 -0.2316 -0.1631 -0.0809
 1515poe    c23 9537   2.528   1.966   1.588  0.2216 -0.4111  0.3946
 1515poe    c23 9538   2.418   2.066   1.549  0.6267 -0.2279 -0.2897
 1515poe     o2 9539   2.362   2.030   1.424  0.8315  0.5053 -0.5965
 1515poe    c31 9540   2.264   2.127   1.395 -0.2972 -0.5516 -0.3516
 1516poe    c31 9541   5.259   1.410   2.939 -0.8683  0.5457 -0.2704
 1516poe     o2 9542   5.358   1.436   3.036 -0.7622 -0.1325 -0.1883
 1516poe    c23 9543   5.335   1.564   3.092  0.0421 -0.1231  0.1287
 1516poe    c23 9544   5.458   1.608   3.174  0.1162  0.4954 -0.3081
 1516poe     o2 9545   5.474   1.495   3.256  0.2133  0.6519 -0.1117
 1516poe    c23 9546   5.572   1.499   3.358  0.4160 -0.2971 -0.2564
 1516poe    c23 9547   5.541   1.372   3.439  0.1043 -0.0050  0.0872
 1516poe     o2 9548   5.517   1.262   3.355 -0.3681  0.5225 -0.4774
 1516poe    c23 9549   5.636   1.196   3.317 -0.3707  0.2349  0.0005
 1516poe    c23 9550   5.598   1.129   3.184 -0.3663  0.0770  0.0792
 1516poe     o2 9551   5.557   1.228   3.092 -0.0230 -0.2903 -0.4828
 1516poe    c31 9552   5.559   1.180   2.960  0.3660 -0.6638 -0.3435
 1517poe    c31 9553   6.277   4.507   5.138  0.2752 -0.2023  0.9351
 1517poe     o2 9554   6.273   4.639   5.186 -0.4875  0.1335 -0.0247
 1517poe    c23 9555   6.172   4.637   5.284 -0.5497  0.0138 -0.0906
 1517poe    c23 9556   6.194   4.761   5.373 -0.4744  0.4513 -0.7143
 1517poe     o2 9557   6.263   4.849   5.287  0.5442  0.6055  0.2378
 1517poe    c23 9558   6.272   4.980   5.338 -0.0863  0.6220  0.3217
 1517poe    c23 9559   6.285   5.080   5.222 -0.2687 -0.0066 -0.2432
 1517poe     o2 9560   6.389   5.037   5.137  0.0736  0.2900  0.0218
 1517poe    c23 9561   6.438   5.145   5.060  0.8646  0.2163  0.4143
 1517poe    c23 9562   6.525   5.093   4.944 -0.4475 -0.3479 -0.3303
 1517poe     o2 9563   6.449   5.018   4.851 -0.6065 -0.4508 -0.1190
 1517poe    c31 9564   6.515   5.013   4.727 -0.1584  0.0181  0.0957
 1518poe    c31 9565   5.812   5.167   3.559 -0.2065  0.1238 -0.1858
 1518poe     o2 9566   5.762   5.170   3.691  0.2290  0.4026 -0.0248
 1518poe    c23 9567   5.862   5.197   3.787  0.4032  0.0897 -0.1174
 1518poe    c23 9568   5.829   5.162   3.933 -0.1147  0.3812 -0.1614
 1518poe     o2 9569   5.701   5.196   3.980  0.2082  0.3669  0.7398
 1518poe    c23 9570   5.637   5.077   4.021 -0.0103  0.3017  0.2119
 1518poe    c23 9571   5.489   5.093   4.058 -0.0125 -0.2649  0.4559
 1518poe     o2 9572   5.409   5.138   3.951  0.1948  0.4013  0.5766
 1518poe    c23 9573   5.272   5.147   3.981 -0.1033 -0.4294 -0.4686
 1518poe    c23 9574   5.193   5.212   3.866  0.1017 -0.1552 -0.4543
 1518poe     o2 9575   5.268   5.326   3.830  0.2884 -0.1345 -0.0053
 1518poe    c31 9576   5.210   5.388   3.718 -0.3084  0.1729  0.4677
 1519poe    c31 9577   2.595   3.558   3.476 -0.2983  0.0235 -0.5713
 1519poe     o2 9578   2.583   3.450   3.566  0.0163  0.2037 -0.3088
 1519poe    c23 9579   2.505   3.492   3.675 -0.2260  0.2608 -0.5045
 1519poe    c23 9580   2.495   3.394   3.793 -0.6917  0.1061 -0.6689
 1519poe     o2 9581   2.473   3.266   3.740  0.5797 -0.3708 -0.0731
 1519poe    c23 9582   2.489   3.159   3.831  0.2813  0.0983  0.5367
 1519poe    c23 9583   2.455   3.024   3.765 -0.5063  0.7258 -0.3799
 1519poe     o2 9584   2.557   3.010   3.669 -0.3422  0.1561 -0.1286
 1519poe    c23 9585   2.610   2.881   3.648  0.1536  0.2914  0.2573
 1519poe    c23 9586   2.666   2.878   3.505  0.2068 -0.2182  0.2882
 1519poe     o2 9587   2.759   2.979   3.475  0.0797 -0.2426 -0.2018
 1519poe    c31 9588   2.885   2.937   3.426  0.0704 -0.0893 -0.3589
 1520poe    c31 9589   1.767   0.454   6.934  1.3205 -0.2941 -0.1320
 1520poe     o2 9590   1.785   0.377   6.817  0.1364 -0.7319 -0.0432
 1520poe    c23 9591   1.667   0.359   6.742  0.0970 -0.1701 -0.1251
 1520poe    c23 9592   1.718   0.295   6.612  0.1665 -0.0742 -0.1449
 1520poe     o2 9593   1.773   0.175   6.662  0.4382  0.2408  0.3142
 1520poe    c23 9594   1.853   0.103   6.571 -0.1484 -0.3206  0.2368
 1520poe    c23 9595   1.905  -0.013   6.658  0.5519 -0.3781 -0.2457
 1520poe     o2 9596   1.956   0.013   6.787 -0.2041 -0.4042  0.0626
 1520poe    c23 9597   1.980  -0.110   6.853  0.4469 -0.2350  0.1492
 1520poe    c23 9598   2.032  -0.108   6.998  0.1803 -0.9323  0.2576
 1520poe     o2 9599   1.938  -0.041   7.080  0.3754  0.3193 -0.5103
 1520poe    c31 9600   2.003  -0.014   7.202  0.0509  0.9903 -0.4813
 1521poe    c31 9601   2.140   2.554   6.169 -0.1063  0.0766 -1.1491
 1521poe     o2 9602   2.157   2.419   6.203 -0.2006  0.2191 -0.5300
 1521poe    c23 9603   2.109   2.409   6.336  0.9330 -0.1665 -0.1331
 1521poe    c23 9604   2.161   2.276   6.392  0.9886  0.0042  0.2212
 1521poe     o2 9605   2.097   2.181   6.310  0.2647  0.3696  0.3551
 1521poe    c23 9606   2.148   2.050   6.318 -0.3478  0.1084  0.0488
 1521poe    c23 9607   2.076   1.985   6.198 -0.0778 -0.2412  0.0737
 1521poe     o2 9608   2.071   2.080   6.094 -0.1241 -0.4412 -0.1074
 1521poe    c23 9609   1.969   2.047   6.003 -1.0675 -0.0082  0.7728
 1521poe    c23 9610   1.954   2.174   5.918  0.3027 -0.1514  0.2916
 1521poe     o2 9611   1.969   2.281   6.009  0.0107  0.3586 -0.2530
 1521poe    c31 9612   1.877   2.384   5.980 -0.5153 -0.1183 -0.2874
 1522poe    c31 9613   3.014   5.125   4.696 -0.9927  0.3979 -0.0780
 1522poe     o2 9614   3.023   5.235   4.785 -0.2772  0.3056 -0.0261
 1522poe    c23 9615   2.937   5.198   4.891  0.1807  0.1550  0.2941
 1522poe    c23 9616   2.891   5.328   4.958  0.2172  0.4617 -0.2682
 1522poe     o2 9617   3.011   5.390   5.002  0.1860  0.2800  0.0756
 1522poe    c23 9618   3.009   5.489   5.102 -0.5858  0.3648 -0.0154
 1522poe    c23 9619   3.034   5.620   5.025 -0.2032  0.0177 -0.4832
 1522poe     o2 9620   3.149   5.605   4.944  0.2894 -0.4564  0.2915
 1522poe    c23 9621   3.233   5.715   4.918 -0.3166  0.0515  0.4550
 1522poe    c23 9622   3.374   5.662   4.886 -0.5095 -0.3233  0.2106
 1522poe     o2 9623   3.390   5.575   4.776  0.1578  0.2895 -0.1905
 1522poe    c31 9624   3.528   5.569   4.748  0.1611  0.2491 -0.1658
 1523poe    c31 9625   0.161   5.276   3.804 -0.1948  0.6735  0.4139
 1523poe     o2 9626   0.061   5.208   3.876  0.0595 -0.1304  0.0163
 1523poe    c23 9627  -0.027   5.150   3.782  0.0662 -0.4321  0.1933
 1523poe    c23 9628  -0.176   5.168   3.814 -0.0627 -0.6669 -0.2596
 1523poe     o2 9629  -0.212   5.099   3.933 -0.1515 -0.3406 -0.0971
 1523poe    c23 9630  -0.352   5.082   3.925 -0.1768 -0.2488  0.1449
 1523poe    c23 9631  -0.391   4.973   4.026 -0.2848  0.0535  0.4322
 1523poe     o2 9632  -0.330   4.997   4.150 -0.4455  0.3266  0.4586
 1523poe    c23 9633  -0.379   4.909   4.249  0.0890 -0.6428 -0.1200
 1523poe    c23 9634  -0.269   4.908   4.358 -0.5374 -0.7188  0.5174
 1523poe     o2 9635  -0.146   4.926   4.292 -0.7720  0.5841  0.4169
 1523poe    c31 9636  -0.041   4.896   4.381  0.1861  0.7725 -0.6272
 1524poe    c31 9637   0.782   2.780   4.800  0.9549 -0.6448  0.2640
 1524poe     o2 9638   0.838   2.772   4.671  0.6258  0.3495  0.0512
 1524poe    c23 9639   0.761   2.851   4.584  0.3377 -0.1969 -0.1984
 1524poe    c23 9640   0.793   3.002   4.582  0.3335 -0.1862  0.3102
 1524poe     o2 9641   0.775   3.067   4.706 -0.1944  0.1788  0.0421
 1524poe    c23 9642   0.772   3.208   4.707  0.4368  0.2014 -0.3609
 1524poe    c23 9643   0.715   3.271   4.836  0.5206 -0.1715 -0.1426
 1524poe     o2 9644   0.799   3.271   4.949  0.4433 -0.3613 -0.0841
 1524poe    c23 9645   0.737   3.314   5.068  0.7264  0.7979 -0.3374
 1524poe    c23 9646   0.836   3.301   5.185  0.1188 -0.5465  0.0571
 1524poe     o2 9647   0.831   3.166   5.225 -0.1382 -0.5613 -0.0238
 1524poe    c31 9648   0.937   3.097   5.162 -0.3286 -0.3644 -0.5665
 1525poe    c31 9649   5.539   3.353   3.720  0.6101  0.4301 -0.0757
 1525poe     o2 9650   5.470   3.255   3.646  0.4555  0.2263  0.3330
 1525poe    c23 9651   5.448   3.143   3.728 -0.1580  0.1997  0.1365
 1525poe    c23 9652   5.313   3.085   3.683 -0.1820  0.5796 -0.2757
 1525poe     o2 9653   5.295   3.118   3.547 -0.6010 -0.0627 -0.3812
 1525poe    c23 9654   5.164   3.098   3.498 -0.5837 -0.3857 -0.2953
 1525poe    c23 9655   5.175   3.132   3.348  0.6398  0.1593 -0.0940
 1525poe     o2 9656   5.242   3.255   3.334  0.0529  0.5414  0.3706
 1525poe    c23 9657   5.230   3.301   3.201 -0.1725 -0.2709  0.1046
 1525poe    c23 9658   5.325   3.410   3.150 -0.5674 -0.1830 -0.4553
 1525poe     o2 9659   5.302   3.526   3.227 -0.0901 -0.2339 -0.2340
 1525poe    c31 9660   5.365   3.648   3.195 -0.0868 -0.2637 -0.3400
 1526poe    c31 9661   6.651   1.037   4.747  0.2728 -0.0913 -0.6674
 1526poe     o2 9662   6.678   1.077   4.880 -0.4574 -0.7058 -0.3274
 1526poe    c23 9663   6.555   1.100   4.946 -0.0510  0.2604  0.1172
 1526poe    c23 9664   6.600   1.118   5.092 -0.0870 -0.1507  0.1806
 1526poe     o2 9665   6.709   1.207   5.094 -0.0631 -0.1868  0.5798
 1526poe    c23 9666   6.740   1.248   5.226  1.0126 -0.1022  0.3080
 1526poe    c23 9667   6.854   1.345   5.189  0.5613  0.4131  0.2401
 1526poe     o2 9668   6.949   1.285   5.103  0.0990  0.3822 -0.2558
 1526poe    c23 9669   7.057   1.375   5.090 -0.0459  0.7086  0.6873
 1526poe    c23 9670   7.151   1.362   4.969 -0.3185  0.3325  0.5136
 1526poe     o2 9671   7.223   1.241   4.980 -0.5365  0.1333 -0.1945
 1526poe    c31 9672   7.300   1.207   4.866  0.4459 -0.5003  0.6430
 1527poe    c31 9673   3.138   3.099   5.278  0.0300  0.3182  0.1455
 1527poe     o2 9674   3.258   3.086   5.350 -0.3193 -0.7484  0.5616
 1527poe    c23 9675   3.254   3.148   5.476  0.5960 -0.0264  0.2527
 1527poe    c23 9676   3.298   3.295   5.480  0.3135  0.0874 -0.5982
 1527poe     o2 9677   3.438   3.295   5.496  0.2269 -0.1020  0.2414
 1527poe    c23 9678   3.485   3.417   5.548 -0.0357  0.2250 -0.2856
 1527poe    c23 9679   3.636   3.405   5.575 -0.0690 -0.5686 -0.4312
 1527poe     o2 9680   3.692   3.376   5.449 -0.0767  0.7363 -0.7427
 1527poe    c23 9681   3.831   3.388   5.432  0.1579 -0.3895  0.2896
 1527poe    c23 9682   3.873   3.315   5.303 -0.6105  0.1823 -0.2901
 1527poe     o2 9683   3.787   3.204   5.299 -0.0556 -0.2546 -0.1884
 1527poe    c31 9684   3.830   3.111   5.202 -0.1530 -0.1794 -0.3038
 1528poe    c31 9685   5.789   2.423   5.621  0.9468  0.3580  0.6182
 1528poe     o2 9686   5.735   2.474   5.741  0.0839  0.6310  0.1187
 1528poe    c23 9687   5.656   2.590   5.727 -0.8438 -0.0289 -0.2117
 1528poe    c23 9688   5.592   2.633   5.860 -0.4098  0.0481 -0.0264
 1528poe     o2 9689   5.680   2.706   5.942 -0.4166 -0.0288  0.0494
 1528poe    c23 9690   5.626   2.713   6.072  0.4117  0.7697  0.3614
 1528poe    c23 9691   5.730   2.750   6.180  1.1238 -0.1233 -0.0042
 1528poe     o2 9692   5.792   2.875   6.160  0.5903  0.2860  0.8364
 1528poe    c23 9693   5.715   2.991   6.137  0.3094  0.0196  0.4192
 1528poe    c23 9694   5.803   3.117   6.128  0.6585 -0.2561 -0.0708
 1528poe     o2 9695   5.907   3.093   6.036  0.3896 -0.1277 -0.4093
 1528poe    c31 9696   5.906   3.218   5.971  0.0954  0.2000  0.2209
 1529poe    c31 9697   5.096   4.352   5.108 -0.5160  0.4298 -0.2303
 1529poe     o2 9698   5.072   4.439   5.000 -0.2739  0.0989 -0.5563
 1529poe    c23 9699   5.175   4.535   4.987  0.1437 -0.2403  0.2064
 1529poe    c23 9700   5.131   4.649   4.893  0.3708 -0.2076  0.1392
 1529poe     o2 9701   5.034   4.725   4.960  0.0427 -0.2973 -0.2277
 1529poe    c23 9702   4.992   4.825   4.869  1.0584  0.1801 -0.1832
 1529poe    c23 9703   4.966   4.958   4.942  0.4162 -0.0635  0.0370
 1529poe     o2 9704   4.880   4.928   5.050  0.0892 -0.4262 -0.3243
 1529poe    c23 9705   4.816   5.036   5.114  0.8054 -0.3707  0.3055
 1529poe    c23 9706   4.723   4.983   5.225 -0.0356  0.2038 -0.1122
 1529poe     o2 9707   4.806   4.887   5.287  0.3485  0.4491 -0.2450
 1529poe    c31 9708   4.737   4.866   5.408  0.5728  0.1046 -0.1755
 1530poe    c31 9709   1.410   0.479   3.463  0.1208 -0.1761 -0.2022
 1530poe     o2 9710   1.294   0.495   3.541  0.4192  0.2673  0.1600
 1530poe    c23 9711   1.326   0.563   3.660  0.0307 -0.2565  0.5716
 1530poe    c23 9712   1.190   0.621   3.704  0.1104  0.3626  0.0182
 1530poe     o2 9713   1.098   0.518   3.681 -0.0344  0.5382 -0.1980
 1530poe    c23 9714   0.967   0.570   3.686 -0.1726  0.1575  0.3663
 1530poe    c23 9715   0.874   0.454   3.646 -0.0624  0.1494  0.1326
 1530poe     o2 9716   0.945   0.385   3.546 -0.4467  0.2065 -0.1834
 1530poe    c23 9717   0.867   0.283   3.487  0.1225 -0.3897  0.0768
 1530poe    c23 9718   0.867   0.148   3.561  0.1965  0.0900  0.9705
 1530poe     o2 9719   1.002   0.112   3.577  0.2352  0.0585  0.5888
 1530poe    c31 9720   1.018  -0.015   3.636 -0.2029 -0.0453  0.4835
 1531poe    c31 9721   0.294   3.655   6.806 -0.6119 -0.3954  0.6484
 1531poe     o2 9722   0.236   3.770   6.749  0.0183 -0.3639  0.0583
 1531poe    c23 9723   0.255   3.884   6.830  0.1991 -0.1673 -0.2595
 1531poe    c23 9724   0.160   3.987   6.766  0.0452 -0.3076 -0.2576
 1531poe     o2 9725   0.040   3.923   6.728 -0.1809 -0.2693  0.3692
 1531poe    c23 9726  -0.062   4.015   6.693  0.0026 -0.2324 -0.0750
 1531poe    c23 9727  -0.194   3.937   6.672  0.1520 -0.4719 -0.1343
 1531poe     o2 9728  -0.185   3.853   6.559 -0.0541 -0.0824 -0.4424
 1531poe    c23 9729  -0.301   3.775   6.551  0.1782 -0.5454  0.5518
 1531poe    c23 9730  -0.283   3.648   6.465 -0.3599 -0.0910 -0.2386
 1531poe     o2 9731  -0.211   3.550   6.535 -0.5296 -0.2235 -0.2507
 1531poe    c31 9732  -0.205   3.425   6.468 -0.0814 -0.1037 -0.4323
 1532poe    c31 9733   1.785   4.984   5.127  0.1684  0.3365  0.1982
 1532poe     o2 9734   1.913   4.979   5.070  0.2137  0.4661  0.2877
 1532poe    c23 9735   1.996   4.881   5.127 -0.3200  0.1948  0.5995
 1532poe    c23 9736   2.128   4.875   5.048 -0.1090  0.8309  0.8951
 1532poe     o2 9737   2.203   4.993   5.066  0.7376  0.3635  0.4877
 1532poe    c23 9738   2.312   5.011   4.978 -0.0634  0.4347 -0.5030
 1532poe    c23 9739   2.385   5.147   4.977 -0.2536  0.5357 -0.8881
 1532poe     o2 9740   2.296   5.256   4.990 -0.0923  0.5710 -0.0598
 1532poe    c23 9741   2.370   5.376   4.991  0.4212  0.2584 -0.2301
 1532poe    c23 9742   2.266   5.483   4.955 -0.3976 -0.4443 -0.0037
 1532poe     o2 9743   2.156   5.454   5.038 -0.2424  0.1369  0.4154
 1532poe    c31 9744   2.087   5.575   5.061 -0.1462  0.2217  0.2599
 1533poe    c31 9745   6.684   2.153   1.245  0.1777  0.3716  0.0226
 1533poe     o2 9746   6.726   2.057   1.341  0.3084 -0.2050 -0.6043
 1533poe    c23 9747   6.622   1.964   1.361  0.0897  0.1652  0.0179
 1533poe    c23 9748   6.638   1.890   1.495  0.0040 -0.0874 -0.1116
 1533poe     o2 9749   6.778   1.885   1.512 -0.0302  0.3770  0.3073
 1533poe    c23 9750   6.798   1.762   1.578 -0.6039  0.1855  0.1318
 1533poe    c23 9751   6.946   1.742   1.615 -0.5724  0.1023 -0.0341
 1533poe     o2 9752   7.024   1.748   1.498 -0.3296 -0.2695  0.1064
 1533poe    c23 9753   7.155   1.701   1.521 -0.0849  0.7239  0.7999
 1533poe    c23 9754   7.244   1.764   1.412 -0.4778  0.1582  0.1465
 1533poe     o2 9755   7.241   1.905   1.400 -0.0579  0.1314 -0.2769
 1533poe    c31 9756   7.348   1.951   1.320 -0.2665  0.1244 -0.5604
 1534poe    c31 9757   6.933   5.803   2.371  0.4055 -0.4371  0.3723
 1534poe     o2 9758   6.838   5.776   2.472  0.2536  0.2027  0.4035
 1534poe    c23 9759   6.720   5.849   2.446 -0.1318 -0.7205 -0.4695
 1534poe    c23 9760   6.616   5.826   2.557  0.1052  0.0126 -0.0941
 1534poe     o2 9761   6.641   5.887   2.682 -0.4389  0.0473  0.0035
 1534poe    c23 9762   6.554   5.997   2.696 -0.2797  0.1651  0.0676
 1534poe    c23 9763   6.574   6.074   2.828  0.4025  0.0853  0.0145
 1534poe     o2 9764   6.697   6.143   2.824  0.4422  0.0100 -0.1050
 1534poe    c23 9765   6.723   6.211   2.945  0.0012 -0.0991  0.0515
 1534poe    c23 9766   6.869   6.251   2.973 -0.0590  0.0587  0.1406
 1534poe     o2 9767   6.949   6.136   2.983  0.2893  0.2545 -0.3557
 1534poe    c31 9768   7.073   6.178   3.035 -0.2128  0.4233  0.7221
 1535poe    c31 9769   2.905   0.821   5.676  0.6982  0.1312  0.2998
 1535poe     o2 9770   2.985   0.917   5.609  0.1416  0.3060 -0.1221
 1535poe    c23 9771   2.940   0.946   5.479  0.8498  0.1623 -0.4033
 1535poe    c23 9772   3.030   1.047   5.406  0.3869  0.7014 -0.2361
 1535poe     o2 9773   3.048   1.168   5.477  0.0166  0.4202  0.3390
 1535poe    c23 9774   3.165   1.231   5.431  0.0405  0.0964 -0.0492
 1535poe    c23 9775   3.203   1.360   5.506 -0.1517  0.0979  0.0480
 1535poe     o2 9776   3.214   1.347   5.646  0.5156  0.0474 -0.0058
 1535poe    c23 9777   3.306   1.440   5.699  0.7187 -0.0666 -0.1568
 1535poe    c23 9778   3.283   1.453   5.851 -0.5035 -0.1063 -0.3285
 1535poe     o2 9779   3.242   1.329   5.903  0.1866 -0.1908  0.0247
 1535poe    c31 9780   3.235   1.323   6.044 -0.2245  0.0073  0.0144
 1536poe    c31 9781   4.815   2.374   5.280 -0.6704  0.2790  0.7528
 1536poe     o2 9782   4.697   2.333   5.214  0.0382 -0.3830 -0.1183
 1536poe    c23 9783   4.713   2.323   5.074 -0.9511  0.3907 -0.2945
 1536poe    c23 9784   4.627   2.214   5.009 -0.1487 -0.2531 -0.2949
 1536poe     o2 9785   4.648   2.093   5.078  0.3269  0.0511  0.1055
 1536poe    c23 9786   4.553   2.006   5.018 -0.0317  0.2220  0.4222
 1536poe    c23 9787   4.577   1.861   5.064 -0.6052  0.1583  0.5261
 1536poe     o2 9788   4.601   1.848   5.202  0.1351  0.0892  0.3939
 1536poe    c23 9789   4.627   1.714   5.237  1.0154  0.1846  0.1275
 1536poe    c23 9790   4.628   1.712   5.391 -0.6513  0.1275  0.1457
 1536poe     o2 9791   4.670   1.840   5.432 -0.6313  0.1315  0.1129
 1536poe    c31 9792   4.672   1.844   5.573 -0.0571  0.1280  0.1062
 1537poe    c31 9793   0.850   5.757   6.501  0.1400  0.1992  0.8131
 1537poe     o2 9794   0.885   5.723   6.369  0.4679  0.0515  0.9390
 1537poe    c23 9795   0.981   5.798   6.299  0.0289 -0.5388 -0.3237
 1537poe    c23 9796   0.971   5.795   6.145  0.2499  0.8916 -0.3839
 1537poe     o2 9797   0.852   5.841   6.086 -0.5222 -0.4567  0.0824
 1537poe    c23 9798   0.878   5.862   5.949  0.0938 -0.1768  0.2392
 1537poe    c23 9799   0.772   5.967   5.910  0.3435 -0.0194 -0.0279
 1537poe     o2 9800   0.648   5.914   5.953  0.3367 -0.1945 -0.2584
 1537poe    c23 9801   0.537   5.997   5.927 -0.0097 -0.7001 -0.3941
 1537poe    c23 9802   0.413   5.945   6.002 -0.1746  0.2917  0.0335
 1537poe     o2 9803   0.453   5.944   6.137 -0.2155 -0.3984  0.0412
 1537poe    c31 9804   0.347   5.994   6.216  0.1147  0.4350 -0.0336
 1538poe    c31 9805   2.267   4.037   4.753  0.2338 -0.3075  0.0815
 1538poe     o2 9806   2.287   3.911   4.814 -0.4085 -0.4401  0.0247
 1538poe    c23 9807   2.200   3.885   4.921 -0.4850 -0.0418  0.0621
 1538poe    c23 9808   2.257   3.764   4.998 -0.3070  0.0366  0.0525
 1538poe     o2 9809   2.322   3.680   4.906 -0.0436  0.3719 -0.0712
 1538poe    c23 9810   2.370   3.556   4.954 -0.6258 -0.0165 -0.4914
 1538poe    c23 9811   2.482   3.494   4.868  0.2114  0.1175  0.4971
 1538poe     o2 9812   2.441   3.495   4.734  0.0251 -0.2857  0.5503
 1538poe    c23 9813   2.548   3.442   4.658 -0.3307 -0.1095 -0.0864
 1538poe    c23 9814   2.503   3.420   4.513 -0.0969 -0.2919 -0.1311
 1538poe     o2 9815   2.471   3.547   4.461  0.0071 -0.1458  0.1619
 1538poe    c31 9816   2.421   3.544   4.330  0.2990 -0.0620  0.0480
 1539poe    c31 9817   4.920   4.160   2.050 -0.6258 -0.0981  0.5855
 1539poe     o2 9818   4.826   4.215   1.961  0.7601  0.3448 -0.6480
 1539poe    c23 9819   4.777   4.343   1.994  0.1267 -0.0850  0.1322
 1539poe    c23 9820   4.672   4.394   1.893  0.0149  0.2337  0.4104
 1539poe     o2 9821   4.551   4.323   1.907 -0.0654  0.1945 -0.4489
 1539poe    c23 9822   4.461   4.376   1.813 -0.1265 -0.0285 -0.5191
 1539poe    c23 9823   4.406   4.259   1.730 -0.7008 -0.1564  0.0367
 1539poe     o2 9824   4.359   4.158   1.817 -0.8474 -0.1335 -0.0156
 1539poe    c23 9825   4.306   4.052   1.740  0.0717 -0.1628 -0.6350
 1539poe    c23 9826   4.221   3.950   1.818  0.2051  0.0030 -0.2684
 1539poe     o2 9827   4.305   3.861   1.888 -0.9273 -0.8150  0.0642
 1539poe    c31 9828   4.253   3.807   2.008 -0.2792 -0.1780  0.6351
 1540poe    c31 9829   2.496   3.748   2.684 -0.2763 -0.0906 -0.3646
 1540poe     o2 9830   2.558   3.622   2.669 -0.5322 -0.1882 -0.6053
 1540poe    c23 9831   2.464   3.523   2.704 -0.4208 -0.0391  0.1308
 1540poe    c23 9832   2.549   3.402   2.749 -0.1570  0.0087 -0.2284
 1540poe     o2 9833   2.681   3.450   2.759 -0.0624 -0.2754 -0.1132
 1540poe    c23 9834   2.776   3.362   2.816 -0.1506 -0.4840 -0.2849
 1540poe    c23 9835   2.915   3.399   2.762 -0.4793  0.4681 -0.5110
 1540poe     o2 9836   2.927   3.539   2.755 -0.3183  0.4814  0.0066
 1540poe    c23 9837   3.012   3.545   2.642 -0.3305  0.1413 -0.0208
 1540poe    c23 9838   2.976   3.670   2.561 -0.1959 -0.0397 -0.3630
 1540poe     o2 9839   2.835   3.671   2.556 -0.1902  0.0565 -0.5174
 1540poe    c31 9840   2.776   3.709   2.434 -0.2108  0.0534 -0.5085
 1541poe    c31 9841   5.327   0.602   2.333  0.3316  0.2799  0.0294
 1541poe     o2 9842   5.208   0.646   2.271  0.1914 -0.1267  0.0055
 1541poe    c23 9843   5.136   0.549   2.198 -0.0061  0.3547 -0.4456
 1541poe    c23 9844   5.016   0.614   2.126 -0.4481 -0.1241 -0.1518
 1541poe     o2 9845   4.966   0.696   2.229  0.0040 -0.3355  0.2400
 1541poe    c23 9846   4.864   0.782   2.184 -0.2675 -0.5055  0.5265
 1541poe    c23 9847   4.810   0.895   2.273  0.2929 -0.2594  0.5561
 1541poe     o2 9848   4.918   0.985   2.282  0.2655 -0.1426 -0.1884
 1541poe    c23 9849   4.875   1.116   2.312  0.2598 -0.0802 -0.4705
 1541poe    c23 9850   4.972   1.195   2.402 -0.2106  0.6111 -0.5642
 1541poe     o2 9851   5.096   1.149   2.353 -0.1661  0.2665 -0.1238
 1541poe    c31 9852   5.207   1.199   2.426 -0.2295  0.3500 -0.0852
 1542poe    c31 9853   4.022   3.477   0.550 -0.0024 -0.4849  0.2989
 1542poe     o2 9854   4.160   3.452   0.543  0.1115  0.1017  0.3799
 1542poe    c23 9855   4.187   3.323   0.491 -0.2044  0.1897 -0.0044
 1542poe    c23 9856   4.334   3.278   0.485 -0.2597 -0.0042  0.0745
 1542poe     o2 9857   4.386   3.275   0.616  0.0573 -0.5430 -0.0604
 1542poe    c23 9858   4.503   3.198   0.627 -0.1271 -0.8345 -0.1334
 1542poe    c23 9859   4.540   3.200   0.776 -1.4051 -0.4135  0.1924
 1542poe     o2 9860   4.561   3.337   0.799 -0.5498 -0.6650  0.9784
 1542poe    c23 9861   4.601   3.355   0.933 -0.2315  0.0231  0.7991
 1542poe    c23 9862   4.673   3.488   0.904 -0.1794 -0.2612 -0.4143
 1542poe     o2 9863   4.582   3.567   0.831 -0.2593 -0.0074 -0.0411
 1542poe    c31 9864   4.586   3.701   0.875 -0.0053  0.0227 -0.1552
 1543poe    c31 9865   3.609   4.151   1.452 -0.2696 -0.1591  0.4767
 1543poe     o2 9866   3.541   4.029   1.474 -0.8584  0.1877  0.5986
 1543poe    c23 9867   3.402   4.047   1.467 -0.9131 -0.1645  0.7768
 1543poe    c23 9868   3.333   3.968   1.354 -0.2261 -0.1617  0.3497
 1543poe     o2 9869   3.351   3.828   1.366  0.1584 -0.1159  0.3241
 1543poe    c23 9870   3.333   3.761   1.243  0.1364  0.0024  0.2622
 1543poe    c23 9871   3.327   3.610   1.274 -0.1122 -0.1477 -0.5049
 1543poe     o2 9872   3.429   3.569   1.363  0.0453 -0.0843 -0.6545
 1543poe    c23 9873   3.409   3.431   1.383  0.1431  0.0432  0.3683
 1543poe    c23 9874   3.535   3.386   1.459  0.2582  0.4013  0.3935
 1543poe     o2 9875   3.555   3.473   1.569  0.4746  0.2183  0.4997
 1543poe    c31 9876   3.639   3.414   1.665  0.7990  0.3552  0.3020
 1544poe    c31 9877   1.909   3.363   3.779  0.6307 -0.3666  0.1027
 1544poe     o2 9878   1.988   3.475   3.810 -0.2757  0.4560 -0.5275
 1544poe    c23 9879   2.090   3.446   3.902 -1.1096  0.2696  0.3547
 1544poe    c23 9880   2.159   3.554   3.988 -0.3040 -0.0908  0.1683
 1544poe     o2 9881   2.054   3.592   4.073 -0.4074 -0.0265  0.0126
 1544poe    c23 9882   2.082   3.700   4.160 -0.2095 -0.1017  0.0429
 1544poe    c23 9883   2.065   3.840   4.099  0.2485 -0.1514 -0.2002
 1544poe     o2 9884   1.932   3.867   4.063  0.2508 -0.0227 -0.1108
 1544poe    c23 9885   1.929   4.007   4.040  0.4174  0.0694  0.4149
 1544poe    c23 9886   1.799   4.073   3.991  0.4796 -0.1974 -0.1165
 1544poe     o2 9887   1.761   4.021   3.866 -0.1325 -0.4406  0.1642
 1544poe    c31 9888   1.647   4.071   3.800  0.1358  0.2131  0.1902
 1545poe    c31 9889   3.485   4.672   6.064  0.1308  0.2370 -0.2337
 1545poe     o2 9890   3.351   4.684   6.104  0.2084 -0.4995  0.2641
 1545poe    c23 9891   3.337   4.780   6.207  0.0953 -0.4331  0.1872
 1545poe    c23 9892   3.255   4.718   6.321  0.0458 -0.5142  0.1075
 1545poe     o2 9893   3.121   4.686   6.291  0.1440 -0.1285 -0.7736
 1545poe    c23 9894   3.016   4.774   6.325  0.1649 -0.3530 -0.1062
 1545poe    c23 9895   2.910   4.738   6.219 -0.0298 -0.3222  0.0778
 1545poe     o2 9896   2.902   4.598   6.216 -0.1163 -0.3242  0.3338
 1545poe    c23 9897   2.829   4.542   6.108  0.8291 -0.2470 -0.3540
 1545poe    c23 9898   2.809   4.396   6.153  0.3012  0.1061  0.5899
 1545poe     o2 9899   2.938   4.352   6.188  0.3800 -0.1709 -0.0290
 1545poe    c31 9900   2.933   4.213   6.210 -0.1316 -0.1127  0.2331
 1546poe    c31 9901   4.342   6.920   1.888 -0.4698 -0.1512  0.2032
 1546poe     o2 9902   4.231   6.906   1.801 -0.3928  0.1348  0.0607
 1546poe    c23 9903   4.197   6.770   1.805 -0.0515  0.0399 -0.1667
 1546poe    c23 9904   4.075   6.743   1.714 -0.0969 -0.4708  0.0433
 1546poe     o2 9905   3.997   6.860   1.723  0.3014 -0.1622 -0.4791
 1546poe    c23 9906   3.861   6.834   1.695  0.2530  0.1345 -0.5263
 1546poe    c23 9907   3.772   6.958   1.717  0.0149 -0.1675  0.2892
 1546poe     o2 9908   3.789   7.037   1.601 -0.7247 -0.3911  0.0229
 1546poe    c23 9909   3.769   7.176   1.619  0.3640 -0.1300 -0.6844
 1546poe    c23 9910   3.791   7.271   1.500 -0.2614  0.3356 -0.4275
 1546poe     o2 9911   3.924   7.259   1.455 -0.1570  0.1772 -0.0847
 1546poe    c31 9912   3.945   7.325   1.332  0.1739  0.0281 -0.1073
 1547poe    c31 9913   5.899   5.962   2.468  0.6599 -0.5123  0.6765
 1547poe     o2 9914   5.786   5.935   2.548  0.2258 -0.2813  0.1533
 1547poe    c23 9915   5.727   5.819   2.495  0.3165 -0.4807  0.4846
 1547poe    c23 9916   5.650   5.748   2.609  0.2058 -0.7375  0.2512
 1547poe     o2 9917   5.577   5.844   2.682  0.5777 -0.2844  0.0366
 1547poe    c23 9918   5.501   5.781   2.784 -0.3599 -0.2570 -0.6321
 1547poe    c23 9919   5.435   5.903   2.851  0.2957 -0.2104 -0.0607
 1547poe     o2 9920   5.516   6.017   2.865 -0.5579  0.4635 -0.4956
 1547poe    c23 9921   5.495   6.080   2.990  0.4677 -0.1590  0.0062
 1547poe    c23 9922   5.575   6.009   3.100 -0.1358 -0.3118  0.3499
 1547poe     o2 9923   5.714   6.016   3.076 -0.2138 -0.6883 -0.2108
 1547poe    c31 9924   5.791   5.969   3.185  0.1736 -0.2019 -0.2731
 1548poe    c31 9925   3.317   6.328   3.130  0.5976  0.1007  0.0278
 1548poe     o2 9926   3.197   6.389   3.089  0.6345  0.1637  0.0133
 1548poe    c23 9927   3.207   6.511   3.019 -0.4457  0.2642  0.0071
 1548poe    c23 9928   3.065   6.538   2.968 -0.2207  0.0924 -0.7326
 1548poe     o2 9929   2.974   6.498   3.069 -0.1670  0.3452 -0.5834
 1548poe    c23 9930   2.843   6.514   3.019 -0.2504 -0.2168 -0.5466
 1548poe    c23 9931   2.751   6.498   3.142  0.0331 -0.2364 -0.3343
 1548poe     o2 9932   2.791   6.387   3.220 -0.1745 -0.1962 -0.1709
 1548poe    c23 9933   2.706   6.387   3.333  0.6349  0.7651  0.4538
 1548poe    c23 9934   2.754   6.287   3.440  0.2333  0.0472 -0.0270
 1548poe     o2 9935   2.872   6.342   3.494 -0.0544  0.4104  0.2369
 1548poe    c31 9936   2.914   6.271   3.608 -0.5091 -0.2844 -0.0233
 1549poe    c31 9937   0.710   0.329   2.269 -0.0282  0.3624  0.1893
 1549poe     o2 9938   0.702   0.394   2.144  0.3519 -0.1661 -0.1124
 1549poe    c23 9939   0.826   0.433   2.089  0.3847 -0.1541 -0.0296
 1549poe    c23 9940   0.813   0.530   1.970  0.1345 -0.0311  0.0967
 1549poe     o2 9941   0.704   0.481   1.895  0.3430 -0.3108 -0.0249
 1549poe    c23 9942   0.633   0.585   1.833 -0.2236 -0.0667  1.0225
 1549poe    c23 9943   0.501   0.535   1.770  0.2372 -0.0431  0.0298
 1549poe     o2 9944   0.426   0.457   1.860 -0.3067 -0.1109 -0.4805
 1549poe    c23 9945   0.293   0.431   1.821 -0.4206  0.0052 -0.1698
 1549poe    c23 9946   0.197   0.535   1.883  0.2313  0.5063  0.0138
 1549poe     o2 9947   0.213   0.555   2.021 -0.1169  0.1194  0.1136
 1549poe    c31 9948   0.089   0.597   2.073 -0.4096 -0.1002 -0.4047
 1550poe    c31 9949   5.368   3.143   1.904 -0.4561  0.3008  0.3506
 1550poe     o2 9950   5.489   3.200   1.947  0.0401 -0.2811 -0.2479
 1550poe    c23 9951   5.544   3.115   2.046  0.3966  0.0201 -0.1823
 1550poe    c23 9952   5.690   3.162   2.043  0.3606  0.1259 -0.3062
 1550poe     o2 9953   5.682   3.301   2.059 -0.1054  0.0828 -0.1668
 1550poe    c23 9954   5.815   3.344   2.075  0.0377  0.0875 -1.3170
 1550poe    c23 9955   5.811   3.494   2.113 -0.5613 -0.1585 -0.3926
 1550poe     o2 9956   5.759   3.556   1.998 -0.5337  0.0864 -0.2725
 1550poe    c23 9957   5.785   3.694   2.009  0.2637 -0.0382 -0.5834
 1550poe    c23 9958   5.691   3.759   1.906 -0.0191  0.0900 -0.2483
 1550poe     o2 9959   5.554   3.728   1.918 -0.0648  0.3004 -0.2327
 1550poe    c31 9960   5.480   3.834   1.860 -0.1018  0.2870 -0.2093
 1551poe    c31 9961   0.151   3.329   6.366  0.1013  0.4860 -0.3013
 1551poe     o2 9962   0.176   3.217   6.283  0.0652 -0.1511  0.5376
 1551poe    c23 9963   0.316   3.200   6.282  0.1053  0.1968  0.1281
 1551poe    c23 9964   0.357   3.057   6.245 -0.0444  0.3152 -0.5055
 1551poe     o2 9965   0.269   3.019   6.142 -0.4410 -0.4449  0.1073
 1551poe    c23 9966   0.294   2.883   6.112  0.9925 -0.1802  0.0221
 1551poe    c23 9967   0.218   2.874   5.978  0.3435 -0.5601  0.4138
 1551poe     o2 9968   0.096   2.945   5.982  0.5866 -0.1249  0.1094
 1551poe    c23 9969  -0.007   2.870   6.042  0.0534  0.4528 -0.0751
 1551poe    c23 9970  -0.105   2.976   6.098  0.1213  0.4106  0.1267
 1551poe     o2 9971  -0.046   3.093   6.150  0.1515  0.4943 -0.0948
 1551poe    c31 9972  -0.135   3.201   6.167 -0.0025  0.3827 -0.1859
 1552poe    c31 9973   2.710   2.417   6.800 -0.6612 -0.2149  0.1734
 1552poe     o2 9974   2.698   2.551   6.842  0.0935 -0.1607  0.2273
 1552poe    c23 9975   2.569   2.605   6.826  0.1595 -0.1915 -0.4052
 1552poe    c23 9976   2.559   2.746   6.887 -0.5480 -0.4235  0.0283
 1552poe     o2 9977   2.609   2.742   7.018  0.1121  0.8143 -0.1678
 1552poe    c23 9978   2.532   2.834   7.093 -0.4416  0.0054  0.2735
 1552poe    c23 9979   2.629   2.887   7.200  0.1554  0.1616 -0.3393
 1552poe     o2 9980   2.676   2.780   7.279  0.7406  0.1824 -0.6570
 1552poe    c23 9981   2.748   2.834   7.387  0.2775  0.3583 -0.4369
 1552poe    c23 9982   2.853   2.736   7.443 -0.1776 -0.1204 -0.4140
 1552poe     o2 9983   2.907   2.672   7.330 -0.2834 -0.4555 -0.2776
 1552poe    c31 9984   3.021   2.591   7.350  0.5002  0.6910  0.0102
 1553poe    c31 9985   3.404   4.467   3.057 -0.1098  0.5036 -0.2367
 1553poe     o2 9986   3.264   4.465   3.074 -0.1158  0.8126 -0.2518
 1553poe    c23 9987   3.195   4.442   2.953  0.0162  0.2543 -0.2242
 1553poe    c23 9988   3.045   4.476   2.966  0.0626  0.3226  0.1620
 1553poe     o2 9989   3.011   4.610   2.941  0.3521  0.4695  0.5550
 1553poe    c23 9990   2.887   4.654   2.992 -0.1329 -0.5112  0.2349
 1553poe    c23 9991   2.880   4.641   3.146 -0.6417 -0.4294  0.2201
 1553poe     o2 9992   2.966   4.737   3.202 -0.6036 -0.1660 -0.2782
 1553poe    c23 9993   2.899   4.832   3.282 -0.2243 -0.1800  0.0639
 1553poe    c23 9994   3.009   4.923   3.340  0.0543 -0.4195 -0.0905
 1553poe     o2 9995   3.092   4.979   3.240  0.0399 -0.3467 -0.0617
 1553poe    c31 9996   3.187   5.061   3.305 -0.0387 -0.0317 -0.3476
 1554poe    c31 9997   2.304   1.471   6.304 -0.3872 -0.0704  0.3384
 1554poe     o2 9998   2.249   1.422   6.184 -0.0399  0.4839 -0.0548
 1554poe    c23 9999   2.165   1.516   6.121 -0.2242  0.3119 -0.0669
 1554poe    c2310000   2.074   1.452   6.015  0.1438 -0.3309 -0.0032
 1554poe     o210001   2.111   1.317   5.998  0.4543 -0.2164 -0.2468
 1554poe    c2310002   2.041   1.265   5.887  0.0082 -0.0192 -0.0626
 1554poe    c2310003   2.120   1.257   5.756 -0.5684 -0.7882 -0.3719
 1554poe     o210004   2.235   1.184   5.795 -0.3604 -0.2044  0.1162
 1554poe    c2310005   2.291   1.111   5.688 -0.8432  0.0202 -0.2963
 1554poe    c2310006   2.430   1.059   5.730 -0.8632  0.6836  0.6342
 1554poe     o210007   2.523   1.160   5.758 -0.3266  0.4007 -0.1016
 1554poe    c3110008   2.602   1.201   5.648  0.7737  0.1019  0.5638
 1555poe    c3110009   4.655   5.358   6.889  0.0279 -0.5922 -0.3454
 1555poe     o210010   4.750   5.254   6.891  0.0720 -0.5485 -0.1439
 1555poe    c2310011   4.855   5.295   6.807 -0.3101 -0.6734 -0.6885
 1555poe    c2310012   4.959   5.184   6.778  0.4686 -0.0027 -0.5048
 1555poe     o210013   4.909   5.079   6.699 -0.0652 -0.4012  0.3532
 1555poe    c2310014   5.007   5.017   6.619 -0.6625 -0.6576 -0.1935
 1555poe    c2310015   5.018   5.084   6.481 -0.0725 -0.1498  0.0939
 1555poe     o210016   4.939   5.031   6.377 -0.2932  0.0647  0.1518
 1555poe    c2310017   4.991   5.095   6.262 -0.2607 -0.5594 -0.1866
 1555poe    c2310018   4.953   5.012   6.139 -0.3104 -0.5452 -0.1805
 1555poe     o210019   4.816   5.023   6.106 -0.2074  0.0447 -0.4257
 1555poe    c3110020   4.800   5.025   5.965 -0.2366  0.3536 -0.4171
 1556poe    c3110021   0.854   6.833   5.944  0.1697 -0.1144 -0.0089
 1556poe     o210022   0.927   6.827   6.064 -0.2650 -0.3913  0.2421
 1556poe    c2310023   1.052   6.768   6.039 -0.4887 -0.7512 -0.0395
 1556poe    c2310024   1.094   6.693   6.167 -0.2762 -0.1738  0.2331
 1556poe     o210025   1.085   6.793   6.266  0.8793  0.3392 -0.1622
 1556poe    c2310026   1.161   6.771   6.382  0.1473  0.5148  0.3547
 1556poe    c2310027   1.140   6.891   6.477  0.1562  0.6555  0.1804
 1556poe     o210028   1.002   6.900   6.503 -0.1372  0.0120 -1.0724
 1556poe    c2310029   0.953   7.010   6.577  0.5776 -0.5219  0.2266
 1556poe    c2310030   0.809   6.993   6.628  0.0567  0.5530 -0.8285
 1556poe     o210031   0.712   6.955   6.533 -0.4523  0.0721 -0.1295
 1556poe    c3110032   0.586   6.968   6.595 -0.0316 -0.1104  0.7751
 1557poe    c3110033   2.574   6.960   5.433 -0.2946  0.1307  0.0327
 1557poe     o210034   2.539   7.058   5.339 -0.2209 -0.0956 -0.2339
 1557poe    c2310035   2.536   7.187   5.396 -0.6367 -0.1796 -0.0563
 1557poe    c2310036   2.424   7.279   5.343 -0.8974 -0.4196  0.0793
 1557poe     o210037   2.419   7.250   5.205 -0.1066 -0.0760 -0.0281
 1557poe    c2310038   2.291   7.272   5.151 -0.0626  0.6224  0.1471
 1557poe    c2310039   2.268   7.239   5.002 -1.0929 -0.3392  0.5091
 1557poe     o210040   2.304   7.103   4.985 -0.6304 -0.2067  0.4048
 1557poe    c2310041   2.311   7.071   4.848 -0.1017  0.6070  0.2345
 1557poe    c2310042   2.382   6.935   4.836 -0.2804  0.5795 -0.5795
 1557poe     o210043   2.515   6.933   4.880 -0.2373  0.2242 -0.7228
 1557poe    c3110044   2.582   6.813   4.847  0.0031  0.1988 -0.1651
 1558poe    c3110045   3.249   0.352   4.055 -0.2558 -0.8029 -0.2851
 1558poe     o210046   3.225   0.402   4.184  0.3309 -0.2432 -0.3867
 1558poe    c2310047   3.336   0.471   4.237  0.0717  0.0806 -0.2588
 1558poe    c2310048   3.293   0.517   4.377  0.0500  0.1349 -0.2827
 1558poe     o210049   3.226   0.411   4.443  0.5562 -0.0795 -0.1057
 1558poe    c2310050   3.184   0.430   4.577  0.0196  0.0309 -0.2853
 1558poe    c2310051   3.196   0.289   4.639  0.0068  0.3237  0.3895
 1558poe     o210052   3.153   0.206   4.534  0.0043  0.0972  0.5691
 1558poe    c2310053   3.188   0.070   4.547 -0.7673 -0.1768 -0.1347
 1558poe    c2310054   3.178   0.008   4.406  0.6345 -0.2337 -0.2259
 1558poe     o210055   3.237   0.098   4.315  0.0683  0.3209 -0.0548
 1558poe    c3110056   3.316   0.024   4.224  0.0052 -0.6272  0.6530
 1559poe    c3110057   6.405   2.982   2.444 -0.0977  0.2954 -0.0082
 1559poe     o210058   6.514   2.969   2.355 -0.4121 -0.1178 -0.3378
 1559poe    c2310059   6.632   3.019   2.413 -0.2408 -1.1721  0.2431
 1559poe    c2310060   6.741   2.994   2.306 -0.3784  0.2219 -0.2391
 1559poe     o210061   6.729   2.861   2.263  0.6274 -0.0963  0.4345
 1559poe    c2310062   6.809   2.836   2.149  0.0120  0.5106 -0.1392
 1559poe    c2310063   6.801   2.690   2.100 -0.1951  0.4311  0.1275
 1559poe     o210064   6.664   2.658   2.091 -0.1365  0.4172 -0.7581
 1559poe    c2310065   6.641   2.534   2.028 -0.1608 -0.0299  0.1151
 1559poe    c2310066   6.493   2.507   1.997 -0.1439 -0.1388  0.1295
 1559poe     o210067   6.412   2.506   2.112  0.0145  0.1836  0.2462
 1559poe    c3110068   6.279   2.521   2.068  0.3654  0.7811 -0.6383
 1560poe    c3110069   3.540   1.945   5.255  0.1557  0.1154 -0.3481
 1560poe     o210070   3.573   1.973   5.389  0.2571  0.1707 -0.3848
 1560poe    c2310071   3.518   1.868   5.464  0.0226 -0.0112 -0.8056
 1560poe    c2310072   3.617   1.828   5.576 -0.5450 -0.0571 -0.3180
 1560poe     o210073   3.656   1.948   5.639  0.1689 -0.3046 -0.2895
 1560poe    c2310074   3.716   1.933   5.766  0.3419  0.1515 -0.3137
 1560poe    c2310075   3.821   2.046   5.770  0.2828  0.2158 -0.5516
 1560poe     o210076   3.757   2.163   5.725  0.0313  0.0052 -0.7483
 1560poe    c2310077   3.816   2.286   5.759 -0.0945  0.0623 -0.7383
 1560poe    c2310078   3.723   2.401   5.802 -0.0013 -0.2013  0.1942
 1560poe     o210079   3.614   2.425   5.716 -0.3461 -0.4183  0.5637
 1560poe    c3110080   3.546   2.537   5.769 -0.0046 -0.2984  0.7533
 1561poe    c3110081   0.189   1.937   0.768 -0.6421 -0.2150 -0.4945
 1561poe     o210082   0.104   1.901   0.661 -0.4931 -1.2376 -0.2701
 1561poe    c2310083  -0.021   1.962   0.680 -0.1079 -0.4816 -0.1598
 1561poe    c2310084  -0.096   1.982   0.547 -0.8853 -0.2588  0.3027
 1561poe     o210085  -0.072   1.864   0.474  0.0338 -0.2499  0.5778
 1561poe    c2310086  -0.110   1.862   0.338  0.1407 -0.6641  0.5499
 1561poe    c2310087  -0.064   1.972   0.240 -0.0984 -0.3342  0.8025
 1561poe     o210088   0.073   1.985   0.210 -0.1870 -0.1398  0.4810
 1561poe    c2310089   0.116   1.890   0.115  0.3212  0.4445  0.1184
 1561poe    c2310090   0.270   1.889   0.100  0.2563 -0.3743 -0.6452
 1561poe     o210091   0.318   1.857   0.229  0.1192  1.1973 -0.1842
 1561poe    c3110092   0.459   1.857   0.234  0.1178  0.0659  0.1034
 1562poe    c3110093   4.997   0.989   5.244  0.0952 -0.6826  0.5325
 1562poe     o210094   5.033   0.891   5.149 -0.3015  0.0593 -0.3892
 1562poe    c2310095   5.114   0.793   5.209 -0.2737 -0.1438 -0.7554
 1562poe    c2310096   5.198   0.733   5.095  0.4598 -0.8483  0.1392
 1562poe     o210097   5.128   0.649   5.006 -0.0794 -0.0356 -0.2167
 1562poe    c2310098   5.173   0.516   5.016  0.0100  0.0088 -0.0115
 1562poe    c2310099   5.099   0.407   4.936  0.7842 -0.4947 -0.0500
 1562poe     o210100   5.111   0.428   4.797 -0.0309  0.2842 -0.0112
 1562poe    c2310101   5.008   0.364   4.725 -0.0166 -0.0849  0.2922
 1562poe    c2310102   4.990   0.433   4.588 -0.0789 -0.1738  0.2561
 1562poe     o210103   4.967   0.572   4.590 -0.2623 -0.1980 -0.0757
 1562poe    c3110104   4.955   0.619   4.458  0.3857  0.2821  0.0308
 1563poe    c3110105   6.013   0.046   4.216  0.1430 -0.3647 -0.6294
 1563poe     o210106   6.017  -0.013   4.344 -0.0404  0.4032 -0.2642
 1563poe    c2310107   6.150  -0.005   4.392 -0.1206  0.0743  0.0166
 1563poe    c2310108   6.127  -0.034   4.542  0.1858 -0.1157  0.0263
 1563poe     o210109   6.035  -0.140   4.557 -0.5648  0.3936 -0.8742
 1563poe    c2310110   5.991  -0.137   4.691  0.2619 -0.1559 -0.5817
 1563poe    c2310111   5.910  -0.267   4.696 -0.1656  0.1254 -0.1259
 1563poe     o210112   5.825  -0.287   4.585 -0.4739 -0.0663  0.1429
 1563poe    c2310113   5.737  -0.388   4.629 -0.1884 -0.2921  0.1938
 1563poe    c2310114   5.658  -0.431   4.504 -0.0111  0.0592 -0.0397
 1563poe     o210115   5.569  -0.341   4.442 -0.3338 -0.3098 -0.1161
 1563poe    c3110116   5.463  -0.409   4.379 -0.5380  0.0541 -0.1653
 1564poe    c3110117   2.136   0.684   5.075 -0.0929  0.3785  0.0261
 1564poe     o210118   2.035   0.598   5.122  0.2501  0.0208  0.1136
 1564poe    c2310119   1.927   0.584   5.033  0.8511 -0.3002 -0.5754
 1564poe    c2310120   1.853   0.455   5.071 -0.3025  0.3935 -0.3850
 1564poe     o210121   1.800   0.443   5.201 -0.3848  0.2367 -0.4317
 1564poe    c2310122   1.692   0.521   5.248 -0.3285 -0.0121  0.1207
 1564poe    c2310123   1.629   0.471   5.379 -0.4890 -0.5764 -0.1688
 1564poe     o210124   1.732   0.452   5.473 -0.5115  0.1519  0.0082
 1564poe    c2310125   1.685   0.424   5.603  0.2643 -0.6135  0.1326
 1564poe    c2310126   1.796   0.408   5.708 -0.0332 -0.5873  0.4529
 1564poe     o210127   1.912   0.346   5.658  0.0081 -0.5867  0.5474
 1564poe    c3110128   2.006   0.338   5.763  0.3564 -0.1121  0.2740
 1565poe    c3110129   0.629   1.828   0.995  0.0057  0.5147  0.7299
 1565poe     o210130   0.495   1.786   1.011 -0.1273  0.6225 -0.0657
 1565poe    c2310131   0.459   1.658   0.964  0.6578  0.2742  0.2646
 1565poe    c2310132   0.459   1.636   0.812 -0.1501 -0.3307  0.3432
 1565poe     o210133   0.390   1.517   0.779  0.0182 -0.3527  0.0715
 1565poe    c2310134   0.402   1.486   0.642 -0.1707  0.0886 -0.0456
 1565poe    c2310135   0.338   1.347   0.626  0.4178 -0.1726 -0.1789
 1565poe     o210136   0.405   1.264   0.718  0.2722  0.0142  0.0988
 1565poe    c2310137   0.352   1.133   0.713 -0.2683  0.2464 -0.4912
 1565poe    c2310138   0.458   1.024   0.739 -0.6530  0.0648  0.3562
 1565poe     o210139   0.534   1.093   0.837 -0.4453 -0.1938  0.3777
 1565poe    c3110140   0.612   0.993   0.899  0.0050 -0.2954 -0.3330
 1566poe    c3110141   6.079   0.185   5.553 -0.0731 -0.2836 -0.2243
 1566poe     o210142   6.163   0.226   5.658  0.4595 -0.2149 -0.6718
 1566poe    c2310143   6.288   0.161   5.659  0.1713 -0.7764 -0.1897
 1566poe    c2310144   6.391   0.233   5.569 -0.5082  0.5158  0.0439
 1566poe     o210145   6.374   0.193   5.435 -0.4788 -0.1455  0.2319
 1566poe    c2310146   6.448   0.078   5.401  0.7970  0.7280 -0.0200
 1566poe    c2310147   6.489   0.067   5.253 -0.1475  0.1579 -0.2531
 1566poe     o210148   6.619   0.113   5.222  0.0048  0.0805  0.2621
 1566poe    c2310149   6.634   0.138   5.084  0.3251 -0.3428  0.2201
 1566poe    c2310150   6.763   0.073   5.030  0.1583 -0.1617 -0.4043
 1566poe     o210151   6.890   0.119   5.071  0.1675 -0.0874 -0.5191
 1566poe    c3110152   6.981   0.021   5.027  0.2525 -0.5976  0.7737
 1567poe    c3110153   1.369   3.887   2.121 -0.0218  0.1201  0.3397
 1567poe     o210154   1.504   3.923   2.106 -0.1206  0.1381 -0.5529
 1567poe    c2310155   1.498   4.037   2.022 -0.4173  0.5311 -0.0093
 1567poe    c2310156   1.646   4.072   1.995 -0.3413  0.4847  0.3432
 1567poe     o210157   1.697   4.097   2.124  0.3706 -0.3042  0.2165
 1567poe    c2310158   1.834   4.128   2.118  0.2620  0.3064  0.7777
 1567poe    c2310159   1.879   4.140   2.265  1.1278 -0.1694  0.5585
 1567poe     o210160   1.797   4.041   2.323  0.2907 -0.0762 -0.4414
 1567poe    c2310161   1.766   4.074   2.457  0.5510 -0.0704 -0.3824
 1567poe    c2310162   1.666   3.967   2.504  0.5901 -0.1452 -0.4683
 1567poe     o210163   1.573   3.932   2.404  0.2187 -0.7146  0.0659
 1567poe    c3110164   1.486   3.833   2.456 -0.6463  0.2937  0.5800
 1568poe    c3110165   2.279   2.457   0.177  0.0453  0.2877 -0.2573
 1568poe     o210166   2.187   2.385   0.098  0.1378 -0.5693  0.4151
 1568poe    c2310167   2.053   2.418   0.130 -0.1021 -0.9266 -0.2115
 1568poe    c2310168   1.969   2.390   0.004  0.0272 -0.0893 -0.4885
 1568poe     o210169   2.023   2.278  -0.062  0.4195 -0.2475  0.1008
 1568poe    c2310170   1.974   2.249  -0.191  0.1096 -0.0163  0.1666
 1568poe    c2310171   2.030   2.119  -0.250 -0.4407 -0.3271  0.3208
 1568poe     o210172   2.168   2.133  -0.223 -0.3092  0.3367 -0.6391
 1568poe    c2310173   2.262   2.038  -0.269 -0.6900 -0.4281  0.1257
 1568poe    c2310174   2.274   1.903  -0.196  0.4770 -0.3076  0.1773
 1568poe     o210175   2.318   1.937  -0.067  0.2211  0.0608  0.1697
 1568poe    c3110176   2.339   1.812  -0.005  0.6458  0.4051  0.7232
 1569poe    c3110177   1.894   0.986   1.564  0.2383 -0.2683 -0.1982
 1569poe     o210178   1.944   1.086   1.649 -0.3456 -0.3330  0.2232
 1569poe    c2310179   1.833   1.157   1.700 -0.2241  0.1541 -0.1891
 1569poe    c2310180   1.895   1.276   1.775 -0.7477  0.3405 -0.0465
 1569poe     o210181   2.003   1.222   1.848 -0.7708 -0.3847 -0.5398
 1569poe    c2310182   2.044   1.319   1.942  0.1923 -0.9172 -0.4017
 1569poe    c2310183   2.182   1.281   2.000  0.0726 -0.2959  0.2992
 1569poe     o210184   2.254   1.200   1.909 -0.1027 -0.4663  0.3127
 1569poe    c2310185   2.389   1.219   1.945 -0.1052 -0.2034  0.1903
 1569poe    c2310186   2.492   1.185   1.836  0.0489  0.4317  0.1351
 1569poe     o210187   2.448   1.234   1.712 -0.1099 -0.2457 -0.0810
 1569poe    c3110188   2.550   1.204   1.619  0.0383 -0.8951  0.2838
 1570poe    c3110189   1.847   6.320   4.301 -0.1541  0.2571 -0.4141
 1570poe     o210190   1.921   6.200   4.294 -0.4611  0.0343  0.0796
 1570poe    c2310191   1.902   6.118   4.407  0.2194 -0.8140 -0.4148
 1570poe    c2310192   1.934   5.969   4.382 -0.0121 -0.8587 -0.4540
 1570poe     o210193   1.851   5.896   4.295 -0.7247  0.1448 -0.6298
 1570poe    c2310194   1.725   5.872   4.352 -0.8381  0.8838 -0.5588
 1570poe    c2310195   1.617   5.799   4.270  0.2616 -1.0783 -0.3198
 1570poe     o210196   1.588   5.880   4.159 -0.1936 -0.3311  0.3347
 1570poe    c2310197   1.469   5.833   4.099 -0.3411  0.0933  0.2884
 1570poe    c2310198   1.446   5.907   3.966  0.9800 -0.1197 -0.0734
 1570poe     o210199   1.465   6.044   3.997  0.4934 -0.1924  0.5642
 1570poe    c3110200   1.366   6.128   3.942  0.7046 -0.0625  0.3825
 1571poe    c3110201   4.901   6.242   0.396 -0.1001 -0.0456  0.1494
 1571poe     o210202   4.802   6.343   0.389  0.2569  0.3678  0.9532
 1571poe    c2310203   4.829   6.433   0.284 -0.3249 -0.6074 -0.0542
 1571poe    c2310204   4.715   6.432   0.180  0.0265  0.0423 -0.4531
 1571poe     o210205   4.593   6.489   0.222  0.1624 -0.0774  0.1182
 1571poe    c2310206   4.595   6.630   0.232  0.5168 -0.0728 -0.0096
 1571poe    c2310207   4.453   6.679   0.264  0.4832 -0.1680 -0.0128
 1571poe     o210208   4.399   6.592   0.361  0.2575  0.0145  0.0252
 1571poe    c2310209   4.259   6.604   0.372  0.2547 -0.0897  0.0996
 1571poe    c2310210   4.213   6.498   0.475 -0.2267  0.3848  0.3790
 1571poe     o210211   4.262   6.374   0.430 -0.2537  0.5687 -0.1779
 1571poe    c3110212   4.204   6.263   0.496  0.5077 -0.2303 -0.8193
 1572poe    c3110213   0.264   0.129   6.040  0.0400  0.1813 -0.0746
 1572poe     o210214   0.284   0.011   6.114  0.6276  0.2409 -0.1272
 1572poe    c2310215   0.288  -0.091   6.016 -0.2293  0.1419 -0.0663
 1572poe    c2310216   0.306  -0.229   6.082  0.5241  0.5532  0.5992
 1572poe     o210217   0.234  -0.241   6.203 -0.0336  0.4072  0.2524
 1572poe    c2310218   0.247  -0.364   6.270  0.1709  0.0947 -0.3546
 1572poe    c2310219   0.272  -0.330   6.418  0.2405  0.4761 -0.4530
 1572poe     o210220   0.195  -0.229   6.480  0.0511  0.0323  0.0510
 1572poe    c2310221   0.232  -0.222   6.615 -0.3765  0.4754  0.1494
 1572poe    c2310222   0.102  -0.168   6.676 -0.5507  0.3617 -0.1203
 1572poe     o210223   0.081  -0.030   6.652  0.1873  0.4714 -0.1608
 1572poe    c3110224  -0.027   0.016   6.731 -0.1580  0.2223 -0.4821
 1573poe    c3110225   6.446   2.784   5.662 -0.5979 -0.2524  0.2997
 1573poe     o210226   6.367   2.880   5.597 -0.3393 -0.0270  0.3180
 1573poe    c2310227   6.379   2.863   5.457  0.0589 -0.3264  0.3860
 1573poe    c2310228   6.284   2.945   5.368  0.6168  0.4641  0.5038
 1573poe     o210229   6.334   3.077   5.379  0.0960  0.7420 -0.3377
 1573poe    c2310230   6.275   3.175   5.298  0.1684  0.6585 -0.4912
 1573poe    c2310231   6.153   3.243   5.363 -0.1330 -0.2585 -0.0767
 1573poe     o210232   6.193   3.338   5.459 -0.1488  0.0485 -0.3691
 1573poe    c2310233   6.075   3.403   5.499  0.0379  0.4141 -0.4118
 1573poe    c2310234   6.107   3.528   5.584  0.0885  0.2187 -0.1415
 1573poe     o210235   6.205   3.504   5.683  0.4074 -0.2240 -0.5598
 1573poe    c3110236   6.226   3.611   5.771  0.0407 -0.3920 -0.2618
 1574poe    c3110237   0.802   1.816   6.921 -0.1642 -0.4563  0.1036
 1574poe     o210238   0.912   1.728   6.918  0.0734 -0.1502 -0.2598
 1574poe    c2310239   0.902   1.625   6.822  0.3050 -0.6040  0.1953
 1574poe    c2310240   0.802   1.514   6.858 -0.2334  0.0656  0.8004
 1574poe     o210241   0.829   1.423   6.963  0.6885 -0.1343  0.4000
 1574poe    c2310242   0.724   1.358   7.032  0.2977 -0.0342 -0.0936
 1574poe    c2310243   0.674   1.419   7.164 -0.1419  0.0707 -0.3077
 1574poe     o210244   0.773   1.448   7.260 -0.3801 -0.2676  0.0417
 1574poe    c2310245   0.727   1.550   7.346 -0.6103 -0.1243 -0.2485
 1574poe    c2310246   0.836   1.599   7.443 -0.7545  0.8202 -0.5528
 1574poe     o210247   0.939   1.677   7.387  0.1562 -0.1742 -0.3059
 1574poe    c3110248   1.013   1.744   7.487  0.1881 -0.1292 -0.3598
 1575poe    c3110249   6.448   3.307   6.612 -0.0742 -0.6904 -0.4979
 1575poe     o210250   6.329   3.257   6.669  0.0894 -0.4571  0.0569
 1575poe    c2310251   6.323   3.117   6.658  0.1667 -0.4611  0.0674
 1575poe    c2310252   6.198   3.070   6.735 -0.1254 -0.0749 -0.1696
 1575poe     o210253   6.090   3.158   6.713 -0.1199 -0.0888 -0.2526
 1575poe    c2310254   5.974   3.123   6.785  0.2435  0.3097  0.5351
 1575poe    c2310255   5.860   3.202   6.719 -0.0555  0.1053  0.8061
 1575poe     o210256   5.908   3.331   6.689  0.0538 -0.2069 -0.3991
 1575poe    c2310257   5.803   3.407   6.634  0.5186  0.5342 -0.2706
 1575poe    c2310258   5.842   3.555   6.615  0.2874  0.6261 -0.0417
 1575poe     o210259   5.947   3.575   6.522  0.5138  0.0956  0.0962
 1575poe    c3110260   5.964   3.713   6.501 -0.0235  0.1831  0.2234
 1576poe    c3110261   3.873   6.084   1.703  0.1812  0.0765 -0.1779
 1576poe     o210262   3.767   6.063   1.613  0.1550 -0.0753 -0.1126
 1576poe    c2310263   3.798   6.076   1.476 -0.8688  0.2126 -0.3252
 1576poe    c2310264   3.722   5.964   1.403 -0.0012 -0.4098 -0.2905
 1576poe     o210265   3.600   5.924   1.462 -0.1964  0.0073 -0.4081
 1576poe    c2310266   3.504   5.866   1.377 -0.5092  0.1142 -0.1303
 1576poe    c2310267   3.366   5.845   1.442 -0.3829  0.6563  0.3232
 1576poe     o210268   3.380   5.749   1.544 -0.0556  0.1848 -0.1580
 1576poe    c2310269   3.254   5.724   1.603 -0.1257  0.2774 -0.2682
 1576poe    c2310270   3.277   5.687   1.750  0.0411  0.4106 -0.2605
 1576poe     o210271   3.350   5.793   1.808 -0.0790  0.4288 -0.1416
 1576poe    c3110272   3.364   5.789   1.948  0.8203  0.9246 -0.2107
 1577poe    c3110273   0.957   5.175   2.631 -0.0592 -0.7034 -0.0717
 1577poe     o210274   0.956   5.314   2.610  0.3714 -0.6347  0.3563
 1577poe    c2310275   0.867   5.357   2.509  0.2953 -0.1320  0.6317
 1577poe    c2310276   0.929   5.377   2.370 -0.1894 -0.0611  0.4228
 1577poe     o210277   1.018   5.487   2.378 -0.3107  0.0526  0.2207
 1577poe    c2310278   1.024   5.558   2.256  0.2206 -0.1093  0.1496
 1577poe    c2310279   1.095   5.690   2.289 -0.3408  0.1243  0.4498
 1577poe     o210280   1.187   5.662   2.392  0.1062 -0.0206  0.0202
 1577poe    c2310281   1.283   5.766   2.393 -0.1613  0.2263  0.3694
 1577poe    c2310282   1.356   5.776   2.529  0.8670  0.5623 -0.1999
 1577poe     o210283   1.376   5.648   2.584  0.1596  0.3223 -0.4810
 1577poe    c3110284   1.478   5.646   2.681 -0.1887  0.2292 -0.1184
 1578poe    c3110285   6.478   6.089   1.465  0.0362 -0.1416 -0.2917
 1578poe     o210286   6.349   6.097   1.521  0.0236  0.2830 -0.3780
 1578poe    c2310287   6.297   6.222   1.483  0.1998  0.4681 -0.0252
 1578poe    c2310288   6.153   6.246   1.532  0.2555 -0.3588  0.5621
 1578poe     o210289   6.158   6.196   1.664 -0.2293  0.4137  0.8768
 1578poe    c2310290   6.036   6.238   1.722 -0.5862  0.6430 -0.0158
 1578poe    c2310291   5.958   6.107   1.743  0.2885  0.1447  0.1682
 1578poe     o210292   6.028   6.011   1.819 -0.1714 -0.7625 -0.5400
 1578poe    c2310293   5.949   5.949   1.918 -0.1877  0.4214  0.1993
 1578poe    c2310294   6.042   5.883   2.021 -0.3928 -0.0888  0.0600
 1578poe     o210295   6.129   5.791   1.960 -0.5271 -0.5005  0.4881
 1578poe    c3110296   6.205   5.743   2.069 -0.1472 -0.1164  0.3924
 1579poe    c3110297   5.541   5.099   0.499  0.0948  0.4373 -0.0249
 1579poe     o210298   5.578   5.208   0.418 -0.0700  0.5381  0.0352
 1579poe    c2310299   5.670   5.290   0.488  0.1093  0.1244  0.2893
 1579poe    c2310300   5.676   5.414   0.397  0.2602 -0.1156 -0.0300
 1579poe     o210301   5.729   5.358   0.279  0.1076 -0.2475 -0.0360
 1579poe    c2310302   5.734   5.468   0.191  0.3484 -0.4437 -0.2689
 1579poe    c2310303   5.758   5.403   0.053  0.2264 -0.4777 -0.2746
 1579poe     o210304   5.668   5.299   0.023 -0.0388 -0.2179 -0.3946
 1579poe    c2310305   5.694   5.254  -0.108  0.5979 -0.3848 -0.2145
 1579poe    c2310306   5.600   5.134  -0.131  0.2217 -0.1705  0.1892
 1579poe     o210307   5.649   5.031  -0.048  0.0897 -0.1013  0.3527
 1579poe    c3110308   5.597   4.901  -0.065 -0.5259  0.0925  0.7277
 1580poe    c3110309   3.053   6.854   5.683  0.0511  0.4397 -0.0338
 1580poe     o210310   3.167   6.789   5.735  0.0577 -0.0782 -0.6880
 1580poe    c2310311   3.285   6.847   5.683 -0.1074  0.2861 -0.6653
 1580poe    c2310312   3.400   6.782   5.762 -0.6414  0.2211  0.0667
 1580poe     o210313   3.382   6.644   5.739 -0.1115  0.1810 -0.1192
 1580poe    c2310314   3.501   6.570   5.756 -0.0759  0.1729 -0.3969
 1580poe    c2310315   3.475   6.425   5.800 -0.4275  0.3698  0.0532
 1580poe     o210316   3.416   6.403   5.926 -0.2946  0.1751  0.0811
 1580poe    c2310317   3.376   6.270   5.904  0.6160 -0.2101  0.6793
 1580poe    c2310318   3.251   6.232   5.987  0.1611 -0.3135 -0.0468
 1580poe     o210319   3.148   6.311   5.932  0.3461  0.4246  0.6489
 1580poe    c3110320   3.024   6.244   5.933  0.6932 -0.2252  0.5009
 1581poe    c3110321   4.123   1.758   0.231 -0.4000  0.2348  0.0891
 1581poe     o210322   4.042   1.645   0.211  0.3856 -0.3845  0.3487
 1581poe    c2310323   3.920   1.644   0.282 -0.1376  0.0467 -0.5379
 1581poe    c2310324   3.829   1.529   0.236 -0.0663 -0.1755 -0.1274
 1581poe     o210325   3.906   1.416   0.202 -0.0627 -0.3277  0.3932
 1581poe    c2310326   3.828   1.308   0.155 -0.5504 -0.0791  0.6216
 1581poe    c2310327   3.851   1.303   0.002  0.1925  0.1857  0.7191
 1581poe     o210328   3.988   1.286  -0.026  0.0578 -0.1254  0.2420
 1581poe    c2310329   4.015   1.252  -0.160  0.0615 -0.0657  0.2281
 1581poe    c2310330   4.164   1.243  -0.198  0.2020  0.2309  0.6952
 1581poe     o210331   4.223   1.370  -0.183 -0.3163  0.5429  0.1102
 1581poe    c3110332   4.359   1.372  -0.221 -0.1785 -0.2137  0.5522
 1582poe    c3110333   5.198   2.864   0.295 -0.2887 -0.5128 -0.1274
 1582poe     o210334   5.246   2.799   0.410 -0.0452 -0.5814 -0.2686
 1582poe    c2310335   5.147   2.706   0.445 -0.3333 -0.4800 -0.8122
 1582poe    c2310336   5.195   2.612   0.557  0.2797 -0.0583 -0.7239
 1582poe     o210337   5.231   2.701   0.661 -0.1986  0.0206 -0.6259
 1582poe    c2310338   5.266   2.635   0.781 -0.3567 -0.0165 -0.5990
 1582poe    c2310339   5.285   2.743   0.889 -0.1768 -0.1875 -0.4601
 1582poe     o210340   5.344   2.853   0.823  0.1204 -0.2369 -0.2826
 1582poe    c2310341   5.404   2.951   0.905 -0.4949  0.1885 -0.3347
 1582poe    c2310342   5.311   3.063   0.955 -0.2481  0.1610  0.1975
 1582poe     o210343   5.257   3.144   0.853  0.2715  0.2816  0.0155
 1582poe    c3110344   5.174   3.244   0.908  0.1959  0.6654 -0.7755
 1583poe    c3110345   6.833   3.291   4.340 -0.0272 -0.2741  0.0215
 1583poe     o210346   6.921   3.400   4.322 -0.3911  0.0020 -0.1185
 1583poe    c2310347   6.877   3.514   4.393 -0.0742  0.2306 -0.2884
 1583poe    c2310348   6.973   3.632   4.369  0.3422  0.0169  0.2961
 1583poe     o210349   7.008   3.643   4.233 -0.4901  0.3329  0.1008
 1583poe    c2310350   7.085   3.754   4.194  0.3364 -0.0739  0.5672
 1583poe    c2310351   7.102   3.760   4.041  0.4331  0.0492  0.5827
 1583poe     o210352   7.150   3.638   3.991 -0.5443  0.0642 -0.4405
 1583poe    c2310353   7.143   3.624   3.851  0.9181  0.4073 -0.5670
 1583poe    c2310354   7.201   3.485   3.817 -0.1018 -0.1253 -0.2002
 1583poe     o210355   7.109   3.381   3.840  0.1996 -0.1760  0.8318
 1583poe    c3110356   7.131   3.266   3.762  0.0807  0.4036 -0.0724
 1584poe    c3110357   2.613   4.382   1.201  0.1579  0.0504  0.2371
 1584poe     o210358   2.490   4.313   1.204  0.2997 -0.2372 -0.3260
 1584poe    c2310359   2.402   4.322   1.094 -0.2723  0.1009  0.1489
 1584poe    c2310360   2.324   4.190   1.087  0.0998 -0.0884 -0.5332
 1584poe     o210361   2.316   4.146   1.221  0.1623  0.1046 -0.4665
 1584poe    c2310362   2.296   4.007   1.225 -0.2787  0.1860  0.5442
 1584poe    c2310363   2.352   3.946   1.355  0.1367 -0.2976  0.1406
 1584poe     o210364   2.473   4.014   1.382  0.6117 -1.0108 -0.1556
 1584poe    c2310365   2.512   4.008   1.517  0.2217  0.6675  0.0455
 1584poe    c2310366   2.624   4.112   1.534  0.4943  0.2915  0.5580
 1584poe     o210367   2.576   4.235   1.484 -0.2010 -0.2338 -0.0836
 1584poe    c3110368   2.640   4.336   1.558 -0.2842 -0.2793  0.0500
 1585poe    c3110369   1.204   1.090   1.545 -0.5497 -0.1283 -0.6838
 1585poe     o210370   1.074   1.065   1.594 -0.2212 -0.2392  0.1528
 1585poe    c2310371   1.003   0.971   1.516 -0.0400 -0.4960  0.2948
 1585poe    c2310372   0.898   0.930   1.620 -0.6551 -0.1816 -0.1952
 1585poe     o210373   0.824   1.039   1.671 -0.5554 -0.1438 -0.1324
 1585poe    c2310374   0.739   0.993   1.774 -0.5570  0.1582  0.0027
 1585poe    c2310375   0.651   1.091   1.854 -0.5201  0.2537 -0.0742
 1585poe     o210376   0.717   1.127   1.973  0.2758  0.1451 -0.4779
 1585poe    c2310377   0.667   1.243   2.035  0.8648  0.5840 -0.8101
 1585poe    c2310378   0.754   1.259   2.161 -0.1081 -0.0542 -0.0405
 1585poe     o210379   0.889   1.296   2.140  0.0500 -0.2795  0.5530
 1585poe    c3110380   0.928   1.385   2.242 -0.5803  0.3356  0.2656
 1586poe    c3110381   5.857   4.014   3.382 -0.5173  0.1845 -0.3448
 1586poe     o210382   5.817   4.018   3.247 -0.2902 -0.0005 -0.4170
 1586poe    c2310383   5.734   4.129   3.221 -0.2435 -0.0047 -0.5846
 1586poe    c2310384   5.783   4.274   3.234  0.1033 -0.1815  0.1166
 1586poe     o210385   5.867   4.312   3.127  0.0560 -0.1248  0.0997
 1586poe    c2310386   5.906   4.445   3.154 -0.4003  0.0472 -0.0802
 1586poe    c2310387   5.958   4.512   3.026 -0.2533 -0.1073 -0.1017
 1586poe     o210388   6.031   4.413   2.958 -0.1395  0.1820 -0.4038
 1586poe    c2310389   6.153   4.461   2.905  0.1962 -0.0923  0.1119
 1586poe    c2310390   6.195   4.375   2.784  0.2436  0.6274 -0.3883
 1586poe     o210391   6.205   4.240   2.822  0.7366  0.7174 -0.1834
 1586poe    c3110392   6.260   4.156   2.722  1.7389  0.5201  0.5196
 1587poe    c3110393   1.552   4.246   5.419 -0.4630 -0.3241  0.3441
 1587poe     o210394   1.649   4.274   5.518 -0.2594 -0.0031  0.0585
 1587poe    c2310395   1.689   4.409   5.511  0.6311 -0.2770 -0.2608
 1587poe    c2310396   1.838   4.428   5.545  0.4830 -0.1356  0.3099
 1587poe     o210397   1.842   4.357   5.667 -0.0554  0.2835  0.5816
 1587poe    c2310398   1.966   4.354   5.734  0.1695  0.0716  0.1651
 1587poe    c2310399   1.960   4.269   5.863  0.2567  0.6926  0.5840
 1587poe     o210400   1.885   4.151   5.844  0.5827  0.6655 -0.6517
 1587poe    c2310401   1.948   4.046   5.774  0.1715 -0.5773  0.7889
 1587poe    c2310402   1.855   3.937   5.718 -0.1050 -0.0382  0.1853
 1587poe     o210403   1.757   4.002   5.640  0.0721 -0.5288 -0.4420
 1587poe    c3110404   1.666   3.908   5.587  0.3528 -1.1879  0.2301
 1588poe    c3110405   0.307   3.638   2.332 -0.7549  0.7712 -0.4001
 1588poe     o210406   0.367   3.699   2.219  0.5272 -0.4668 -0.4181
 1588poe    c2310407   0.341   3.620   2.105  0.3046 -0.5378 -0.3206
 1588poe    c2310408   0.393   3.690   1.978 -0.5803  0.2463 -0.2666
 1588poe     o210409   0.532   3.709   1.963 -0.5691 -0.0974 -0.6333
 1588poe    c2310410   0.555   3.808   1.866 -0.3044  0.5159  0.0421
 1588poe    c2310411   0.696   3.858   1.904 -0.1725 -0.1818  0.4829
 1588poe     o210412   0.781   3.746   1.904 -0.1434 -0.1595  0.4070
 1588poe    c2310413   0.916   3.774   1.873 -0.2756  0.0617  0.0344
 1588poe    c2310414   0.986   3.638   1.861 -0.0118  0.2032 -0.0331
 1588poe     o210415   0.911   3.546   1.938 -0.1523 -0.4116 -0.8904
 1588poe    c3110416   0.982   3.425   1.954  0.4541  0.0270 -0.2096
 1589poe    c3110417   1.793   6.781   4.859  0.4896  0.0316 -0.8772
 1589poe     o210418   1.846   6.677   4.938  0.3439  0.6214  0.0070
 1589poe    c2310419   1.764   6.645   5.048 -0.2617  0.2193 -0.5490
 1589poe    c2310420   1.851   6.569   5.150 -0.0023  0.2985 -0.7113
 1589poe     o210421   1.922   6.471   5.076 -0.0688 -0.0480 -0.3184
 1589poe    c2310422   2.017   6.424   5.169 -0.1751  0.0715 -0.1477
 1589poe    c2310423   2.111   6.330   5.091 -0.2027 -0.0616 -0.0202
 1589poe     o210424   2.138   6.388   4.966 -0.2693  0.4215  0.1884
 1589poe    c2310425   2.259   6.460   4.974  0.0935 -0.1450 -0.1151
 1589poe    c2310426   2.255   6.544   4.844 -0.2912  0.1598  0.0913
 1589poe     o210427   2.137   6.621   4.850 -0.2403  0.2286  0.2453
 1589poe    c3110428   2.130   6.666   4.716  0.4305 -0.0122  0.1270
 1590poe    c3110429   1.607   1.608   4.835 -0.1249 -0.1558  0.1184
 1590poe     o210430   1.495   1.592   4.751  0.0085  0.1152 -0.1113
 1590poe    c2310431   1.527   1.487   4.661  0.0496  0.3131 -0.3292
 1590poe    c2310432   1.435   1.502   4.539 -0.7718  0.4339  0.2941
 1590poe     o210433   1.423   1.638   4.506  0.3841  0.4816  0.0275
 1590poe    c2310434   1.345   1.665   4.391  0.1434 -0.7476 -0.1065
 1590poe    c2310435   1.329   1.818   4.381  0.4616 -0.6725  0.4392
 1590poe     o210436   1.300   1.860   4.512 -0.0599 -0.4484  0.2555
 1590poe    c2310437   1.209   1.967   4.495  0.5019  0.0039  0.0368
 1590poe    c2310438   1.217   2.067   4.611 -0.2856  0.0926  0.0223
 1590poe     o210439   1.170   2.037   4.740 -0.4712 -0.3932 -0.1575
 1590poe    c3110440   1.187   2.146   4.828 -0.6587 -0.5918  0.1283
 1591poe    c3110441   6.386   3.120   3.468  0.0609 -0.0858  0.2622
 1591poe     o210442   6.412   3.205   3.359  0.2230  0.0067  0.3745
 1591poe    c2310443   6.327   3.317   3.369  0.5704  0.2447  0.6752
 1591poe    c2310444   6.348   3.428   3.265 -0.5960  0.2988  0.4889
 1591poe     o210445   6.332   3.383   3.132 -0.0185 -0.1449  0.5673
 1591poe    c2310446   6.387   3.487   3.053 -0.3222 -0.7173 -0.4061
 1591poe    c2310447   6.380   3.446   2.905  0.1238  0.1165 -0.6591
 1591poe     o210448   6.431   3.315   2.895 -0.0211  0.0574 -0.6210
 1591poe    c2310449   6.504   3.287   2.778  0.1979  0.1792 -0.5149
 1591poe    c2310450   6.556   3.143   2.792  0.0644  0.1409 -0.4107
 1591poe     o210451   6.458   3.065   2.857  0.6612 -0.2678  0.0150
 1591poe    c3110452   6.482   2.930   2.825  0.0753 -0.4069  0.1575
 1592poe    c3110453   4.346   2.324   6.580 -0.0990 -0.1690 -0.5945
 1592poe     o210454   4.273   2.444   6.596 -0.1234 -0.1532 -0.8229
 1592poe    c2310455   4.355   2.556   6.573  0.4631 -0.2074  0.9186
 1592poe    c2310456   4.315   2.691   6.636  0.3514  0.3917 -0.4129
 1592poe     o210457   4.203   2.737   6.564  0.0124  0.2577  0.0328
 1592poe    c2310458   4.166   2.866   6.606  0.1749  0.3984 -0.2595
 1592poe    c2310459   4.086   2.928   6.490 -0.2691  0.1605 -0.0834
 1592poe     o210460   3.999   2.828   6.443  0.1185 -0.2238  0.0149
 1592poe    c2310461   3.919   2.878   6.338  0.4696  0.2933 -0.0099
 1592poe    c2310462   3.821   2.770   6.289  0.3714  0.5016 -0.2701
 1592poe     o210463   3.906   2.658   6.280  0.3305  0.4248  0.2986
 1592poe    c3110464   3.834   2.556   6.214  0.6339  0.2622  0.2170
 1593poe    c3110465   6.886   4.412   4.337  0.1601 -0.6896  0.5192
 1593poe     o210466   6.764   4.386   4.272  0.4442  0.3934 -0.4872
 1593poe    c2310467   6.666   4.480   4.311  0.6119  0.2931  0.1793
 1593poe    c2310468   6.546   4.436   4.227  0.3207  0.2402  0.6189
 1593poe     o210469   6.585   4.398   4.097  0.2257  0.0649  0.6410
 1593poe    c2310470   6.475   4.343   4.027  0.2154  0.3825  0.4028
 1593poe    c2310471   6.523   4.294   3.889 -0.4093  0.1038  0.2824
 1593poe     o210472   6.609   4.182   3.900 -0.0973  0.2703 -0.4239
 1593poe    c2310473   6.573   4.076   3.813  0.0812  0.3818 -0.6345
 1593poe    c2310474   6.665   3.954   3.827  0.0790  0.4714  0.2447
 1593poe     o210475   6.682   3.922   3.963  0.1048  0.1925  0.1766
 1593poe    c3110476   6.753   3.801   3.976 -0.1132  0.0544  0.0872
 1594poe    c3110477   4.205   3.212   4.110  0.8004  0.6181 -0.4243
 1594poe     o210478   4.200   3.214   3.969  0.7783  0.4618 -0.4259
 1594poe    c2310479   4.124   3.320   3.915 -0.0943  0.0802  0.0292
 1594poe    c2310480   4.163   3.321   3.766  0.0599 -0.5866  0.0584
 1594poe     o210481   4.138   3.190   3.722  0.0202 -0.5252 -0.1038
 1594poe    c2310482   4.168   3.171   3.586  0.1389  0.0719 -0.1653
 1594poe    c2310483   4.166   3.020   3.551  0.1230  0.0788 -0.1951
 1594poe     o210484   4.254   2.960   3.643 -0.4779 -0.3403  0.1081
 1594poe    c2310485   4.294   2.830   3.604  0.4162  0.0951 -0.4761
 1594poe    c2310486   4.381   2.751   3.704  0.0688  0.3001 -0.0101
 1594poe     o210487   4.299   2.684   3.798  0.3933  0.1671  0.1796
 1594poe    c3110488   4.383   2.609   3.883  0.4007  0.0858  0.1015
 1595poe    c3110489   3.001   0.590   5.145 -0.4839 -0.1880  0.4026
 1595poe     o210490   3.108   0.542   5.067 -0.3520 -0.0378  0.4894
 1595poe    c2310491   3.191   0.654   5.043 -0.2020 -0.3586 -0.5275
 1595poe    c2310492   3.310   0.620   4.951  0.1100 -0.4514 -0.0905
 1595poe     o210493   3.399   0.556   5.039  0.1129 -0.0783  0.1824
 1595poe    c2310494   3.490   0.479   4.963 -0.1681 -0.1260 -0.1049
 1595poe    c2310495   3.608   0.443   5.055 -0.2354  0.2877  0.1488
 1595poe     o210496   3.566   0.364   5.164 -0.1184  0.1375  0.0863
 1595poe    c2310497   3.670   0.314   5.245  0.3618  0.4618 -0.3197
 1595poe    c2310498   3.635   0.327   5.395  0.0265 -0.3392 -0.3234
 1595poe     o210499   3.499   0.292   5.408 -0.1090  0.2614 -0.0732
 1595poe    c3110500   3.451   0.292   5.540 -0.1535 -0.0010 -0.0879
 1596poe    c3110501   1.333   4.834   2.739 -0.0627  0.2790 -0.7927
 1596poe     o210502   1.474   4.829   2.734 -0.0342 -0.1020  0.2192
 1596poe    c2310503   1.539   4.750   2.831  0.1191 -0.0817  0.1329
 1596poe    c2310504   1.683   4.719   2.787  0.1763  0.2151  0.1067
 1596poe     o210505   1.765   4.833   2.798 -0.0866  0.3551  0.6353
 1596poe    c2310506   1.887   4.809   2.732 -0.5319 -0.5142  0.1135
 1596poe    c2310507   1.993   4.921   2.727 -0.4188 -0.6274 -0.0470
 1596poe     o210508   1.941   5.033   2.660  0.6109 -0.3411 -0.3908
 1596poe    c2310509   2.036   5.135   2.642 -0.0203  0.2130 -0.6382
 1596poe    c2310510   1.964   5.271   2.643 -0.0623  0.1844  0.2239
 1596poe     o210511   1.845   5.260   2.568 -0.2022 -0.1489  0.4875
 1596poe    c3110512   1.765   5.376   2.565  0.3232  0.2146  0.4520
 1597poe    c3110513   3.797   0.362   6.703  0.0857 -0.0193  0.1451
 1597poe     o210514   3.868   0.240   6.697  0.1093 -0.0153  0.3322
 1597poe    c2310515   4.006   0.268   6.698  0.1518 -0.2244  0.4507
 1597poe    c2310516   4.085   0.149   6.642  0.3315  0.1416 -0.0874
 1597poe     o210517   4.005   0.105   6.535  0.1517  0.0221  0.0958
 1597poe    c2310518   4.049  -0.023   6.495 -0.2339  0.1149 -0.6502
 1597poe    c2310519   3.931  -0.090   6.424 -0.3300 -0.6484  0.2125
 1597poe     o210520   3.820  -0.067   6.509 -0.1963  0.0113  0.2098
 1597poe    c2310521   3.798  -0.168   6.605 -1.1112 -0.1319 -0.1402
 1597poe    c2310522   3.701  -0.111   6.710 -0.7578 -0.0838  0.1621
 1597poe     o210523   3.748   0.016   6.750 -0.0809 -0.1592 -0.3697
 1597poe    c3110524   3.690   0.035   6.877  0.2043 -0.1963 -0.2334
 1598poe    c3110525   1.182   4.575   1.573 -0.7952 -0.1588 -0.6045
 1598poe     o210526   1.254   4.610   1.457  0.2832  0.2277  0.1670
 1598poe    c2310527   1.169   4.633   1.347 -0.0377 -0.1470  0.3354
 1598poe    c2310528   1.240   4.693   1.224 -0.1074 -0.6282  0.0573
 1598poe     o210529   1.318   4.594   1.161  0.5410 -0.0711 -0.0191
 1598poe    c2310530   1.397   4.661   1.065 -0.3680  0.4035 -0.4491
 1598poe    c2310531   1.490   4.555   1.003 -0.0348  0.4414 -0.0183
 1598poe     o210532   1.562   4.477   1.097  0.5605  0.3548 -0.5427
 1598poe    c2310533   1.641   4.375   1.041  0.3769 -0.1359  0.0914
 1598poe    c2310534   1.691   4.281   1.153 -0.0467 -0.2283  0.2049
 1598poe     o210535   1.568   4.244   1.211 -0.4336 -0.2853 -0.6306
 1598poe    c3110536   1.596   4.155   1.317 -1.0464 -0.0135 -0.2382
 1599poe    c3110537   1.637   3.600   0.951  0.4375  0.2356  0.1933
 1599poe     o210538   1.652   3.623   1.089  0.2024 -0.0193  0.2611
 1599poe    c2310539   1.632   3.760   1.113 -0.2888 -0.0348 -0.0622
 1599poe    c2310540   1.683   3.791   1.255 -0.2806  0.1926 -0.1140
 1599poe     o210541   1.623   3.719   1.361 -0.2221  0.1739 -0.0938
 1599poe    c2310542   1.666   3.734   1.494  0.7904 -0.3322 -0.3551
 1599poe    c2310543   1.618   3.627   1.595  0.2299 -0.0088 -0.2748
 1599poe     o210544   1.665   3.499   1.561  0.0051 -0.2452  0.2951
 1599poe    c2310545   1.602   3.416   1.655 -0.4623  0.2344  0.4068
 1599poe    c2310546   1.615   3.270   1.607 -0.3260  0.3901 -0.0343
 1599poe     o210547   1.603   3.267   1.467 -0.8880 -0.1846  0.0231
 1599poe    c3110548   1.587   3.134   1.423 -0.4905 -0.1250 -0.3023
 1600poe    c3110549   3.008   4.915   0.765  0.1296  0.2843  0.2047
 1600poe     o210550   3.103   4.820   0.808 -0.1290 -0.0667  0.0092
 1600poe    c2310551   3.193   4.794   0.703  0.0737  0.2341  0.1062
 1600poe    c2310552   3.296   4.697   0.764 -0.0799 -0.0792 -0.1268
 1600poe     o210553   3.219   4.637   0.866 -0.5160 -0.8968 -0.9232
 1600poe    c2310554   3.282   4.525   0.924 -0.1128 -0.2969 -0.1793
 1600poe    c2310555   3.168   4.467   1.010 -0.0058 -0.2480 -0.0045
 1600poe     o210556   3.108   4.572   1.082 -0.2088 -0.3740  0.0112
 1600poe    c2310557   2.992   4.538   1.154 -0.2014 -0.0950  0.1584
 1600poe    c2310558   2.926   4.673   1.189  0.0991  0.0228  0.2734
 1600poe     o210559   2.946   4.757   1.078 -0.1792  0.0698  0.2574
 1600poe    c3110560   2.875   4.874   1.108 -0.2048  0.2008 -0.3035
 1601poe    c3110561   4.899   1.325   2.815 -0.0584  0.5427 -0.6417
 1601poe     o210562   4.823   1.379   2.920  0.1978 -0.1806 -0.0776
 1601poe    c2310563   4.859   1.316   3.041  0.0521  0.0190  0.0726
 1601poe    c2310564   4.814   1.382   3.172  0.2358  0.9408 -0.3209
 1601poe     o210565   4.683   1.436   3.172 -0.1587  0.0030 -0.2243
 1601poe    c2310566   4.643   1.463   3.304  0.2744  0.2757 -0.1461
 1601poe    c2310567   4.519   1.554   3.312 -0.2487 -0.4774  0.4344
 1601poe     o210568   4.431   1.518   3.207  0.0135  0.2976 -0.0593
 1601poe    c2310569   4.324   1.607   3.185 -0.2423 -0.0386 -0.1840
 1601poe    c2310570   4.355   1.694   3.062 -0.3702  0.1637 -0.0739
 1601poe     o210571   4.384   1.602   2.959 -0.6970 -0.2684  0.2166
 1601poe    c3110572   4.383   1.666   2.834  0.0887 -0.3873  0.1465
 1602poe    c3110573   1.964   0.559   3.506 -0.1815 -0.2299  0.3292
 1602poe     o210574   2.057   0.461   3.545  0.2239 -0.1153 -0.3449
 1602poe    c2310575   2.131   0.431   3.429  0.0619  0.4260 -0.5872
 1602poe    c2310576   2.261   0.352   3.450 -0.5038 -0.4686 -0.4394
 1602poe     o210577   2.334   0.403   3.559 -0.4714 -0.4571 -0.4664
 1602poe    c2310578   2.454   0.330   3.578 -0.1203  0.1262 -0.4129
 1602poe    c2310579   2.524   0.399   3.696 -0.3170  0.0884 -0.2725
 1602poe     o210580   2.442   0.445   3.801 -0.2378 -0.3908  0.0029
 1602poe    c2310581   2.514   0.503   3.908 -0.6925  0.4386 -0.1343
 1602poe    c2310582   2.449   0.465   4.042  0.2145 -0.0936  0.1572
 1602poe     o210583   2.323   0.528   4.049  0.1328 -0.1893 -0.3923
 1602poe    c3110584   2.253   0.477   4.160  0.2820  0.2718 -0.0832
 1603poe    c3110585   3.863   4.898   2.945  0.0980  0.0782 -0.1777
 1603poe     o210586   3.996   4.910   2.900  0.1880  0.1605  0.1094
 1603poe    c2310587   4.049   5.034   2.939 -0.4674  0.4873 -0.0238
 1603poe    c2310588   4.176   5.069   2.859  0.0242  0.5534  0.7765
 1603poe     o210589   4.274   4.972   2.890 -0.1546  0.4823  1.1262
 1603poe    c2310590   4.397   5.005   2.829 -0.4175  0.1254  0.3783
 1603poe    c2310591   4.491   4.884   2.833 -0.1476  0.2950 -0.6747
 1603poe     o210592   4.436   4.768   2.774  0.3141 -0.0063 -0.5262
 1603poe    c2310593   4.516   4.653   2.784  0.3717  0.0957  0.2281
 1603poe    c2310594   4.455   4.539   2.700 -0.0084  0.0197  0.6032
 1603poe     o210595   4.315   4.545   2.711 -0.0401 -0.0913  0.2683
 1603poe    c3110596   4.254   4.437   2.643  0.1604  0.0495 -0.1402
 1604poe    c3110597   2.769   2.126   3.203 -0.0412  0.3591 -0.3692
 1604poe     o210598   2.780   2.011   3.122  0.3334 -0.0880  0.3067
 1604poe    c2310599   2.852   1.913   3.194  0.4430 -0.3803 -0.1940
 1604poe    c2310600   2.921   1.831   3.084  0.4852 -0.5891 -0.0122
 1604poe     o210601   2.808   1.809   3.003  0.3867  0.1876 -0.0920
 1604poe    c2310602   2.840   1.726   2.893  0.4129 -0.1155  0.1422
 1604poe    c2310603   2.720   1.736   2.798  0.3464  0.0013  0.2374
 1604poe     o210604   2.682   1.871   2.781 -0.1067 -0.0726  0.6517
 1604poe    c2310605   2.618   1.862   2.656  0.6878  0.0743  0.2236
 1604poe    c2310606   2.552   1.993   2.611  0.2148 -0.2511 -0.0501
 1604poe     o210607   2.492   2.052   2.724  0.9345  0.6510 -0.1280
 1604poe    c3110608   2.428   2.175   2.696 -0.2705 -0.2221 -1.3021
 1605poe    c3110609   6.835   3.398   0.297  0.8122 -0.5322 -0.4099
 1605poe     o210610   6.919   3.496   0.353 -0.3900  0.3291 -0.0647
 1605poe    c2310611   7.037   3.443   0.408 -0.5063 -0.0672 -0.1944
 1605poe    c2310612   7.123   3.563   0.451 -0.4775 -0.1521 -0.0114
 1605poe     o210613   7.027   3.661   0.485 -0.0065  0.1944  0.3272
 1605poe    c2310614   7.087   3.767   0.557  0.3076 -0.3470  0.8775
 1605poe    c2310615   6.970   3.863   0.585  0.1993 -0.2705  0.1818
 1605poe     o210616   6.893   3.886   0.469  0.2423  0.5049  0.3044
 1605poe    c2310617   6.809   4.000   0.479 -0.4286  0.0449 -0.0231
 1605poe    c2310618   6.727   4.043   0.356  0.0394 -0.2572 -0.4488
 1605poe     o210619   6.630   3.941   0.361 -0.0791 -0.1221  0.1223
 1605poe    c3110620   6.536   3.964   0.259  0.0782  0.4619  0.1063
 1606poe    c3110621   3.027   3.357   0.904  0.7810 -0.5757 -0.5589
 1606poe     o210622   2.978   3.439   0.800  0.2922 -0.2054 -0.0466
 1606poe    c2310623   2.845   3.477   0.828  0.4416  0.0717  0.2935
 1606poe    c2310624   2.786   3.532   0.697 -0.0765 -0.4996  0.2841
 1606poe     o210625   2.842   3.448   0.598  0.2286 -0.0737  0.0944
 1606poe    c2310626   2.806   3.487   0.467 -0.4464 -0.7174  0.0867
 1606poe    c2310627   2.879   3.394   0.369  0.0097 -0.6480  0.3551
 1606poe     o210628   3.016   3.385   0.400  0.0177 -0.2989  0.4186
 1606poe    c2310629   3.066   3.322   0.285  0.0552  0.3840  0.0550
 1606poe    c2310630   3.189   3.239   0.328  0.0054  0.4578  0.3394
 1606poe     o210631   3.159   3.142   0.426 -0.0148  0.3594  0.2359
 1606poe    c3110632   3.267   3.057   0.453  0.0064  0.4560  0.4570
 1607poe    c3110633   1.517   6.670   0.859  0.0176 -0.0448  0.2310
 1607poe     o210634   1.643   6.611   0.876  0.1597  0.2028  0.0537
 1607poe    c2310635   1.636   6.499   0.961  0.2168 -0.0859 -0.3174
 1607poe    c2310636   1.775   6.453   1.008  0.3704  1.0145  0.3406
 1607poe     o210637   1.851   6.416   0.895  0.4953  0.2058  0.6796
 1607poe    c2310638   1.964   6.340   0.933  0.3481 -0.5840 -0.4272
 1607poe    c2310639   2.036   6.291   0.806 -0.2930 -0.7382 -0.7352
 1607poe     o210640   2.063   6.416   0.745 -0.4640 -0.5071 -0.3437
 1607poe    c2310641   2.136   6.387   0.628  0.6939 -0.1402  0.2719
 1607poe    c2310642   2.157   6.516   0.546  0.3505 -0.4151 -0.2521
 1607poe     o210643   2.033   6.583   0.557  0.6380  0.0380  0.2345
 1607poe    c3110644   2.002   6.638   0.432  0.3680  0.1155  0.3347
 1608poe    c3110645   1.729   1.607   0.648 -0.1880 -0.4753 -0.1661
 1608poe     o210646   1.831   1.562   0.561 -0.3047 -0.2674 -0.4086
 1608poe    c2310647   1.844   1.423   0.578  0.5389 -0.1120  0.2667
 1608poe    c2310648   1.965   1.387   0.490  0.2318 -0.2599 -0.0992
 1608poe     o210649   1.960   1.428   0.355  0.4033  0.5520  0.1306
 1608poe    c2310650   2.070   1.420   0.268 -0.1748 -0.0103 -0.5685
 1608poe    c2310651   2.052   1.513   0.147 -0.4371  0.0168 -0.5084
 1608poe     o210652   2.002   1.638   0.188  0.0241 -0.0994  0.4203
 1608poe    c2310653   2.007   1.729   0.080 -0.4082 -0.4644  0.0907
 1608poe    c2310654   1.944   1.861   0.130 -0.2944 -0.3778  0.0058
 1608poe     o210655   2.010   1.907   0.246  0.0311  0.2434 -0.4208
 1608poe    c3110656   2.010   2.046   0.268  0.3186  0.1749  0.0140
 1609poe    c3110657   3.998   5.845   5.011 -0.1324  0.1838 -0.0789
 1609poe     o210658   4.057   5.717   5.005 -0.4552  0.0051  0.4917
 1609poe    c2310659   4.110   5.675   5.129  1.1152  0.3578 -0.0270
 1609poe    c2310660   4.168   5.533   5.124 -0.4676 -0.3464  0.5897
 1609poe     o210661   4.079   5.440   5.067 -0.0448 -0.5014  0.1734
 1609poe    c2310662   4.137   5.312   5.082  0.0116 -0.4416  0.4707
 1609poe    c2310663   4.037   5.198   5.057 -0.3256 -0.0844  0.1681
 1609poe     o210664   3.978   5.230   4.933 -0.6216  0.0743  0.3494
 1609poe    c2310665   3.931   5.131   4.844 -0.5151 -0.2886  0.6956
 1609poe    c2310666   3.836   5.191   4.739  0.2353 -0.5751 -0.1544
 1609poe     o210667   3.877   5.317   4.690  0.2027 -0.3701  0.3404
 1609poe    c3110668   3.798   5.345   4.577  0.1640 -0.3067  0.3834
 1610poe    c3110669   3.731   3.664   4.118  0.6334 -0.5881 -0.4509
 1610poe     o210670   3.676   3.737   4.012  0.0886 -0.2636  0.0503
 1610poe    c2310671   3.736   3.864   4.002 -0.4988  0.0097 -0.0993
 1610poe    c2310672   3.733   3.908   3.855  0.0199 -0.4995 -0.2686
 1610poe     o210673   3.612   3.868   3.796 -0.1444 -0.3939 -0.0070
 1610poe    c2310674   3.600   3.899   3.659  0.3915  0.2970  0.0979
 1610poe    c2310675   3.484   3.846   3.572  0.3473  0.2747  0.1712
 1610poe     o210676   3.358   3.894   3.615 -0.0013 -0.5954  0.1428
 1610poe    c2310677   3.247   3.809   3.594 -0.3200  0.0378 -0.7934
 1610poe    c2310678   3.132   3.856   3.685 -0.3739 -0.4233 -0.6210
 1610poe     o210679   3.152   3.863   3.824 -0.3462  0.1590 -0.6539
 1610poe    c3110680   3.037   3.848   3.904  0.1935 -0.2219  0.0642
 1611poe    c3110681   0.526   6.770   4.870  0.3760 -0.2331  0.5109
 1611poe     o210682   0.600   6.745   4.988  0.5641 -0.4425  0.3510
 1611poe    c2310683   0.603   6.860   5.070 -0.4593 -0.1262 -0.0284
 1611poe    c2310684   0.665   6.828   5.208  0.0131  0.2646 -0.1454
 1611poe     o210685   0.789   6.775   5.168 -0.1254 -0.2298  0.0833
 1611poe    c2310686   0.876   6.753   5.276 -0.0403 -0.2011  0.0202
 1611poe    c2310687   1.026   6.771   5.244 -0.0748 -0.1325 -0.1012
 1611poe     o210688   1.058   6.673   5.148 -0.3004 -0.4892  0.1848
 1611poe    c2310689   1.196   6.683   5.121 -0.3690 -0.3829 -0.1311
 1611poe    c2310690   1.222   6.559   5.033  0.4518 -0.1051 -0.2903
 1611poe     o210691   1.113   6.548   4.945 -0.0548  0.2978  0.2809
 1611poe    c3110692   1.142   6.465   4.835 -0.0737 -0.1847  0.6351
 1612poe    c3110693   5.462   0.319   2.810 -0.0877 -0.1248  0.1334
 1612poe     o210694   5.442   0.225   2.914  0.1703 -0.4735 -0.1279
 1612poe    c2310695   5.454   0.096   2.858  0.1443 -0.5558  0.0587
 1612poe    c2310696   5.431  -0.005   2.973 -0.3108 -0.9263 -0.3559
 1612poe     o210697   5.320   0.054   3.036  0.2081 -0.1112 -0.1903
 1612poe    c2310698   5.269  -0.026   3.141  0.1123  0.1432 -0.0422
 1612poe    c2310699   5.161   0.062   3.207 -0.3861 -0.0395 -0.6040
 1612poe     o210700   5.211   0.189   3.241 -0.5923 -0.2862  0.6813
 1612poe    c2310701   5.257   0.186   3.374 -0.1596 -0.1225  0.5379
 1612poe    c2310702   5.295   0.325   3.427  0.2550  0.0711 -0.2594
 1612poe     o210703   5.424   0.361   3.382  0.3646  0.1536  0.1119
 1612poe    c3110704   5.488   0.470   3.443  0.2052 -0.0528  0.6489
 1613poe    c3110705   6.210   1.876   3.221  0.8763 -0.1756 -0.0626
 1613poe     o210706   6.185   2.000   3.159 -0.8272 -0.2932  0.3233
 1613poe    c2310707   6.215   2.112   3.240 -0.8920  0.0234 -0.0899
 1613poe    c2310708   6.197   2.248   3.170  0.2915  0.2112 -0.0635
 1613poe     o210709   6.264   2.267   3.047 -0.3468 -0.6107 -0.5559
 1613poe    c2310710   6.269   2.401   3.004  0.4592 -0.3634  0.2821
 1613poe    c2310711   6.339   2.439   2.872 -0.5263 -0.7532 -0.3565
 1613poe     o210712   6.472   2.393   2.876 -0.0493  0.6102 -0.0592
 1613poe    c2310713   6.550   2.431   2.765 -0.3825  0.2227 -0.4283
 1613poe    c2310714   6.692   2.376   2.788 -0.3591  0.4096 -0.1319
 1613poe     o210715   6.662   2.239   2.805 -0.6848  0.4148 -0.6439
 1613poe    c3110716   6.786   2.173   2.804 -0.4705  0.7867  0.0728
 1614poe    c3110717   6.148   6.136   2.743 -0.0481  0.2378  0.3781
 1614poe     o210718   6.077   6.257   2.750  0.2834  0.4492  0.1401
 1614poe    c2310719   6.018   6.265   2.622  0.0757 -0.3605  0.1789
 1614poe    c2310720   5.951   6.403   2.634  0.2926 -0.2552  0.1852
 1614poe     o210721   6.021   6.494   2.717 -0.0369 -0.1092  0.3054
 1614poe    c2310722   5.965   6.623   2.714 -0.9668 -0.5052  0.2822
 1614poe    c2310723   6.044   6.733   2.787  0.3933 -0.9106 -0.5473
 1614poe     o210724   6.085   6.698   2.918 -0.4366 -0.2988 -0.1174
 1614poe    c2310725   6.048   6.797   3.011 -0.1707 -0.1204 -0.2026
 1614poe    c2310726   5.921   6.770   3.094 -0.0476 -0.0244  0.0193
 1614poe     o210727   5.952   6.664   3.182 -0.4331 -0.1471  0.0071
 1614poe    c3110728   5.983   6.706   3.313 -0.1935 -0.1140 -0.0612
 1615poe    c3110729   0.250   5.917   2.020  0.3461  0.4955  0.0777
 1615poe     o210730   0.283   5.964   1.891  0.6000 -0.0129 -0.0436
 1615poe    c2310731   0.294   5.870   1.786  0.1965  0.1732 -0.2566
 1615poe    c2310732   0.165   5.824   1.716 -0.1804  0.8272 -0.0036
 1615poe     o210733   0.189   5.706   1.643  0.2319  0.5676  0.5444
 1615poe    c2310734   0.091   5.615   1.688 -0.2856  0.6498 -0.3879
 1615poe    c2310735   0.099   5.470   1.638  0.3215  0.3471  0.5468
 1615poe     o210736   0.216   5.423   1.700  0.7233  0.1725 -0.3351
 1615poe    c2310737   0.241   5.288   1.667  0.1068 -0.0042 -0.0940
 1615poe    c2310738   0.364   5.236   1.745  0.2413 -0.0830 -0.3586
 1615poe     o210739   0.468   5.332   1.741 -0.0111  0.2216  0.3645
 1615poe    c3110740   0.545   5.338   1.859  0.5095 -0.2437  0.0563
 1616poe    c3110741   1.995   3.056   2.373  0.2530  0.3104 -0.1611
 1616poe     o210742   1.880   3.101   2.441  0.1348 -0.4307  0.1336
 1616poe    c2310743   1.883   3.045   2.571  0.4773 -0.6549  0.0285
 1616poe    c2310744   1.781   3.091   2.675  0.2070  0.2750 -0.6392
 1616poe     o210745   1.656   3.032   2.649  0.3022 -0.1427 -0.1629
 1616poe    c2310746   1.556   3.070   2.740  0.2852 -0.3034 -0.1131
 1616poe    c2310747   1.430   2.993   2.697  0.0341  0.2712 -0.4231
 1616poe     o210748   1.387   3.040   2.571  0.0979  0.3591 -0.4117
 1616poe    c2310749   1.253   3.006   2.544  0.2534 -0.4276 -0.2151
 1616poe    c2310750   1.202   3.085   2.421  0.1621 -0.1013  0.0305
 1616poe     o210751   1.283   3.068   2.307 -0.4832  0.1145 -0.4640
 1616poe    c3110752   1.195   3.067   2.197 -0.4110  0.4041 -0.5232
 1617poe    c3110753   0.990   0.614   5.460  0.1828 -0.7999  0.3948
 1617poe     o210754   1.090   0.705   5.501 -0.0764 -0.2144 -0.2569
 1617poe    c2310755   1.157   0.743   5.383  0.4462 -0.2467  0.0277
 1617poe    c2310756   1.278   0.828   5.427  0.0338  0.5596 -0.3858
 1617poe     o210757   1.339   0.760   5.534  0.1841  0.5823 -0.4563
 1617poe    c2310758   1.440   0.824   5.608  0.0832  0.2785 -0.0501
 1617poe    c2310759   1.377   0.929   5.702 -0.5136  0.0099 -0.1487
 1617poe     o210760   1.256   0.874   5.750 -0.3753 -0.1128  0.0599
 1617poe    c2310761   1.197   0.954   5.849  0.4725 -0.5480  0.9355
 1617poe    c2310762   1.081   0.867   5.899 -0.4865  0.2084  0.0863
 1617poe     o210763   1.038   0.786   5.792  0.3559 -0.2831  0.1119
 1617poe    c3110764   0.909   0.738   5.823  0.1837  0.0226 -0.1240
 1618poe    c3110765   1.196   5.916   1.780 -0.9449 -0.2551  0.0386
 1618poe     o210766   1.145   5.866   1.658 -0.1667 -0.0907 -0.3627
 1618poe    c2310767   1.152   5.725   1.669 -0.0573 -0.0621 -0.0545
 1618poe    c2310768   1.070   5.660   1.557  0.1864 -0.7559  0.1668
 1618poe     o210769   1.135   5.690   1.435 -0.2110 -0.0222  0.1306
 1618poe    c2310770   1.117   5.601   1.328  0.6169  0.4397 -0.4050
 1618poe    c2310771   1.163   5.667   1.197 -0.3120 -0.0873 -1.0069
 1618poe     o210772   1.082   5.775   1.154 -0.4135  0.0769 -0.4084
 1618poe    c2310773   1.158   5.867   1.079  0.3850 -0.1545  0.1039
 1618poe    c2310774   1.062   5.975   1.025  0.6098  0.0111  0.0342
 1618poe     o210775   0.990   5.963   0.904  0.2175  0.0365  0.2659
 1618poe    c3110776   0.865   5.904   0.933 -0.0210  0.2349 -0.3446
 1619poe    c3110777   4.845   5.238   1.186 -0.0644  0.0443  0.6960
 1619poe     o210778   4.909   5.116   1.154 -0.5799  0.0459 -0.4014
 1619poe    c2310779   5.002   5.121   1.048 -0.4850 -0.4556 -0.3461
 1619poe    c2310780   5.068   4.982   1.058  0.0034 -0.2403 -0.5289
 1619poe     o210781   4.965   4.886   1.053 -0.1356 -0.1236 -0.0342
 1619poe    c2310782   5.037   4.765   1.066  0.2159  0.1752  0.8608
 1619poe    c2310783   4.938   4.649   1.089  0.1784  0.0916  0.2912
 1619poe     o210784   4.859   4.693   1.197 -0.8737  0.5617 -0.6480
 1619poe    c2310785   4.756   4.608   1.243 -0.1231 -0.0257 -0.0245
 1619poe    c2310786   4.658   4.681   1.335 -0.2090  0.0436 -0.1699
 1619poe     o210787   4.721   4.761   1.432 -0.8050  0.0401  0.2286
 1619poe    c3110788   4.698   4.702   1.558  0.1389 -0.5336  0.1419
 1620poe    c3110789   0.394   0.583   3.848  0.6134  0.2675  0.2492
 1620poe     o210790   0.384   0.678   3.745 -0.2967  0.0157  0.0954
 1620poe    c2310791   0.264   0.752   3.747 -0.5092 -0.3111 -0.4392
 1620poe    c2310792   0.291   0.869   3.651  0.1664  0.1509  0.3036
 1620poe     o210793   0.395   0.958   3.686  0.4518 -0.1019  0.1084
 1620poe    c2310794   0.392   1.075   3.607 -0.0125  0.0243  0.3074
 1620poe    c2310795   0.489   1.179   3.665 -0.0267  0.2806 -0.1191
 1620poe     o210796   0.619   1.127   3.647  0.1540  0.4622  0.6203
 1620poe    c2310797   0.713   1.203   3.720 -0.0824  0.0602  1.3593
 1620poe    c2310798   0.853   1.139   3.703 -0.2076  0.2382 -0.5626
 1620poe     o210799   0.834   0.999   3.704  0.0722  0.2024 -0.4582
 1620poe    c3110800   0.953   0.927   3.728 -0.0567 -0.2701 -1.2224
 1621lim     li10801   1.456   2.620   0.531  1.0747  0.3160 -0.4367
 1622lim     li10802   3.507   3.681   4.873 -0.1099 -0.2506  0.8439
 1623lim     li10803   6.314   3.352   5.593 -0.5971  0.1831  0.6529
 1624lim     li10804   1.777   0.999   6.562  0.0413 -1.4589  1.1541
 1625lim     li10805   2.162   4.795   6.525 -0.1939 -1.5860 -0.1879
 1626lim     li10806   5.517   2.141   3.245 -0.4345  0.9154  0.8070
 1627lim     li10807   1.542   0.019   3.510  0.4135  0.1477 -0.5963
 1628lim     li10808   4.984   5.404   2.246 -0.5448 -0.0021 -0.2944
 1629lim     li10809   4.188   1.163   5.767 -0.6771  0.3368  0.0732
 1630lim     li10810   4.057   3.447   2.525  0.4139  0.6033 -0.2958
 1631lim     li10811   6.344   2.635   4.356 -0.1124 -0.7450  0.0622
 1632lim     li10812   1.606   6.056   4.106  0.2381  0.1224  0.5201
 1633lim     li10813   3.928   5.442   3.899 -0.2787  0.0046  0.7886
 1634lim     li10814   2.257   1.277   6.083  0.2342 -0.5818 -1.2843
 1635lim     li10815   2.898   2.189   3.837  0.7442  0.2979  0.1448
 1636lim     li10816   6.698   6.166   5.750  0.5550  0.1111 -0.6043
 1637lim     li10817   0.683   6.659   4.171 -0.6949  0.8299 -0.1668
 1638lim     li10818   5.628   6.460   5.375 -0.0452  0.2324  0.2238
 1639lim     li10819   5.929   6.790   4.413 -0.5123  0.1258  0.8384
 1640lim     li10820   1.338   1.128   0.136 -0.0720  1.7570 -0.3222
 1641lim     li10821   1.179   6.667   2.633 -0.3799  0.0084 -1.0832
 1642lim     li10822   6.252   0.918   6.466  0.2704 -0.6563  0.4772
 1643lim     li10823   1.353   2.959   5.856  0.3287 -0.1066 -0.0679
 1644lim     li10824   3.638   1.338   0.586  0.3188  0.0422 -1.2949
 1645lim     li10825   6.848   1.187   4.982  1.0917  0.5043  0.6019
 1646lim     li10826   2.253   6.073   4.203 -0.2421 -0.5474 -0.0345
 1647lim     li10827   1.645   3.938   2.224 -0.5687 -0.9294 -1.3200
 1648lim     li10828   3.053   5.229   1.523 -0.0154 -0.4282  0.0687
 1649lim     li10829   5.430   1.322   3.176 -0.8371 -0.1177 -0.6504
 1650lim     li10830   0.544   4.523   4.900 -0.0599  1.0713  0.5654
 1651lim     li10831   2.101   6.860   6.032 -0.1035 -0.5252  0.1259
 1652lim     li10832   4.549   5.789   0.905  0.0505 -0.3014  0.8902
 1653lim     li10833   6.723   4.265   4.098 -0.3751 -1.0696  1.2034
 1654lim     li10834   0.647   2.849   1.421 -0.2828  0.4585  0.9418
 1655lim     li10835   4.761   3.699   3.276 -0.4703  0.2881 -0.0406
 1656lim     li10836   3.828   4.583   6.752 -0.4575  0.0511  0.3599
 1657lim     li10837   6.549   2.256   2.952 -0.4702 -0.9992 -1.0429
 1658lim     li10838   6.518   1.073   3.673  0.3619 -0.8884  1.1052
 1659lim     li10839   2.639   3.441   5.716  0.0320  0.1242 -0.0171
 1660lim     li10840   6.767   3.778   2.899 -0.3280  0.5677  0.1885
 1661lim     li10841   0.152   4.907   5.524  1.1095  0.6536 -1.1496
 1662lim     li10842   1.188   5.521   2.507 -0.2068  0.1073  1.2516
 1663lim     li10843   6.096   4.136   5.728 -1.4138 -0.4709  1.7416
 1664lim     li10844   1.072   5.717   6.921  0.6586 -0.1001 -0.9191
 1665lim     li10845   1.408   0.882   2.688  0.3581  0.6302  0.0134
 1666lim     li10846   3.656   5.928   1.630 -1.0028  0.0162  0.5044
 1667lim     li10847   4.482   2.232   2.300 -0.6428 -0.5267  0.9919
 1668lim     li10848   1.166   0.737   5.659 -0.4293 -0.6617  0.5742
 1669lim     li10849   2.787   5.499   2.783 -0.1226 -1.6265  0.7976
 1670lim     li10850   3.085   4.667   5.109  0.4055 -0.0550 -0.6273
 1671lim     li10851   5.721   5.931   4.982  0.7808  0.7987 -0.1387
 1672lim     li10852   0.678   3.321   6.602 -0.1163  0.0136  0.5946
 1673lim     li10853   5.466   0.367   4.597 -0.3736 -1.8696 -1.7585
 1674lim     li10854   0.284   5.329   4.330  0.8248  0.4072  0.7127
 1675lim     li10855   0.146   2.309   3.402 -0.4290  0.2582  1.3534
 1676lim     li10856   2.867   5.829   0.704 -0.6862 -0.2307 -0.0675
 1677lim     li10857   5.396   3.259   3.482  0.2428 -0.8906  0.5977
 1678lim     li10858   0.562   0.408   2.015  0.8264  0.8805  0.2455
 1679lim     li10859   4.935   6.145   2.518 -0.0402  0.6408  0.0256
 1680lim     li10860   6.119   6.409   2.844  0.9453 -0.6615 -1.0639
 1681lim     li10861   4.507   0.522   1.771  0.3301 -0.2375  0.9892
 1682lim     li10862   3.143   0.953   6.296 -0.5960 -0.1914 -0.2995
 1683lim     li10863   2.741   3.631   2.715 -0.8125  0.5784  0.3247
 1684lim     li10864   0.086   1.969   2.073 -0.3865  0.1015  0.0268
 1685lim     li10865   0.010   4.355   1.172 -0.4678 -0.2262 -0.0835
 1686lim     li10866   5.888   4.616   6.787 -0.8728  0.0029  0.5834
 1687lim     li10867   2.626   0.428   4.722 -0.1127 -0.1622 -0.9714
 1688lim     li10868   3.730   2.153   1.137 -0.1137  0.7944 -0.1837
 1689lim     li10869   5.080   6.409   1.855  0.1881 -0.7656  0.3365
 1690lim     li10870   4.748   1.722   1.218 -0.1942 -0.6292  0.0798
 1691lim     li10871   3.836   0.705   6.249  0.1405 -0.1427  0.2575
 1692lim     li10872   4.022   6.522   3.317 -0.8584  1.0416  0.0489
 1693lim     li10873   6.849   2.801   4.173  0.1095  0.2875  0.7877
 1694lim     li10874   6.369   3.167   2.971  0.9057  0.9469 -0.6127
 1695lim     li10875   0.673   5.900   6.136  0.4033  0.4257  0.3907
 1696lim     li10876   0.037   0.093   4.152 -0.3787  0.0384  0.4138
 1697lim     li10877   6.000   4.337   1.045 -0.3159 -0.5413 -0.7893
 1698lim     li10878   2.348   1.836   1.412 -0.2870  0.4155 -0.8772
 1699lim     li10879   6.256   5.786   6.562 -0.2580  0.5483 -0.7957
 1700lim     li10880   5.756   3.461   2.832 -0.2622  0.2882  0.3175
 1701lim     li10881   1.299   4.179   4.920 -0.3430 -0.1316 -0.7306
 1702lim     li10882   4.763   2.458   4.214  1.1184 -0.2988  0.5005
 1703lim     li10883   5.743   0.511   5.656  0.5208  0.2598 -0.6188
 1704lim     li10884   2.608   4.493   2.516  0.6921  0.5785 -1.1283
 1705lim     li10885   0.016   5.796   0.340 -0.4535 -0.0040 -0.2064
 1706lim     li10886   5.434   5.271   3.846 -0.0428 -0.3076  0.2265
 1707lim     li10887   1.136   5.882   0.495 -1.1598  0.4963 -1.6299
 1708lim     li10888   1.970   4.991   3.420 -1.4330 -1.0518 -1.4610
 1709lim     li10889   1.313   6.297   3.405  1.3969  0.7417 -0.3812
 1710lim     li10890   6.672   5.431   3.153  1.3112  1.1750 -0.8488
 1711lim     li10891   1.486   1.850   1.874 -0.6979  0.2426  0.2976
 1712lim     li10892   6.551   2.811   2.257  0.4405 -0.8666 -0.0637
 1713lim     li10893   3.404   5.766   6.417  0.9883 -0.8811 -0.6984
 1714lim     li10894   2.738   0.146   0.086  0.2540 -1.6481 -0.1417
 1715lim     li10895   3.062   4.506   6.240  0.5829 -0.3410  0.5586
 1716lim     li10896   2.116   0.507   0.995 -0.1793  1.2444  0.4018
 1717lim     li10897   0.149   6.860   6.308  0.3487  0.7885 -0.1102
 1718lim     li10898   0.452   4.517   5.981  0.7975  0.1022 -0.5630
 1719lim     li10899   2.211   1.063   4.210 -0.0425  0.4942  0.4666
 1720lim     li10900   3.205   1.236   4.094 -0.3683 -0.2025  0.0110
 1721lim     li10901   4.226   6.336   4.393 -0.4340 -0.4423 -1.2916
 1722lim     li10902   5.524   2.957   2.683  0.3199 -1.2220 -0.0072
 1723lim     li10903   0.372   0.198   2.638 -0.3284  1.0640 -0.7883
 1724lim     li10904   6.769   0.009   1.938 -0.1707  0.9201 -0.4730
 1725lim     li10905   6.902   3.055   4.877  0.5330  0.5930 -0.6055
 1726lim     li10906   0.022   3.471   4.177 -0.3494 -0.5415 -0.2970
 1727lim     li10907   3.950   0.225   4.098 -1.1185  0.6827 -0.5447
 1728lim     li10908   4.241   5.176   1.924 -0.5256 -0.1978  0.6172
 1729lim     li10909   2.314   0.773   0.188 -0.0235  0.4734 -1.0424
 1730lim     li10910   3.946   4.185   3.216 -0.8422 -0.6375 -0.0719
 1731lim     li10911   0.679   5.034   0.626  0.2128  0.8588 -0.3185
 1732lim     li10912   0.402   4.098   2.166  0.3911  1.4197 -0.0662
 1733lim     li10913   0.594   2.929   5.488 -0.1608  0.2050  0.6165
 1734lim     li10914   4.822   4.249   2.579 -0.4322 -0.1330 -0.1541
 1735lim     li10915   4.226   0.905   4.336  0.3731  0.1074  0.1002
 1736lim     li10916   2.915   1.516   0.113  0.3912 -0.1023 -0.2567
 1737lim     li10917   0.616   3.997   0.643  0.1949 -0.5199  0.6269
 1738lim     li10918   5.965   1.885   1.973  0.8046  0.2119  0.2320
 1739lim     li10919   2.560   4.585   1.948  0.4648  1.1341 -0.7647
 1740lim     li10920   2.218   2.291   6.925 -1.4970 -0.2639  0.2511
 1741lim     li10921   1.589   5.234   1.791 -0.1107  0.4222  0.8743
 1742lim     li10922   5.670   2.308   2.605  0.8323  0.0952  0.3136
 1743lim     li10923   0.686   1.305   6.386  1.2109 -0.1120  1.0992
 1744lim     li10924   3.741   1.668   6.453 -0.3063  0.9012  1.2387
 1745lim     li10925   1.370   5.421   3.293  0.7528  0.2191  0.0139
 1746lim     li10926   0.936   6.901   6.222  0.0885  0.7345 -0.6043
 1747lim     li10927   5.764   0.535   0.645  0.7027 -0.2826 -0.0941
 1748lim     li10928   6.061   0.746   4.099  0.0115  0.2096  0.6883
 1749lim     li10929   6.883   3.335   2.098 -0.0836  0.2670  0.3718
 1750lim     li10930   5.112   0.788   2.307 -0.6610  0.5941  0.1529
 1751lim     li10931   1.900   2.255   5.178  0.0923 -0.7517 -1.2670
 1752lim     li10932   5.179   3.316   5.669  0.1636  0.3253  1.5977
 1753lim     li10933   5.766   0.498   6.679  0.0084  0.0421 -0.3936
 1754lim     li10934   4.588   3.613   1.719 -0.2216  0.0652 -0.6577
 1755lim     li10935   0.257   2.903   3.363  0.5605 -0.9556  0.1866
 1756lim     li10936   6.040   0.686   1.551  0.5130 -1.1850  0.1565
 1757lim     li10937   5.568   3.361   1.920 -0.6863  0.0171 -0.1523
 1758lim     li10938   5.428   1.355   0.385  0.7149 -1.0673  0.1755
 1759lim     li10939   6.791   5.465   4.863  0.7981  0.1625  0.5710
 1760lim     li10940   0.959   6.595   5.015 -0.7821 -0.3713  0.8800
 1761lim     li10941   0.026   2.762   0.097  0.3371  0.3264 -0.0274
 1762lim     li10942   2.907   2.050   0.721 -0.6556  0.1246 -1.9979
 1763lim     li10943   4.089   0.835   2.407  0.5922 -0.2090  0.5253
 1764lim     li10944   4.086   2.345   3.784 -0.0853  0.3475  0.0800
 1765lim     li10945   4.462   5.751   3.129  0.0129  1.0668 -0.6563
 1766lim     li10946   2.848   4.031   5.553 -0.3361  1.0069  0.0772
 1767lim     li10947   5.952   4.249   2.974  0.2896 -1.5311 -0.7489
 1768lim     li10948   5.868   4.062   0.043  0.0553  0.3255  0.0769
 1769lim     li10949   1.202   4.367   2.267 -0.8279  0.0604 -0.1617
 1770lim     li10950   6.252   6.056   1.675  1.4426 -0.0958 -1.2403
 1771lim     li10951   0.724   4.834   3.575 -1.1325 -0.8855  0.3993
 1772lim     li10952   4.140   6.839   4.992  0.6069  0.2677  1.0336
 1773lim     li10953   0.824   3.203   4.029 -0.3144  0.0355  0.4204
 1774lim     li10954   4.601   1.736   0.384 -0.4450 -0.0474  0.6144
 1775lim     li10955   1.113   2.801   0.795  0.9955  0.5909  0.3504
 1776lim     li10956   2.876   2.587   5.813  1.1226  0.5514  0.5308
 1777lim     li10957   6.092   3.324   6.675  0.2516 -0.4564  0.0182
 1778lim     li10958   4.824   2.624   2.896 -0.8995  1.4558 -0.3370
 1779lim     li10959   0.697   3.422   2.873 -0.3021 -0.8034  0.0615
 1780lim     li10960   4.332   4.024   5.543 -0.6109  0.2216 -0.5566
 1781lim     li10961   4.296   0.515   2.964 -0.5220  0.5056  0.4637
 1782lim     li10962   3.514   6.268   4.119  0.1775 -0.4261  0.4550
 1783lim     li10963   2.268   0.478   3.702 -0.1650 -0.1211 -1.5111
 1784lim     li10964   6.912   1.105   1.259  1.5935  0.8756  0.0541
 1785lim     li10965   0.143   3.949   4.775  0.2570  0.3120  0.0393
 1786lim     li10966   1.650   3.424   1.399  1.1116  0.7947  1.0975
 1787lim     li10967   5.658   1.433   4.366 -0.4473 -0.6618 -0.3199
 1788lim     li10968   5.184   6.329   0.748 -0.8110  0.0810  0.8871
 1789lim     li10969   1.369   3.513   4.943  0.0486 -1.3581 -1.1876
 1790lim     li10970   3.441   0.638   1.265  0.0856 -0.1891  0.6637
 1791lim     li10971   0.421   1.669   6.013  0.5108  0.0219 -0.2334
 1792lim     li10972   4.443   3.800   4.706 -1.3764  0.6200  0.3152
 1793lim     li10973   5.672   6.364   0.037 -1.7617  0.8897  0.1866
 1794lim     li10974   1.148   1.583   5.358 -0.1414  0.0579  0.8888
 1795lim     li10975   5.170   6.873   6.131  0.1744 -0.3063  0.1260
 1796lim     li10976   4.535   1.476   3.061 -0.5819  0.2289 -0.4918
 1797lim     li10977   4.705   1.408   1.903 -0.4051 -0.4488  0.0877
 1798lim     li10978   5.866   2.086   0.198  0.7546  0.0065  0.4348
 1799lim     li10979   2.394   4.644   0.332  0.4464  1.0002  0.2678
 1800lim     li10980   4.341   1.906   6.011 -0.0613  0.6939  0.2067
 1801lim     li10981   5.814   6.830   1.811 -0.1478  0.0336 -0.7892
 1802lim     li10982   5.108   1.773   6.304  0.6016  0.3885 -0.2188
 1803lim     li10983   2.354   3.100   4.891 -0.8356  1.0587  1.1711
 1804lim     li10984   6.880   6.250   2.134 -0.4520 -0.4964  0.2540
 1805lim     li10985   1.898   1.607   0.362 -0.7142  0.3271  0.4759
 1806lim     li10986   6.600   4.419   3.285 -0.0467  0.8226 -0.1398
 1807lim     li10987   4.867   6.923   4.522 -0.0853  0.7116  1.6627
 1808lim     li10988   2.262   4.323   4.337  0.1408 -0.5163  1.4935
 1809lim     li10989   6.787   1.639   2.930 -0.4239 -0.4006  0.0199
 1810lim     li10990   3.717   6.216   0.073 -0.3920 -0.2444  0.2819
 1811lim     li10991   3.365   4.519   4.278  0.0744 -0.0529  0.4015
 1812lim     li10992   2.282   6.051   6.067 -1.1806 -0.4468 -0.2084
 1813lim     li10993   6.590   5.328   1.004  1.2655 -0.3603  0.8632
 1814lim     li10994   2.150   0.782   6.295 -0.6037  0.0853 -0.4834
 1815lim     li10995   6.022   3.371   4.636 -0.3354 -0.0494 -0.6911
 1816lim     li10996   2.679   1.145   4.850 -0.5161 -0.3324  1.0516
 1817lim     li10997   6.666   0.220   3.341  0.3933 -0.3893  0.1218
 1818lim     li10998   5.299   1.903   4.115  0.3386  0.5745 -0.7246
 1819lim     li10999   2.056   1.745   3.926  0.6503 -0.2354 -0.1615
 1820lim     li11000   1.881   0.390   5.378  0.0007 -0.0081 -1.7911
 1821lim     li11001   5.325   0.157   0.312  0.3900 -0.1521  0.5831
 1822lim     li11002   1.019   1.449   3.056 -0.6617 -1.5431  0.0735
 1823lim     li11003   2.905   1.473   3.602  0.0249  0.4443  0.0282
 1824lim     li11004   2.663   6.563   3.899 -0.0849  0.7783 -0.1430
 1825lim     li11005   2.463   2.707   4.174  0.1744 -0.0778  0.2073
 1826lim     li11006   2.803   1.953   4.664 -0.3860 -0.2196 -0.6087
 1827lim     li11007   4.978   6.745   1.123 -0.5653  0.2437 -0.6895
 1828lim     li11008   6.007   0.109   3.769 -0.4419 -0.7429 -0.4359
 1829lim     li11009   1.977   4.396   3.596 -0.1711  0.7050 -0.1313
 1830lim     li11010   1.449   4.389   1.222  0.0262 -0.3270  0.7460
 1831lim     li11011   2.344   2.823   0.923  0.7086  0.0129 -0.9085
 1832lim     li11012   5.463   3.911   5.328  0.3493  0.1499  1.0915
 1833lim     li11013   6.237   6.124   3.494  0.4062 -0.4623 -0.1896
 1834lim     li11014   2.168   1.076   3.141  2.0529 -0.3679  0.6326
 1835lim     li11015   3.667   4.465   1.956  0.5644  0.2725 -0.7362
 1836lim     li11016   5.293   2.851   0.632 -0.1858  0.2467 -0.2830
 1837lim     li11017   6.199   3.646   1.732 -0.8948 -1.9480  0.2537
 1838lim     li11018   2.621   5.663   3.568 -0.8389  0.4257 -0.2056
 1839lim     li11019   6.352   2.602   1.278  0.3373  0.4627  0.4824
 1840lim     li11020   0.483   4.580   3.059  0.1330 -1.0779 -0.8302
 1841lim     li11021   4.470   2.031   3.259 -0.5935 -0.3004  0.2085
 1842lim     li11022   1.409   2.129   5.927  0.1488 -1.1898  0.2661
 1843lim     li11023   6.808   0.947   3.032  0.6301 -0.2885 -0.5598
 1844lim     li11024   6.687   1.965   5.423  0.2594  0.6878  1.0761
 1845lim     li11025   5.468   5.513   1.531 -0.5925  0.2494 -0.5530
 1846lim     li11026   0.467   1.069   5.276 -0.3819  0.3616 -0.0003
 1847lim     li11027   1.366   2.617   4.627  0.4558 -1.1207 -0.0145
 1848lim     li11028   6.677   4.306   6.240  0.8328  0.6919  0.4321
 1849lim     li11029   4.497   2.681   5.196  0.5202 -0.9502  0.0985
 1850lim     li11030   3.998   0.810   5.091  0.4358  0.3191  1.7340
 1851lim     li11031   6.318   2.157   4.682 -0.1380  0.2940  0.1250
 1852lim     li11032   0.172   4.609   0.203  0.2398 -0.0469 -0.6702
 1853lim     li11033   2.937   5.377   4.144 -1.0293 -0.0209  0.0083
 1854lim     li11034   0.476   2.673   2.454  0.1190  0.6889 -0.5640
 1855lim     li11035   3.347   5.329   5.838 -0.2065  0.6176 -0.3093
 1856lim     li11036   6.822   5.005   4.122  0.1510  0.5078  0.2496
 1857lim     li11037   2.354   6.044   2.710 -0.3880  0.5453  1.0927
 1858lim     li11038   2.993   2.628   4.984  0.0333 -0.4877  0.2745
 1859lim     li11039   3.947   1.593   4.816  0.3519 -0.5495 -0.1819
 1860lim     li11040   6.351   6.494   0.263 -0.0346  0.1528  0.1921
 1861lim     li11041   3.802   3.110   1.225  0.3118  0.2757  0.0637
 1862lim     li11042   6.657   6.319   4.674 -0.3404 -0.7295  0.5156
 1863lim     li11043   6.015   4.916   6.129 -0.2290 -0.8607 -0.0555
 1864lim     li11044   0.717   3.586   1.961  0.8440 -1.1432 -0.4291
 1865lim     li11045   1.555   1.299   1.133  0.0544 -1.4788 -0.5540
 1866lim     li11046   4.652   2.648   1.192 -0.4851  0.6752  0.3805
 1867lim     li11047   6.658   0.994   5.946 -0.2044 -1.0025 -0.1236
 1868lim     li11048   6.615   0.885   1.879  1.0292 -0.3827  0.6455
 1869lim     li11049   6.740   5.171   0.016  1.0721  0.6168  0.0469
 1870lim     li11050   4.240   2.753   1.591 -0.4046 -1.3031 -0.5979
 1871lim     li11051   4.264   4.725   2.727  0.3779 -0.9808 -0.5211
 1872lim     li11052   2.216   3.976   2.947 -0.5391 -0.9585  0.7792
 1873lim     li11053   0.652   0.649   6.474 -0.0862 -0.6374  0.8738
 1874lim     li11054   3.128   4.877   3.096  0.3086 -0.6596  0.0691
 1875lim     li11055   2.712   1.960   2.933  0.6151 -0.7353 -0.1187
 1876lim     li11056   0.077   5.784   2.804  0.2904 -0.2317  1.3698
 1877lim     li11057   1.397   5.240   4.481  0.0705 -0.6396  0.1419
 1878lim     li11058   6.436   1.279   2.294 -0.5725  1.4943  0.3711
 1879lim     li11059   2.486   5.378   1.110 -0.1170 -0.9480  0.2627
 1880lim     li11060   1.875   2.931   3.121  0.7742  0.8766 -1.7271
 1881lim     li11061   6.182   1.701   5.912 -0.5285  0.7178 -0.3670
 1882lim     li11062   1.026   3.617   1.050 -0.6348 -1.0169 -1.5318
 1883lim     li11063   0.156   6.397   1.365  0.1292 -0.2356  1.5536
 1884lim     li11064   4.509   4.144   1.951 -0.4930  0.4826 -0.1648
 1885lim     li11065   5.369   0.230   3.080 -0.3192  0.4150  1.1796
 1886lim     li11066   3.370   1.455   1.593 -0.1815 -0.7915 -0.7049
 1887lim     li11067   4.622   6.769   6.386  0.4473  0.1432 -0.3912
 1888lim     li11068   1.557   5.949   5.082 -0.3669  0.2443  0.1959
 1889lim     li11069   1.566   6.916   0.498 -0.8487 -0.5869  0.6074
 1890lim     li11070   3.861   5.738   0.505 -0.7934 -0.7284  0.8074
 1891lim     li11071   1.187   2.516   3.705 -0.4651 -0.4971 -1.0593
 1892lim     li11072   1.911   5.842   1.159 -0.2032  0.1343 -0.4825
 1893lim     li11073   0.659   2.021   1.693  0.4636 -0.4783 -0.9587
 1894lim     li11074   5.361   0.956   5.595  1.1832 -0.1168  0.5905
 1895lim     li11075   5.267   5.022   5.815  0.6848  0.0960 -0.1608
 1896lim     li11076   3.488   0.045   2.483 -0.5523 -0.2558 -0.4213
 1897lim     li11077   5.959   5.977   0.769 -0.7299 -0.2929 -0.4031
 1898lim     li11078   1.522   1.124   2.088 -0.0959 -0.1644 -0.4830
 1899lim     li11079   5.316   1.527   4.982  0.1148 -0.3445 -0.3979
 1900lim     li11080   0.079   0.585   5.652  0.4311 -0.4677 -0.5081
 1901lim     li11081   6.116   5.759   1.786  0.0329 -0.3384  0.2996
 1902lim     li11082   2.493   3.116   2.335  1.1211 -0.4768  0.7283
 1903lim     li11083   6.381   5.078   2.729  0.2327  0.1722  0.5870
 1904lim     li11084   0.222   5.067   2.569  0.3471 -0.2812 -0.1474
 1905lim     li11085   1.944   6.393   2.100 -0.4229 -0.4067 -0.2438
 1906lim     li11086   5.409   2.342   6.702  0.4103 -0.2953 -0.7526
 1907lim     li11087   4.847   4.938   1.165  0.6986 -0.5027 -0.5697
 1908lim     li11088   0.235   2.024   4.856  0.7839 -0.6647  0.0115
 1909lim     li11089   3.215   6.599   5.751 -0.4809  0.0267 -0.1385
 1910lim     li11090   0.079   3.775   6.631 -0.8729  0.1184 -0.0645
 1911lim     li11091   1.800   5.077   2.558  0.0425 -0.5997  0.1620
 1912lim     li11092   5.177   5.960   6.761  0.1146 -0.7983  0.0487
 1913lim     li11093   0.840   0.496   0.539  0.6633 -0.8752  0.6491
 1914lim     li11094   4.202   4.658   5.043 -0.0237  0.5621  1.0735
 1915lim     li11095   0.358   5.466   6.375  0.1212  0.4006 -0.9962
 1916lim     li11096   3.521   3.607   3.006 -0.3590  0.0628 -0.4630
 1917lim     li11097   1.559   6.481   5.712  0.6718  0.3997  0.2710
 1918lim     li11098   4.356   0.063   5.805  0.9008  0.5820 -0.3244
 1919lim     li11099   4.996   3.694   4.023 -0.3373 -0.3217  0.4216
 1920lim     li11100   2.977   6.883   6.230 -2.0095 -0.6502 -0.3914
 1921lim     li11101   6.215   0.091   1.339  0.0798  0.3158  0.6573
 1922lim     li11102   0.781   6.130   2.119 -0.5489 -0.5737 -0.0604
 1923lim     li11103   5.023   6.222   5.179  0.0609 -0.7273 -0.3460
 1924lim     li11104   3.504   3.930   0.285  0.4267  0.9555  0.0322
 1925lim     li11105   6.116   5.425   4.285  0.8163 -0.4620  0.2386
 1926lim     li11106   2.461   0.111   5.185  0.8632  0.9654  0.8473
 1927lim     li11107   3.298   3.872   1.963 -0.3388 -0.1068 -0.1537
 1928lim     li11108   1.947   6.532   0.748  0.6445 -0.3249  0.2435
 1929lim     li11109   2.626   1.438   2.237 -0.2090  0.3340  0.4466
 1930lim     li11110   2.142   5.257   5.066  0.0456  0.4121 -1.0611
 1931lim     li11111   2.394   2.563   3.290 -0.5084  0.4468 -0.4198
 1932lim     li11112   5.481   3.921   2.365 -0.4446  0.0051 -0.0764
 1933lim     li11113   5.066   3.441   6.236 -0.1119 -0.3181 -0.3108
 1934lim     li11114   2.602   6.481   1.665  0.4204  0.7755  0.7917
 1935lim     li11115   6.306   5.574   5.720  0.4861  0.5880 -0.5918
 1936lim     li11116   2.120   1.129   1.737  0.0797  0.8853 -0.1977
 1937lim     li11117   1.281   4.430   0.262  0.8182 -0.7026  0.4381
 1938lim     li11118   5.619   2.635   4.793  0.2742  0.0423 -0.2574
 1939lim     li11119   6.331   4.521   1.993 -0.9134  0.6750  0.2092
 1940lim     li11120   1.292   3.575   0.024 -0.7048  0.0500  0.7841
 1941lim     li11121   2.840   4.087   0.616  0.0024  0.0573  0.5164
 1942lim     li11122   1.877   0.207   6.815 -0.1217 -0.0875 -0.8585
 1943lim     li11123   3.592   2.446   6.946 -0.8514 -0.3970 -1.2108
 1944lim     li11124   3.350   6.409   5.111  0.9444 -1.2462  0.5704
 1945lim     li11125   3.722   1.742   4.199  0.7946  1.1532  0.0058
 1946lim     li11126   4.869   0.845   4.815 -0.3622  0.7205  0.0212
 1947lim     li11127   6.943   6.742   0.586 -0.7906  0.0092  0.3154
 1948lim     li11128   2.748   0.661   1.794 -1.0251 -0.1159 -0.5704
 1949lim     li11129   6.906   0.433   0.948  0.1642  0.1740 -0.9710
 1950lim     li11130   3.424   0.282   5.261 -0.2189 -0.4006  0.7315
 1951lim     li11131   4.460   6.404   0.313 -0.1464 -0.6880 -0.3792
 1952lim     li11132   1.158   5.994   1.533  1.5227  0.2075  0.0484
 1953lim     li11133   3.868   2.629   4.734 -1.3971 -0.0619 -0.0285
 1954lim     li11134   0.298   2.467   0.804  0.2447 -1.2292  0.0295
 1955lim     li11135   3.196   0.279   4.325  0.9452 -0.7453  0.0237
 1956lim     li11136   0.047   3.187   1.165  0.0495  0.4344  0.0699
 1957lim     li11137   4.091   1.445   0.167  0.1270 -0.5978  0.0049
 1958lim     li11138   5.367   2.968   1.424  0.9823  0.3426  0.0993
 1959lim     li11139   2.342   3.760   4.738 -1.4722 -0.5604  0.0816
 1960lim     li11140   5.247   2.184   5.474 -0.8678 -1.3501 -0.8886
 1961lim     li11141   2.772   2.660   0.237  0.5282 -0.7923 -0.1718
 1962lim     li11142   6.692   0.502   0.047 -0.5959  0.1096 -0.2646
 1963lim     li11143   2.256   5.654   1.954  0.9524  0.0445  0.5924
 1964lim     li11144   1.496   2.409   2.322 -0.7521 -0.6451 -0.1225
 1965lim     li11145   5.627   5.214   0.252 -0.3086  0.0889  0.4729
 1966lim     li11146   1.505   0.743   4.474  0.0525  0.8939  1.4261
 1967lim     li11147   5.342   4.298   1.502 -0.2152  0.3096 -0.5158
 1968lim     li11148   3.566   2.199   2.948  0.7922  0.4167 -0.8313
 1969lim     li11149   1.064   1.618   0.304  0.8482  0.8211  0.2906
 1970lim     li11150   2.861   4.013   6.838  1.7638  0.0096  0.4821
 1971lim     li11151   1.721   3.135   2.372 -0.4690 -0.1643 -0.2661
 1972lim     li11152   4.645   1.371   3.947  0.1727  0.4329 -0.3414
 1973lim     li11153   2.391   4.359   5.322  0.6533 -0.3830  0.3522
 1974lim     li11154   6.100   5.013   0.612 -0.8847  0.0333 -1.1737
 1975lim     li11155   6.100   3.951   4.996 -0.7728 -0.2178 -0.8167
 1976lim     li11156   0.962   1.175   1.711 -0.5850 -0.7658  1.0645
 1977lim     li11157   0.943   4.541   6.542  1.0219  0.2548  0.1376
 1978lim     li11158   4.166   2.313   0.305 -0.5790  0.6746 -0.3379
 1979lim     li11159   5.811   4.798   4.664  0.2110  0.3550 -0.0140
 1980lim     li11160   1.038   6.894   1.525 -0.0954 -0.1594 -0.1302
 1981lim     li11161   1.382   1.765   4.628 -0.6355  0.1445  0.6393
 1982lim     li11162   6.852   2.046   1.454  1.3107 -0.4244  0.9052
 1983lim     li11163   4.557   5.803   4.782 -0.5021 -1.1469 -1.1172
 1984lim     li11164   2.594   3.271   3.599  0.7452 -0.6625  0.1212
 1985lim     li11165   4.855   5.414   4.203 -0.2091  0.1642  0.0791
 1986lim     li11166   3.133   5.380   4.863 -0.4038 -0.3945 -1.2982
 1987lim     li11167   5.603   5.311   5.058 -0.9017 -0.3753  0.3998
 1988lim     li11168   2.238   5.596   0.130 -0.8765  0.4337  1.0793
 1989lim     li11169   2.386   3.482   1.604 -0.8192 -0.5554 -0.3959
 1990lim     li11170   1.130   0.428   3.513  0.2459  0.0921  0.8373
 1991lim     li11171   3.514   2.746   2.977 -0.0235 -0.4785  1.2388
 1992lim     li11172   2.686   6.414   0.873  0.7245  0.3619 -0.7159
 1993lim     li11173   3.893   6.226   5.797  1.4117 -0.6033  0.7135
 1994lim     li11174   3.594   6.075   2.552 -0.0476  0.5337 -0.5685
 1995lim     li11175   2.895   1.772   5.543 -0.3218 -0.8390  0.0163
 1996lim     li11176   5.327   0.910   3.559 -0.9779  0.3173  0.8932
 1997lim     li11177   2.948   1.837   6.461 -0.4548 -0.4681 -1.3474
 1998lim     li11178   3.861   3.320   6.909 -0.1851  0.7923 -0.0635
 1999lim     li11179   5.903   3.414   3.957 -0.1166  0.1251 -0.6043
 2000lim     li11180   4.739   0.352   3.813 -0.4719  0.6981  0.3221
 2001lim     li11181   6.245   3.786   0.848  0.3684  0.4485 -0.8314
 2002lim     li11182   0.725   5.643   3.215 -0.1533  0.8481 -1.0060
 2003lim     li11183   3.818   5.539   3.289  0.0285 -1.0229 -0.9927
 2004lim     li11184   4.969   0.620   1.159  1.0268 -0.0576  0.5018
 2005lim     li11185   4.878   4.625   6.495 -0.2451  0.5528  0.5099
 2006lim     li11186   3.036   6.367   3.160  0.2486  0.6094 -1.3110
 2007lim     li11187   0.534   1.267   0.837  0.6205 -0.5647 -1.1753
 2008lim     li11188   6.910   3.763   5.499 -0.8753 -0.3270 -0.1099
 2009lim     li11189   0.868   0.642   4.720  0.6022  0.4130  0.0665
 2010lim     li11190   4.053   2.674   6.384  0.3129 -0.7398 -0.3423
 2011lim     li11191   1.960   4.923   0.958 -0.5204 -0.9978 -0.9985
 2012lim     li11192   6.896   0.288   5.168 -0.2075  0.0259  0.5377
 2013lim     li11193   1.510   4.179   6.219 -0.2758  0.4497  0.0892
 2014lim     li11194   2.211   3.895   6.382  0.1553 -0.0873  0.7330
 2015lim     li11195   6.607   0.511   4.681  0.4604 -0.2911 -0.6702
 2016lim     li11196   1.460   1.277   3.981  0.8627 -0.2063  0.1820
 2017lim     li11197   4.616   5.883   5.679 -0.7549  0.4351 -0.7679
 2018lim     li11198   2.411   4.982   4.189  0.5426 -0.8661 -1.1669
 2019lim     li11199   3.525   0.493   0.222 -0.3157  0.2414 -0.4367
 2020lim     li11200   3.093   4.726   0.968  0.4842 -1.0537 -0.1640
 2021lim     li11201   1.268   3.811   2.970  0.7168  0.0502  0.9091
 2022lim     li11202   5.788   3.194   0.575 -0.8422 -0.9832  0.9713
 2023lim     li11203   4.506   2.877   6.144 -0.2809  0.6107 -0.4717
 2024lim     li11204   6.637   6.671   6.448 -0.6271 -0.2660 -0.4473
 2025lim     li11205   2.436   4.216   1.346  0.4351 -1.9229  0.1992
 2026lim     li11206   4.067   1.208   1.362 -0.0080  0.3940  0.5434
 2027lim     li11207   1.796   2.654   4.220 -0.2598  0.0785 -0.6499
 2028lim     li11208   0.530   6.473   0.065 -0.4824  0.4324  1.2288
 2029lim     li11209   3.866   6.518   1.397  0.0665  0.1773  0.1001
 2030lim     li11210   0.718   3.901   5.811  0.8417 -0.0883 -0.5721
 2031lim     li11211   3.328   2.728   3.941  0.2045  0.0103  0.2247
 2032lim     li11212   5.648   6.289   4.020  0.2402  0.0578  0.0561
 2033lim     li11213   6.911   3.697   0.365 -0.6172  1.1014  0.8753
 2034lim     li11214   5.179   2.097   1.925  0.2878 -0.6208  0.8463
 2035lim     li11215   0.715   5.030   1.277 -1.3739  0.1212 -0.1470
 2036lim     li11216   3.421   5.235   0.036 -0.1442  0.4274  0.3412
 2037lim     li11217   4.568   4.878   3.294  0.0562  0.3771 -0.7775
 2038lim     li11218   2.576   5.119   5.829  0.1007  0.1490  0.3879
 2039lim     li11219   1.719   6.328   6.658  0.1782  0.1034 -0.0947
 2040lim     li11220   2.047   3.540   0.527 -0.1801 -0.0287 -1.1699
 2041lim     li11221   1.878   1.785   2.923 -1.0495 -0.4481 -0.0322
 2042lim     li11222   0.750   3.992   3.697  0.7065  0.0106  0.8675
 2043lim     li11223   2.854   0.361   2.666 -0.5986  0.8484  0.7343
 2044lim     li11224   0.698   5.906   4.318 -1.3309 -0.0841  0.2664
 2045lim     li11225   6.112   0.377   2.691  0.3687 -0.7957  0.3224
 2046lim     li11226   5.956   4.270   3.789  0.0097  1.0592  0.9009
 2047lim     li11227   3.313   5.257   2.286  0.4614  0.0778  0.8777
 2048lim     li11228   4.230   3.077   3.823 -0.0442 -0.3734  0.2359
 2049lim     li11229   4.083   4.754   4.357 -1.1017  0.4084  0.3924
 2050lim     li11230   4.956   2.943   6.807 -0.2038  0.1046 -0.2813
 2051lim     li11231   1.395   6.855   4.188  0.2607 -0.2864 -0.1232
 2052lim     li11232   1.934   3.659   3.761  0.1375 -0.5682 -0.2831
 2053lim     li11233   1.348   2.071   6.727  0.7968  0.0503  0.4856
 2054lim     li11234   1.204   5.013   5.484 -0.3295  0.3388 -0.3625
 2055lim     li11235   2.730   1.240   0.855 -0.3018  0.8872  0.9665
 2056lim     li11236   2.778   6.286   4.998  0.0763  0.1877 -0.1658
 2057lim     li11237   4.012   5.121   5.983 -0.2064  0.2845 -0.9306
 2058lim     li11238   3.167   2.768   1.423 -0.0768 -0.0755 -0.0162
 2059lim     li11239   6.013   6.885   5.896  1.0022 -0.1172 -0.4292
 2060lim     li11240   6.826   1.084   0.294 -0.4363  0.0440 -0.0406
 2061lim     li11241   3.920   3.671   5.958  0.3506 -0.3773  0.2768
 2062lim     li11242   4.528   5.946   6.481 -0.3249  1.0830  0.9348
 2063lim     li11243   5.478   5.233   3.066 -0.3315  0.1438 -0.6505
 2064lim     li11244   3.060   4.356   3.726 -0.2069  0.7054  0.5574
 2065lim     li11245   0.083   1.781   0.546 -1.2450  0.4502  0.0773
 2066lim     li11246   1.869   3.154   6.805 -1.0927 -0.8237  0.1639
 2067lim     li11247   6.316   2.695   0.424  0.3706  1.3105  0.9592
 2068lim     li11248   3.251   2.895   2.283  0.9052 -0.2786 -0.2638
 2069lim     li11249   0.483   5.698   5.325 -0.4036 -1.0959 -0.5984
 2070lim     li11250   2.007   2.156   0.924 -0.7963 -0.2129  0.2573
 2071lim     li11251   0.656   0.948   3.662 -0.1184 -0.5621  1.5443
 2072lim     li11252   0.629   1.857   3.055 -0.0839 -0.5503 -0.6366
 2073lim     li11253   1.792   5.448   5.642  0.9817  0.8977 -0.7514
 2074lim     li11254   4.482   3.476   0.698 -0.8567  0.6988 -0.1917
 2075lim     li11255   4.354   2.928   2.381 -0.0840  0.2739 -0.0275
 2076lim     li11256   1.746   4.197   5.684 -0.7674 -0.3981  0.8873
 2077lim     li11257   4.718   0.707   0.314  0.1117 -0.8217  0.0953
 2078lim     li11258   1.989   6.531   4.923 -1.3701  0.6987 -0.1471
 2079lim     li11259   3.561   0.036   3.383  0.7841 -0.3017 -0.5850
 2080lim     li11260   0.789   4.803   2.049  0.0213 -0.3635 -0.0190
 2081lim     li11261   2.708   5.789   6.665 -0.0722 -0.1218  0.5808
 2082lim     li11262   0.718   2.565   0.207  1.0689 -0.2272  0.9860
 2083lim     li11263   6.024   1.318   5.051 -0.3824  0.3461 -0.5912
 2084lim     li11264   1.039   4.795   4.058  0.0535 -0.5199 -0.9478
 2085lim     li11265   5.629   1.190   2.325 -0.1321  0.9664  0.2818
 2086lim     li11266   6.356   4.788   5.150  0.2763  0.3191  1.6337
 2087lim     li11267   3.093   3.516   4.327  0.3371  1.3363 -0.0492
 2088lim     li11268   3.585   3.707   3.854 -0.2151 -0.8690 -1.1812
 2089lim     li11269   3.940   3.972   0.986 -0.6965  0.8307  0.0631
 2090lim     li11270   5.710   1.310   1.328 -0.7611  0.9861  1.1648
 2091lim     li11271   5.162   0.994   6.592 -0.6996 -0.9754 -0.5838
 2092lim     li11272   4.334   4.443   0.678 -0.3399  0.9159 -1.1452
 2093lim     li11273   4.648   3.789   6.923  0.1073 -0.4026 -0.1694
 2094lim     li11274   4.095   0.043   1.722  0.5353 -0.4338 -0.8465
 2095lim     li11275   4.259   4.362   3.925 -0.7296 -1.1862  1.0439
 2096lim     li11276   1.584   5.175   0.401  0.0418  0.3166  0.3540
 2097lim     li11277   0.374   6.542   3.370  0.3314 -0.0589  0.1064
 2098lim     li11278   5.040   0.079   2.601 -0.1089 -0.2003 -0.5886
 2099lim     li11279   5.022   4.150   4.496 -0.1056  0.1512 -1.0425
 2100lim     li11280   2.128   2.258   6.103  0.0681  0.0543  0.8242
 2101lim     li11281   4.698   1.966   5.303  0.2190  0.1475  1.0941
 2102lim     li11282   5.294   4.412   3.331 -0.0990 -0.2696 -0.0674
 2103lim     li11283   1.652   0.224   1.569 -1.1500  0.1703 -0.4838
 2104lim     li11284   0.448   0.851   2.546  0.5045  0.0562 -0.4385
 2105lim     li11285   3.992   1.230   3.100 -0.7565 -0.4167  0.8404
 2106lim     li11286   5.410   2.010   0.893  0.7407 -1.3502  0.7321
 2107lim     li11287   3.098   0.570   3.717  0.4580 -1.2870 -0.0724
 2108lim     li11288   2.889   2.226   1.996 -0.6346  0.1332  0.2187
 2109lim     li11289   3.173   3.306   6.497 -0.0148  0.1162 -0.5549
 2110lim     li11290   1.655   3.416   4.090  0.3822 -0.7732  1.0021
 2111lim     li11291   1.859   0.191   2.256  0.0640 -0.6673  0.7372
 2112lim     li11292   5.689   4.786   2.096  1.0129 -1.0208  0.2482
 2113lim     li11293   3.019   6.162   1.910 -1.0273 -0.0964  0.2385
 2114lim     li11294   3.967   4.875   0.994  0.7866  0.0153  0.3954
 2115lim     li11295   0.375   1.277   4.145  0.2942 -0.4386 -0.2226
 2116lim     li11296   5.969   2.380   6.099 -0.4545  0.7326 -1.4834
 2117lim     li11297   3.229   1.212   5.764 -0.5901 -0.2428  0.2970
 2118lim     li11298   3.493   3.643   1.518  0.8442  0.0300 -0.3652
 2119lim     li11299   5.673   5.992   2.695  0.2865  0.8457  0.2843
 2120lim     li11300   3.019   3.395   0.622 -0.5102  0.3988  0.6061
 2121lim     li11301   3.797   0.084   6.594  0.0986  0.4747  0.1799
 2122lim     li11302   4.933   4.806   5.159 -0.3789 -0.5808 -0.3846
 2123lim     li11303   6.671   1.593   4.198  1.5435  1.1497 -0.2569
 2124lim     li11304   1.990   2.664   1.756  0.6022 -0.2710  0.8936
 2125lim     li11305   4.222   6.369   2.310 -1.6286 -0.7298 -1.1511
 2126lim     li11306   0.289   6.470   5.249 -0.7265  0.2767  0.5316
 2127lim     li11307   0.114   3.117   6.093  0.1518  0.9971 -0.4391
 2128lim     li11308   0.347   5.671   1.572 -0.3787 -0.1951  0.3173
 2129lim     li11309   5.363   5.876   5.959 -0.1544 -0.0222 -0.8455
 2130lim     li11310   2.152   2.971   6.093  1.2901  0.3985 -0.4326
 2131lim     li11311   6.716   5.085   1.571  0.1213  0.2917 -0.3308
 2132lim     li11312   5.969   2.917   6.073 -0.4052 -0.2478  1.0249
 2133lim     li11313   6.494   1.601   6.656  0.0751 -0.7409 -0.1471
 2134lim     li11314   0.731   1.981   4.337  1.0784  0.3587  1.0873
 2135lim     li11315   3.950   5.392   4.888 -1.1525 -0.3598 -0.2133
 2136lim     li11316   5.390   4.080   6.191  0.7543  0.3454  0.0808
 2137lim     li11317   3.064   6.509   6.912 -0.4405  1.1219  1.2696
 2138lim     li11318   2.815   0.176   1.226 -0.7411 -0.6904 -0.3086
 2139lim     li11319   4.193   0.623   0.700 -0.4256 -0.8089  0.1336
 2140lim     li11320   4.729   0.799   6.153  1.3015 -1.0020 -0.6072
 2141lim     li11321   0.289   2.383   6.246  0.6790 -0.0189 -0.1766
 2142lim     li11322   4.531   5.734   1.594 -0.0007  0.4659  1.4353
 2143lim     li11323   4.686   6.296   3.638 -0.4836 -1.4099 -0.8653
 2144lim     li11324   4.626   5.149   6.427 -1.4010 -0.2615  0.0488
 2145lim     li11325   3.397   0.919   2.582 -0.5844 -0.5601  0.3926
 2146lim     li11326   3.663   2.101   5.544 -0.2621 -1.5953 -0.8228
 2147lim     li11327   6.043   2.481   3.523  0.1107 -0.7936  0.1390
 2148lim     li11328   3.551   4.274   5.963 -0.0434 -0.6547 -0.1256
 2149lim     li11329   3.723   1.862   2.088 -0.4720  0.6468  0.6601
 2150lim     li11330   4.497   5.330   0.405 -0.7329 -0.6497 -0.7843
 2151lim     li11331   3.638   3.200   5.396  0.1124 -0.5979  0.3589
 2152lim     li11332   2.054   1.213   5.312 -0.7133  1.8450 -0.1704
 2153lim     li11333   2.290   6.851   3.039 -0.2935 -0.3840 -0.0955
 2154lim     li11334   5.210   6.127   3.998  0.2023 -0.5409  0.0234
 2155lim     li11335   6.839   5.872   4.009 -0.5478 -0.4052  0.0152
 2156lim     li11336   4.945   3.069   4.787  0.1270  0.4935 -0.3616
 2157lim     li11337   6.373   1.784   0.792  0.2830 -0.5860 -0.3756
 2158lim     li11338   5.105   4.042   0.671 -0.9242  0.1664  0.2689
 2159lim     li11339   1.327   5.319   6.220 -0.7297 -0.2143  0.9880
 2160lim     li11340   4.021   6.764   0.740 -0.0920 -1.0348  0.9429
 2161ntf    cn111341   1.831   2.969   5.168 -0.0551  0.0215 -0.0763
 2161ntf    sn211342   1.931   3.044   5.035 -0.1032 -0.1066 -0.1843
 2161ntf    nn311343   1.872   2.957   4.918 -0.2618 -0.5801  0.2395
 2161ntf    sn211344   1.750   2.988   4.823  0.0218  0.1100  0.0892
 2161ntf    cn111345   1.845   3.051   4.682 -0.2233 -0.0418 -0.1448
 2161ntf    fn411346   1.708   3.015   5.176  0.0146  0.1429  0.3307
 2161ntf    fn411347   1.816   2.839   5.149 -0.7304  0.0937 -0.0522
 2161ntf    fn411348   1.872   2.975   5.294  0.4310  0.1383 -0.2382
 2161ntf    on511349   1.885   3.180   5.040  0.1856  0.0064 -0.6452
 2161ntf    on511350   2.063   3.009   5.079 -0.2135 -0.3137 -0.0106
 2161ntf    on511351   1.659   3.093   4.859  0.1442  0.4441 -0.5600
 2161ntf    on511352   1.691   2.866   4.774 -0.1647 -0.1034  0.8235
 2161ntf    fn411353   1.770   3.079   4.577 -0.0329  0.4467 -0.1549
 2161ntf    fn411354   1.923   3.155   4.709  0.6354 -0.7274  0.0789
 2161ntf    fn411355   1.934   2.961   4.641 -0.0794 -0.1077  0.2987
 2162ntf    cn111356   3.004   5.705   1.366 -0.3271  0.1198 -0.2796
 2162ntf    sn211357   2.836   5.654   1.414 -0.1991 -0.2756 -0.2483
 2162ntf    nn311358   2.762   5.787   1.375  0.0509  0.0704  0.4294
 2162ntf    sn211359   2.698   5.832   1.239  0.2129 -0.3986  0.1929
 2162ntf    cn111360   2.672   6.011   1.257 -0.0359 -0.3704 -0.3985
 2162ntf    fn411361   3.095   5.615   1.400 -0.7623 -0.0784  0.3850
 2162ntf    fn411362   3.019   5.730   1.237  0.2070  0.7985 -0.0911
 2162ntf    fn411363   3.038   5.820   1.423  0.3531 -0.0242 -0.3830
 2162ntf    on511364   2.803   5.542   1.329 -0.3150 -1.0158  0.7562
 2162ntf    on511365   2.849   5.632   1.556 -0.2119  0.3062 -0.1546
 2162ntf    on511366   2.566   5.775   1.224  0.1133 -0.2398  0.4499
 2162ntf    on511367   2.784   5.825   1.123 -0.0851  0.1754 -0.0711
 2162ntf    fn411368   2.787   6.076   1.257 -0.2160 -0.0427 -0.9295
 2162ntf    fn411369   2.597   6.056   1.158 -0.2731 -0.0702 -0.0869
 2162ntf    fn411370   2.613   6.036   1.374 -0.4323 -0.4915 -0.5704
 2163ntf    cn111371   2.517   6.020   3.749  0.0325 -0.1857 -0.1200
 2163ntf    sn211372   2.648   5.998   3.874 -0.3307 -0.3183  0.2380
 2163ntf    nn311373   2.617   5.865   3.953  1.1759 -0.6078  0.3684
 2163ntf    sn211374   2.558   5.732   3.893  0.2804 -0.0047 -0.1111
 2163ntf    cn111375   2.631   5.622   4.017 -0.0378  0.1320  0.1995
 2163ntf    fn411376   2.540   6.126   3.674 -0.4596  0.0374  0.0414
 2163ntf    fn411377   2.507   5.921   3.662  0.4422 -0.2241 -0.1265
 2163ntf    fn411378   2.397   6.037   3.801 -0.1269 -0.2038 -0.4827
 2163ntf    on511379   2.771   5.997   3.800 -0.0894 -0.9495  0.6368
 2163ntf    on511380   2.634   6.114   3.958 -0.2373  0.2606 -0.5420
 2163ntf    on511381   2.625   5.676   3.779  0.4324 -0.0103 -0.0192
 2163ntf    on511382   2.416   5.709   3.905  0.3319  0.0779  0.7115
 2163ntf    fn411383   2.644   5.494   3.987 -0.0000  0.2269 -0.1893
 2163ntf    fn411384   2.753   5.661   4.053 -0.0192 -0.2360  0.5427
 2163ntf    fn411385   2.576   5.622   4.137 -0.1153 -0.0126  0.1637
 2164ntf    cn111386   0.676   3.149   0.931  0.3184  0.1010  0.4138
 2164ntf    sn211387   0.594   2.992   0.890  0.0605  0.3028  0.1567
 2164ntf    nn311388   0.450   3.041   0.852 -0.1967 -0.2326  0.4276
 2164ntf    sn211389   0.351   2.977   0.748  0.0286  0.3596 -0.1588
 2164ntf    cn111390   0.375   3.093   0.610  0.2221  0.0531 -0.3840
 2164ntf    fn411391   0.619   3.206   1.035 -0.0662 -0.3715  0.4642
 2164ntf    fn411392   0.807   3.139   0.948  0.3151 -0.1667  0.2986
 2164ntf    fn411393   0.655   3.236   0.834  0.8131 -0.1498  0.0780
 2164ntf    on511394   0.675   2.936   0.785  0.3455 -0.4071  0.7446
 2164ntf    on511395   0.603   2.931   1.021 -0.5909 -0.2929 -0.0665
 2164ntf    on511396   0.211   2.987   0.782 -0.0756 -0.0474 -0.4515
 2164ntf    on511397   0.394   2.848   0.700 -0.1659  0.4115 -0.4754
 2164ntf    fn411398   0.495   3.095   0.555  0.2075 -0.3805 -0.4397
 2164ntf    fn411399   0.297   3.056   0.509 -0.2112  0.3217 -0.1489
 2164ntf    fn411400   0.353   3.215   0.654 -0.4108 -0.1617 -0.0914
 2165ntf    cn111401   5.614   3.694   3.565  0.4083  0.1835  0.1541
 2165ntf    sn211402   5.487   3.774   3.668  0.1078 -0.1719  0.0641
 2165ntf    nn311403   5.564   3.771   3.805  0.0944 -0.0741  0.0737
 2165ntf    sn211404   5.652   3.888   3.862  0.0202  0.0059  0.0241
 2165ntf    cn111405   5.558   3.970   3.994 -0.0926  0.0143 -0.0606
 2165ntf    fn411406   5.707   3.779   3.526  0.0258  0.4561 -0.1715
 2165ntf    fn411407   5.675   3.607   3.643 -0.0613  0.0486  0.3756
 2165ntf    fn411408   5.566   3.643   3.452  0.3558  0.6745 -0.0488
 2165ntf    on511409   5.465   3.900   3.601  0.0588 -0.0963  0.2208
 2165ntf    on511410   5.373   3.686   3.672  0.0538 -0.0843  0.5356
 2165ntf    on511411   5.693   3.994   3.773  0.4636 -0.2029 -0.0193
 2165ntf    on511412   5.765   3.838   3.936 -0.2822 -0.2846  0.2928
 2165ntf    fn411413   5.617   4.074   4.052 -0.0420  0.0815 -0.2333
 2165ntf    fn411414   5.444   4.025   3.954 -0.0094 -0.1063 -0.4600
 2165ntf    fn411415   5.522   3.889   4.093 -0.2233 -0.1021 -0.2026
 2166ntf    cn111416   5.121   5.523   6.452  0.3224  0.3774 -0.0316
 2166ntf    sn211417   4.953   5.593   6.454  0.1651  0.0130 -0.3044
 2166ntf    nn311418   4.899   5.516   6.328  0.3553 -0.4227 -0.1225
 2166ntf    sn211419   4.756   5.457   6.304  0.1493  0.0146  0.0120
 2166ntf    cn111420   4.751   5.414   6.127 -0.0785  0.0614  0.0066
 2166ntf    fn411421   5.118   5.392   6.436  0.4341  0.3641  0.0635
 2166ntf    fn411422   5.207   5.571   6.363  0.6418  0.0734  0.1133
 2166ntf    fn411423   5.178   5.540   6.570 -0.4064 -0.2998  0.4264
 2166ntf    on511424   4.906   5.556   6.586 -0.6893 -0.3007 -0.6899
 2166ntf    on511425   4.980   5.734   6.439  0.4112 -0.0832 -0.7773
 2166ntf    on511426   4.656   5.558   6.326 -0.2528 -0.3296 -0.2121
 2166ntf    on511427   4.737   5.329   6.368  0.0768 -0.0894 -0.2183
 2166ntf    fn411428   4.733   5.526   6.058 -0.0215 -0.0626 -0.2084
 2166ntf    fn411429   4.861   5.357   6.080 -0.0350 -0.1562  0.3689
 2166ntf    fn411430   4.649   5.338   6.094  0.0600 -0.0662 -0.1268
 2167ntf    cn111431   3.627   0.381   3.073 -0.3519  0.0935  0.5386
 2167ntf    sn211432   3.641   0.552   3.012  0.0106 -0.0660  0.1716
 2167ntf    nn311433   3.731   0.616   3.123 -0.2574  0.2163  0.2288
 2167ntf    sn211434   3.860   0.704   3.109 -0.3381  0.3504  0.3313
 2167ntf    cn111435   3.850   0.810   3.257  0.0281  0.1566  0.4950
 2167ntf    fn411436   3.745   0.322   3.078 -0.0558  0.6204 -0.1255
 2167ntf    fn411437   3.566   0.377   3.191  0.1520  0.4548  0.8189
 2167ntf    fn411438   3.547   0.311   2.995  0.0845  0.0594  0.1226
 2167ntf    on511439   3.703   0.538   2.883 -0.2708 -0.5822  0.0871
 2167ntf    on511440   3.506   0.603   3.008  0.0653  0.0418 -0.3291
 2167ntf    on511441   3.854   0.802   3.003  0.0480 -0.1977 -0.1995
 2167ntf    on511442   3.983   0.631   3.124 -0.8016 -0.4524  0.2965
 2167ntf    fn411443   3.969   0.857   3.292  0.3557 -0.2413 -0.0540
 2167ntf    fn411444   3.759   0.905   3.245 -0.5298 -0.3488  0.6821
 2167ntf    fn411445   3.806   0.738   3.359 -0.0450  0.0048  0.3584
 2168ntf    cn111446   3.982   5.961   3.945 -0.0545 -0.1148  0.1713
 2168ntf    sn211447   4.062   6.024   3.795 -0.6143 -0.0633 -0.1091
 2168ntf    nn311448   4.144   5.903   3.737  0.0059  0.0849  0.4508
 2168ntf    sn211449   4.143   5.858   3.587 -0.1309  0.3171  0.3813
 2168ntf    cn111450   4.317   5.806   3.576 -0.1637  0.2951 -0.0448
 2168ntf    fn411451   3.895   5.862   3.926 -0.6512  0.5307 -0.5706
 2168ntf    fn411452   4.063   5.925   4.043 -0.1652 -0.2417  0.2168
 2168ntf    fn411453   3.918   6.065   3.996  0.0504 -0.1918  0.4623
 2168ntf    on511454   3.950   6.063   3.713 -0.3521  0.3986 -0.2500
 2168ntf    on511455   4.152   6.124   3.845 -0.8322  0.1703 -0.1853
 2168ntf    on511456   4.134   5.957   3.483  1.4669 -0.0445 -0.1245
 2168ntf    on511457   4.074   5.733   3.563 -0.1390  0.3325  0.3253
 2168ntf    fn411458   4.398   5.900   3.622  0.0314  0.0982  0.0150
 2168ntf    fn411459   4.344   5.695   3.641  0.0796  0.3027 -0.1294
 2168ntf    fn411460   4.357   5.774   3.454 -0.0975 -0.0066  0.0569
 2169ntf    cn111461   6.470   4.721   0.796 -0.0425  0.1959 -0.0020
 2169ntf    sn211462   6.493   4.899   0.826  0.1009  0.1892 -0.0692
 2169ntf    nn311463   6.628   4.893   0.906 -0.0386  0.0284  0.1549
 2169ntf    sn211464   6.688   4.986   1.017 -0.0649  0.1800  0.0418
 2169ntf    cn111465   6.865   4.979   0.973 -0.0732  0.0163  0.0355
 2169ntf    fn411466   6.348   4.691   0.755 -0.1575 -0.0377  0.5014
 2169ntf    fn411467   6.552   4.668   0.707 -0.3615  0.1399 -0.2651
 2169ntf    fn411468   6.482   4.653   0.909  0.0729 -0.0540 -0.1640
 2169ntf    on511469   6.516   4.949   0.693 -0.2816  0.4462 -0.0407
 2169ntf    on511470   6.377   4.944   0.899  0.3674  0.2826  0.3035
 2169ntf    on511471   6.691   4.923   1.147 -0.0432 -0.0729 -0.0810
 2169ntf    on511472   6.653   5.126   1.016 -0.5027  0.0723  0.3696
 2169ntf    fn411473   6.887   5.022   0.850  0.1507  0.1312  0.1146
 2169ntf    fn411474   6.941   5.055   1.051  0.3053 -0.0379 -0.2805
 2169ntf    fn411475   6.920   4.860   0.985  0.1346  0.1109  0.0207
 2170ntf    cn111476   1.458   4.349   4.100 -0.1239  0.3126  0.2957
 2170ntf    sn211477   1.299   4.377   4.184 -0.2197 -0.1755  0.2794
 2170ntf    nn311478   1.253   4.229   4.160 -0.0187 -0.1846 -0.0654
 2170ntf    sn211479   1.240   4.102   4.251  0.2999 -0.0383  0.1830
 2170ntf    cn111480   1.076   4.126   4.325  0.2725 -0.2890  0.2066
 2170ntf    fn411481   1.449   4.300   3.978  0.5218 -0.0424  0.3842
 2170ntf    fn411482   1.533   4.458   4.086 -0.1142  0.2195 -0.4283
 2170ntf    fn411483   1.535   4.273   4.176  0.1223  0.0800 -0.1871
 2170ntf    on511484   1.337   4.415   4.318 -0.4052  0.2200  0.2209
 2170ntf    on511485   1.229   4.480   4.111  0.1049 -0.2701 -0.1690
 2170ntf    on511486   1.333   4.087   4.360  0.2528 -0.0107  0.2275
 2170ntf    on511487   1.214   3.988   4.167  0.8136 -0.2854  0.3512
 2170ntf    fn411488   0.979   4.124   4.234  0.1714  0.1736  0.2999
 2170ntf    fn411489   1.052   4.025   4.406  0.2919 -0.3464  0.1406
 2170ntf    fn411490   1.068   4.234   4.402 -0.3800  0.2433 -0.5847
 2171ntf    cn111491   4.082   1.648   1.731 -0.1211  0.2153  0.0858
 2171ntf    sn211492   4.004   1.792   1.652 -0.1307  0.0092 -0.2817
 2171ntf    nn311493   4.124   1.879   1.600  0.1019  0.0216  0.2752
 2171ntf    sn211494   4.207   1.847   1.472  0.0587  0.2159  0.1979
 2171ntf    cn111495   4.362   1.786   1.544 -0.1100 -0.4795 -0.0183
 2171ntf    fn411496   3.990   1.588   1.805 -0.1002 -0.4672 -0.4308
 2171ntf    fn411497   4.122   1.553   1.648 -0.4329  0.1045  0.0603
 2171ntf    fn411498   4.178   1.692   1.809  0.2900 -0.2968 -0.1257
 2171ntf    on511499   3.918   1.726   1.557 -0.5810  0.8122 -0.4444
 2171ntf    on511500   3.937   1.860   1.760  0.0588  0.1800 -0.2718
 2171ntf    on511501   4.239   1.971   1.405 -0.1360  0.5000  0.6337
 2171ntf    on511502   4.180   1.732   1.388 -0.6173  0.7788 -0.3710
 2171ntf    fn411503   4.412   1.859   1.643 -0.1232 -0.3601 -0.1000
 2171ntf    fn411504   4.349   1.668   1.604 -0.4310 -0.5104 -0.1468
 2171ntf    fn411505   4.465   1.770   1.462  0.2814 -0.6313  0.4930
 2172ntf    cn111506   5.699   2.653   0.800 -0.0092 -0.1482 -0.1425
 2172ntf    sn211507   5.710   2.642   0.619  0.0479  0.5162 -0.1822
 2172ntf    nn311508   5.737   2.785   0.560  0.2542  0.2123 -0.8289
 2172ntf    sn211509   5.625   2.884   0.512 -0.2378 -0.0532 -0.2376
 2172ntf    cn111510   5.587   2.820   0.347  0.3316 -0.1081 -0.3498
 2172ntf    fn411511   5.618   2.752   0.833  0.2052 -0.0590  0.1202
 2172ntf    fn411512   5.663   2.545   0.867  0.1579 -0.0296  0.1435
 2172ntf    fn411513   5.818   2.683   0.849  0.1194  0.1177 -0.6077
 2172ntf    on511514   5.821   2.553   0.596 -0.6041 -0.2857 -0.2998
 2172ntf    on511515   5.581   2.590   0.580  0.2028 -0.2473  0.3144
 2172ntf    on511516   5.691   3.012   0.507  0.0416 -0.1471  0.7640
 2172ntf    on511517   5.498   2.883   0.580  0.1365 -0.0456  0.4758
 2172ntf    fn411518   5.678   2.735   0.303  0.3417 -0.5506  0.5094
 2172ntf    fn411519   5.475   2.750   0.342 -0.0210  0.3949  0.2918
 2172ntf    fn411520   5.573   2.917   0.258 -0.3640  0.2118  0.1054
 2173ntf    cn111521   2.252   3.079   6.695 -0.0178 -0.2975 -0.2116
 2173ntf    sn211522   2.112   3.004   6.606 -0.0637 -0.0192 -0.3728
 2173ntf    nn311523   2.140   2.851   6.620 -0.2410 -0.0299 -0.1419
 2173ntf    sn211524   2.084   2.745   6.722  0.3004 -0.1691  0.0157
 2173ntf    cn111525   1.953   2.675   6.618  0.0219  0.3773 -0.0052
 2173ntf    fn411526   2.261   3.208   6.665 -0.0174 -0.2392  0.0427
 2173ntf    fn411527   2.236   3.067   6.826 -0.0145 -0.7813 -0.2536
 2173ntf    fn411528   2.367   3.024   6.662  0.0011 -0.4741  0.1495
 2173ntf    on511529   1.994   3.037   6.682  0.4855  0.1961  0.3898
 2173ntf    on511530   2.118   3.051   6.469 -0.6084  0.1789 -0.3347
 2173ntf    on511531   2.012   2.801   6.834  0.1759  0.3291 -0.3111
 2173ntf    on511532   2.169   2.632   6.746 -0.2430 -0.5844  0.0181
 2173ntf    fn411533   2.002   2.642   6.500 -0.2043  0.6468 -0.1780
 2173ntf    fn411534   1.898   2.566   6.668 -0.4069  0.4862 -0.2272
 2173ntf    fn411535   1.855   2.762   6.595 -0.0099  0.4219  0.3026
 2174ntf    cn111536   4.372   1.544   0.737  0.0273  0.1457  0.2227
 2174ntf    sn211537   4.362   1.620   0.573  0.1489 -0.4247 -0.0490
 2174ntf    nn311538   4.243   1.715   0.610  0.1826 -0.5786  0.4598
 2174ntf    sn211539   4.260   1.864   0.655  0.2179 -0.3430 -0.3130
 2174ntf    cn111540   4.120   1.879   0.770  0.2913 -0.0786 -0.2574
 2174ntf    fn411541   4.360   1.627   0.840 -0.2254 -0.4073  0.6429
 2174ntf    fn411542   4.292   1.439   0.738  0.2360 -0.0210 -0.3345
 2174ntf    fn411543   4.492   1.492   0.760  0.1675  0.5557  0.4460
 2174ntf    on511544   4.487   1.688   0.545 -0.3308  0.1959 -0.7267
 2174ntf    on511545   4.332   1.505   0.491  0.1242 -0.5549  0.1424
 2174ntf    on511546   4.219   1.956   0.552 -0.7257 -0.1404  0.2330
 2174ntf    on511547   4.379   1.900   0.728 -0.4459  0.0696  0.5805
 2174ntf    fn411548   4.014   1.913   0.700  0.1938  0.3652  0.1023
 2174ntf    fn411549   4.103   1.759   0.824  0.2889  0.0907  0.1191
 2174ntf    fn411550   4.137   1.973   0.862 -0.4764  0.1918 -0.3844
 2175ntf    cn111551   6.631   4.053   1.251  0.2246  0.4807 -0.1573
 2175ntf    sn211552   6.613   4.022   1.073 -0.2910 -0.1093 -0.0096
 2175ntf    nn311553   6.629   3.866   1.068  0.0376 -0.0876  0.2735
 2175ntf    sn211554   6.753   3.777   1.033 -0.0450 -0.2363  0.3542
 2175ntf    cn111555   6.748   3.799   0.852 -0.0914 -0.0480  0.3777
 2175ntf    fn411556   6.617   4.182   1.277  0.3520  0.3928  0.3746
 2175ntf    fn411557   6.537   3.990   1.320  0.6410  0.1535  0.1159
 2175ntf    fn411558   6.746   4.017   1.305 -0.0228 -0.0069  0.0544
 2175ntf    on511559   6.474   4.049   1.046 -0.2286 -0.2706 -0.4989
 2175ntf    on511560   6.706   4.105   0.999 -0.3588 -0.0787 -0.0601
 2175ntf    on511561   6.734   3.636   1.052 -0.1456 -0.2521  0.1455
 2175ntf    on511562   6.879   3.833   1.074 -0.1414  0.0995  0.2019
 2175ntf    fn411563   6.836   3.716   0.797 -0.6390 -0.2712 -0.1668
 2175ntf    fn411564   6.629   3.780   0.798  0.0250  0.1874  0.0378
 2175ntf    fn411565   6.785   3.920   0.815 -0.4226  0.1890  0.8164
 2176ntf    cn111566   6.582   4.476   4.654 -0.3730  0.2843  0.3068
 2176ntf    sn211567   6.651   4.620   4.742  0.2930  0.0326  0.2017
 2176ntf    nn311568   6.774   4.549   4.809  0.4152  0.3022  0.2611
 2176ntf    sn211569   6.767   4.488   4.954 -0.0120  0.2877  0.2356
 2176ntf    cn111570   6.800   4.650   5.031 -0.0870  0.4881 -0.1519
 2176ntf    fn411571   6.512   4.510   4.547 -0.4060 -0.0480  0.2205
 2176ntf    fn411572   6.683   4.400   4.614 -0.5444  0.2920 -0.1430
 2176ntf    fn411573   6.511   4.397   4.732  0.0337 -0.3652  0.0286
 2176ntf    on511574   6.698   4.702   4.634  0.0257  0.1212  0.1523
 2176ntf    on511575   6.538   4.665   4.819  0.1593  0.1501 -0.0597
 2176ntf    on511576   6.876   4.402   4.992 -0.7821 -0.7859  0.0460
 2176ntf    on511577   6.637   4.451   5.004 -0.0221 -0.2233 -0.1561
 2176ntf    fn411578   6.730   4.752   4.984 -0.2685  0.4215 -0.0305
 2176ntf    fn411579   6.765   4.638   5.158  0.1567 -0.1007 -0.1352
 2176ntf    fn411580   6.925   4.691   5.020 -0.1591  0.5654 -0.7235
 2177ntf    cn111581   3.723   4.506   0.868  0.1229 -0.1808  0.1131
 2177ntf    sn211582   3.656   4.347   0.808 -0.5008  0.1112  0.0291
 2177ntf    nn311583   3.576   4.402   0.685 -0.2408  0.7622  0.1464
 2177ntf    sn211584   3.607   4.372   0.534  0.0176  0.0362  0.3423
 2177ntf    cn111585   3.498   4.500   0.466  0.2685  0.3323  0.4914
 2177ntf    fn411586   3.821   4.552   0.792 -0.2054  0.3479  0.0070
 2177ntf    fn411587   3.634   4.603   0.866 -0.5019 -0.7499 -0.1071
 2177ntf    fn411588   3.781   4.500   0.987  0.6012 -0.0559 -0.1094
 2177ntf    on511589   3.770   4.265   0.775 -0.1150  0.6415  0.0154
 2177ntf    on511590   3.574   4.293   0.914 -0.2488  0.1132  0.2270
 2177ntf    on511591   3.540   4.251   0.495  0.0250  0.2679 -0.3967
 2177ntf    on511592   3.742   4.401   0.492 -0.3335  0.1714 -0.7075
 2177ntf    fn411593   3.558   4.618   0.462  0.6412  0.1207 -0.5781
 2177ntf    fn411594   3.452   4.472   0.345  0.0498  0.1589  0.6144
 2177ntf    fn411595   3.390   4.510   0.542 -0.3193  0.3779 -0.3288
 2178ntf    cn111596   0.947   5.349   0.802 -0.0299  0.1860  0.3192
 2178ntf    sn211597   0.773   5.297   0.813  0.0229 -0.0333  0.1203
 2178ntf    nn311598   0.684   5.411   0.752  0.4601  0.5734  0.5960
 2178ntf    sn211599   0.532   5.448   0.768  0.2318 -0.0439 -0.0564
 2178ntf    cn111600   0.549   5.588   0.883  0.0694 -0.0635 -0.0079
 2178ntf    fn411601   1.035   5.259   0.842  0.0690  0.2360  0.2134
 2178ntf    fn411602   0.982   5.379   0.678 -0.5275 -0.2977  0.0627
 2178ntf    fn411603   0.965   5.458   0.876  0.6651  0.2093  0.1227
 2178ntf    on511604   0.763   5.174   0.738 -0.5795 -0.1634  0.4082
 2178ntf    on511605   0.757   5.289   0.956  0.1618  0.0051  0.1385
 2178ntf    on511606   0.461   5.346   0.841 -0.2387  0.1687 -0.2136
 2178ntf    on511607   0.467   5.501   0.651  0.2465  0.3877  0.1286
 2178ntf    fn411608   0.608   5.692   0.825 -0.1811  0.0857  0.0019
 2178ntf    fn411609   0.429   5.630   0.919  0.0298 -0.1657 -0.0203
 2178ntf    fn411610   0.621   5.555   0.988 -0.3109 -0.9277 -0.0078
 2179ntf    cn111611   6.440   0.090   4.256  0.2575 -0.2110 -0.0005
 2179ntf    sn211612   6.523   0.221   4.161 -0.1612 -0.0636 -0.1625
 2179ntf    nn311613   6.399   0.312   4.126 -0.0184  0.1813 -0.0293
 2179ntf    sn211614   6.407   0.465   4.093  0.1386  0.1828  0.0124
 2179ntf    cn111615   6.553   0.491   3.989  0.0635  0.4828 -0.0202
 2179ntf    fn411616   6.387   0.132   4.370  0.6135  0.0899  0.0583
 2179ntf    fn411617   6.344   0.042   4.180  0.3973 -0.4356 -0.0348
 2179ntf    fn411618   6.522  -0.011   4.281  0.3386 -0.2574 -0.4586
 2179ntf    on511619   6.620   0.265   4.257  0.1408 -0.0334 -0.4788
 2179ntf    on511620   6.571   0.149   4.045  0.1840 -0.0129 -0.0501
 2179ntf    on511621   6.434   0.550   4.207 -0.5421  0.5827 -0.1158
 2179ntf    on511622   6.295   0.510   4.013  0.0946 -0.1447 -0.1111
 2179ntf    fn411623   6.549   0.609   3.928  0.0603  0.4356 -0.1119
 2179ntf    fn411624   6.674   0.488   4.042  0.2637 -0.3222 -0.5011
 2179ntf    fn411625   6.556   0.402   3.891 -0.0299  0.6917 -0.2147
 2180ntf    cn111626   2.416   6.940   3.550  0.0638  0.4327 -0.5282
 2180ntf    sn211627   2.240   6.906   3.582  0.2091  0.1163 -0.0516
 2180ntf    nn311628   2.252   6.831   3.719 -0.4503  0.2259  0.0689
 2180ntf    sn211629   2.251   6.895   3.862 -0.3920  0.0788  0.1348
 2180ntf    cn111630   2.124   6.788   3.936 -0.3677 -0.0698 -0.0393
 2180ntf    fn411631   2.487   6.834   3.512 -0.4364 -0.3768  0.7352
 2180ntf    fn411632   2.429   7.015   3.442  0.0300  0.4363 -0.5295
 2180ntf    fn411633   2.483   7.004   3.644 -0.0627 -0.4780  0.1936
 2180ntf    on511634   2.178   7.035   3.601 -0.4026 -0.1444 -0.2386
 2180ntf    on511635   2.204   6.826   3.467 -0.3506  0.0923  0.1403
 2180ntf    on511636   2.186   7.023   3.879 -0.4710  0.0089  0.3684
 2180ntf    on511637   2.372   6.869   3.937 -0.2463  0.4289  0.0238
 2180ntf    fn411638   2.142   6.660   3.904 -0.0193  0.0062 -0.1511
 2180ntf    fn411639   2.114   6.799   4.067  0.0939  0.2768 -0.0282
 2180ntf    fn411640   2.007   6.820   3.884 -0.7045  0.0837  0.8000
 2181ntf    cn111641   0.766   2.258   1.302 -0.6205  0.2730 -0.4166
 2181ntf    sn211642   0.787   2.418   1.218  0.0048  0.5361  0.2295
 2181ntf    nn311643   0.733   2.383   1.075  0.0322  0.1302  0.3170
 2181ntf    sn211644   0.795   2.416   0.934  0.1397  0.0716  0.3504
 2181ntf    cn111645   0.897   2.272   0.889  0.0420 -0.0012  0.3604
 2181ntf    fn411646   0.813   2.266   1.425 -0.7468 -0.8897 -0.2796
 2181ntf    fn411647   0.635   2.244   1.319 -0.4617 -0.1832  0.4633
 2181ntf    fn411648   0.809   2.153   1.234  0.1206  0.8047 -0.7774
 2181ntf    on511649   0.689   2.498   1.289  0.0997  0.5931  0.2960
 2181ntf    on511650   0.929   2.443   1.223  0.0913  0.0145  0.3904
 2181ntf    on511651   0.893   2.522   0.933 -0.1301  0.3198 -0.0489
 2181ntf    on511652   0.698   2.427   0.828  0.1538 -0.4893  0.2739
 2181ntf    fn411653   0.957   2.287   0.772 -0.4281  0.0298  0.1173
 2181ntf    fn411654   0.983   2.236   0.982  0.2819 -0.3137  0.0192
 2181ntf    fn411655   0.826   2.162   0.873  0.6507 -0.2987 -0.3565
 2182ntf    cn111656   4.707   3.771   5.973  0.1356 -0.1598 -0.0940
 2182ntf    sn211657   4.859   3.720   5.887  0.1652  0.1396 -0.2175
 2182ntf    nn311658   4.949   3.847   5.906  0.0359  0.1333  0.4467
 2182ntf    sn211659   5.041   3.915   5.799 -0.1406 -0.0931  0.1518
 2182ntf    cn111660   4.939   4.060   5.756  0.0201 -0.1049 -0.2841
 2182ntf    fn411661   4.655   3.878   5.915  0.6867  0.1616  0.0009
 2182ntf    fn411662   4.612   3.679   5.976  0.0357 -0.0542  0.0005
 2182ntf    fn411663   4.729   3.810   6.097  0.4078  0.1424 -0.2354
 2182ntf    on511664   4.912   3.608   5.960 -0.1398  0.3260  0.2946
 2182ntf    on511665   4.816   3.691   5.752  0.2201 -0.0437 -0.1961
 2182ntf    on511666   5.063   3.847   5.673 -0.8409  0.2146 -0.1433
 2182ntf    on511667   5.158   3.974   5.858 -0.1940 -0.2973  0.4583
 2182ntf    fn411668   4.973   4.104   5.637 -0.2075  0.3758 -0.1743
 2182ntf    fn411669   4.816   4.013   5.741 -0.2403  0.4134  0.1750
 2182ntf    fn411670   4.942   4.161   5.842 -0.3036 -0.3459  0.0154
 2183ntf    cn111671   4.598   1.461   4.692 -0.2669 -0.0554  0.2118
 2183ntf    sn211672   4.721   1.481   4.825 -0.0620  0.0865  0.0021
 2183ntf    nn311673   4.707   1.348   4.907 -0.1152 -0.0099 -0.1626
 2183ntf    sn211674   4.633   1.319   5.042  0.0262 -0.0303 -0.0893
 2183ntf    cn111675   4.670   1.141   5.057  0.1002  0.0159  0.2972
 2183ntf    fn411676   4.603   1.557   4.601  0.4659 -0.0571  0.2432
 2183ntf    fn411677   4.629   1.354   4.622  0.0991  0.1048  0.1251
 2183ntf    fn411678   4.471   1.453   4.727 -0.2648 -0.0801  0.2137
 2183ntf    on511679   4.845   1.491   4.752  0.0454  0.0746  0.1829
 2183ntf    on511680   4.675   1.604   4.883  0.2147  0.2635 -0.1505
 2183ntf    on511681   4.489   1.324   5.028  0.0607 -0.4869 -0.6273
 2183ntf    on511682   4.679   1.387   5.160 -0.2945  0.6290 -0.3433
 2183ntf    fn411683   4.568   1.073   5.008 -0.0307  0.2498  0.2435
 2183ntf    fn411684   4.785   1.102   5.004 -0.2286 -0.5648  0.0031
 2183ntf    fn411685   4.690   1.109   5.183  0.0303 -0.1463  0.2678
 2184ntf    cn111686   1.168   0.864   6.294 -0.0574  0.0115  0.2406
 2184ntf    sn211687   1.127   0.907   6.466 -0.1565 -0.0514  0.2330
 2184ntf    nn311688   1.167   1.059   6.456  0.3409 -0.1935  0.0298
 2184ntf    sn211689   1.273   1.147   6.530  0.0786  0.1727 -0.0274
 2184ntf    cn111690   1.373   1.215   6.394  0.2921 -0.1474 -0.0312
 2184ntf    fn411691   1.155   0.737   6.261  0.7757  0.0051 -0.0921
 2184ntf    fn411692   1.090   0.927   6.208  0.2396 -0.0553 -0.0770
 2184ntf    fn411693   1.295   0.888   6.267  0.0061 -0.1701  0.3791
 2184ntf    on511694   0.986   0.878   6.468 -0.0408 -0.6515 -0.0429
 2184ntf    on511695   1.221   0.828   6.541 -0.0869  0.3187  0.5370
 2184ntf    on511696   1.370   1.081   6.614  0.0022 -0.3145 -0.3207
 2184ntf    on511697   1.220   1.264   6.595 -0.8531 -0.1153 -0.2583
 2184ntf    fn411698   1.311   1.306   6.320 -0.0510 -0.3207  0.0407
 2184ntf    fn411699   1.479   1.271   6.449  0.6479 -0.1868 -0.6680
 2184ntf    fn411700   1.416   1.119   6.313  0.3060 -0.1082 -0.0703
 2185ntf    cn111701   5.593   2.668   4.226  0.4593  0.4767 -0.0864
 2185ntf    sn211702   5.698   2.520   4.241 -0.1346  0.0996  0.4219
 2185ntf    nn311703   5.596   2.402   4.230  0.2597 -0.2179  0.1353
 2185ntf    sn211704   5.530   2.352   4.097  0.4489 -0.0752 -0.0100
 2185ntf    cn111705   5.646   2.218   4.055  0.2976 -0.1070 -0.3325
 2185ntf    fn411706   5.506   2.679   4.325  0.4511  0.3222 -0.0762
 2185ntf    fn411707   5.661   2.781   4.233  0.1447  0.6759 -0.2703
 2185ntf    fn411708   5.525   2.666   4.113 -0.3985 -0.3455  0.4270
 2185ntf    on511709   5.784   2.534   4.126  0.3449  0.0987  0.7790
 2185ntf    on511710   5.760   2.530   4.371  0.5028  0.1445  0.1187
 2185ntf    on511711   5.510   2.431   3.978 -0.4763 -0.1258  0.1017
 2185ntf    on511712   5.411   2.277   4.127  0.1760  0.3543 -0.0161
 2185ntf    fn411713   5.622   2.174   3.933 -1.3596  0.4835 -0.2423
 2185ntf    fn411714   5.771   2.261   4.058  0.3514 -0.2832 -0.0480
 2185ntf    fn411715   5.636   2.117   4.139  0.0204  0.2012  0.0103
 2186ntf    cn111716   6.907   0.768   4.933  0.0358  0.3979  0.0067
 2186ntf    sn211717   6.957   0.887   5.061  0.2960  0.1616  0.1267
 2186ntf    nn311718   6.828   0.873   5.149  0.0560 -0.0031 -0.2497
 2186ntf    sn211719   6.784   0.772   5.261 -0.1439  0.2205 -0.1253
 2186ntf    cn111720   6.604   0.794   5.256 -0.1407  0.2525 -0.0946
 2186ntf    fn411721   6.793   0.803   4.876  0.4019  0.3183 -0.7846
 2186ntf    fn411722   6.998   0.759   4.837  0.2912  0.6977  0.2174
 2186ntf    fn411723   6.873   0.650   4.983 -0.1587  0.2851 -0.3943
 2186ntf    on511724   7.080   0.834   5.114  0.3655  0.1963  0.0005
 2186ntf    on511725   6.958   1.015   4.995  0.0433  0.2174  0.2296
 2186ntf    on511726   6.804   0.813   5.397  0.2452 -0.2402 -0.0396
 2186ntf    on511727   6.797   0.632   5.227 -0.5019  0.1915 -0.1442
 2186ntf    fn411728   6.573   0.917   5.294 -0.5722  0.1609 -0.1455
 2186ntf    fn411729   6.564   0.781   5.130  0.0252  0.0103 -0.1224
 2186ntf    fn411730   6.538   0.709   5.333 -0.1211  0.2359 -0.0967
 2187ntf    cn111731   3.947   2.500   2.469  0.1213 -0.1896  0.2170
 2187ntf    sn211732   3.894   2.349   2.556  0.4347 -0.3731  0.0891
 2187ntf    nn311733   4.032   2.274   2.552  0.5675 -0.1496  0.4097
 2187ntf    sn211734   4.059   2.130   2.495  0.0788 -0.0951  0.0347
 2187ntf    cn111735   4.093   2.049   2.654  0.1502 -0.2452 -0.0568
 2187ntf    fn411736   3.851   2.588   2.445  0.3172  0.1268  0.5988
 2187ntf    fn411737   4.042   2.565   2.533  0.0412  0.2412 -0.0928
 2187ntf    fn411738   4.001   2.478   2.350  0.1542 -0.3913  0.2683
 2187ntf    on511739   3.874   2.399   2.690 -0.1028  0.2325 -0.2129
 2187ntf    on511740   3.782   2.302   2.479  0.3027  0.4318 -0.2185
 2187ntf    on511741   4.188   2.128   2.431  0.0923 -0.1479  0.0650
 2187ntf    on511742   3.951   2.058   2.433 -0.1221 -0.0193  0.2927
 2187ntf    fn411743   4.171   2.116   2.737 -0.2010 -0.6484  0.6090
 2187ntf    fn411744   3.976   2.051   2.716 -0.2215  0.1673 -0.7614
 2187ntf    fn411745   4.139   1.926   2.645  0.1152 -0.2323 -0.4132
 2188ntf    cn111746   5.861   3.700   6.018  0.0160 -0.0745  0.0301
 2188ntf    sn211747   5.769   3.763   5.875  0.1123 -0.2516 -0.1117
 2188ntf    nn311748   5.670   3.644   5.849 -0.0422 -0.0085 -0.6502
 2188ntf    sn211749   5.515   3.638   5.872  0.0660 -0.2454  0.0268
 2188ntf    cn111750   5.459   3.703   5.712 -0.3918 -0.2743  0.1741
 2188ntf    fn411751   5.951   3.787   6.060  0.2682 -0.3830  0.1406
 2188ntf    fn411752   5.779   3.671   6.118  0.0026  0.0068  0.0421
 2188ntf    fn411753   5.926   3.586   5.999  0.0821  0.0081 -0.2461
 2188ntf    on511754   5.716   3.889   5.921  1.2506  0.1758  0.0766
 2188ntf    on511755   5.874   3.770   5.777  0.1827  0.0317 -0.0164
 2188ntf    on511756   5.455   3.731   5.964 -0.1404  0.0977 -0.4516
 2188ntf    on511757   5.464   3.504   5.881  0.3000 -0.3138  0.3697
 2188ntf    fn411758   5.333   3.744   5.712 -0.2684  0.1276 -0.3882
 2188ntf    fn411759   5.533   3.803   5.667  0.6476 -0.9608  0.3089
 2188ntf    fn411760   5.468   3.610   5.618  0.5173  0.1085 -0.1342
 2189ntf    cn111761   0.344   5.263   3.161  0.0344  0.6115  0.3883
 2189ntf    sn211762   0.165   5.289   3.180 -0.1413 -0.1494 -0.2070
 2189ntf    nn311763   0.113   5.141   3.174  0.1241 -0.2584  0.1384
 2189ntf    sn211764  -0.030   5.083   3.206 -0.0117  0.0122  0.0281
 2189ntf    cn111765  -0.043   5.079   3.387 -0.0437 -0.4603  0.0153
 2189ntf    fn411766   0.370   5.204   3.046 -0.2062  0.2081  0.5418
 2189ntf    fn411767   0.414   5.375   3.155  0.4343  0.3306 -0.2114
 2189ntf    fn411768   0.391   5.179   3.252  0.0145  0.5681  0.3584
 2189ntf    on511769   0.155   5.345   3.313 -0.3250 -0.2919 -0.1598
 2189ntf    on511770   0.128   5.370   3.067 -1.2914  0.2770  0.4575
 2189ntf    on511771  -0.047   4.948   3.159  0.2496  0.0652 -0.2253
 2189ntf    on511772  -0.133   5.176   3.166  0.2168  0.1755 -0.1871
 2189ntf    fn411773   0.066   5.030   3.444  0.3452  0.2645 -0.0883
 2189ntf    fn411774  -0.063   5.198   3.442 -0.0343 -0.4284 -0.0503
 2189ntf    fn411775  -0.153   5.014   3.420 -0.0991 -0.4397 -0.1315
 2190ntf    cn111776   5.052   5.719   0.995  0.2047 -0.6149 -0.2545
 2190ntf    sn211777   4.978   5.618   1.127 -0.3631 -0.1697 -0.2325
 2190ntf    nn311778   4.995   5.703   1.258 -0.2994 -0.2892 -0.1644
 2190ntf    sn211779   4.928   5.844   1.274  0.0760 -0.0777 -0.4160
 2190ntf    cn111780   5.061   5.945   1.347  0.4396 -0.5496 -0.4214
 2190ntf    fn411781   5.121   5.818   1.050 -0.6306 -0.0165 -0.2696
 2190ntf    fn411782   5.142   5.652   0.925  0.4078 -0.5435 -0.0660
 2190ntf    fn411783   4.963   5.772   0.912 -0.3373 -0.5634  0.3544
 2190ntf    on511784   4.837   5.602   1.097 -0.5121  0.6104  0.0154
 2190ntf    on511785   5.056   5.498   1.136 -0.3682 -0.1319  0.3467
 2190ntf    on511786   4.831   5.844   1.381  0.6534  0.6959  0.1182
 2190ntf    on511787   4.901   5.921   1.156  0.1791 -0.8648 -0.9624
 2190ntf    fn411788   5.146   5.971   1.249 -0.0597 -0.6040 -0.8719
 2190ntf    fn411789   5.010   6.057   1.393  0.2566 -0.5450 -0.6332
 2190ntf    fn411790   5.129   5.880   1.440  0.4439  0.1075  0.0361
 2191ntf    cn111791   5.232   1.734   1.499 -0.0554 -0.1055  0.4693
 2191ntf    sn211792   5.169   1.574   1.558 -0.1775 -0.2971 -0.1753
 2191ntf    nn311793   5.270   1.527   1.668 -0.1307  0.1890 -0.0093
 2191ntf    sn211794   5.407   1.450   1.665 -0.1109  0.2330 -0.2148
 2191ntf    cn111795   5.524   1.584   1.702  0.4937 -0.3645  0.0574
 2191ntf    fn411796   5.150   1.789   1.411  0.0701 -0.0332  0.3971
 2191ntf    fn411797   5.248   1.818   1.600 -0.6901  0.5232  0.0642
 2191ntf    fn411798   5.352   1.723   1.445 -0.2966 -0.3684 -0.0205
 2191ntf    on511799   5.039   1.606   1.611  0.0201 -0.1754  0.2333
 2191ntf    on511800   5.167   1.502   1.432  0.6448  0.3750 -0.5887
 2191ntf    on511801   5.450   1.401   1.536  0.2501 -0.5499  0.1924
 2191ntf    on511802   5.418   1.363   1.779  0.1956  0.4208 -0.0993
 2191ntf    fn411803   5.477   1.676   1.784  0.2832 -0.7207  0.3394
 2191ntf    fn411804   5.623   1.530   1.770  0.3010 -0.3747  0.3291
 2191ntf    fn411805   5.563   1.647   1.592 -0.5015 -0.1193 -0.1601
 2192ntf    cn111806   4.577   6.690   5.366 -0.1885  0.7615  0.4100
 2192ntf    sn211807   4.547   6.608   5.525  0.0561  0.1711  0.1551
 2192ntf    nn311808   4.665   6.504   5.520 -0.3501 -0.3029  0.3732
 2192ntf    sn211809   4.688   6.379   5.612  0.1533 -0.2069  0.3814
 2192ntf    cn111810   4.747   6.461   5.763 -0.0165  0.6906 -0.0336
 2192ntf    fn411811   4.701   6.732   5.351  0.2369 -0.6492 -0.1957
 2192ntf    fn411812   4.551   6.609   5.265  0.3497  0.3957  0.5608
 2192ntf    fn411813   4.495   6.794   5.351 -0.9207  0.1767  0.3001
 2192ntf    on511814   4.563   6.715   5.622  0.2347  0.2163  0.0770
 2192ntf    on511815   4.415   6.554   5.511  0.1286  0.0692 -0.1311
 2192ntf    on511816   4.796   6.289   5.580  0.5733  0.4388 -0.0615
 2192ntf    on511817   4.570   6.306   5.650 -0.2224  0.4395  0.4656
 2192ntf    fn411818   4.779   6.373   5.856 -0.8298 -0.3351 -0.7042
 2192ntf    fn411819   4.848   6.544   5.740  0.1282  0.5270  0.0065
 2192ntf    fn411820   4.661   6.541   5.824  0.0071  0.2637  0.5679
 2193ntf    cn111821   1.399   6.193   0.972 -0.1800 -0.0309  0.5915
 2193ntf    sn211822   1.504   6.142   1.112 -0.1367 -0.2926  0.4626
 2193ntf    nn311823   1.526   6.281   1.180 -0.1892 -0.1649  0.2230
 2193ntf    sn211824   1.457   6.356   1.299 -0.1899  0.4172 -0.1405
 2193ntf    cn111825   1.578   6.357   1.435 -0.2908  0.2779 -0.0487
 2193ntf    fn411826   1.463   6.275   0.890 -0.0362 -0.8047 -0.0703
 2193ntf    fn411827   1.355   6.089   0.903 -0.0504  0.1005  0.3108
 2193ntf    fn411828   1.291   6.251   1.023 -0.2507  0.3046  0.0657
 2193ntf    on511829   1.429   6.038   1.178 -0.4614 -0.1119  0.3836
 2193ntf    on511830   1.622   6.100   1.040  0.1412  0.2415  0.5995
 2193ntf    on511831   1.350   6.279   1.358  0.0456  0.3717  0.2297
 2193ntf    on511832   1.431   6.495   1.270  0.3642  0.5155 -0.1777
 2193ntf    fn411833   1.586   6.247   1.508 -0.3903  0.2043 -0.1479
 2193ntf    fn411834   1.698   6.381   1.383 -0.3970 -0.3632 -0.6143
 2193ntf    fn411835   1.544   6.450   1.522 -0.2073  0.2387  0.0266
 2194ntf    cn111836   6.035   0.422   4.468 -0.1766  0.0934  0.3910
 2194ntf    sn211837   5.864   0.415   4.406  0.0616  0.1923 -0.2877
 2194ntf    nn311838   5.883   0.386   4.253  0.2036  0.1058 -0.2533
 2194ntf    sn211839   5.861   0.471   4.124 -0.0799  0.1119 -0.2001
 2194ntf    cn111840   5.680   0.488   4.124 -0.0893  0.0320  0.2817
 2194ntf    fn411841   6.099   0.533   4.436  0.3090 -0.2946  0.0013
 2194ntf    fn411842   6.032   0.419   4.600 -0.1359  0.1789  0.3942
 2194ntf    fn411843   6.116   0.324   4.428 -0.1677  0.3724 -0.2841
 2194ntf    on511844   5.818   0.296   4.473  0.1660 -0.0840 -0.7038
 2194ntf    on511845   5.802   0.542   4.435 -0.1857 -0.0997  0.4946
 2194ntf    on511846   5.892   0.399   4.003  0.0638  0.0503 -0.1263
 2194ntf    on511847   5.891   0.611   4.139 -0.0277  0.0751  0.0338
 2194ntf    fn411848   5.633   0.559   4.022 -0.1299  0.3992  0.5571
 2194ntf    fn411849   5.621   0.370   4.117 -0.2900  0.1307  0.3015
 2194ntf    fn411850   5.634   0.545   4.234 -0.1629  0.0220  0.2559
 2195ntf    cn111851   5.129   5.552   5.501  0.4054  0.1620 -0.0363
 2195ntf    sn211852   5.290   5.528   5.582  0.2795 -0.1956  0.1065
 2195ntf    nn311853   5.378   5.605   5.477 -0.4683  0.2339 -0.2146
 2195ntf    sn211854   5.426   5.754   5.474 -0.0213  0.1049  0.3065
 2195ntf    cn111855   5.588   5.735   5.556  0.0946  0.1363  0.0858
 2195ntf    fn411856   5.104   5.482   5.391 -0.0533 -0.0855  0.2257
 2195ntf    fn411857   5.031   5.520   5.583  0.7005 -0.1535  0.1974
 2195ntf    fn411858   5.118   5.680   5.469 -0.5880  0.0854 -0.0169
 2195ntf    on511859   5.273   5.595   5.708 -0.9785  0.2758 -0.3062
 2195ntf    on511860   5.306   5.384   5.576  0.5948 -0.1650  0.1703
 2195ntf    on511861   5.339   5.839   5.552  0.1360  0.1488  0.4354
 2195ntf    on511862   5.439   5.800   5.338 -0.0749 -0.1862  0.2034
 2195ntf    fn411863   5.655   5.641   5.491  0.3193  0.0179  0.4879
 2195ntf    fn411864   5.670   5.837   5.540 -0.0295  0.1802 -0.2799
 2195ntf    fn411865   5.582   5.696   5.682  1.0817  0.1485  0.1397
 2196ntf    cn111866   5.966   2.763   2.292 -0.3649  0.5583 -0.0221
 2196ntf    sn211867   6.026   2.674   2.440  0.1417 -0.1591 -0.6512
 2196ntf    nn311868   5.966   2.765   2.553  0.3276 -0.3721 -0.3800
 2196ntf    sn211869   5.992   2.758   2.707 -0.5136 -0.0290 -0.2155
 2196ntf    cn111870   6.092   2.908   2.733  0.2914 -0.5611 -0.2009
 2196ntf    fn411871   5.843   2.811   2.297 -0.4506  0.2850  0.7792
 2196ntf    fn411872   6.045   2.866   2.268 -0.1509  0.5964  0.8142
 2196ntf    fn411873   5.965   2.677   2.191  0.3781  0.3238  0.1607
 2196ntf    on511874   5.969   2.542   2.439  0.3324 -0.2475 -0.0978
 2196ntf    on511875   6.169   2.683   2.422  0.1423  0.2162 -0.4688
 2196ntf    on511876   6.082   2.657   2.759  0.0046  0.1856 -0.6923
 2196ntf    on511877   5.862   2.775   2.768 -0.4389  0.1860 -0.1157
 2196ntf    fn411878   6.125   2.934   2.858  0.2634 -0.0129 -0.3045
 2196ntf    fn411879   6.207   2.903   2.668  0.2993  0.0853 -0.2457
 2196ntf    fn411880   6.037   3.019   2.687 -0.2728 -0.8035 -0.1199
 2197ntf    cn111881   4.123   2.462   2.911  0.3743 -0.2032 -0.4699
 2197ntf    sn211882   4.275   2.533   2.980  0.0259 -0.0229  0.1165
 2197ntf    nn311883   4.230   2.680   3.012  0.0372 -0.0179  0.1095
 2197ntf    sn211884   4.304   2.811   2.967  0.3667 -0.2056  0.1012
 2197ntf    cn111885   4.312   2.911   3.119  0.5627  0.4699 -0.3471
 2197ntf    fn411886   4.099   2.508   2.789 -0.3028  0.1675 -0.2091
 2197ntf    fn411887   4.131   2.330   2.911 -0.0321 -0.2312 -0.3089
 2197ntf    fn411888   4.018   2.494   2.985  0.5665 -0.5041 -0.0661
 2197ntf    on511889   4.296   2.446   3.093  0.5158  0.2877  0.2713
 2197ntf    on511890   4.372   2.512   2.875  0.3959  0.2500  0.4007
 2197ntf    on511891   4.218   2.884   2.876  0.9283 -0.0096 -0.2782
 2197ntf    on511892   4.441   2.796   2.925  0.3252  0.0079 -0.1159
 2197ntf    fn411893   4.193   2.937   3.170  0.4258 -0.4463 -0.1705
 2197ntf    fn411894   4.363   2.839   3.218  0.3606  0.1360 -0.4842
 2197ntf    fn411895   4.377   3.026   3.114  0.0728  0.7873  0.3848
 2198ntf    cn111896   3.441   6.554   3.661 -0.4919  0.2023  0.1185
 2198ntf    sn211897   3.394   6.476   3.503  0.1392  0.3995 -0.1726
 2198ntf    nn311898   3.350   6.336   3.561  0.4841  0.4907  0.3213
 2198ntf    sn211899   3.448   6.219   3.598  0.0471  0.0018 -0.0537
 2198ntf    cn111900   3.328   6.108   3.677  0.0446  0.0146 -0.0390
 2198ntf    fn411901   3.462   6.682   3.632 -0.0739  0.1040 -0.0139
 2198ntf    fn411902   3.350   6.549   3.757  0.1079 -0.1950  0.6754
 2198ntf    fn411903   3.559   6.518   3.707 -0.4556  0.2604  0.0716
 2198ntf    on511904   3.278   6.552   3.464 -0.2923 -0.2282 -0.1313
 2198ntf    on511905   3.510   6.481   3.418  0.4059  1.1429  0.2219
 2198ntf    on511906   3.539   6.245   3.706  0.0250 -0.4662  0.0774
 2198ntf    on511907   3.497   6.145   3.485  0.8024  0.4536 -0.0289
 2198ntf    fn411908   3.386   6.000   3.727 -0.0457 -0.2396 -0.4754
 2198ntf    fn411909   3.277   6.174   3.780  0.1267  0.1450 -0.0815
 2198ntf    fn411910   3.230   6.070   3.597  0.2173 -0.4928 -0.0114
 2199ntf    cn111911   6.727   1.910   3.450  0.4737  0.3580  0.3041
 2199ntf    sn211912   6.634   2.008   3.329  0.0951 -0.3331  0.0301
 2199ntf    nn311913   6.528   2.062   3.431  0.2345  0.0787 -0.0398
 2199ntf    sn211914   6.514   2.208   3.486  0.0191  0.0363  0.0220
 2199ntf    cn111915   6.526   2.175   3.664 -0.3082  0.0233  0.0417
 2199ntf    fn411916   6.816   1.982   3.517  0.1952  0.5719  0.4461
 2199ntf    fn411917   6.648   1.843   3.533  0.2413  0.1873 -0.0525
 2199ntf    fn411918   6.794   1.817   3.384 -0.0802 -0.0083  0.2498
 2199ntf    on511919   6.730   2.098   3.271  0.4767 -0.3416  0.6389
 2199ntf    on511920   6.580   1.909   3.239  0.1221 -0.4002  0.0868
 2199ntf    on511921   6.382   2.264   3.468 -0.1714 -0.2028  0.6655
 2199ntf    on511922   6.631   2.290   3.466  0.1033 -0.1500 -0.2451
 2199ntf    fn411923   6.506   2.284   3.737 -0.2328 -0.0959  0.2398
 2199ntf    fn411924   6.432   2.086   3.693 -0.2206 -0.0340  0.1509
 2199ntf    fn411925   6.638   2.126   3.712 -0.3067 -0.0987 -0.0886
 2200ntf    cn111926   4.735   6.547   2.851  0.2613 -0.1957 -0.1074
 2200ntf    sn211927   4.634   6.457   2.730  0.0184 -0.0332 -0.0263
 2200ntf    nn311928   4.677   6.536   2.602  0.2355 -0.3515 -0.1500
 2200ntf    sn211929   4.595   6.630   2.508  0.4942  0.0439  0.0148
 2200ntf    cn111930   4.648   6.585   2.340  0.4190  0.0208 -0.0032
 2200ntf    fn411931   4.711   6.505   2.974  0.4641 -0.3000 -0.1022
 2200ntf    fn411932   4.865   6.534   2.832  0.3506  0.2192  0.1983
 2200ntf    fn411933   4.702   6.675   2.841  0.0637 -0.2292  0.1160
 2200ntf    on511934   4.696   6.327   2.730 -0.1661 -0.1280  0.7419
 2200ntf    on511935   4.499   6.462   2.781  0.0547  0.9954 -0.0122
 2200ntf    on511936   4.644   6.764   2.530  0.4857  0.1165 -0.3951
 2200ntf    on511937   4.451   6.612   2.507  0.4569  0.3365 -0.1159
 2200ntf    fn411938   4.625   6.455   2.335 -0.3679  0.1400  0.4954
 2200ntf    fn411939   4.592   6.652   2.242  0.7847  0.5792  0.1658
 2200ntf    fn411940   4.778   6.604   2.325  0.4124  0.0834  0.0204
 2201ntf    cn111941   6.916   3.207   2.873 -0.3399  0.3775 -0.0606
 2201ntf    sn211942   6.960   3.279   2.712 -0.3406  0.1134 -0.1797
 2201ntf    nn311943   7.100   3.215   2.680 -0.4350 -0.0689 -0.2251
 2201ntf    sn211944   7.233   3.287   2.722 -0.3915 -0.3231  0.0821
 2201ntf    cn111945   7.343   3.144   2.742  0.1074  0.0685  0.1408
 2201ntf    fn411946   7.005   3.246   2.963 -0.2418  0.0378 -0.0088
 2201ntf    fn411947   6.797   3.244   2.917 -0.1800  0.1529  0.5805
 2201ntf    fn411948   6.916   3.075   2.871 -0.5992  0.3606  0.6847
 2201ntf    on511949   6.856   3.233   2.625  0.3163 -0.2004 -0.8108
 2201ntf    on511950   6.960   3.421   2.740  0.4496 -0.0191  0.5575
 2201ntf    on511951   7.243   3.355   2.849  0.1549  0.2494 -0.2593
 2201ntf    on511952   7.290   3.354   2.607 -0.2418 -0.0957  0.2890
 2201ntf    fn411953   7.460   3.186   2.787  0.0498  0.5239 -0.1221
 2201ntf    fn411954   7.293   3.053   2.824 -0.1746 -0.0245 -0.1321
 2201ntf    fn411955   7.372   3.074   2.634  0.0178  0.0646  0.1193
 2202ntf    cn111956   2.504   3.178   3.029 -0.2218 -0.2596 -0.2708
 2202ntf    sn211957   2.383   3.089   3.132  0.0942 -0.3910 -0.0094
 2202ntf    nn311958   2.354   3.200   3.238  0.4123 -0.2930 -0.0227
 2202ntf    sn211959   2.329   3.187   3.393 -0.0152  0.3181 -0.0341
 2202ntf    cn111960   2.214   3.325   3.417 -0.6745 -0.1475 -0.4646
 2202ntf    fn411961   2.544   3.103   2.927 -0.2061 -0.0631 -0.4092
 2202ntf    fn411962   2.453   3.283   2.967  0.2183 -0.0225 -0.2354
 2202ntf    fn411963   2.609   3.219   3.100 -0.3705  0.1837 -0.3073
 2202ntf    on511964   2.272   3.071   3.042  0.4373 -0.8939 -0.3435
 2202ntf    on511965   2.455   2.978   3.189  0.5982  0.1321  0.3878
 2202ntf    on511966   2.442   3.225   3.473  0.2494  0.1102 -0.3056
 2202ntf    on511967   2.252   3.071   3.432 -0.2769  0.4118 -0.2653
 2202ntf    fn411968   2.112   3.325   3.333 -0.8575  0.3263 -0.2513
 2202ntf    fn411969   2.148   3.333   3.531  0.3777 -0.4114  0.1801
 2202ntf    fn411970   2.270   3.444   3.396  0.0266 -0.4191 -0.1605
 2203ntf    cn111971   0.555   6.705   1.676 -0.3347  0.3136  0.2784
 2203ntf    sn211972   0.419   6.784   1.585 -0.2147  0.3194  0.1029
 2203ntf    nn311973   0.430   6.930   1.643  0.1926  0.2579  0.1812
 2203ntf    sn211974   0.486   7.063   1.582  0.4121  0.1177  0.0751
 2203ntf    cn111975   0.372   7.103   1.447  0.2637  0.4039  0.2831
 2203ntf    fn411976   0.534   6.712   1.806  0.3043 -0.6110  0.4417
 2203ntf    fn411977   0.571   6.577   1.645 -0.2785  0.3582  0.1187
 2203ntf    fn411978   0.672   6.759   1.645 -0.2060 -0.1894 -0.1353
 2203ntf    on511979   0.454   6.769   1.446  0.2616 -0.3011  0.2874
 2203ntf    on511980   0.297   6.721   1.629  0.0232 -0.3147 -0.1376
 2203ntf    on511981   0.615   7.049   1.518  0.2220  0.4908 -0.3932
 2203ntf    on511982   0.459   7.171   1.674  0.1067 -0.3961  0.5941
 2203ntf    fn411983   0.251   7.128   1.494  0.0824  0.3811 -0.1601
 2203ntf    fn411984   0.422   7.210   1.387  0.2458  0.2324 -0.0447
 2203ntf    fn411985   0.354   7.008   1.356 -0.0875  0.2126  0.5496
 2204ntf    cn111986   0.152   0.955   4.592 -0.4232 -0.1429 -0.3610
 2204ntf    sn211987   0.087   1.103   4.509 -0.1926  0.0277 -0.2415
 2204ntf    nn311988   0.062   1.042   4.367  0.2274 -0.3216 -0.1651
 2204ntf    sn211989  -0.073   1.000   4.298 -0.0036  0.3179 -0.1022
 2204ntf    cn111990  -0.035   0.826   4.261  0.1332  0.1991  0.5966
 2204ntf    fn411991   0.186   0.977   4.718 -0.4095 -0.0181 -0.3858
 2204ntf    fn411992   0.063   0.860   4.611  0.0773 -0.5328  0.0878
 2204ntf    fn411993   0.256   0.912   4.523 -0.4661 -0.2234 -0.3748
 2204ntf    on511994  -0.032   1.137   4.584 -0.1150 -0.0124 -0.1001
 2204ntf    on511995   0.200   1.192   4.504 -0.4254  0.3787  0.6013
 2204ntf    on511996  -0.089   1.063   4.169  0.6889 -0.3774 -0.5410
 2204ntf    on511997  -0.193   1.000   4.376 -0.2915 -0.3118 -0.5415
 2204ntf    fn411998  -0.132   0.756   4.207 -0.0354  0.5984  0.3746
 2204ntf    fn411999   0.055   0.812   4.165 -0.1714  0.0490  0.3307
 2204ntf    fn412000   0.007   0.761   4.369  0.0571 -0.1407  0.4228
 2205ntf    cn112001   4.399   6.401   1.530 -0.0908  0.0522 -0.0612
 2205ntf    sn212002   4.333   6.272   1.640  0.1140  0.0008  0.0024
 2205ntf    nn312003   4.295   6.343   1.775 -0.1443 -0.3761  0.1286
 2205ntf    sn212004   4.151   6.350   1.836 -0.2400  0.3053 -0.1670
 2205ntf    cn112005   4.131   6.184   1.907  0.2805  0.5204  0.4918
 2205ntf    fn412006   4.413   6.359   1.405 -0.0234 -0.0782 -0.0099
 2205ntf    fn412007   4.331   6.513   1.546 -0.6875 -0.2831 -0.2389
 2205ntf    fn412008   4.521   6.441   1.563 -0.0051  0.2531 -0.6043
 2205ntf    on512009   4.228   6.217   1.558 -0.2533  0.3891  0.2085
 2205ntf    on512010   4.448   6.188   1.663  0.2442  0.2530  0.2821
 2205ntf    on512011   4.039   6.362   1.746  0.2334  0.1521 -0.7824
 2205ntf    on512012   4.150   6.430   1.956  0.0728 -0.1195  0.1206
 2205ntf    fn412013   4.025   6.166   1.983 -0.0274  0.2938  0.0125
 2205ntf    fn412014   4.130   6.082   1.823 -0.4055  0.5240  0.4937
 2205ntf    fn412015   4.235   6.163   1.986  0.1323 -0.4537  0.4406
 2206ntf    cn112016   0.562   0.238   3.239 -0.0201  0.5024 -0.0860
 2206ntf    sn212017   0.472   0.366   3.146 -0.1425  0.3293 -0.2092
 2206ntf    nn312018   0.512   0.500   3.219 -0.0933  0.0682  0.2462
 2206ntf    sn212019   0.435   0.572   3.335 -0.0909  0.2462  0.1373
 2206ntf    cn112020   0.329   0.680   3.234  0.0182  0.2660  0.0444
 2206ntf    fn412021   0.527   0.223   3.365 -0.1695  0.1372 -0.1699
 2206ntf    fn412022   0.541   0.118   3.186 -0.2838  0.4263  0.1897
 2206ntf    fn412023   0.693   0.252   3.251  0.0794 -0.1063 -0.3846
 2206ntf    on512024   0.538   0.355   3.018 -0.5546 -0.3893 -0.3586
 2206ntf    on512025   0.333   0.330   3.151 -0.3071  0.9473 -0.1442
 2206ntf    on512026   0.514   0.671   3.403 -0.5323  0.4250  0.3977
 2206ntf    on512027   0.341   0.495   3.413 -0.1373  0.1523 -0.0116
 2206ntf    fn412028   0.235   0.736   3.308 -0.2622 -0.3899  0.1897
 2206ntf    fn412029   0.394   0.780   3.176  0.4896 -0.0396  0.0413
 2206ntf    fn412030   0.270   0.611   3.138  0.0325 -0.0192  0.2382
 2207ntf    cn112031   3.225   2.050   1.603  0.2005  0.1202 -0.2830
 2207ntf    sn212032   3.334   2.139   1.718 -0.0920  0.2144 -0.0744
 2207ntf    nn312033   3.373   2.267   1.635  0.6307 -0.1584 -0.3218
 2207ntf    sn212034   3.397   2.413   1.687  0.1399 -0.1891 -0.0043
 2207ntf    cn112035   3.559   2.446   1.612  0.1905 -0.2488  0.0791
 2207ntf    fn412036   3.167   2.130   1.515  0.1959 -0.0002 -0.3887
 2207ntf    fn412037   3.297   1.957   1.544  0.6768  0.4183 -0.1730
 2207ntf    fn412038   3.123   1.987   1.660 -0.0490  0.6097 -0.1775
 2207ntf    on512039   3.260   2.153   1.841 -0.0548 -0.0455 -0.0212
 2207ntf    on512040   3.452   2.057   1.732 -0.0614  0.2025 -0.3965
 2207ntf    on512041   3.416   2.418   1.830  0.2646 -0.6039 -0.0054
 2207ntf    on512042   3.303   2.507   1.630 -0.1840 -0.4303  0.1281
 2207ntf    fn412043   3.562   2.446   1.480 -0.1604 -0.0406  0.0711
 2207ntf    fn412044   3.615   2.562   1.642  0.0733 -0.1909  0.0730
 2207ntf    fn412045   3.650   2.355   1.645  0.1839 -0.0450  0.6691
 2208ntf    cn112046   5.878   4.071   0.520 -0.4218 -0.1457  0.2584
 2208ntf    sn212047   5.908   4.248   0.488 -0.1574 -0.2623 -0.1502
 2208ntf    nn312048   6.065   4.250   0.475 -0.1315 -0.1534  0.1659
 2208ntf    sn212049   6.174   4.284   0.582 -0.2973 -0.4178  0.4238
 2208ntf    cn112050   6.320   4.311   0.477 -0.3776 -0.3020  0.3427
 2208ntf    fn412051   5.749   4.045   0.514 -0.5062  0.3499 -0.1024
 2208ntf    fn412052   5.947   3.992   0.439 -0.0733  0.4399 -0.0304
 2208ntf    fn412053   5.915   4.027   0.639  0.0572 -0.3244  0.0487
 2208ntf    on512054   5.841   4.261   0.361 -0.2427 -0.4999 -0.1300
 2208ntf    on512055   5.853   4.316   0.602  0.6156  0.3491 -0.1312
 2208ntf    on512056   6.222   4.175   0.663  0.3201 -0.2239  0.3253
 2208ntf    on512057   6.165   4.414   0.644  0.7252  0.0599 -0.3992
 2208ntf    fn412058   6.339   4.210   0.394  0.6155  0.2897 -0.1819
 2208ntf    fn412059   6.318   4.420   0.402  0.8062 -0.4296  0.1018
 2208ntf    fn412060   6.433   4.324   0.545 -0.2355 -0.1787  0.0885
 2209ntf    cn112061   1.199   0.050   5.549 -0.4183  0.4309 -0.1359
 2209ntf    sn212062   1.303   0.188   5.491  0.2710  0.1453  0.3980
 2209ntf    nn312063   1.381   0.116   5.376 -0.1841 -0.2714  0.3484
 2209ntf    sn212064   1.516   0.038   5.390 -0.2566 -0.4343  0.1527
 2209ntf    cn112065   1.507  -0.085   5.256  0.0233  0.1002 -0.3554
 2209ntf    fn412066   1.094   0.042   5.470 -0.4351 -0.1943 -0.0571
 2209ntf    fn412067   1.265  -0.061   5.522 -0.2178  0.4951  0.0858
 2209ntf    fn412068   1.164   0.047   5.677 -0.0597 -0.2638 -0.0486
 2209ntf    on512069   1.219   0.292   5.437  0.6616  0.2810  0.0459
 2209ntf    on512070   1.377   0.224   5.609  0.3359 -0.4277  0.5344
 2209ntf    on512071   1.533  -0.039   5.511 -0.4154  0.3598  0.6861
 2209ntf    on512072   1.633   0.111   5.350  0.0498 -0.8854  0.2154
 2209ntf    fn412073   1.620  -0.150   5.236 -0.2773 -0.4760 -0.2008
 2209ntf    fn412074   1.423  -0.183   5.283 -0.1894  0.3274 -0.1783
 2209ntf    fn412075   1.483  -0.033   5.137 -0.0790  0.1963 -0.2934
 2210ntf    cn112076   0.316   3.335   5.389 -0.0048  0.1531  0.0859
 2210ntf    sn212077   0.152   3.278   5.335  0.2588 -0.2197 -0.3237
 2210ntf    nn312078   0.107   3.198   5.463 -0.2958 -0.3454 -0.5962
 2210ntf    sn212079   0.025   3.248   5.587  0.1235  0.0981 -0.4940
 2210ntf    cn112080  -0.141   3.190   5.540 -0.3259  0.7449  0.2766
 2210ntf    fn412081   0.412   3.257   5.342 -0.1962  0.2976 -0.5525
 2210ntf    fn412082   0.330   3.458   5.344  0.2881  0.0279 -0.1707
 2210ntf    fn412083   0.337   3.342   5.520  0.4181 -0.2464  0.0448
 2210ntf    on512084   0.074   3.392   5.295 -0.1629 -0.2911  0.2855
 2210ntf    on512085   0.172   3.188   5.224  0.3974 -0.5287 -0.0511
 2210ntf    on512086   0.001   3.388   5.610 -0.5491 -0.0464 -0.2786
 2210ntf    on512087   0.042   3.178   5.711 -0.0126  0.4339 -0.2836
 2210ntf    fn412088  -0.233   3.267   5.596 -0.1029  0.7712  0.6083
 2210ntf    fn412089  -0.160   3.198   5.410 -0.2972  0.3178  0.2442
 2210ntf    fn412090  -0.155   3.062   5.570  0.1951  0.5002 -0.5132
 2211ntf    cn112091   5.366   0.984   4.339 -0.5428 -0.3334 -0.0165
 2211ntf    sn212092   5.253   1.089   4.434 -0.0094  0.0245  0.2255
 2211ntf    nn312093   5.137   1.115   4.332 -0.0017  0.1140  0.2378
 2211ntf    sn212094   5.134   1.223   4.218  0.1783  0.1626  0.2798
 2211ntf    cn112095   5.143   1.121   4.068 -0.3367  0.1550  0.2538
 2211ntf    fn412096   5.433   1.051   4.247 -0.3969 -0.4672 -0.0073
 2211ntf    fn412097   5.455   0.937   4.425 -0.5009 -0.1068  0.0639
 2211ntf    fn412098   5.321   0.874   4.280 -0.5434 -0.0907 -0.4653
 2211ntf    on512099   5.210   1.005   4.543  0.3443 -0.2517  0.1492
 2211ntf    on512100   5.331   1.202   4.478 -0.3569  0.4117 -0.1478
 2211ntf    on512101   5.246   1.313   4.203 -0.1318  0.4017 -0.6241
 2211ntf    on512102   5.005   1.285   4.207  0.1182 -0.0447 -0.2017
 2211ntf    fn412103   5.264   1.075   4.042 -0.5796 -0.3697  0.0398
 2211ntf    fn412104   5.058   1.020   4.071  0.1155 -0.2288  0.2160
 2211ntf    fn412105   5.117   1.190   3.958 -0.0301 -0.1985 -0.0450
 2212ntf    cn112106   5.432   3.409   5.062  0.2749  0.3968 -0.3513
 2212ntf    sn212107   5.311   3.431   4.928 -0.2504 -0.0785  0.0455
 2212ntf    nn312108   5.187   3.451   5.023 -0.3483 -0.1797 -0.0617
 2212ntf    sn212109   5.093   3.575   5.040 -0.0868 -0.0391  0.3428
 2212ntf    cn112110   4.944   3.514   4.957  0.1289 -0.3560  0.1880
 2212ntf    fn412111   5.432   3.515   5.142  0.2579  0.0018  0.1753
 2212ntf    fn412112   5.405   3.309   5.143  0.1160  0.1304 -0.7311
 2212ntf    fn412113   5.557   3.393   5.021  0.2694 -0.2943 -0.0965
 2212ntf    on512114   5.364   3.546   4.859 -0.3974  0.1388  0.2912
 2212ntf    on512115   5.314   3.308   4.854 -0.3419  0.1911 -0.4080
 2212ntf    on512116   5.129   3.694   4.967  0.3533 -0.6100 -0.3806
 2212ntf    on512117   5.050   3.578   5.178  0.5717 -0.9332  0.5786
 2212ntf    fn412118   4.846   3.603   4.957 -0.1361 -0.6451  0.4105
 2212ntf    fn412119   4.976   3.488   4.831 -0.4347  0.0067 -0.0336
 2212ntf    fn412120   4.908   3.402   5.017  0.0079 -0.4946 -0.1400
 2213ntf    cn112121   0.952   0.834   2.195 -0.2320  0.0377  0.0072
 2213ntf    sn212122   0.933   0.774   2.365 -0.1052  0.1245  0.0526
 2213ntf    nn312123   0.840   0.879   2.434 -0.4881  0.3899 -0.8469
 2213ntf    sn212124   0.881   1.022   2.487  0.1082 -0.0291 -0.1532
 2213ntf    cn112125   0.891   0.997   2.666  0.5237  0.0897 -0.1575
 2213ntf    fn412126   0.975   0.964   2.184  0.1922 -0.0474 -0.1294
 2213ntf    fn412127   1.048   0.776   2.124 -0.3939 -0.1941 -0.0214
 2213ntf    fn412128   0.837   0.811   2.134 -0.3275  0.5062  0.0015
 2213ntf    on512129   0.866   0.647   2.350 -0.4746  0.2970  0.2407
 2213ntf    on512130   1.064   0.769   2.426  0.1456 -0.5976 -0.5224
 2213ntf    on512131   0.770   1.112   2.474  0.3279  0.3894  0.8311
 2213ntf    on512132   1.009   1.082   2.456 -0.1678  0.4133 -0.4500
 2213ntf    fn412133   0.969   0.895   2.698 -0.4484 -0.5968  0.0773
 2213ntf    fn412134   0.937   1.105   2.728  0.0453  0.3855 -0.3087
 2213ntf    fn412135   0.775   0.960   2.720  0.5913 -0.2577 -0.2468
 2214ntf    cn112136   2.456   6.596   4.477 -0.0132 -0.1442 -0.4037
 2214ntf    sn212137   2.452   6.416   4.450  0.1980 -0.1467 -0.4168
 2214ntf    nn312138   2.341   6.377   4.553  0.4799 -0.3647 -0.1941
 2214ntf    sn212139   2.235   6.262   4.541  0.3209 -0.2002 -0.3557
 2214ntf    cn112140   2.317   6.150   4.658  0.3497  0.0919 -0.0967
 2214ntf    fn412141   2.355   6.652   4.412 -0.1151 -0.2784 -0.3616
 2214ntf    fn412142   2.439   6.633   4.603 -0.1858 -0.4647 -0.3320
 2214ntf    fn412143   2.562   6.667   4.441  0.3127 -0.3700  0.0903
 2214ntf    on512144   2.419   6.400   4.311  0.6766  0.0948 -0.5640
 2214ntf    on512145   2.581   6.368   4.493  0.0396  0.2942  0.5811
 2214ntf    on512146   2.241   6.192   4.415  0.3810 -0.8640  0.0109
 2214ntf    on512147   2.106   6.301   4.594  0.3437  0.1365 -0.5479
 2214ntf    fn412148   2.444   6.133   4.624  0.4801 -0.4207  0.6389
 2214ntf    fn412149   2.313   6.201   4.780 -0.0784  0.2165 -0.1613
 2214ntf    fn412150   2.250   6.036   4.665  0.2039  0.1800 -0.0554
 2215ntf    cn112151   5.150   2.468   4.890  0.1050 -0.1797 -0.0958
 2215ntf    sn212152   5.032   2.390   4.776 -0.2598  0.2808 -0.0376
 2215ntf    nn312153   4.985   2.275   4.872  0.0127 -0.0207 -0.2619
 2215ntf    sn212154   5.013   2.120   4.870  0.3861  0.0429 -0.0375
 2215ntf    cn112155   4.891   2.057   4.751  0.0008 -0.0051  0.3812
 2215ntf    fn412156   5.085   2.512   4.997 -0.2468  0.0956 -0.4190
 2215ntf    fn412157   5.250   2.385   4.915  0.0135 -0.2813 -0.0674
 2215ntf    fn412158   5.206   2.574   4.836  0.1630 -0.2753 -0.2243
 2215ntf    on512159   4.933   2.493   4.760 -0.2460  0.1823 -0.8112
 2215ntf    on512160   5.108   2.356   4.659 -0.1255 -0.2961  0.2123
 2215ntf    on512161   4.975   2.067   4.998  0.0252 -0.3088 -0.2880
 2215ntf    on512162   5.139   2.085   4.809  0.2959 -0.3074 -0.0242
 2215ntf    fn412163   4.768   2.059   4.798  0.1200  0.1534  0.6946
 2215ntf    fn412164   4.895   2.135   4.643  0.1030 -0.2579  0.2021
 2215ntf    fn412165   4.901   1.933   4.707 -0.3413 -0.0455  0.4163
 2216ntf    cn112166   1.892   4.164   5.096  0.1088 -0.2854  0.1001
 2216ntf    sn212167   1.898   4.345   5.076 -0.1062 -0.2827  0.0633
 2216ntf    nn312168   1.747   4.380   5.051 -0.0986 -0.2240  0.0987
 2216ntf    sn212169   1.671   4.516   5.074 -0.0850 -0.1428 -0.3383
 2216ntf    cn112170   1.619   4.546   4.902  0.3090 -0.0346 -0.4407
 2216ntf    fn412171   1.835   4.109   4.990 -0.3319 -0.0032  0.1852
 2216ntf    fn412172   2.012   4.110   5.104  0.1313 -0.2770 -0.1781
 2216ntf    fn412173   1.829   4.125   5.206  0.1661  0.8262  0.5433
 2216ntf    on512174   1.961   4.387   5.199  0.0986  0.5043 -0.3050
 2216ntf    on512175   1.984   4.361   4.961 -0.5179 -0.2305 -0.2392
 2216ntf    on512176   1.760   4.624   5.109  0.4419 -0.7522  0.2253
 2216ntf    on512177   1.540   4.497   5.130 -0.1188 -0.3546 -0.4858
 2216ntf    fn412178   1.530   4.455   4.865  0.4284 -0.2072 -0.3022
 2216ntf    fn412179   1.568   4.665   4.875  0.1495 -0.0513 -0.2200
 2216ntf    fn412180   1.718   4.529   4.816  0.2252 -0.1684 -0.5110
 2217ntf    cn112181   6.690   3.323   0.716 -0.0087  0.1376 -0.3931
 2217ntf    sn212182   6.639   3.193   0.600  0.2626 -0.3547  0.0383
 2217ntf    nn312183   6.595   3.085   0.705 -0.0050 -0.4276 -0.1498
 2217ntf    sn212184   6.446   3.067   0.753 -0.1024  0.0245 -0.2818
 2217ntf    cn112185   6.465   3.102   0.931 -0.3489  0.2585 -0.3014
 2217ntf    fn412186   6.770   3.413   0.662  0.2985 -0.0151 -0.1949
 2217ntf    fn412187   6.583   3.382   0.767 -0.2128 -0.3112 -0.3011
 2217ntf    fn412188   6.750   3.263   0.817 -0.8771 -0.0168  0.0447
 2217ntf    on512189   6.541   3.258   0.517 -0.0819 -0.4523  0.3645
 2217ntf    on512190   6.764   3.154   0.538  0.3534 -0.7111  0.4334
 2217ntf    on512191   6.396   2.933   0.744  0.8772 -0.3410 -0.3918
 2217ntf    on512192   6.359   3.177   0.721  0.1076  0.3473  0.2317
 2217ntf    fn412193   6.526   3.216   0.957 -0.3496  0.0864  0.4688
 2217ntf    fn412194   6.351   3.099   0.999 -0.1732  0.5733  0.0081
 2217ntf    fn412195   6.540   3.010   0.989 -0.2050  0.6594  0.1503
 2218ntf    cn112196   5.646   4.650   2.572  0.2822 -0.0874  0.1878
 2218ntf    sn212197   5.811   4.597   2.629  0.2462 -0.0943  0.2843
 2218ntf    nn312198   5.876   4.584   2.487  0.3784  0.2071  0.3176
 2218ntf    sn212199   5.941   4.463   2.412 -0.0825  0.1802 -0.0426
 2218ntf    cn112200   6.110   4.521   2.379  0.0056 -0.1717 -0.2213
 2218ntf    fn412201   5.558   4.665   2.669 -0.0706 -0.3697 -0.0854
 2218ntf    fn412202   5.663   4.766   2.511  0.3720 -0.2400 -0.0785
 2218ntf    fn412203   5.600   4.566   2.481 -0.3730  0.0712  0.3697
 2218ntf    on512204   5.858   4.707   2.709 -0.1667  0.4144 -0.1632
 2218ntf    on512205   5.774   4.471   2.689 -0.7890 -0.1564 -0.4486
 2218ntf    on512206   5.882   4.445   2.282 -0.4339 -0.3647  0.1911
 2218ntf    on512207   5.971   4.344   2.487 -0.0807  0.0883 -0.1880
 2218ntf    fn412208   6.109   4.603   2.275 -0.0426 -0.0717 -0.1418
 2218ntf    fn412209   6.175   4.588   2.473  0.2973 -0.3937 -0.2630
 2218ntf    fn412210   6.194   4.424   2.345  0.2340 -0.0669  0.0336
 2219ntf    cn112211   1.097   1.025   0.707  0.0511 -0.0179 -0.1766
 2219ntf    sn212212   0.997   0.926   0.593 -0.0180  0.0658 -0.1887
 2219ntf    nn312213   0.870   1.019   0.583 -0.3582 -0.3454  0.2804
 2219ntf    sn212214   0.826   1.132   0.484  0.1739 -0.2738  0.1229
 2219ntf    cn112215   0.689   1.048   0.399 -0.1936  0.0191  0.4241
 2219ntf    fn412216   1.025   1.059   0.813  0.3325 -0.4121  0.1459
 2219ntf    fn412217   1.202   0.960   0.753  0.0675  0.2883  0.2287
 2219ntf    fn412218   1.132   1.134   0.640  0.0004  0.1775  0.1108
 2219ntf    on512219   1.063   0.914   0.465  0.1779 -0.8566 -0.0017
 2219ntf    on512220   0.975   0.806   0.669  0.3374 -0.1110 -0.3633
 2219ntf    on512221   0.922   1.162   0.381 -0.3364 -0.5923 -0.4492
 2219ntf    on512222   0.758   1.237   0.556  0.7788  0.1466  0.0894
 2219ntf    fn412223   0.620   1.119   0.311  0.3026 -0.3671 -0.2895
 2219ntf    fn412224   0.737   0.940   0.340 -0.2846 -0.2442  0.8299
 2219ntf    fn412225   0.592   1.011   0.481  0.0833 -0.1670  0.6680
 2220ntf    cn112226   0.967   6.887   3.219 -0.2630  0.0265  0.0182
 2220ntf    sn212227   1.144   6.907   3.184 -0.1767 -0.3694  0.2157
 2220ntf    nn312228   1.158   7.061   3.210 -0.5126 -0.2455 -0.3210
 2220ntf    sn212229   1.166   7.168   3.095  0.6171  0.0475  0.0135
 2220ntf    cn112230   1.343   7.149   3.058  0.4667  0.0549 -0.7200
 2220ntf    fn412231   0.897   6.987   3.168  0.2651  0.1696 -0.4404
 2220ntf    fn412232   0.918   6.784   3.151  0.2789 -0.2711  0.0764
 2220ntf    fn412233   0.937   6.872   3.347  0.3700 -0.0868  0.1533
 2220ntf    on512234   1.213   6.828   3.283 -0.2356 -0.3123  0.3023
 2220ntf    on512235   1.153   6.855   3.050 -0.2176 -0.0225  0.0765
 2220ntf    on512236   1.164   7.300   3.154 -0.0187 -0.1573  0.4612
 2220ntf    on512237   1.094   7.140   2.974  0.7080  0.2582 -0.0903
 2220ntf    fn412238   1.419   7.192   3.157  0.0380 -0.3100 -0.2199
 2220ntf    fn412239   1.379   7.023   3.039  0.3207 -0.0883 -0.0907
 2220ntf    fn412240   1.377   7.215   2.949 -0.2692  0.0978 -0.9337
 2221ntf    cn112241   6.590   2.330   4.495 -0.2116  0.0354 -0.2347
 2221ntf    sn212242   6.595   2.397   4.326 -0.1742  0.0735 -0.2182
 2221ntf    nn312243   6.533   2.283   4.239  0.0965 -0.4090  0.2161
 2221ntf    sn212244   6.384   2.246   4.204  0.0720 -0.2559  0.1587
 2221ntf    cn112245   6.385   2.286   4.026  0.0607 -0.3050  0.1469
 2221ntf    fn412246   6.622   2.425   4.582 -0.5896  0.0738 -0.1354
 2221ntf    fn412247   6.467   2.291   4.525 -0.0204 -0.2672  0.1632
 2221ntf    fn412248   6.669   2.225   4.508  0.0611  0.1859 -0.6852
 2221ntf    on512249   6.512   2.515   4.332 -0.1449  0.0692  0.3438
 2221ntf    on512250   6.732   2.417   4.285 -0.2194  0.3253 -0.2465
 2221ntf    on512251   6.285   2.337   4.256  0.5399 -0.0963  0.7843
 2221ntf    on512252   6.354   2.106   4.215 -0.2416 -0.2532 -0.6207
 2221ntf    fn412253   6.388   2.416   4.003  0.3705 -0.3685 -0.1687
 2221ntf    fn412254   6.485   2.233   3.958  0.2697  0.0092  0.2081
 2221ntf    fn412255   6.271   2.246   3.971 -0.3087  0.3897  0.3935
 2222ntf    cn112256   5.226   0.395   6.285 -0.6716  0.1241  0.2880
 2222ntf    sn212257   5.238   0.271   6.418 -0.0897 -0.0455  0.0785
 2222ntf    nn312258   5.169   0.360   6.527 -0.4951 -0.3116  0.0412
 2222ntf    sn212259   5.219   0.462   6.636 -0.0728  0.0090 -0.4485
 2222ntf    cn112260   5.203   0.346   6.775 -0.0525  0.3579 -0.1550
 2222ntf    fn412261   5.277   0.353   6.171 -0.4809 -0.1419  0.4710
 2222ntf    fn412262   5.103   0.439   6.263 -0.7016 -0.1744 -0.1482
 2222ntf    fn412263   5.303   0.499   6.316  0.6016 -0.5393 -0.5598
 2222ntf    on512264   5.149   0.170   6.367  0.0838 -0.2725  0.2241
 2222ntf    on512265   5.380   0.246   6.426  0.1270  1.0095 -0.2170
 2222ntf    on512266   5.124   0.569   6.654 -0.5065 -0.4197 -0.1747
 2222ntf    on512267   5.359   0.496   6.641 -0.1401  0.2243  0.0332
 2222ntf    fn412268   5.083   0.325   6.824  0.1337  0.0870  0.1875
 2222ntf    fn412269   5.246   0.226   6.740 -0.3326  0.0695  0.4836
 2222ntf    fn412270   5.271   0.390   6.880 -0.2261 -0.2039  0.1908
 2223ntf    cn112271   2.912   1.259   2.838 -0.0642  0.3825 -0.1663
 2223ntf    sn212272   2.959   1.088   2.879  0.1802  0.4732 -0.0612
 2223ntf    nn312273   3.043   1.118   3.007 -0.0563  0.4238  0.1055
 2223ntf    sn212274   3.042   1.024   3.133 -0.0837 -0.1785 -0.3440
 2223ntf    cn112275   3.216   1.030   3.184 -0.1729  0.2192 -0.0810
 2223ntf    fn412276   3.011   1.319   2.774 -0.0457  0.1235 -0.3797
 2223ntf    fn412277   2.809   1.263   2.756 -0.3385  0.1182  0.1622
 2223ntf    fn412278   2.886   1.338   2.941  0.2361  0.1123  0.1182
 2223ntf    on512279   2.829   1.027   2.896  0.4911 -0.2837 -0.3250
 2223ntf    on512280   3.030   1.047   2.760 -0.9356 -0.4682 -0.4280
 2223ntf    on512281   3.028   0.882   3.110 -0.2048 -0.3056  0.4944
 2223ntf    on512282   2.970   1.080   3.244  0.0999 -0.6457  0.0133
 2223ntf    fn412283   3.251   1.155   3.207 -0.3764  0.2033  0.3132
 2223ntf    fn412284   3.240   0.969   3.299  0.1958  0.6933  0.0963
 2223ntf    fn412285   3.301   0.986   3.092 -0.1933  0.3496 -0.1628
 2224ntf    cn112286   1.285   5.121   6.615 -0.2319  0.5268 -0.2942
 2224ntf    sn212287   1.115   5.075   6.658 -0.0596  0.1348 -0.0183
 2224ntf    nn312288   1.097   5.138   6.801  0.1172 -0.0824  0.0990
 2224ntf    sn212289   0.982   5.231   6.854  0.0593 -0.1258  0.0507
 2224ntf    cn112290   0.894   5.125   6.973 -0.1454 -0.0142 -0.0014
 2224ntf    fn412291   1.309   5.104   6.486 -0.1461  0.0037 -0.2146
 2224ntf    fn412292   1.315   5.247   6.640  0.7178  0.2198  0.1755
 2224ntf    fn412293   1.372   5.052   6.688 -0.7999  0.3591  0.2360
 2224ntf    on512294   1.027   5.129   6.557 -0.0118  0.0238 -0.1195
 2224ntf    on512295   1.104   4.932   6.664  0.0600  0.1087 -0.4665
 2224ntf    on512296   0.878   5.274   6.765  0.1893  0.2695  0.0886
 2224ntf    on512297   1.040   5.339   6.931 -0.2765 -0.0206  0.1571
 2224ntf    fn412298   0.824   5.030   6.914  0.1686 -0.2573  0.0151
 2224ntf    fn412299   0.982   5.067   7.053 -0.1709  0.5551  0.4471
 2224ntf    fn412300   0.805   5.191   7.046  0.0954  0.2846  0.0256
 2225ntf    cn112301   1.211   6.503   4.137 -0.5161 -0.3219  0.0669
 2225ntf    sn212302   1.386   6.529   4.095 -0.5032 -0.1431  0.2252
 2225ntf    nn312303   1.384   6.500   3.940  0.0993 -0.3681  0.2554
 2225ntf    sn212304   1.432   6.580   3.813 -0.1796 -0.2388  0.2297
 2225ntf    cn112305   1.275   6.610   3.728  0.0017  0.3226  0.0882
 2225ntf    fn412306   1.172   6.580   4.238 -0.5875 -0.3643  0.0717
 2225ntf    fn412307   1.130   6.525   4.035 -0.1878 -0.3486 -0.2004
 2225ntf    fn412308   1.189   6.381   4.183 -0.0666 -0.4462 -0.0361
 2225ntf    on512309   1.408   6.668   4.123 -0.0357 -0.2438  0.3684
 2225ntf    on512310   1.452   6.427   4.173  0.3115  0.1993 -0.0086
 2225ntf    on512311   1.497   6.494   3.717  0.1965  0.3148 -0.0140
 2225ntf    on512312   1.475   6.716   3.829 -0.6566 -0.0423 -0.1537
 2225ntf    fn412313   1.289   6.638   3.599  0.0803  0.3482  0.1023
 2225ntf    fn412314   1.201   6.500   3.741  0.4731 -0.0375 -0.2253
 2225ntf    fn412315   1.203   6.712   3.770 -0.7593 -0.1932  0.0756
 2226ntf    cn112316   5.616   0.827   0.179  0.1007  0.0073 -0.1705
 2226ntf    sn212317   5.484   0.764   0.071 -0.3508  0.1531  0.2927
 2226ntf    nn312318   5.379   0.737   0.185 -0.9444 -0.6106 -0.4268
 2226ntf    sn212319   5.264   0.828   0.242 -0.2513 -0.0628  0.1195
 2226ntf    cn112320   5.288   0.786   0.417  0.2088  0.0667  0.0870
 2226ntf    fn412321   5.565   0.924   0.254  0.1189  0.0801 -0.2520
 2226ntf    fn412322   5.652   0.726   0.256  0.0225 -0.0151 -0.1627
 2226ntf    fn412323   5.720   0.878   0.115  0.1986  0.0089 -0.0120
 2226ntf    on512324   5.472   0.874  -0.022 -0.2494  0.1442  0.2691
 2226ntf    on512325   5.537   0.641   0.018 -0.1364  0.2689  0.2393
 2226ntf    on512326   5.133   0.783   0.202 -0.2020 -0.3073  0.2332
 2226ntf    on512327   5.285   0.970   0.237 -0.2482 -0.0553  0.3307
 2226ntf    fn412328   5.227   0.877   0.491  0.2581 -0.2621  0.5368
 2226ntf    fn412329   5.246   0.662   0.439 -0.3990  0.1673 -0.4822
 2226ntf    fn412330   5.414   0.792   0.459  0.2509 -0.5103  0.0550
 2227ntf    cn112331   5.731   3.050   5.218  0.0287 -0.0665 -0.0416
 2227ntf    sn212332   5.790   2.911   5.319  0.2624 -0.0092 -0.0981
 2227ntf    nn312333   5.739   2.960   5.460 -0.0990 -0.1402 -0.1834
 2227ntf    sn212334   5.789   2.954   5.609 -0.0949  0.0719 -0.1765
 2227ntf    cn112335   5.865   3.119   5.619  0.1310 -0.0663  0.3767
 2227ntf    fn412336   5.802   3.160   5.237 -0.1205 -0.0472  0.4248
 2227ntf    fn412337   5.721   3.038   5.087  0.4691  0.3077 -0.1134
 2227ntf    fn412338   5.609   3.081   5.257  0.0086  0.1512 -0.2741
 2227ntf    on512339   5.722   2.798   5.262 -0.5260  0.0677  0.6563
 2227ntf    on512340   5.933   2.919   5.306  0.1668  0.2554 -1.0237
 2227ntf    on512341   5.899   2.867   5.644 -0.3909 -0.4440 -0.5201
 2227ntf    on512342   5.690   2.966   5.712  0.0551  0.2040 -0.0479
 2227ntf    fn412343   5.951   3.121   5.721  0.4686 -0.5190  0.1068
 2227ntf    fn412344   5.934   3.157   5.513 -0.1297 -0.1486  0.1779
 2227ntf    fn412345   5.779   3.213   5.652  0.0383 -0.0971  0.2244
 2228ntf    cn112346   0.245   1.434   2.754 -0.2145  0.1020 -0.1080
 2228ntf    sn212347   0.254   1.374   2.582 -0.0938  0.0995 -0.1003
 2228ntf    nn312348   0.103   1.338   2.561  0.1193 -1.1679  0.4347
 2228ntf    sn212349   0.032   1.320   2.422  0.3474  0.2045  0.1284
 2228ntf    cn112350   0.031   1.138   2.426  0.2327  0.2058  0.1527
 2228ntf    fn412351   0.362   1.465   2.807 -0.1739 -0.2410  0.0050
 2228ntf    fn412352   0.174   1.546   2.752 -0.0999  0.1711 -0.3249
 2228ntf    fn412353   0.181   1.350   2.834  0.0853  0.1483  0.1781
 2228ntf    on512354   0.316   1.483   2.511  0.0687 -0.1509 -0.3462
 2228ntf    on512355   0.335   1.256   2.598  0.0722  0.2761  0.4025
 2228ntf    on512356   0.108   1.356   2.305 -0.0634  0.2670 -0.1218
 2228ntf    on512357  -0.108   1.353   2.420  0.2315 -0.2686  0.4491
 2228ntf    fn412358   0.006   1.088   2.306  0.1567  0.2221  0.1614
 2228ntf    fn412359   0.153   1.096   2.454  0.3684  0.3622 -0.1919
 2228ntf    fn412360  -0.051   1.094   2.520  0.9687 -0.6228  0.4141
 2229ntf    cn112361   4.637   1.970   0.056  0.0713 -0.2565 -0.0749
 2229ntf    sn212362   4.467   1.923   0.102  0.0204 -0.0042 -0.0017
 2229ntf    nn312363   4.421   1.849  -0.029  0.2904  0.1920 -0.2093
 2229ntf    sn212364   4.324   1.902  -0.140 -0.0128  0.0834  0.0007
 2229ntf    cn112365   4.415   1.856  -0.290  0.0557 -0.2612  0.1486
 2229ntf    fn412366   4.655   2.101   0.051 -0.4160 -0.1600  0.5637
 2229ntf    fn412367   4.720   1.928   0.149 -0.0181  0.3059  0.2588
 2229ntf    fn412368   4.682   1.915  -0.056 -0.0140 -0.2943 -0.0905
 2229ntf    on512369   4.496   1.828   0.206  0.3859 -0.0476 -0.1404
 2229ntf    on512370   4.412   2.054   0.128 -1.0803 -0.3546 -0.5429
 2229ntf    on512371   4.311   2.045  -0.153  0.0615  0.0556 -0.4100
 2229ntf    on512372   4.201   1.829  -0.153  0.0594 -0.0415  0.0142
 2229ntf    fn412373   4.450   1.728  -0.298  0.8664 -0.0279 -0.1991
 2229ntf    fn412374   4.343   1.873  -0.400 -0.0355 -0.3919  0.1882
 2229ntf    fn412375   4.533   1.915  -0.299  0.0703 -0.1968  0.7128
 2230ntf    cn112376   3.814   0.286   1.013  0.3677  0.4226 -0.2964
 2230ntf    sn212377   3.759   0.356   0.854 -0.6079  0.2036 -0.0643
 2230ntf    nn312378   3.611   0.304   0.858 -0.3165 -0.6273  0.3562
 2230ntf    sn212379   3.483   0.390   0.828 -0.0396 -0.2839  0.1353
 2230ntf    cn112380   3.376   0.260   0.759 -0.0335 -0.3520  0.2521
 2230ntf    fn412381   3.939   0.320   1.039  0.3829  0.1653 -0.0256
 2230ntf    fn412382   3.749   0.325   1.121  0.4423  0.5232 -0.2878
 2230ntf    fn412383   3.826   0.154   1.008  0.1675  0.4004 -0.1861
 2230ntf    on512384   3.773   0.496   0.887  0.4267 -0.0532  0.6548
 2230ntf    on512385   3.849   0.292   0.761  0.0920  0.4846  0.4038
 2230ntf    on512386   3.486   0.478   0.714  0.1241  0.0804  0.4187
 2230ntf    on512387   3.414   0.446   0.942  0.0365  0.4481 -0.1722
 2230ntf    fn412388   3.266   0.316   0.709  0.4463  0.2464 -0.1498
 2230ntf    fn412389   3.436   0.189   0.664  0.1805  0.6806 -0.4057
 2230ntf    fn412390   3.337   0.178   0.855 -0.3236  0.0123  0.4529
 2231ntf    cn112391   6.715   5.536   6.304 -0.2713 -0.1162  0.0126
 2231ntf    sn212392   6.659   5.672   6.410  0.1530  0.0153  0.0722
 2231ntf    nn312393   6.592   5.761   6.300  0.0730 -0.0339  0.0805
 2231ntf    sn212394   6.658   5.862   6.199  0.4139 -0.1133  0.2229
 2231ntf    cn112395   6.623   6.023   6.275  0.5072 -0.0391  0.1101
 2231ntf    fn412396   6.766   5.587   6.192  0.2628 -0.0046  0.3007
 2231ntf    fn412397   6.800   5.449   6.357  0.1205  0.4368  0.3100
 2231ntf    fn412398   6.611   5.470   6.255 -0.4009  0.0209  0.1064
 2231ntf    on512399   6.556   5.611   6.491  0.3112 -0.6446 -0.2218
 2231ntf    on512400   6.779   5.711   6.479  0.1633 -0.3718  0.2787
 2231ntf    on512401   6.585   5.863   6.075 -0.3159  0.2510  0.6484
 2231ntf    on512402   6.801   5.851   6.196  0.4360  0.3507 -0.8887
 2231ntf    fn412403   6.656   6.117   6.189  0.0889 -0.1950 -0.2252
 2231ntf    fn412404   6.495   6.041   6.303  0.4573 -0.0510 -0.1074
 2231ntf    fn412405   6.689   6.055   6.385  0.7755 -0.0724 -0.0414
 2232ntf    cn112406   4.518   4.053   1.236 -0.1426 -0.3912  0.3430
 2232ntf    sn212407   4.645   4.136   1.336 -0.0180 -0.1325 -0.0242
 2232ntf    nn312408   4.757   4.031   1.305 -0.1079 -0.1804 -0.1887
 2232ntf    sn212409   4.887   4.050   1.219  0.2792  0.1081  0.4489
 2232ntf    cn112410   4.911   3.872   1.195 -0.1353  0.1147 -0.0329
 2232ntf    fn412411   4.400   4.099   1.277 -0.0883  0.0231  0.0435
 2232ntf    fn412412   4.531   4.085   1.108  0.0465  0.3257  0.5355
 2232ntf    fn412413   4.518   3.921   1.245 -0.0746 -0.4183 -0.0509
 2232ntf    on512414   4.658   4.265   1.273  0.4618 -0.2421 -0.1486
 2232ntf    on512415   4.588   4.127   1.469 -0.1436 -0.5346 -0.1030
 2232ntf    on512416   5.011   4.078   1.287  0.4009 -0.2965  0.3975
 2232ntf    on512417   4.860   4.096   1.084  0.3590 -0.4925  0.2278
 2232ntf    fn412418   4.895   3.807   1.309  0.0787  0.2129  0.0531
 2232ntf    fn412419   4.820   3.825   1.111 -0.5615 -0.1482  0.5657
 2232ntf    fn412420   5.033   3.836   1.160 -0.2553 -0.4520  0.1220
 2233ntf    cn112421   5.707   6.539   5.988  0.0778 -0.4398 -0.5253
 2233ntf    sn212422   5.706   6.599   5.817 -0.0471  0.0478 -0.3551
 2233ntf    nn312423   5.635   6.736   5.848  0.2734 -0.0036  0.6605
 2233ntf    sn212424   5.547   6.834   5.762  0.5709 -0.1941  0.1295
 2233ntf    cn112425   5.682   6.941   5.706 -0.1129  0.5057 -0.1903
 2233ntf    fn412426   5.697   6.407   5.993  0.3058 -0.4806 -1.1282
 2233ntf    fn412427   5.813   6.564   6.063 -0.2927  0.4152 -0.2798
 2233ntf    fn412428   5.603   6.584   6.057  0.5041 -0.4289  0.1277
 2233ntf    on512429   5.849   6.609   5.801  0.0802 -0.7700  0.2265
 2233ntf    on512430   5.634   6.499   5.743 -0.7429  0.1577  0.1629
 2233ntf    on512431   5.456   6.915   5.839  0.5538 -0.9986  0.9753
 2233ntf    on512432   5.485   6.773   5.647 -0.8841  0.2949  0.6222
 2233ntf    fn412433   5.773   6.876   5.636 -0.4698 -0.0565 -0.1369
 2233ntf    fn412434   5.641   7.042   5.630 -0.4960  0.3978 -0.1275
 2233ntf    fn412435   5.736   7.006   5.808  0.1189 -0.2497  0.1702
 2234ntf    cn112436   6.436   2.121   0.049  0.3308 -0.0018  0.1540
 2234ntf    sn212437   6.312   2.000   0.102  0.0311  0.1694 -0.1515
 2234ntf    nn312438   6.331   1.892  -0.010 -0.1800  0.0771 -0.0999
 2234ntf    sn212439   6.416   1.759  -0.011 -0.1820  0.0707  0.3115
 2234ntf    cn112440   6.305   1.643   0.074 -0.3707 -0.0104 -0.0397
 2234ntf    fn412441   6.450   2.214   0.142  0.4184  0.0036  0.1360
 2234ntf    fn412442   6.554   2.064   0.031  0.3097  0.1937 -0.6373
 2234ntf    fn412443   6.405   2.189  -0.060  0.0764 -0.1416  0.1406
 2234ntf    on512444   6.343   1.970   0.240 -0.2777 -0.0427 -0.1273
 2234ntf    on512445   6.187   2.068   0.082  0.1627  0.3975 -0.1996
 2234ntf    on512446   6.533   1.765   0.072 -0.2386  0.6519  0.3584
 2234ntf    on512447   6.427   1.698  -0.141  0.2134  0.5778  0.1052
 2234ntf    fn412448   6.346   1.520   0.098 -0.6043  0.0040  0.4498
 2234ntf    fn412449   6.276   1.693   0.193 -0.2563 -0.3099  0.1151
 2234ntf    fn412450   6.190   1.627   0.011 -0.3848 -0.4451  0.0937
 2235ntf    cn112451   5.944   3.524   3.352 -0.5245  0.1787  0.2106
 2235ntf    sn212452   5.898   3.371   3.438  0.1100  0.0883  0.3969
 2235ntf    nn312453   5.997   3.262   3.385 -0.0219  0.0625  0.2009
 2235ntf    sn212454   5.963   3.137   3.296  0.2319  0.1561 -0.0291
 2235ntf    cn112455   6.026   2.994   3.389 -0.4049 -0.1586 -0.0786
 2235ntf    fn412456   5.959   3.502   3.222  0.0928  0.0648  0.2983
 2235ntf    fn412457   5.865   3.628   3.372 -0.7612  0.0042  0.1797
 2235ntf    fn412458   6.063   3.564   3.395 -0.2808 -0.3114  0.0019
 2235ntf    on512459   5.928   3.409   3.574  0.4784  0.0461  0.3269
 2235ntf    on512460   5.758   3.362   3.404  0.2317 -0.4749  0.0378
 2235ntf    on512461   6.039   3.125   3.174  0.1352 -0.6464 -0.0112
 2235ntf    on512462   5.826   3.091   3.292  0.2558  0.0680  0.1309
 2235ntf    fn412463   6.150   3.012   3.430 -0.1708  0.2990 -0.9496
 2235ntf    fn412464   5.959   2.962   3.498  0.1908 -0.3123  0.2446
 2235ntf    fn412465   6.029   2.881   3.320  0.0787 -0.1513 -0.0705
 2236ntf    cn112466   0.409   5.427   0.145  0.3703 -0.1121  0.2317
 2236ntf    sn212467   0.232   5.384   0.145  0.2554  0.3542  0.0432
 2236ntf    nn312468   0.245   5.252   0.061  0.1779  0.3999 -0.0411
 2236ntf    sn212469   0.159   5.217  -0.066  0.0946  0.1102  0.0946
 2236ntf    cn112470   0.284   5.274  -0.186  0.3073  0.0036  0.2640
 2236ntf    fn412471   0.456   5.456   0.025  0.2712 -0.2184  0.1666
 2236ntf    fn412472   0.429   5.530   0.225 -0.1790  0.3384 -0.2013
 2236ntf    fn412473   0.487   5.328   0.184  0.2224 -0.2011  0.3068
 2236ntf    on512474   0.214   5.355   0.285  0.0211  0.0207 -0.0542
 2236ntf    on512475   0.173   5.505   0.092  0.5111  0.6070  0.3287
 2236ntf    on512476   0.036   5.288  -0.090 -0.1039 -0.2247  0.1185
 2236ntf    on512477   0.161   5.076  -0.096 -0.1114 -0.1137  1.0787
 2236ntf    fn412478   0.399   5.213  -0.161  0.5466  0.3602  0.0291
 2236ntf    fn412479   0.246   5.246  -0.309 -0.0631 -0.0394  0.3862
 2236ntf    fn412480   0.315   5.402  -0.183 -0.0399  0.1154 -0.6946
 2237ntf    cn112481   6.655   0.524   1.633 -0.2119 -0.0466 -0.0188
 2237ntf    sn212482   6.808   0.573   1.716 -0.2680 -0.1307  0.1347
 2237ntf    nn312483   6.908   0.567   1.595 -0.6168  0.3675 -0.1840
 2237ntf    sn212484   6.928   0.666   1.475  0.3224  0.0064 -0.3385
 2237ntf    cn112485   7.100   0.637   1.426  0.4118 -0.0203 -0.0131
 2237ntf    fn412486   6.559   0.495   1.720 -0.0834  0.1605  0.1911
 2237ntf    fn412487   6.600   0.610   1.549  0.2728  0.1615 -0.1196
 2237ntf    fn412488   6.662   0.419   1.552  0.5998 -0.0218  0.0137
 2237ntf    on512489   6.769   0.704   1.762 -0.7365 -0.2091 -0.0390
 2237ntf    on512490   6.826   0.475   1.821 -0.1036 -0.2022  0.0401
 2237ntf    on512491   6.927   0.807   1.506  0.1740 -0.2079  0.6705
 2237ntf    on512492   6.852   0.628   1.358 -0.1498 -0.6535  0.1693
 2237ntf    fn412493   7.186   0.650   1.526  0.0085  0.7705  0.2344
 2237ntf    fn412494   7.112   0.517   1.372 -0.0583 -0.2321  0.3489
 2237ntf    fn412495   7.149   0.730   1.345  0.7415 -0.2042 -0.0248
 2238ntf    cn112496   6.885   6.622   5.818  0.1542 -0.2143  0.0226
 2238ntf    sn212497   6.735   6.686   5.899 -0.1846 -0.3521 -0.4922
 2238ntf    nn312498   6.706   6.818   5.818  0.8437 -0.2769 -0.7570
 2238ntf    sn212499   6.774   6.957   5.842 -0.0760  0.0722 -0.1009
 2238ntf    cn112500   6.638   7.033   5.934  0.1835  0.2850  0.1111
 2238ntf    fn412501   6.851   6.566   5.703  0.4998 -0.1048 -0.1363
 2238ntf    fn412502   6.980   6.710   5.790 -0.1380  0.0193 -0.2287
 2238ntf    fn412503   6.940   6.533   5.900  0.2498 -0.4974 -0.3452
 2238ntf    on512504   6.639   6.583   5.867 -0.3586 -0.2943 -0.1560
 2238ntf    on512505   6.765   6.702   6.039 -0.0760 -0.3651 -0.5136
 2238ntf    on512506   6.777   7.033   5.719 -0.1162  0.0243 -0.1312
 2238ntf    on512507   6.886   6.973   5.932  0.1247 -0.7846 -0.1878
 2238ntf    fn412508   6.586   6.951   6.025  0.0786  0.0743 -0.1383
 2238ntf    fn412509   6.680   7.138   6.002  0.0097 -0.1596  0.9259
 2238ntf    fn412510   6.545   7.071   5.848  0.1251  0.3509  0.2029
 2239ntf    cn112511   0.142   4.704   1.858  0.1202  0.4438  0.2902
 2239ntf    sn212512   0.160   4.807   1.710  0.2811  0.0033  0.0020
 2239ntf    nn312513   0.250   4.712   1.623  0.0869 -0.2058  0.0281
 2239ntf    sn212514   0.203   4.608   1.515 -0.2606 -0.0385  0.0156
 2239ntf    cn112515   0.346   4.497   1.499 -0.0653  0.1596  0.3619
 2239ntf    fn412516   0.077   4.590   1.837 -0.3651  0.8073 -0.1998
 2239ntf    fn412517   0.261   4.655   1.888 -0.2239 -0.1624  0.6908
 2239ntf    fn412518   0.092   4.772   1.960 -0.6242 -0.1693  0.3452
 2239ntf    on512519   0.022   4.824   1.671  0.3445  0.1383 -0.1627
 2239ntf    on512520   0.229   4.927   1.750  0.0572  0.0104  0.3670
 2239ntf    on512521   0.175   4.660   1.384  0.0094 -0.3042 -0.1487
 2239ntf    on512522   0.109   4.512   1.567  0.3289 -0.4884  0.2635
 2239ntf    fn412523   0.452   4.552   1.440 -0.1020  0.0353  0.1776
 2239ntf    fn412524   0.385   4.475   1.623 -0.5589  0.1246  0.5127
 2239ntf    fn412525   0.313   4.386   1.435 -0.9127  0.7022 -0.1591
 2240ntf    cn112526   0.894   4.746   2.587  0.0261 -0.3313 -0.2036
 2240ntf    sn212527   0.753   4.632   2.581 -0.0835 -0.2091  0.0640
 2240ntf    nn312528   0.704   4.663   2.435  0.0617 -0.5934 -0.0668
 2240ntf    sn212529   0.738   4.590   2.300 -0.1001 -0.2366 -0.3000
 2240ntf    cn112530   0.589   4.487   2.292 -0.0756 -0.2967  0.0088
 2240ntf    fn412531   0.969   4.723   2.693 -0.0266 -0.3585 -0.1730
 2240ntf    fn412532   0.981   4.734   2.487 -0.5803  0.4811 -0.8375
 2240ntf    fn412533   0.848   4.869   2.601  0.3410 -0.2641  0.2559
 2240ntf    on512534   0.813   4.504   2.608  0.2658 -0.1504 -0.4288
 2240ntf    on512535   0.659   4.675   2.682  0.1265 -0.3444  0.3199
 2240ntf    on512536   0.855   4.505   2.302 -0.1382 -0.2795  0.4626
 2240ntf    on512537   0.727   4.687   2.193  0.4578  0.3619  0.1727
 2240ntf    fn412538   0.614   4.383   2.215  0.4008 -0.0688 -0.1512
 2240ntf    fn412539   0.548   4.440   2.409 -0.0471 -0.3970 -0.0222
 2240ntf    fn412540   0.492   4.547   2.224  0.0587 -0.0514  0.0332
 2241ntf    cn112541   1.364   3.217   3.093  0.1828 -0.3231  0.1806
 2241ntf    sn212542   1.339   3.072   3.199 -0.0926 -0.4158 -0.0084
 2241ntf    nn312543   1.326   2.971   3.079  0.2431  0.1694 -0.5401
 2241ntf    sn212544   1.194   2.898   3.036  0.0800  0.1251  0.0299
 2241ntf    cn112545   1.265   2.736   2.995 -0.0144  0.0029  0.3527
 2241ntf    fn412546   1.247   3.265   3.053  0.3018  0.0644  0.2947
 2241ntf    fn412547   1.423   3.311   3.165 -0.0683  0.1853 -0.2648
 2241ntf    fn412548   1.439   3.201   2.985 -0.2546  0.4211 -0.2481
 2241ntf    on512549   1.468   3.060   3.262  0.1671  0.5542 -0.3448
 2241ntf    on512550   1.227   3.100   3.284  0.2172  0.2013  0.2029
 2241ntf    on512551   1.146   2.945   2.908  0.2373 -0.4356 -0.2390
 2241ntf    on512552   1.094   2.873   3.137 -0.1144 -0.7224 -0.3702
 2241ntf    fn412553   1.175   2.655   2.942 -0.0906  0.3275 -0.0117
 2241ntf    fn412554   1.370   2.745   2.916 -0.4389 -0.5756 -0.2856
 2241ntf    fn412555   1.310   2.676   3.104  0.0135 -0.3065  0.1728
 2242ntf    cn112556   1.992   6.228   1.404 -0.1412  0.3446 -0.3943
 2242ntf    sn212557   2.172   6.227   1.432 -0.1861  0.3299 -0.1051
 2242ntf    nn312558   2.220   6.205   1.284  0.0217 -0.2142  0.0429
 2242ntf    sn212559   2.265   6.311   1.177 -0.1869  0.0144  0.1816
 2242ntf    cn112560   2.439   6.340   1.221 -0.0474 -0.1397 -0.2665
 2242ntf    fn412561   1.955   6.111   1.355  0.5074 -0.0521  0.0413
 2242ntf    fn412562   1.930   6.238   1.520  0.2007 -0.3020 -0.1451
 2242ntf    fn412563   1.956   6.328   1.325 -0.2323  0.3178 -0.3873
 2242ntf    on512564   2.207   6.350   1.499 -0.2061  0.2518  0.0480
 2242ntf    on512565   2.201   6.105   1.502  0.4642  0.8484  0.5403
 2242ntf    on512566   2.204   6.442   1.178  0.0046  0.1029  0.4111
 2242ntf    on512567   2.291   6.248   1.050  0.0455 -0.0590  0.2652
 2242ntf    fn412568   2.505   6.402   1.125 -0.1477  0.6770  0.1892
 2242ntf    fn412569   2.445   6.422   1.325  0.3120 -0.3971 -0.0826
 2242ntf    fn412570   2.504   6.229   1.255 -0.2666 -0.1049  0.2809
 2243ntf    cn112571   5.724   4.331   1.817 -0.1328 -0.2110 -0.0511
 2243ntf    sn212572   5.649   4.172   1.866  0.0264 -0.1703  0.3246
 2243ntf    nn312573   5.507   4.228   1.901  0.0770  0.1719 -0.0087
 2243ntf    sn212574   5.368   4.224   1.827  0.0839 -0.1206 -0.0042
 2243ntf    cn112575   5.273   4.336   1.932  0.1021  0.1321 -0.2555
 2243ntf    fn412576   5.700   4.434   1.896  0.1836 -0.3832  0.2706
 2243ntf    fn412577   5.856   4.317   1.814 -0.0838  0.2820 -0.1932
 2243ntf    fn412578   5.706   4.373   1.693 -0.0708  0.3985  0.1478
 2243ntf    on512579   5.665   4.077   1.759  0.6504  0.2172  0.0669
 2243ntf    on512580   5.728   4.140   1.983  0.6997  0.3925  0.0341
 2243ntf    on512581   5.299   4.098   1.836  0.3135 -0.2480 -0.0046
 2243ntf    on512582   5.362   4.288   1.698  0.1115  0.2722  0.1878
 2243ntf    fn412583   5.320   4.460   1.932  0.3289  0.0462 -0.6134
 2243ntf    fn412584   5.145   4.339   1.900 -0.0670  0.3793  0.4131
 2243ntf    fn412585   5.267   4.308   2.062  0.4082  0.4274 -0.1750
 2244ntf    cn112586   3.219   3.120   1.187  0.1040 -0.0643  0.1268
 2244ntf    sn212587   3.109   2.977   1.167  0.0185 -0.0012  0.1476
 2244ntf    nn312588   3.138   2.963   1.014 -0.4667 -0.5355  0.0996
 2244ntf    sn212589   3.062   2.886   0.899 -0.3114 -0.4049 -0.0917
 2244ntf    cn112590   3.207   2.801   0.830 -0.1590  0.0663 -0.3572
 2244ntf    fn412591   3.194   3.222   1.106 -0.5162 -0.4494 -0.1771
 2244ntf    fn412592   3.216   3.170   1.309  0.3128 -0.1794  0.1797
 2244ntf    fn412593   3.347   3.095   1.166  0.0389  0.0943 -0.4738
 2244ntf    on512594   3.168   2.876   1.250  0.5826  0.3010  0.1145
 2244ntf    on512595   2.982   3.038   1.198  0.1213  0.2626  0.0511
 2244ntf    on512596   3.032   2.965   0.782  0.5643  0.0001 -0.0518
 2244ntf    on512597   2.974   2.776   0.927 -0.1353 -0.5630 -0.1550
 2244ntf    fn412598   3.276   2.880   0.749  0.4868 -0.0298  0.0956
 2244ntf    fn412599   3.288   2.753   0.923 -0.4140  0.5783  0.1345
 2244ntf    fn412600   3.176   2.702   0.748  0.4260 -0.3964 -0.0255
 2245ntf    cn112601   6.520   4.090   4.527  0.3327 -0.3645  0.2246
 2245ntf    sn212602   6.511   3.962   4.398 -0.3730 -0.0833 -0.0090
 2245ntf    nn312603   6.425   3.858   4.479 -0.3932  0.0429  0.1317
 2245ntf    sn212604   6.433   3.702   4.461  0.3110  0.0416  0.4091
 2245ntf    cn112605   6.540   3.654   4.599  0.2201  0.1811  0.5282
 2245ntf    fn412606   6.579   4.199   4.481 -0.1693 -0.3353 -0.3594
 2245ntf    fn412607   6.399   4.124   4.568  0.0478 -0.3186 -0.6311
 2245ntf    fn412608   6.594   4.046   4.627  0.3565 -0.7407  0.0418
 2245ntf    on512609   6.445   4.033   4.291  0.1933  0.6278  0.1124
 2245ntf    on512610   6.647   3.918   4.382 -0.2753  0.2995 -0.2331
 2245ntf    on512611   6.495   3.652   4.341 -0.0949 -0.0261  0.2254
 2245ntf    on512612   6.308   3.637   4.493 -0.2286  0.7028 -0.2968
 2245ntf    fn412613   6.612   3.551   4.557 -0.1845  0.0981  0.0262
 2245ntf    fn412614   6.617   3.748   4.652  0.8337  0.5525 -0.9755
 2245ntf    fn412615   6.466   3.615   4.701  0.1824  0.2858  0.5400
 2246ntf    cn112616   1.139   3.695   3.543 -0.0351  0.0770  0.2139
 2246ntf    sn212617   1.319   3.707   3.561 -0.0281  0.1218  0.1151
 2246ntf    nn312618   1.360   3.581   3.646 -0.1653 -0.0444 -0.0637
 2246ntf    sn212619   1.491   3.494   3.649 -0.0788  0.0911  0.1582
 2246ntf    cn112620   1.443   3.344   3.558 -0.0050 -0.1402  0.4996
 2246ntf    fn412621   1.105   3.595   3.462 -0.0031  0.1246  0.1420
 2246ntf    fn412622   1.077   3.660   3.655 -0.1511  0.2464  0.2028
 2246ntf    fn412623   1.093   3.812   3.504 -0.1236  0.1320  0.4836
 2246ntf    on512624   1.363   3.697   3.424 -0.3663  0.2232 -0.0006
 2246ntf    on512625   1.338   3.835   3.624  0.1106 -0.0975  0.5247
 2246ntf    on512626   1.521   3.440   3.779 -0.0139 -0.3612 -0.0433
 2246ntf    on512627   1.599   3.552   3.573 -0.0583 -0.2043 -0.0398
 2246ntf    fn412628   1.390   3.364   3.438 -0.2576 -0.3569  0.5753
 2246ntf    fn412629   1.547   3.268   3.528  0.1656  0.1075  0.4598
 2246ntf    fn412630   1.354   3.264   3.615 -0.3442  0.0234  0.2063
 2247ntf    cn112631   0.455   5.040   4.024  0.0984 -0.0998  0.0429
 2247ntf    sn212632   0.613   5.123   3.989  0.0288  0.1056  0.2106
 2247ntf    nn312633   0.584   5.217   3.867 -0.0511 -0.0069  0.1429
 2247ntf    sn212634   0.532   5.365   3.862 -0.1087 -0.0414 -0.2925
 2247ntf    cn112635   0.689   5.458   3.855 -0.1380  0.0436  0.1829
 2247ntf    fn412636   0.422   4.973   3.915  0.0640  0.7076 -0.4544
 2247ntf    fn412637   0.451   4.942   4.113  0.4902 -0.2374 -0.0874
 2247ntf    fn412638   0.359   5.129   4.047  0.4513  0.2904  0.0254
 2247ntf    on512639   0.644   5.189   4.113 -0.4553  0.3303  0.2106
 2247ntf    on512640   0.693   5.010   3.948 -0.5980 -0.2908  0.0714
 2247ntf    on512641   0.457   5.414   3.975  0.4019  0.0894 -0.0045
 2247ntf    on512642   0.475   5.392   3.732  0.5466  0.1400 -0.5469
 2247ntf    fn412643   0.751   5.432   3.741 -0.0822  0.1066  0.1991
 2247ntf    fn412644   0.661   5.587   3.856 -0.7792 -0.0889  0.0511
 2247ntf    fn412645   0.771   5.432   3.955 -0.5512 -0.9310  0.2824
 2248ntf    cn112646   4.230   5.947   2.636 -0.2452  0.1925 -0.2494
 2248ntf    sn212647   4.290   6.089   2.732 -0.0570 -0.0594  0.0037
 2248ntf    nn312648   4.190   6.090   2.853 -0.0477 -0.1374  0.0119
 2248ntf    sn212649   4.041   6.141   2.853 -0.0557 -0.1591  0.1071
 2248ntf    cn112650   3.949   5.988   2.888  0.1143 -0.2216  0.2816
 2248ntf    fn412651   4.222   5.830   2.696  0.0868  0.1111 -0.3642
 2248ntf    fn412652   4.109   5.969   2.585 -0.5778  0.0753  0.4823
 2248ntf    fn412653   4.307   5.922   2.532 -0.2695 -0.1113 -0.1953
 2248ntf    on512654   4.426   6.050   2.762 -0.3747 -0.9623  0.3319
 2248ntf    on512655   4.276   6.207   2.652  0.1263 -0.2438 -0.3009
 2248ntf    on512656   3.987   6.177   2.724  0.0043 -1.0059 -0.1630
 2248ntf    on512657   4.005   6.223   2.965 -0.2793 -0.4025  0.2140
 2248ntf    fn412658   3.976   5.884   2.810  0.1475 -0.0244  0.0301
 2248ntf    fn412659   3.979   5.945   3.010 -0.0681  0.3941  0.5467
 2248ntf    fn412660   3.820   6.016   2.882  0.2115  0.0901 -0.3870
 2249ntf    cn112661   1.144   3.111   0.157 -0.1943  0.0112 -0.2106
 2249ntf    sn212662   1.123   2.973   0.274  0.0957  0.3038  0.1889
 2249ntf    nn312663   1.046   3.044   0.391  0.2270  0.5568  0.1228
 2249ntf    sn212664   0.896   3.029   0.434  0.2809 -0.2564  0.0510
 2249ntf    cn112665   0.839   3.185   0.359 -0.2616 -0.3556  0.2537
 2249ntf    fn412666   1.217   3.208   0.209 -0.0998 -0.2014  0.0575
 2249ntf    fn412667   1.191   3.077   0.038  0.0474 -0.1809 -0.0636
 2249ntf    fn412668   1.031   3.168   0.121 -0.0853 -0.0091 -0.5978
 2249ntf    on512669   1.054   2.870   0.201  0.4586  0.7097 -0.7423
 2249ntf    on512670   1.258   2.947   0.317 -0.0853 -0.0419  0.5521
 2249ntf    on512671   0.880   3.060   0.574 -0.2091 -0.5735  0.0679
 2249ntf    on512672   0.813   2.927   0.375  0.1279  0.1717 -0.4845
 2249ntf    fn412673   0.720   3.220   0.406 -0.3990 -0.0338 -0.3264
 2249ntf    fn412674   0.917   3.285   0.395 -0.2902 -0.2405 -0.0040
 2249ntf    fn412675   0.833   3.175   0.227  0.2151 -0.2833  0.2257
 2250ntf    cn112676   0.339   4.983   4.864  0.3194 -0.0069 -0.3200
 2250ntf    sn212677   0.423   4.971   4.704  0.2936  0.0123 -0.3349
 2250ntf    nn312678   0.547   5.064   4.730  0.3163 -0.2250  0.4273
 2250ntf    sn212679   0.558   5.216   4.694  0.2112 -0.3425 -0.1131
 2250ntf    cn112680   0.698   5.291   4.782  0.2378 -0.0193 -0.4242
 2250ntf    fn412681   0.220   4.926   4.865  0.3197 -0.0081 -0.0779
 2250ntf    fn412682   0.415   4.923   4.954 -0.2527  0.3590  0.4347
 2250ntf    fn412683   0.330   5.110   4.903  0.3089 -0.1815  0.2676
 2250ntf    on512684   0.455   4.831   4.704  0.0264 -0.0522  0.4925
 2250ntf    on512685   0.326   5.020   4.609 -0.0602  0.1897  0.1168
 2250ntf    on512686   0.448   5.286   4.757 -0.0464 -0.2606 -0.6409
 2250ntf    on512687   0.587   5.242   4.555  0.1249  0.0581 -0.0570
 2250ntf    fn412688   0.710   5.419   4.753 -0.2400  0.1403  0.0712
 2250ntf    fn412689   0.699   5.269   4.913 -0.2680  0.2661 -0.3688
 2250ntf    fn412690   0.807   5.232   4.738  0.0462 -0.6575 -0.0681
 2251ntf    cn112691   4.603   4.075   0.531 -0.3672 -0.1248  0.1940
 2251ntf    sn212692   4.489   3.942   0.484 -0.3419 -0.0113 -0.1915
 2251ntf    nn312693   4.350   4.013   0.482 -0.2278  0.1982 -0.7571
 2251ntf    sn212694   4.227   3.995   0.578  0.3113 -0.0507 -0.1067
 2251ntf    cn112695   4.096   4.020   0.454  0.2408  0.2100  0.0191
 2251ntf    fn412696   4.606   4.167   0.436 -0.2899 -0.0434  0.2746
 2251ntf    fn412697   4.564   4.141   0.640 -0.6729  0.2626 -0.1455
 2251ntf    fn412698   4.728   4.038   0.554 -0.0360  0.7813 -0.0837
 2251ntf    on512699   4.530   3.911   0.349 -0.0703 -0.1841 -0.0705
 2251ntf    on512700   4.509   3.843   0.587 -0.8918 -0.3187 -0.3753
 2251ntf    on512701   4.200   4.099   0.674  0.1241  0.0510 -0.2670
 2251ntf    on512702   4.193   3.862   0.620 -0.7828  0.2271 -0.0804
 2251ntf    fn412703   4.081   3.912   0.379  0.0272  0.2558 -0.0060
 2251ntf    fn412704   3.977   4.050   0.505  0.1810 -0.2347  0.1474
 2251ntf    fn412705   4.134   4.112   0.367  0.4488  0.0890 -0.0172
 2252ntf    cn112706   1.293   6.358   0.143  0.0335 -0.2146 -0.2009
 2252ntf    sn212707   1.437   6.248   0.162  0.2336  0.0837  0.0071
 2252ntf    nn312708   1.502   6.322   0.284  0.3644 -0.2202  0.1216
 2252ntf    sn212709   1.629   6.413   0.276 -0.1608  0.4952 -0.1645
 2252ntf    cn112710   1.766   6.308   0.222 -0.1727  0.3100  0.1643
 2252ntf    fn412711   1.221   6.313   0.042  0.4561 -0.3575 -0.4430
 2252ntf    fn412712   1.213   6.357   0.248 -0.3689 -0.3269 -0.5052
 2252ntf    fn412713   1.325   6.482   0.109 -0.0697 -0.0944  0.1422
 2252ntf    on512714   1.380   6.120   0.195 -0.0655  0.3198  0.4061
 2252ntf    on512715   1.500   6.268   0.034 -0.2792  0.1170 -0.2432
 2252ntf    on512716   1.653   6.461   0.411 -0.1770 -0.2042  0.0881
 2252ntf    on512717   1.621   6.521   0.180 -0.0925  0.6359 -0.0131
 2252ntf    fn412718   1.737   6.236   0.115  0.6065  0.7220 -0.3322
 2252ntf    fn412719   1.872   6.384   0.199 -0.2462  0.2413 -0.3946
 2252ntf    fn412720   1.804   6.225   0.318 -0.2391  0.3628  0.2358
 2253ntf    cn112721   2.819   2.925   2.147 -0.0057 -0.0658 -0.3690
 2253ntf    sn212722   2.722   2.897   2.298  0.2042  0.2168 -0.1796
 2253ntf    nn312723   2.835   2.872   2.405  0.1544  0.2350 -0.1226
 2253ntf    sn212724   2.870   2.946   2.539  0.0431  0.0359  0.0169
 2253ntf    cn112725   2.798   2.845   2.671 -0.4988  0.1903 -0.1559
 2253ntf    fn412726   2.888   3.038   2.149 -0.0571 -0.0432  0.3778
 2253ntf    fn412727   2.892   2.817   2.124  0.4104  0.0422  0.3908
 2253ntf    fn412728   2.732   2.928   2.048 -0.1764 -0.1792 -0.2213
 2253ntf    on512729   2.651   3.021   2.308  0.5119  0.3672  0.1503
 2253ntf    on512730   2.636   2.785   2.270  0.3079  0.1172 -0.1022
 2253ntf    on512731   2.807   3.075   2.558  0.0631 -0.0504  0.6877
 2253ntf    on512732   3.011   2.937   2.564  0.0890  0.6689  0.0114
 2253ntf    fn412733   2.820   2.905   2.787  0.3683  0.3390 -0.3909
 2253ntf    fn412734   2.666   2.830   2.664 -0.4946  0.1257 -0.1042
 2253ntf    fn412735   2.850   2.724   2.688  0.1742  0.4727 -0.1985
 2254ntf    cn112736   0.296   0.583   4.836  0.0390  0.2145 -0.3932
 2254ntf    sn212737   0.269   0.408   4.876 -0.2599  0.2924 -0.2460
 2254ntf    nn312738   0.272   0.336   4.737 -0.3323 -0.1932 -0.0025
 2254ntf    sn212739   0.398   0.338   4.644 -0.1071 -0.0693  0.3057
 2254ntf    cn112740   0.436   0.161   4.630  0.1745  0.0179 -0.0518
 2254ntf    fn412741   0.211   0.627   4.745  0.2780  0.7451 -0.3631
 2254ntf    fn412742   0.285   0.656   4.946 -0.3322 -0.8082  0.2607
 2254ntf    fn412743   0.417   0.610   4.790  0.3511 -0.2524  0.1322
 2254ntf    on512744   0.371   0.380   4.975  0.0848 -0.3625 -0.7775
 2254ntf    on512745   0.133   0.409   4.923 -0.1830  0.1773 -0.0196
 2254ntf    on512746   0.522   0.385   4.701  0.1136 -0.6415  0.3084
 2254ntf    on512747   0.361   0.380   4.511 -0.0261  0.0165  0.3102
 2254ntf    fn412748   0.447   0.108   4.751  0.3211 -0.7591 -0.3962
 2254ntf    fn412749   0.330   0.100   4.579  0.1491  0.1987 -0.2168
 2254ntf    fn412750   0.544   0.136   4.557  0.3642 -0.6234  0.4433
 2255ntf    cn112751   3.417   5.786   4.477 -0.1230  0.0283 -0.2301
 2255ntf    sn212752   3.573   5.836   4.398  0.0437 -0.0996  0.0171
 2255ntf    nn312753   3.675   5.775   4.501 -0.0987 -0.1888  0.1076
 2255ntf    sn212754   3.788   5.838   4.591 -0.0528  0.0199 -0.0932
 2255ntf    cn112755   3.922   5.769   4.490 -0.3095 -0.1797 -0.3004
 2255ntf    fn412756   3.409   5.817   4.606 -0.9019 -0.3678 -0.1753
 2255ntf    fn412757   3.308   5.825   4.412 -0.2761 -0.4224 -0.2472
 2255ntf    fn412758   3.401   5.655   4.483 -0.5460  0.0816 -0.1320
 2255ntf    on512759   3.563   5.766   4.273  0.1003  0.6039 -0.3818
 2255ntf    on512760   3.568   5.980   4.394 -0.2361 -0.1215 -0.4243
 2255ntf    on512761   3.798   5.769   4.717 -0.7424 -0.0658 -0.0804
 2255ntf    on512762   3.812   5.980   4.587  0.2613 -0.0207  0.2960
 2255ntf    fn412763   4.041   5.807   4.534 -0.2025 -0.5132 -0.2963
 2255ntf    fn412764   3.925   5.638   4.504 -0.2022 -0.1593 -0.1259
 2255ntf    fn412765   3.914   5.806   4.363 -0.1130  0.2353 -0.1949
 2256ntf    cn112766   0.201   6.673   2.344 -0.4719  0.0992 -0.2905
 2256ntf    sn212767   0.359   6.617   2.272 -0.2477  0.1750  0.1390
 2256ntf    nn312768   0.390   6.729   2.167  0.3478 -0.2812 -0.1729
 2256ntf    sn212769   0.462   6.867   2.185 -0.1179 -0.0951  0.2726
 2256ntf    cn112770   0.633   6.821   2.143 -0.0412  0.2953  0.1507
 2256ntf    fn412771   0.166   6.604   2.451 -0.1829  0.5197  0.0805
 2256ntf    fn412772   0.201   6.797   2.390  0.9447  0.0663 -0.1433
 2256ntf    fn412773   0.096   6.659   2.265 -0.4870 -0.0685 -0.2430
 2256ntf    on512774   0.452   6.601   2.381 -0.3713 -0.1658  0.1968
 2256ntf    on512775   0.317   6.494   2.209  0.1096  0.0414  0.1564
 2256ntf    on512776   0.481   6.917   2.319  0.1914  0.6359 -0.0360
 2256ntf    on512777   0.421   6.966   2.089  0.8033 -0.4545 -0.5084
 2256ntf    fn412778   0.718   6.922   2.135 -0.3406  0.5086 -0.3997
 2256ntf    fn412779   0.684   6.729   2.223  0.3843 -0.0639 -0.5193
 2256ntf    fn412780   0.635   6.771   2.020 -0.0480  0.2171  0.1820
 2257ntf    cn112781   3.200   4.516   6.673  0.3434 -0.1210  0.3830
 2257ntf    sn212782   3.219   4.386   6.548 -0.1998  0.0617  0.1069
 2257ntf    nn312783   3.370   4.403   6.507 -0.1802 -0.0400  0.1370
 2257ntf    sn212784   3.460   4.304   6.425  0.0974  0.2622  0.0706
 2257ntf    cn112785   3.558   4.212   6.547 -0.1742  0.0154  0.1076
 2257ntf    fn412786   3.309   4.533   6.747  0.1562  0.1232  0.6064
 2257ntf    fn412787   3.176   4.632   6.615  0.1134 -0.2737  0.1724
 2257ntf    fn412788   3.101   4.501   6.759  0.2163  0.1965  0.2943
 2257ntf    on512789   3.186   4.264   6.616  0.5331 -0.2433 -0.0729
 2257ntf    on512790   3.131   4.427   6.442  0.1004 -0.2968 -0.2851
 2257ntf    on512791   3.564   4.373   6.353  0.1239 -0.2243 -0.3676
 2257ntf    on512792   3.387   4.207   6.347  0.5464  0.2066 -0.2835
 2257ntf    fn412793   3.507   4.184   6.666 -0.0466 -0.5705  0.0251
 2257ntf    fn412794   3.592   4.094   6.497 -0.3407  0.1113 -0.2311
 2257ntf    fn412795   3.677   4.269   6.565 -0.3159  0.2773  0.2247
 2258ntf    cn112796   3.003   2.582   3.391 -0.3749  0.0223 -0.6766
 2258ntf    sn212797   3.005   2.406   3.348  0.3053 -0.1579  0.0682
 2258ntf    nn312798   2.986   2.422   3.193  0.5915 -0.1162  0.0380
 2258ntf    sn212799   3.065   2.349   3.078  0.2500 -0.1745 -0.1602
 2258ntf    cn112800   3.172   2.485   3.021 -0.1701  0.2709  0.1099
 2258ntf    fn412801   3.087   2.646   3.311  0.1858 -0.5864 -0.5806
 2258ntf    fn412802   2.888   2.643   3.367 -0.5516 -0.1825 -0.3443
 2258ntf    fn412803   3.035   2.605   3.517 -0.2004  0.0642 -0.7284
 2258ntf    on512804   3.129   2.358   3.403  0.4821 -0.1344 -0.3072
 2258ntf    on512805   2.879   2.361   3.402 -0.1407  0.3692 -0.5187
 2258ntf    on512806   2.964   2.320   2.979 -0.1035 -0.2098  0.2102
 2258ntf    on512807   3.157   2.245   3.114  0.2331 -0.0977  0.1096
 2258ntf    fn412808   3.098   2.561   2.942 -0.1399  0.7937  0.5782
 2258ntf    fn412809   3.214   2.560   3.122 -0.1609  0.3504  0.0477
 2258ntf    fn412810   3.273   2.443   2.947 -0.3307  0.1096 -0.0182
 2259ntf    cn112811   3.610   3.103   2.749 -0.0251 -0.4922 -0.0360
 2259ntf    sn212812   3.599   3.135   2.570  0.2330  0.1255  0.0571
 2259ntf    nn312813   3.470   3.224   2.563  0.1033 -0.0231  0.5220
 2259ntf    sn212814   3.470   3.381   2.568 -0.0465 -0.0021 -0.0551
 2259ntf    cn112815   3.508   3.424   2.396  0.0543 -0.0322 -0.0398
 2259ntf    fn412816   3.666   3.203   2.815 -0.6338 -0.1203 -0.0672
 2259ntf    fn412817   3.491   3.078   2.800 -0.0564  0.1946  0.2425
 2259ntf    fn412818   3.684   2.994   2.756  0.9729  0.1627 -0.2263
 2259ntf    on512819   3.724   3.199   2.534  0.1434  0.6328  0.6175
 2259ntf    on512820   3.569   3.004   2.518 -0.4811  0.3604 -0.1303
 2259ntf    on512821   3.571   3.435   2.655 -0.0544 -0.0878  0.0073
 2259ntf    on512822   3.334   3.425   2.590  0.2392  0.6064  0.5332
 2259ntf    fn412823   3.512   3.317   2.318  0.8382  0.2266 -0.3722
 2259ntf    fn412824   3.420   3.504   2.339  0.4309  0.0938 -0.4570
 2259ntf    fn412825   3.630   3.475   2.391  0.1213 -0.1674  0.2241
 2260ntf    cn112826   1.637   2.628   6.288 -0.2069 -0.0143 -0.1441
 2260ntf    sn212827   1.485   2.552   6.222 -0.1034 -0.2166 -0.1520
 2260ntf    nn312828   1.395   2.559   6.351 -0.4305 -0.5643 -0.3605
 2260ntf    sn212829   1.282   2.661   6.389  0.0591 -0.1453 -0.0097
 2260ntf    cn112830   1.145   2.602   6.285 -0.1102  0.0686  0.0921
 2260ntf    fn412831   1.618   2.706   6.393  0.1915 -0.2568  0.1114
 2260ntf    fn412832   1.726   2.540   6.330 -0.1696  0.1944  0.2151
 2260ntf    fn412833   1.700   2.702   6.198 -0.2667 -0.1061 -0.2621
 2260ntf    on512834   1.439   2.635   6.114  0.5798 -0.5511 -0.7089
 2260ntf    on512835   1.523   2.417   6.192 -0.8349 -0.4455 -0.0503
 2260ntf    on512836   1.307   2.799   6.358  0.3211 -0.1278  0.2793
 2260ntf    on512837   1.232   2.630   6.520 -0.2111 -0.3948 -0.1700
 2260ntf    fn412838   1.091   2.491   6.333  0.2376 -0.0499  0.2108
 2260ntf    fn412839   1.050   2.692   6.270 -0.2293 -0.1216 -0.2994
 2260ntf    fn412840   1.188   2.568   6.165  0.2144 -0.1470  0.2649
 2261ntf    cn112841   2.143   1.971   3.357  0.1541 -0.4319 -0.1306
 2261ntf    sn212842   2.316   1.937   3.311  0.1926 -0.2837 -0.0944
 2261ntf    nn312843   2.330   1.791   3.367 -0.1235 -0.0507  0.6098
 2261ntf    sn212844   2.439   1.684   3.333 -0.2756  0.0499 -0.1995
 2261ntf    cn112845   2.536   1.697   3.486 -0.4541  0.2405 -0.1037
 2261ntf    fn412846   2.107   1.967   3.485 -0.3165  0.0960 -0.2447
 2261ntf    fn412847   2.106   2.091   3.317  0.3737 -0.5275 -0.6224
 2261ntf    fn412848   2.063   1.887   3.293  0.6144 -0.2826 -0.9132
 2261ntf    on512849   2.308   1.946   3.168  0.4249  0.2326 -0.0788
 2261ntf    on512850   2.373   2.045   3.388 -0.6963  0.5503 -0.5817
 2261ntf    on512851   2.541   1.715   3.235  0.1987  0.4782  0.4235
 2261ntf    on512852   2.387   1.549   3.337 -0.5308  0.1428 -0.3869
 2261ntf    fn412853   2.605   1.588   3.514  0.0776  0.6614  0.2375
 2261ntf    fn412854   2.628   1.793   3.480  0.0009 -0.1751  0.1498
 2261ntf    fn412855   2.458   1.734   3.586 -0.1487 -0.3254  0.3472
 2262ntf    cn112856   2.169   1.003   2.623  0.1931 -0.4793 -0.4046
 2262ntf    sn212857   2.115   1.175   2.649 -0.0502 -0.5964 -0.1195
 2262ntf    nn312858   2.001   1.185   2.542 -0.1010 -0.3511 -0.0422
 2262ntf    sn212859   2.005   1.251   2.400  0.1979  0.0608  0.1562
 2262ntf    cn112860   1.993   1.428   2.438  0.4969  0.1691 -0.2401
 2262ntf    fn412861   2.278   0.975   2.693  0.2692  0.2246 -0.2343
 2262ntf    fn412862   2.080   0.916   2.670  0.0115  0.0202  0.1978
 2262ntf    fn412863   2.178   0.978   2.494 -0.2609 -0.5375 -0.4295
 2262ntf    on512864   2.056   1.175   2.781  0.4802  0.2328  0.1262
 2262ntf    on512865   2.233   1.255   2.625  0.1529 -0.8538  0.0161
 2262ntf    on512866   1.881   1.227   2.331  0.1117 -0.2964  0.4323
 2262ntf    on512867   2.126   1.235   2.323 -0.0031  0.2523 -0.2056
 2262ntf    fn412868   2.104   1.475   2.492  0.2794  0.1474  0.2349
 2262ntf    fn412869   1.975   1.502   2.330 -0.0849 -0.1158 -0.3413
 2262ntf    fn412870   1.896   1.450   2.526  0.5060 -0.0477 -0.1763
 2263ntf    cn112871   6.285   2.299   1.686 -0.3590 -0.2685 -0.1711
 2263ntf    sn212872   6.282   2.153   1.578  0.0267 -0.4237  0.0277
 2263ntf    nn312873   6.238   2.210   1.439 -0.5591 -0.1360  0.3273
 2263ntf    sn212874   6.196   2.132   1.310  0.2192  0.0637 -0.0548
 2263ntf    cn112875   6.015   2.119   1.330  0.2300  0.0009 -0.0007
 2263ntf    fn412876   6.388   2.378   1.661 -0.2291 -0.3986 -0.0443
 2263ntf    fn412877   6.178   2.378   1.684 -0.0538  0.1883  0.7415
 2263ntf    fn412878   6.295   2.255   1.811 -0.2918 -0.4895 -0.2543
 2263ntf    on512879   6.421   2.117   1.586  0.0930 -0.3283 -0.6481
 2263ntf    on512880   6.182   2.069   1.639 -0.1513 -0.1787  0.0751
 2263ntf    on512881   6.237   1.994   1.304 -0.1481 -0.0623  0.2444
 2263ntf    on512882   6.215   2.214   1.193  0.8157 -0.1189 -0.0893
 2263ntf    fn412883   5.962   2.044   1.235 -0.3031  0.1637  0.1669
 2263ntf    fn412884   5.977   2.062   1.443 -0.4644  0.1943 -0.1363
 2263ntf    fn412885   5.954   2.236   1.322 -0.3080 -0.2935 -0.2714
 2264ntf    cn112886   0.607   2.018   5.267  0.2667 -0.4026 -0.2478
 2264ntf    sn212887   0.583   1.848   5.206  0.0887 -0.3741 -0.2569
 2264ntf    nn312888   0.504   1.776   5.321 -0.2044  0.7503  0.2645
 2264ntf    sn212889   0.354   1.732   5.328 -0.0157 -0.0313 -0.4682
 2264ntf    cn112890   0.329   1.735   5.508 -0.4379  0.0282 -0.5262
 2264ntf    fn412891   0.493   2.081   5.293  0.4055 -0.0877 -0.3947
 2264ntf    fn412892   0.695   2.032   5.364 -0.1007 -1.0609  0.1839
 2264ntf    fn412893   0.655   2.090   5.167  0.5110 -0.3097 -0.0640
 2264ntf    on512894   0.508   1.859   5.083  0.2495 -1.1113 -0.4240
 2264ntf    on512895   0.720   1.808   5.193  0.0986 -0.3416 -0.2537
 2264ntf    on512896   0.323   1.596   5.291 -0.2230 -0.2581  0.5175
 2264ntf    on512897   0.269   1.837   5.279 -0.9517 -0.3741  0.3806
 2264ntf    fn412898   0.202   1.735   5.547 -0.3491 -0.0471 -0.2338
 2264ntf    fn412899   0.387   1.635   5.572 -0.2931  0.4907  0.0774
 2264ntf    fn412900   0.384   1.842   5.562 -0.4616 -0.0155 -0.4158
 2265ntf    cn112901   0.800   2.561   3.158 -0.3823 -0.1062  0.2538
 2265ntf    sn212902   0.831   2.405   3.247  0.1603  0.0273  0.3008
 2265ntf    nn312903   0.713   2.408   3.350 -0.4861 -0.3412 -0.4149
 2265ntf    sn212904   0.612   2.301   3.404 -0.2404 -0.3724 -0.0142
 2265ntf    cn112905   0.699   2.225   3.545 -0.1373 -0.0028  0.1208
 2265ntf    fn412906   0.805   2.668   3.236  0.6035 -0.0216  0.0879
 2265ntf    fn412907   0.892   2.589   3.068 -0.1635  0.2873  0.5949
 2265ntf    fn412908   0.684   2.574   3.096 -0.3014  0.3365  0.1936
 2265ntf    on512909   0.823   2.297   3.151  0.3108  0.2937 -0.0131
 2265ntf    on512910   0.955   2.429   3.316  0.2361 -0.0491  0.1924
 2265ntf    on512911   0.582   2.191   3.316  0.3754 -0.5784  0.0219
 2265ntf    on512912   0.496   2.357   3.469  0.3884  0.3926  0.4686
 2265ntf    fn412913   0.639   2.120   3.599 -0.2609 -0.0720 -0.1516
 2265ntf    fn412914   0.810   2.168   3.503 -0.2912 -0.2006 -0.0209
 2265ntf    fn412915   0.736   2.315   3.635  0.9145 -0.2288 -0.0774
 2266ntf    cn112916   3.059   5.848   0.120 -0.1378 -0.0955 -0.4464
 2266ntf    sn212917   3.135   5.995   0.196 -0.2088 -0.1887 -0.1938
 2266ntf    nn312918   3.284   5.951   0.177 -0.0624  0.1427  0.1873
 2266ntf    sn212919   3.376   5.870   0.275  0.1603  0.3195  0.1258
 2266ntf    cn112920   3.443   5.999   0.384 -0.2932  0.4543  0.2454
 2266ntf    fn412921   3.071   5.857  -0.012  0.7020 -0.4531 -0.3978
 2266ntf    fn412922   3.118   5.737   0.160 -0.2940  0.0568  0.2172
 2266ntf    fn412923   2.929   5.836   0.142 -0.0085 -0.1358  0.3207
 2266ntf    on512924   3.108   6.105   0.106  0.1190 -0.0361 -0.1032
 2266ntf    on512925   3.089   6.008   0.332  0.0128 -0.1959 -0.1192
 2266ntf    on512926   3.493   5.825   0.204  0.2451  0.2714  0.2953
 2266ntf    on512927   3.305   5.771   0.352  0.3423 -0.4325 -0.6562
 2266ntf    fn412928   3.351   6.076   0.440 -0.3244  0.5763  0.0260
 2266ntf    fn412929   3.519   5.953   0.482  0.0223  0.2258 -0.1049
 2266ntf    fn412930   3.517   6.082   0.313 -0.2301  0.3643  0.2052
 2267ntf    cn112931   6.915   5.611   5.473 -0.0339  0.2266 -0.4395
 2267ntf    sn212932   6.962   5.485   5.351 -0.0598 -0.0497 -0.1671
 2267ntf    nn312933   6.896   5.355   5.408  0.0752  0.0012  0.1061
 2267ntf    sn212934   6.759   5.286   5.373  0.0425  0.1140  0.0139
 2267ntf    cn112935   6.685   5.281   5.539 -0.4210 -0.3596 -0.2053
 2267ntf    fn412936   6.973   5.727   5.445  0.3185  0.2372  0.2975
 2267ntf    fn412937   6.786   5.634   5.456 -0.1936 -0.0690  0.3260
 2267ntf    fn412938   6.931   5.574   5.599 -0.2037  0.5100 -0.3344
 2267ntf    on512939   6.903   5.522   5.225 -0.1049 -0.8057 -0.3719
 2267ntf    on512940   7.105   5.493   5.368 -0.2072 -0.1170  1.2014
 2267ntf    on512941   6.763   5.143   5.358  0.3661  0.1187  0.0483
 2267ntf    on512942   6.661   5.359   5.295 -0.4347 -0.6224 -0.0789
 2267ntf    fn412943   6.723   5.187   5.624 -0.0953 -0.0123  0.0372
 2267ntf    fn412944   6.683   5.397   5.602 -0.2557 -0.4537 -0.0266
 2267ntf    fn412945   6.555   5.261   5.525 -0.5448  0.3232 -0.0729
 2268ntf    cn112946   1.800   5.684   6.304  0.1501  0.0173  0.0305
 2268ntf    sn212947   1.799   5.699   6.485 -0.5193  0.3450  0.0039
 2268ntf    nn312948   1.850   5.555   6.518 -0.2823  0.5195  0.4151
 2268ntf    sn212949   1.759   5.428   6.535 -0.0696  0.3219  0.0827
 2268ntf    cn112950   1.866   5.286   6.495 -0.4288  0.2119 -0.5001
 2268ntf    fn412951   1.905   5.624   6.250  0.0586  0.1997 -0.3560
 2268ntf    fn412952   1.695   5.624   6.250  0.2279 -0.0764 -0.0156
 2268ntf    fn412953   1.802   5.804   6.248  0.1688  0.0164  0.0291
 2268ntf    on512954   1.903   5.794   6.519  0.1128 -0.3189 -0.0441
 2268ntf    on512955   1.664   5.729   6.525 -0.3381  0.3106  0.6540
 2268ntf    on512956   1.656   5.425   6.433  0.3179  0.0374 -0.3058
 2268ntf    on512957   1.728   5.403   6.673 -0.8342  0.6733 -0.0211
 2268ntf    fn412958   1.977   5.280   6.566 -0.4505  0.6340 -0.4278
 2268ntf    fn412959   1.799   5.175   6.520  0.1554 -0.0629 -0.1376
 2268ntf    fn412960   1.909   5.268   6.371  0.8298 -0.3637  0.0049
 2269ntf    cn112961   1.399   6.100   2.117 -0.1644 -0.1748 -0.2933
 2269ntf    sn212962   1.279   6.231   2.156  0.0340 -0.0135 -0.2284
 2269ntf    nn312963   1.257   6.296   2.014 -0.1217  0.1841 -0.1144
 2269ntf    sn212964   1.370   6.367   1.931  0.2537 -0.0662  0.1790
 2269ntf    cn112965   1.281   6.524   1.910 -0.0896 -0.3357 -0.3951
 2269ntf    fn412966   1.396   6.002   2.207  0.1809  0.2550  0.1905
 2269ntf    fn412967   1.372   6.040   2.002 -0.4443  0.0686 -0.3557
 2269ntf    fn412968   1.524   6.142   2.112  0.0111 -0.5228  0.7936
 2269ntf    on512969   1.161   6.164   2.205  0.0428 -0.2290 -0.4964
 2269ntf    on512970   1.346   6.314   2.253 -0.3237  0.2350 -0.1928
 2269ntf    on512971   1.372   6.311   1.798 -0.1417  0.2114  0.0548
 2269ntf    on512972   1.491   6.412   1.995  0.5477  0.5068 -0.7684
 2269ntf    fn412973   1.240   6.580   2.022 -0.1466  0.1029 -0.6351
 2269ntf    fn412974   1.347   6.616   1.842 -0.3483  0.5532  0.5480
 2269ntf    fn412975   1.167   6.508   1.844 -0.0054 -0.0029 -0.6240
 2270ntf    cn112976   1.704   4.800   5.615 -0.0958 -0.2809 -0.1960
 2270ntf    sn212977   1.751   4.970   5.571  0.0777 -0.3025 -0.0999
 2270ntf    nn312978   1.881   4.934   5.491 -0.0585  0.1404 -0.5291
 2270ntf    sn212979   2.029   4.936   5.544 -0.1390 -0.1520 -0.2890
 2270ntf    cn112980   2.082   4.767   5.506 -0.0474 -0.2738  0.3713
 2270ntf    fn412981   1.665   4.734   5.508 -0.4324  0.1111 -0.3175
 2270ntf    fn412982   1.809   4.741   5.671  0.1919  0.1780 -0.2427
 2270ntf    fn412983   1.604   4.806   5.701 -0.1783 -0.5889 -0.2724
 2270ntf    on512984   1.638   5.008   5.489  0.1385  0.2116  0.0490
 2270ntf    on512985   1.770   5.055   5.686  0.2764 -0.1764 -0.2251
 2270ntf    on512986   2.048   4.936   5.687 -0.0856  0.1309 -0.2952
 2270ntf    on512987   2.118   5.021   5.468  0.3619 -0.2471  0.1867
 2270ntf    fn412988   1.990   4.674   5.526 -0.1941 -0.3659 -0.6375
 2270ntf    fn412989   2.130   4.759   5.382  0.2221  0.2131  0.4438
 2270ntf    fn412990   2.178   4.736   5.592  0.4595  0.2123 -0.0144
 2271ntf    cn112991   5.380   1.763   2.408  0.0569  0.3883  0.0338
 2271ntf    sn212992   5.512   1.862   2.330 -0.0350  0.3907 -0.1168
 2271ntf    nn312993   5.423   1.961   2.246 -0.3399  0.3527  0.1590
 2271ntf    sn212994   5.457   2.019   2.104  0.3884 -0.0265  0.1758
 2271ntf    cn112995   5.483   2.190   2.160 -0.0708  0.1041 -0.0113
 2271ntf    fn412996   5.289   1.720   2.324  0.3760 -0.2546  0.0158
 2271ntf    fn412997   5.428   1.656   2.470 -0.7735 -0.2951 -0.4950
 2271ntf    fn412998   5.311   1.841   2.490 -0.1697 -0.2790  0.4814
 2271ntf    on512999   5.573   1.923   2.445 -0.1466  0.3590 -0.0400
 2271ntf    on513000   5.584   1.763   2.253  0.4356  0.7804 -0.1792
 2271ntf    on513001   5.346   2.031   2.014  0.4682 -0.3380  0.0329
 2271ntf    on513002   5.586   1.980   2.051  0.0141 -0.5284 -0.3777
 2271ntf    fn413003   5.531   2.266   2.064 -0.0147 -0.0387 -0.0972
 2271ntf    fn413004   5.371   2.241   2.208 -0.0341 -0.1814  0.3840
 2271ntf    fn413005   5.572   2.194   2.257 -0.4093 -0.1983  0.3142
 2272ntf    cn113006   6.779   0.385   2.804 -0.0656 -0.2070  0.2426
 2272ntf    sn213007   6.861   0.510   2.701 -0.3074 -0.1625  0.1036
 2272ntf    nn313008   6.837   0.440   2.562  0.2304  0.2267 -0.1882
 2272ntf    sn213009   6.787   0.499   2.426 -0.3140 -0.0235 -0.0954
 2272ntf    cn113010   6.607   0.495   2.454 -0.2803 -0.0118  0.1197
 2272ntf    fn413011   6.824   0.263   2.780  0.2375 -0.0406 -0.0446
 2272ntf    fn413012   6.797   0.405   2.933  0.5470 -0.4323  0.1982
 2272ntf    fn413013   6.649   0.394   2.783  0.0053  0.0335 -0.1079
 2272ntf    on513014   6.794   0.637   2.715 -0.8489 -0.4186 -0.1541
 2272ntf    on513015   6.998   0.500   2.746 -0.1668 -0.1101 -0.3065
 2272ntf    on513016   6.798   0.410   2.313  0.3219  0.4107 -0.3741
 2272ntf    on513017   6.824   0.636   2.401 -0.0042 -0.1439 -0.3024
 2272ntf    fn413018   6.579   0.530   2.579  0.3475  0.0816  0.2406
 2272ntf    fn413019   6.546   0.573   2.367  0.4706  0.3565 -0.0871
 2272ntf    fn413020   6.558   0.374   2.433 -0.0704 -0.0625 -0.0885
 2273ntf    cn113021   2.244   2.652   4.778 -0.0471 -0.1834 -0.8220
 2273ntf    sn213022   2.411   2.603   4.725  0.1978  0.2109 -0.4220
 2273ntf    nn313023   2.379   2.602   4.571  0.0149 -0.3987 -0.3811
 2273ntf    sn213024   2.460   2.539   4.452  0.0269 -0.4270 -0.3582
 2273ntf    cn113025   2.380   2.376   4.442  0.0104 -0.4059 -0.5633
 2273ntf    fn413026   2.156   2.555   4.759 -0.0126 -0.5570  0.7489
 2273ntf    fn413027   2.228   2.690   4.904  0.2496 -0.2230 -0.7710
 2273ntf    fn413028   2.205   2.758   4.710 -0.6831  0.1890  0.1123
 2273ntf    on513029   2.495   2.709   4.774  0.1589  0.1433 -0.2104
 2273ntf    on513030   2.425   2.473   4.785 -0.0389  0.1222 -0.5567
 2273ntf    on513031   2.599   2.511   4.479 -0.0598 -0.2148  0.3477
 2273ntf    on513032   2.411   2.596   4.330  0.2186 -0.6709 -0.5502
 2273ntf    fn413033   2.399   2.313   4.557 -0.5027  0.0236 -0.2333
 2273ntf    fn413034   2.249   2.388   4.424 -0.0908 -0.1953  0.2502
 2273ntf    fn413035   2.428   2.293   4.352  0.0109 -0.2350 -0.7220
 2274ntf    cn113036   0.237   0.465   0.468  0.4263 -0.0137 -0.0067
 2274ntf    sn213037   0.061   0.473   0.514  0.4814  0.0649  0.1951
 2274ntf    nn313038   0.052   0.620   0.568  0.1977  0.0539  0.1764
 2274ntf    sn213039   0.026   0.660   0.718 -0.1212 -0.1354  0.1721
 2274ntf    cn113040   0.195   0.709   0.760 -0.0368 -0.3779  0.1180
 2274ntf    fn413041   0.317   0.449   0.573  0.7413 -0.1808 -0.2691
 2274ntf    fn413042   0.268   0.358   0.397  0.1429 -0.3082  0.3109
 2274ntf    fn413043   0.282   0.564   0.394  0.0585  0.0737 -0.1131
 2274ntf    on513044  -0.014   0.482   0.391 -0.4159  0.0779  0.7369
 2274ntf    on513045   0.036   0.367   0.608 -0.1024  0.0156 -0.0140
 2274ntf    on513046   0.001   0.558   0.816  0.3890 -0.1168  0.3228
 2274ntf    on513047  -0.046   0.785   0.726 -0.5158 -0.3474 -0.0349
 2274ntf    fn413048   0.284   0.611   0.756  0.1600 -0.1828 -0.5053
 2274ntf    fn413049   0.248   0.789   0.668 -0.1081  0.0952  0.4822
 2274ntf    fn413050   0.216   0.761   0.880 -0.0161  0.0684 -0.0740
 2275ntf    cn113051   1.967   4.953   4.249 -0.3232 -0.5159 -0.2086
 2275ntf    sn213052   2.120   4.866   4.294 -0.0023 -0.0331 -0.3660
 2275ntf    nn313053   2.132   4.890   4.449 -0.7926 -0.0853 -0.2929
 2275ntf    sn213054   2.060   4.816   4.567 -0.3168 -0.0290  0.0351
 2275ntf    cn113055   2.003   4.970   4.646 -0.1030 -0.0218  0.1762
 2275ntf    fn413056   1.928   4.926   4.125  0.2423 -0.0589 -0.4884
 2275ntf    fn413057   1.863   4.909   4.318 -0.4484  0.9080  0.5426
 2275ntf    fn413058   1.976   5.084   4.257 -0.3074 -0.5188 -0.1766
 2275ntf    on513059   2.113   4.727   4.258  0.2981 -0.2031  0.2281
 2275ntf    on513060   2.218   4.938   4.217 -0.2212  0.2904 -0.3436
 2275ntf    on513061   2.144   4.748   4.662 -0.2550 -0.1099 -0.0786
 2275ntf    on513062   1.947   4.739   4.522 -0.1448  0.1382 -0.7054
 2275ntf    fn413063   1.942   4.950   4.762  0.4798  0.4832  0.5781
 2275ntf    fn413064   2.103   5.054   4.665  0.0340  0.0157 -0.6761
 2275ntf    fn413065   1.912   5.030   4.571 -0.3470 -0.2545  0.2832
 2276ntf    cn113066   2.247   6.928   2.365 -0.2657 -0.6504  0.3065
 2276ntf    sn213067   2.095   6.832   2.393 -0.5018 -0.4928 -0.4013
 2276ntf    nn313068   2.126   6.765   2.531 -0.3018 -0.0039 -0.2092
 2276ntf    sn213069   2.018   6.695   2.620 -0.0114  0.0354  0.1805
 2276ntf    cn113070   1.892   6.824   2.641 -0.1513 -0.0296 -0.2435
 2276ntf    fn413071   2.240   6.988   2.247  0.1349  0.0004  0.6056
 2276ntf    fn413072   2.271   7.024   2.453 -0.0906 -0.2582 -0.1595
 2276ntf    fn413073   2.357   6.855   2.367  0.2640  0.1195  0.0026
 2276ntf    on513074   1.998   6.938   2.402  0.0963  0.0755 -0.5613
 2276ntf    on513075   2.081   6.745   2.279  0.8721 -0.4237 -0.6445
 2276ntf    on513076   2.060   6.663   2.754  0.0308 -0.2912  0.0903
 2276ntf    on513077   1.941   6.592   2.555  0.3367  0.1540 -0.4240
 2276ntf    fn413078   1.825   6.797   2.752  0.9712  0.4524  0.5804
 2276ntf    fn413079   1.957   6.939   2.657 -0.2223  0.0553 -0.5656
 2276ntf    fn413080   1.808   6.845   2.541 -0.2770 -0.0752 -0.1486
 2277ntf    cn113081   5.659   0.352   2.277 -0.3583  0.0219  0.1579
 2277ntf    sn213082   5.638   0.289   2.446  0.2634 -0.1872  0.1589
 2277ntf    nn313083   5.700   0.145   2.429  0.7005  0.0068  0.0921
 2277ntf    sn213084   5.751   0.045   2.538 -0.1677 -0.0974  0.4090
 2277ntf    cn113085   5.638  -0.092   2.499 -0.3097  0.1024  0.1198
 2277ntf    fn413086   5.787   0.380   2.254 -0.2025 -0.2784  0.6369
 2277ntf    fn413087   5.613   0.266   2.188  0.0044  0.3819 -0.3876
 2277ntf    fn413088   5.598   0.468   2.260  0.7860  0.6042 -0.1501
 2277ntf    on513089   5.704   0.381   2.536 -0.0122  0.2667 -0.1029
 2277ntf    on513090   5.494   0.283   2.448  0.2564 -0.2774 -0.3761
 2277ntf    on513091   5.720   0.080   2.675  0.1420  0.0736  0.4380
 2277ntf    on513092   5.884  -0.006   2.519 -0.0081  0.2729  0.5069
 2277ntf    fn413093   5.669  -0.153   2.385  0.2170 -0.1057  0.3688
 2277ntf    fn413094   5.646  -0.190   2.587  0.3114  0.4924  0.5012
 2277ntf    fn413095   5.513  -0.053   2.482 -0.3095  0.0554  0.0067
 2278ntf    cn113096   0.025   5.919   5.887  0.4309 -0.0232  0.2491
 2278ntf    sn213097   0.053   6.099   5.881  0.0596  0.0339  0.2012
 2278ntf    nn313098   0.175   6.114   5.784 -0.2378  0.2280 -0.1467
 2278ntf    sn213099   0.202   6.237   5.690  0.3498  0.2317  0.0202
 2278ntf    cn113100   0.348   6.308   5.771  0.4504  0.1003 -0.0452
 2278ntf    fn413101  -0.086   5.898   5.956  0.0959  0.6789 -0.0673
 2278ntf    fn413102   0.010   5.864   5.768  0.6219  0.2643  0.0913
 2278ntf    fn413103   0.119   5.851   5.950  0.1845 -0.1935  0.4341
 2278ntf    on513104  -0.074   6.144   5.829  0.0976 -0.0767  0.0128
 2278ntf    on513105   0.084   6.137   6.017  0.1306 -0.1763  0.2447
 2278ntf    on513106   0.110   6.348   5.694 -0.4469 -0.4264  0.3575
 2278ntf    on513107   0.244   6.200   5.557 -0.0697 -0.0883 -0.0243
 2278ntf    fn413108   0.449   6.224   5.790  0.2288 -0.1361  0.0965
 2278ntf    fn413109   0.393   6.417   5.712  0.1457 -0.0443 -0.5472
 2278ntf    fn413110   0.322   6.350   5.894 -0.2115  0.2059 -0.2216
 2279ntf    cn113111   5.863   4.339   4.475  0.4452  0.2556  0.0651
 2279ntf    sn213112   5.878   4.250   4.633  0.2377  0.0444 -0.0350
 2279ntf    nn313113   5.732   4.272   4.687  0.2689 -0.1873  0.1442
 2279ntf    sn213114   5.645   4.149   4.733 -0.2383  0.0812 -0.0867
 2279ntf    cn113115   5.512   4.233   4.824  0.0311  0.2033  0.1942
 2279ntf    fn413116   5.822   4.463   4.495 -0.4243 -0.0004 -0.0892
 2279ntf    fn413117   5.975   4.341   4.403  0.4795  0.0629  0.1126
 2279ntf    fn413118   5.773   4.279   4.400  0.6628 -0.2259  0.1871
 2279ntf    on513119   5.919   4.118   4.594 -0.2914 -0.0543 -0.2681
 2279ntf    on513120   5.967   4.339   4.704 -0.1007  0.4238 -0.0792
 2279ntf    on513121   5.711   4.068   4.832 -0.0883 -0.4293 -0.5960
 2279ntf    on513122   5.564   4.093   4.628 -0.2792 -0.3291  0.1640
 2279ntf    fn413123   5.438   4.144   4.886 -0.3187  0.4207  0.0903
 2279ntf    fn413124   5.560   4.316   4.915 -0.0423 -0.0739  0.4876
 2279ntf    fn413125   5.433   4.308   4.748  0.1009  0.1292  0.0489
 2280ntf    cn113126   2.454   1.473   6.725  0.2791 -0.2968  0.2716
 2280ntf    sn213127   2.354   1.331   6.779  0.1064 -0.1927  0.2247
 2280ntf    nn313128   2.450   1.225   6.715  0.6167  0.4119 -0.0291
 2280ntf    sn213129   2.434   1.130   6.591  0.0081  0.3082  0.1242
 2280ntf    cn113130   2.594   1.046   6.612 -0.3174 -0.3976 -0.1735
 2280ntf    fn413131   2.581   1.458   6.760  0.4732  0.0656 -0.2638
 2280ntf    fn413132   2.456   1.483   6.593  0.1854 -0.0074  0.2899
 2280ntf    fn413133   2.409   1.589   6.770 -0.0440 -0.2448 -0.1849
 2280ntf    on513134   2.352   1.343   6.923  0.0547 -0.4333  0.2444
 2280ntf    on513135   2.226   1.335   6.712  0.3646  0.0768 -0.2582
 2280ntf    on513136   2.461   1.187   6.462  0.3250  0.0582  0.0778
 2280ntf    on513137   2.340   1.021   6.609  0.1989  0.0816 -0.2397
 2280ntf    fn413138   2.697   1.125   6.587 -0.1441 -0.4381  0.3982
 2280ntf    fn413139   2.608   1.003   6.736  0.3654 -0.0370 -0.1194
 2280ntf    fn413140   2.609   0.940   6.534  0.5940 -0.3082 -0.1281
 2281ntf    cn113141   1.049   3.929   0.448  0.0413 -0.2814 -0.2172
 2281ntf    sn213142   1.099   3.847   0.603  0.1351 -0.2886 -0.2513
 2281ntf    nn313143   1.242   3.911   0.616 -0.0591  0.1378 -0.2077
 2281ntf    sn213144   1.371   3.853   0.682 -0.3017 -0.3455 -0.1585
 2281ntf    cn113145   1.436   4.007   0.754  0.1182 -0.3595 -0.4992
 2281ntf    fn413146   0.933   3.885   0.403  0.1742 -0.0539 -0.7939
 2281ntf    fn413147   1.036   4.058   0.472 -0.1834 -0.4110  0.3780
 2281ntf    fn413148   1.143   3.926   0.355 -0.2353  0.0111 -0.5078
 2281ntf    on513149   0.993   3.889   0.690  0.4301 -0.2327  0.0831
 2281ntf    on513150   1.104   3.711   0.555 -0.3222 -0.2513 -0.4064
 2281ntf    on513151   1.474   3.824   0.585  0.0319  0.4503 -0.0473
 2281ntf    on513152   1.349   3.766   0.796  0.3997  0.5765  0.7019
 2281ntf    fn413153   1.491   4.081   0.660  0.0017  0.1484 -0.1696
 2281ntf    fn413154   1.343   4.082   0.811  0.6338 -0.1225  0.0361
 2281ntf    fn413155   1.531   3.973   0.840 -0.0820  0.3559  0.0105
 2282ntf    cn113156   0.753   6.019   1.285 -0.1194 -0.1729  0.1636
 2282ntf    sn213157   0.854   6.000   1.435  0.1935 -0.1676 -0.0463
 2282ntf    nn313158   0.800   6.122   1.517  0.1565  0.2517 -0.6863
 2282ntf    sn213159   0.846   6.191   1.650 -0.1908 -0.6149 -0.1077
 2282ntf    cn113160   0.678   6.216   1.716  0.1298  0.2883  0.3989
 2282ntf    fn413161   0.742   5.914   1.204 -0.4380  0.0106 -0.0331
 2282ntf    fn413162   0.625   6.041   1.311 -0.1483 -0.5053  0.3068
 2282ntf    fn413163   0.785   6.124   1.211 -0.4487 -0.0826  0.1475
 2282ntf    on513164   0.808   5.872   1.482  0.1873 -0.2015 -0.1432
 2282ntf    on513165   0.994   6.007   1.398  0.2341  0.7639  0.2515
 2282ntf    on513166   0.895   6.326   1.631 -0.1267 -0.5103  0.7639
 2282ntf    on513167   0.922   6.108   1.740  0.4228  0.3264  0.2703
 2282ntf    fn413168   0.612   6.101   1.721 -0.0294  0.3683  0.1483
 2282ntf    fn413169   0.678   6.276   1.833 -0.1820  0.4526  0.3150
 2282ntf    fn413170   0.607   6.294   1.637  0.1835 -0.2663 -0.2146
 2283ntf    cn113171   2.497   4.854   6.122  0.0786 -0.4315  0.1182
 2283ntf    sn213172   2.539   5.026   6.162 -0.4773 -0.2579 -0.0363
 2283ntf    nn313173   2.407   5.076   6.230 -0.3441 -0.1007  0.1090
 2283ntf    sn213174   2.313   5.195   6.191  0.2983  0.3386 -0.1122
 2283ntf    cn113175   2.364   5.336   6.294  0.2494  0.2374  0.0511
 2283ntf    fn413176   2.485   4.775   6.228 -0.0275 -0.6713 -0.0712
 2283ntf    fn413177   2.382   4.843   6.057 -0.2861 -0.1822  0.7148
 2283ntf    fn413178   2.588   4.805   6.040 -0.2237 -0.3953 -0.2404
 2283ntf    on513179   2.661   5.020   6.239 -0.3304  0.1546 -0.2336
 2283ntf    on513180   2.559   5.072   6.027  0.1431 -0.6907 -0.0954
 2283ntf    on513181   2.185   5.169   6.254  0.3543  0.6162  0.1209
 2283ntf    on513182   2.314   5.237   6.053  0.8170  0.0762 -0.1882
 2283ntf    fn413183   2.492   5.357   6.271  0.3244  0.2753  0.4996
 2283ntf    fn413184   2.301   5.452   6.278  0.2511  0.2619  0.2158
 2283ntf    fn413185   2.356   5.320   6.425  0.3778  0.3037  0.0667
 2284ntf    cn113186   2.321   2.525   0.536 -0.0373  0.0106  0.2483
 2284ntf    sn213187   2.489   2.523   0.604 -0.0170  0.3094  0.2089
 2284ntf    nn313188   2.477   2.447   0.741  0.2718  0.4663  0.3233
 2284ntf    sn213189   2.448   2.498   0.887 -0.2949  0.1052  0.3407
 2284ntf    cn113190   2.612   2.474   0.960 -0.1790  0.3699  0.1715
 2284ntf    fn413191   2.298   2.426   0.451 -0.8766  0.3367  0.0836
 2284ntf    fn413192   2.231   2.515   0.633 -0.2670 -0.4066 -0.0062
 2284ntf    fn413193   2.289   2.631   0.464  0.0796  0.0221  0.2129
 2284ntf    on513194   2.572   2.455   0.507 -0.4597  0.0514  0.0090
 2284ntf    on513195   2.526   2.659   0.633  0.3044  0.2892 -0.0932
 2284ntf    on513196   2.363   2.401   0.952 -0.4440 -0.3208 -0.4739
 2284ntf    on513197   2.421   2.639   0.900 -0.1557  0.1414  0.2470
 2284ntf    fn413198   2.710   2.523   0.886 -0.2667  0.1172 -0.1143
 2284ntf    fn413199   2.629   2.526   1.081  0.3266 -0.0286  0.2801
 2284ntf    fn413200   2.647   2.347   0.974  0.8228  0.5036 -0.9971
 2285ntf    cn113201   1.432   3.030   4.549  0.1137  0.1227 -0.3221
 2285ntf    sn213202   1.448   2.885   4.441  0.5276 -0.1738  0.1301
 2285ntf    nn313203   1.352   2.923   4.322 -0.5372 -0.4086  0.8943
 2285ntf    sn213204   1.199   2.898   4.299 -0.4429 -0.1279 -0.1136
 2285ntf    cn113205   1.197   2.783   4.158  0.0123 -0.3001  0.0176
 2285ntf    fn413206   1.330   3.017   4.633  0.0691  0.4816 -0.3155
 2285ntf    fn413207   1.541   3.062   4.617  0.2718 -0.4846 -0.2883
 2285ntf    fn413208   1.402   3.142   4.485 -0.0020  0.1586 -0.2060
 2285ntf    on513209   1.587   2.893   4.403  0.5554 -0.3326  0.1994
 2285ntf    on513210   1.409   2.769   4.517  0.4274 -0.2614 -0.0529
 2285ntf    on513211   1.136   3.011   4.237  0.1595  0.2399 -0.0582
 2285ntf    on513212   1.128   2.820   4.398  0.2533 -0.2120  0.3250
 2285ntf    fn413213   1.073   2.749   4.128 -0.3466  0.7995  0.1905
 2285ntf    fn413214   1.246   2.842   4.050 -0.2263 -0.1710 -0.0202
 2285ntf    fn413215   1.271   2.675   4.174 -0.1056 -0.3617  0.1432
 2286ntf    cn113216   5.537   0.688   1.279 -0.0512  0.2390  0.1046
 2286ntf    sn213217   5.696   0.640   1.205 -0.0339 -0.1788  0.4107
 2286ntf    nn313218   5.722   0.506   1.283 -0.5312 -0.2213  0.5050
 2286ntf    sn213219   5.806   0.484   1.414  0.0072 -0.1527  0.1714
 2286ntf    cn113220   5.664   0.489   1.527 -0.0355 -0.4495  0.1328
 2286ntf    fn413221   5.436   0.602   1.283 -0.2817  0.5094  0.1051
 2286ntf    fn413222   5.555   0.719   1.407 -0.1052  0.5791  0.0317
 2286ntf    fn413223   5.489   0.796   1.221 -0.2131  0.1260  0.0276
 2286ntf    on513224   5.666   0.624   1.065  0.2334 -0.1950  0.3542
 2286ntf    on513225   5.787   0.748   1.233 -0.1628  0.1773 -0.5199
 2286ntf    on513226   5.892   0.584   1.472 -0.4641  0.3990 -0.0709
 2286ntf    on513227   5.842   0.346   1.435 -0.2590 -0.2588 -0.0653
 2286ntf    fn413228   5.681   0.423   1.640  0.0204 -0.3213  0.1995
 2286ntf    fn413229   5.638   0.612   1.566  0.2813 -0.1898 -0.4581
 2286ntf    fn413230   5.552   0.446   1.469 -0.2666  0.1658  0.1169
 2287ntf    cn113231   2.838   6.152   6.237  0.3544 -0.3932 -0.0654
 2287ntf    sn213232   2.716   6.031   6.296 -0.0093 -0.1317 -0.2747
 2287ntf    nn313233   2.657   5.996   6.155  0.5628 -0.0767 -0.5295
 2287ntf    sn213234   2.567   5.883   6.094  0.0133  0.1149 -0.0813
 2287ntf    cn113235   2.638   5.888   5.927 -0.2482  0.2998 -0.1877
 2287ntf    fn413236   2.791   6.252   6.164  0.4753 -0.0837  0.2784
 2287ntf    fn413237   2.909   6.213   6.330 -0.0216  0.1003 -0.0960
 2287ntf    fn413238   2.923   6.094   6.155 -0.0436  0.2751 -0.9707
 2287ntf    on513239   2.799   5.925   6.348 -0.6818 -0.5538 -0.0438
 2287ntf    on513240   2.622   6.096   6.384  0.2028 -0.1956 -0.0013
 2287ntf    on513241   2.429   5.924   6.078  0.1311  0.4744 -0.1748
 2287ntf    on513242   2.598   5.750   6.139  0.8734  0.1522 -0.5450
 2287ntf    fn413243   2.586   5.801   5.842 -0.3178  0.1783 -0.0208
 2287ntf    fn413244   2.614   6.005   5.870 -0.7318  0.1068 -0.3915
 2287ntf    fn413245   2.769   5.869   5.930 -0.2374  0.3762 -0.1954
 2288ntf    cn113246   5.361   5.995   2.253  0.3061  0.0687 -0.2368
 2288ntf    sn213247   5.367   6.176   2.243 -0.3157  0.1283  0.4336
 2288ntf    nn313248   5.497   6.192   2.156 -0.2774  0.5526  0.5663
 2288ntf    sn213249   5.650   6.194   2.191 -0.1993  0.1853  0.2456
 2288ntf    cn113250   5.718   6.356   2.146  0.0810 -0.0768 -0.2861
 2288ntf    fn413251   5.478   5.936   2.272  0.3207  0.2497  0.2485
 2288ntf    fn413252   5.289   5.954   2.355  0.2631  0.0002 -0.2945
 2288ntf    fn413253   5.309   5.939   2.145  0.0334  0.1727 -0.1579
 2288ntf    on513254   5.250   6.203   2.165 -0.1071  1.1147  0.4473
 2288ntf    on513255   5.365   6.224   2.379 -0.3341 -0.0368  0.4914
 2288ntf    on513256   5.713   6.095   2.107 -0.5913  0.3254 -0.2191
 2288ntf    on513257   5.676   6.192   2.333 -0.5681  0.5240  0.3215
 2288ntf    fn413258   5.623   6.447   2.124  0.2817  0.1446 -0.2335
 2288ntf    fn413259   5.800   6.408   2.236  0.0417  0.0551 -0.3264
 2288ntf    fn413260   5.779   6.356   2.029 -0.2926  0.0499 -0.4833
 2289ntf    cn113261   4.371   6.481   6.129  0.1815 -0.0470  0.1728
 2289ntf    sn213262   4.311   6.336   6.221  0.0302 -0.0051  0.1413
 2289ntf    nn313263   4.186   6.413   6.277  0.1839 -0.1754  0.7253
 2289ntf    sn213264   4.176   6.499   6.408 -0.5645  0.2140  0.4172
 2289ntf    cn113265   3.998   6.488   6.447 -0.6007 -0.2166  0.1371
 2289ntf    fn413266   4.294   6.522   6.030  0.1604  0.5047  0.4129
 2289ntf    fn413267   4.394   6.579   6.214 -0.4224  0.3759 -0.1430
 2289ntf    fn413268   4.484   6.461   6.063 -0.1263 -0.6004 -0.2006
 2289ntf    on513269   4.270   6.234   6.128  0.0933  0.4776 -0.4277
 2289ntf    on513270   4.414   6.298   6.315 -0.3839 -0.5707  0.3692
 2289ntf    on513271   4.198   6.638   6.377 -0.6558 -0.0165 -0.7027
 2289ntf    on513272   4.241   6.440   6.523 -0.3524  0.1613  0.2706
 2289ntf    fn413273   3.921   6.542   6.355 -0.4077 -0.1635  0.0053
 2289ntf    fn413274   3.955   6.366   6.476 -0.0190 -0.4775 -0.0734
 2289ntf    fn413275   3.969   6.551   6.560 -0.4674 -0.3253  0.2342
 2290ntf    cn113276   6.144   5.661   0.167  0.2777  0.3433 -0.0339
 2290ntf    sn213277   6.081   5.788   0.053 -0.1615  0.0985 -0.0662
 2290ntf    nn313278   6.094   5.913   0.147 -0.9426 -0.0478  0.2420
 2290ntf    sn213279   6.123   6.061   0.106  0.1041 -0.2675  0.1600
 2290ntf    cn113280   6.298   6.064   0.154  0.1269 -0.3236  0.0800
 2290ntf    fn413281   6.260   5.700   0.217  0.3447 -0.0376  0.1108
 2290ntf    fn413282   6.054   5.655   0.263  0.5690 -0.7510  0.1860
 2290ntf    fn413283   6.165   5.541   0.115  0.3167  0.3844 -0.1139
 2290ntf    on513284   6.180   5.780  -0.052  0.0503  0.1260  0.1311
 2290ntf    on513285   5.944   5.754   0.022 -0.2224  0.2790  0.0055
 2290ntf    on513286   6.061   6.157   0.194  0.0362 -0.1788  0.0165
 2290ntf    on513287   6.111   6.091  -0.035  0.0782  0.0288  0.2232
 2290ntf    fn413288   6.314   6.038   0.282 -0.4218 -0.1598  0.1847
 2290ntf    fn413289   6.371   5.970   0.096 -0.2022 -0.6659  0.2231
 2290ntf    fn413290   6.354   6.182   0.130 -0.1375 -0.1810  0.1666
 2291ntf    cn113291   3.145   0.998   0.383  0.3365  0.3893 -0.5680
 2291ntf    sn213292   3.063   1.053   0.231 -0.1690  0.1489 -0.3859
 2291ntf    nn313293   2.908   1.047   0.257 -0.2203  0.8661 -0.4868
 2291ntf    sn213294   2.810   0.930   0.218  0.1401  0.4360 -0.1145
 2291ntf    cn113295   2.718   0.890   0.370  0.1193  0.0249 -0.2333
 2291ntf    fn413296   3.099   0.878   0.413  0.5222  0.3924 -0.2616
 2291ntf    fn413297   3.276   0.984   0.384  0.2899 -0.0487  0.0086
 2291ntf    fn413298   3.132   1.076   0.489  0.2572 -0.2532 -0.0992
 2291ntf    on513299   3.103   1.191   0.220 -0.2800  0.2127  0.0080
 2291ntf    on513300   3.131   0.978   0.129  0.6632 -0.0841  0.3316
 2291ntf    on513301   2.872   0.801   0.196 -0.1323  0.3082 -0.1300
 2291ntf    on513302   2.710   0.971   0.123  0.0563  0.0369 -0.1999
 2291ntf    fn413303   2.647   0.780   0.353 -0.1789  0.1591  0.1266
 2291ntf    fn413304   2.799   0.873   0.473 -0.0960 -0.2111 -0.1050
 2291ntf    fn413305   2.639   0.986   0.416 -0.2888 -0.1490 -0.5650
 2292ntf    cn113306   4.357   5.352   4.435  0.3249  0.1470 -0.1579
 2292ntf    sn213307   4.260   5.224   4.521  0.5017  0.1160 -0.0050
 2292ntf    nn313308   4.356   5.100   4.516 -0.1824 -0.4223  0.0477
 2292ntf    sn213309   4.381   4.973   4.605  0.0793 -0.2175  0.2725
 2292ntf    cn113310   4.487   5.033   4.740  0.4050  0.2007 -0.1697
 2292ntf    fn413311   4.455   5.402   4.509  0.2958  0.2769 -0.2065
 2292ntf    fn413312   4.407   5.297   4.326 -0.1162 -0.0507 -0.2617
 2292ntf    fn413313   4.283   5.457   4.402  0.0314 -0.0254 -0.0520
 2292ntf    on513314   4.225   5.279   4.650  0.2748 -0.1236  0.0348
 2292ntf    on513315   4.151   5.201   4.431  0.4178  0.4996 -0.0028
 2292ntf    on513316   4.461   4.873   4.540  0.3498  0.3261 -0.2372
 2292ntf    on513317   4.266   4.929   4.681 -0.1545  0.4489  0.3189
 2292ntf    fn413318   4.518   4.934   4.822  0.0762  0.0411 -0.2388
 2292ntf    fn413319   4.601   5.078   4.689  0.5110 -0.2116 -0.3039
 2292ntf    fn413320   4.434   5.133   4.808  0.1686  0.2642 -0.4481
 2293ntf    cn113321   4.422   4.216   3.360  0.1318 -0.3666  0.0448
 2293ntf    sn213322   4.542   4.232   3.224  0.1168 -0.1791  0.0531
 2293ntf    nn313323   4.659   4.291   3.310 -0.1216 -0.3451  0.4941
 2293ntf    sn213324   4.813   4.275   3.283 -0.2554 -0.0177 -0.4984
 2293ntf    cn113325   4.833   4.143   3.406 -0.1472  0.2449 -0.2310
 2293ntf    fn413326   4.308   4.165   3.316  0.2351 -0.0382 -0.6014
 2293ntf    fn413327   4.465   4.135   3.456  0.7957 -0.3643 -0.2454
 2293ntf    fn413328   4.389   4.333   3.412 -0.1493 -0.0988 -0.7255
 2293ntf    on513329   4.559   4.094   3.186 -0.3785 -0.2102 -0.0689
 2293ntf    on513330   4.478   4.321   3.130  0.2436 -0.6844 -0.5158
 2293ntf    on513331   4.892   4.386   3.330 -0.3630 -0.0784 -0.1708
 2293ntf    on513332   4.852   4.202   3.166 -0.5260  0.1142 -0.6745
 2293ntf    fn413333   4.800   4.026   3.353  1.0022 -0.0942 -0.2138
 2293ntf    fn413334   4.960   4.122   3.436 -0.2513  0.0415  0.0692
 2293ntf    fn413335   4.755   4.153   3.512 -0.3467 -0.2722 -0.3264
 2294ntf    cn113336   5.457   2.679   3.527 -0.3775  0.2900 -0.4276
 2294ntf    sn213337   5.571   2.780   3.428 -0.0522  0.1320 -0.2172
 2294ntf    nn313338   5.471   2.828   3.316 -0.1759  0.3463 -0.0148
 2294ntf    sn213339   5.461   2.754   3.178  0.1912 -0.1400  0.2185
 2294ntf    cn113340   5.290   2.811   3.155  0.3895  0.4429  0.1783
 2294ntf    fn413341   5.521   2.632   3.633 -0.6658 -0.6010 -0.6408
 2294ntf    fn413342   5.355   2.748   3.574 -0.2436  0.3592 -0.2399
 2294ntf    fn413343   5.405   2.576   3.461 -0.8018  0.0493  0.2708
 2294ntf    on513344   5.611   2.889   3.513  0.4288 -0.3564  0.1861
 2294ntf    on513345   5.671   2.683   3.392  0.1848  0.1888  0.2917
 2294ntf    on513346   5.452   2.610   3.179 -0.2385 -0.1145 -0.0066
 2294ntf    on513347   5.538   2.815   3.073 -0.5833  0.6978  0.1247
 2294ntf    fn413348   5.292   2.942   3.137  0.3130  0.3681 -0.4151
 2294ntf    fn413349   5.240   2.759   3.044 -0.2342  0.5037  0.4324
 2294ntf    fn413350   5.209   2.785   3.255  0.1195 -0.2468 -0.2080
 2295ntf    cn113351   6.025   6.172   6.114 -0.3062 -0.1240 -0.0136
 2295ntf    sn213352   6.200   6.126   6.129 -0.3403 -0.2344  0.0477
 2295ntf    nn313353   6.219   6.067   5.985  0.3339  0.3162 -0.0951
 2295ntf    sn213354   6.238   6.141   5.848 -0.2947 -0.0290 -0.3727
 2295ntf    cn113355   6.123   6.042   5.747 -0.1071 -0.1365 -0.4804
 2295ntf    fn413356   5.947   6.069   6.083 -0.2312 -0.1728 -0.0399
 2295ntf    fn413357   5.978   6.216   6.229 -0.0317  0.2492 -0.0426
 2295ntf    fn413358   6.003   6.265   6.022 -0.2170 -0.3663 -0.2815
 2295ntf    on513359   6.271   6.248   6.160  0.1646 -0.4262 -0.3400
 2295ntf    on513360   6.187   6.026   6.232 -0.5611  0.6323  0.8818
 2295ntf    on513361   6.360   6.113   5.777  0.1753  0.5766  0.1874
 2295ntf    on513362   6.189   6.276   5.857 -0.1854 -0.0443  0.5023
 2295ntf    fn413363   6.001   6.055   5.797 -0.2606 -0.7521 -0.6922
 2295ntf    fn413364   6.121   6.094   5.626  0.2252  0.6697 -0.1475
 2295ntf    fn413365   6.151   5.915   5.722 -0.7109 -0.4232  0.2422
 2296ntf    cn113366   1.265   5.942   4.563 -0.3461  0.0178  0.0487
 2296ntf    sn213367   1.177   5.788   4.525 -0.0027 -0.0583 -0.4503
 2296ntf    nn313368   1.092   5.778   4.656  0.3743  0.5621 -0.1572
 2296ntf    sn213369   1.142   5.718   4.793  0.1265 -0.1063 -0.3567
 2296ntf    cn113370   1.080   5.548   4.791  0.2660 -0.1713  0.4365
 2296ntf    fn413371   1.352   5.984   4.472 -0.3231 -0.2309 -0.0438
 2296ntf    fn413372   1.174   6.035   4.584 -0.1377  0.1579  0.3420
 2296ntf    fn413373   1.325   5.934   4.681  0.2890  0.3306 -0.2454
 2296ntf    on513374   1.094   5.812   4.410 -0.8498  0.6225  0.2906
 2296ntf    on513375   1.270   5.679   4.505 -0.2089 -0.3151 -0.0153
 2296ntf    on513376   1.069   5.772   4.906 -0.5318 -0.0668 -0.7925
 2296ntf    on513377   1.283   5.700   4.812  0.0541  0.1869  0.5070
 2296ntf    fn413378   1.131   5.472   4.887  0.2874  0.1231  0.6564
 2296ntf    fn413379   0.949   5.538   4.808  0.1713 -0.3789 -0.3662
 2296ntf    fn413380   1.112   5.489   4.676 -0.6880 -0.1109  0.1230
 2297ntf    cn113381   3.298   6.884   2.868 -0.3482 -0.3563 -0.0401
 2297ntf    sn213382   3.355   6.801   2.717  0.0717  0.0195 -0.0915
 2297ntf    nn313383   3.236   6.700   2.693 -0.1805  0.3204 -0.1132
 2297ntf    sn213384   3.190   6.641   2.555  0.1438 -0.0659 -0.0560
 2297ntf    cn113385   3.040   6.737   2.522  0.1362 -0.0242  0.0977
 2297ntf    fn413386   3.184   6.944   2.836 -0.2969 -0.2949 -0.1049
 2297ntf    fn413387   3.270   6.802   2.969  0.3603 -0.1555  0.3211
 2297ntf    fn413388   3.389   6.967   2.915 -0.6266  0.0977 -0.2898
 2297ntf    on513389   3.362   6.913   2.627  0.1593 -0.1633 -0.3111
 2297ntf    on513390   3.475   6.734   2.760 -0.2635 -0.2141  0.4998
 2297ntf    on513391   3.150   6.502   2.561 -0.0926  0.0165  0.2789
 2297ntf    on513392   3.273   6.668   2.440 -0.2430  0.2590 -0.2587
 2297ntf    fn413393   3.068   6.862   2.556  0.6371  0.0223 -0.4514
 2297ntf    fn413394   3.004   6.740   2.394 -0.6429  0.1734  0.3186
 2297ntf    fn413395   2.930   6.701   2.585 -0.2786  0.7426 -0.1663
 2298ntf    cn113396   4.838   3.149   0.403  0.1543  0.0895  0.0269
 2298ntf    sn213397   4.919   3.259   0.522 -0.0157  0.1914  0.0489
 2298ntf    nn313398   5.065   3.235   0.469  0.0216  0.1915  0.1500
 2298ntf    sn213399   5.134   3.302   0.345  0.0885 -0.0796  0.0416
 2298ntf    cn113400   5.199   3.451   0.426 -0.1231  0.1254 -0.1654
 2298ntf    fn413401   4.867   3.180   0.277 -0.1804  0.2458 -0.0128
 2298ntf    fn413402   4.884   3.028   0.430  0.0466  0.0972  0.2421
 2298ntf    fn413403   4.709   3.162   0.427  0.1660 -0.3096  0.3106
 2298ntf    on513404   4.860   3.388   0.499 -0.0248  0.2541  0.4061
 2298ntf    on513405   4.908   3.202   0.654  0.4912  0.0172  0.0191
 2298ntf    on513406   5.047   3.356   0.243  0.3228  0.4863  0.1411
 2298ntf    on513407   5.258   3.234   0.313  0.0871 -0.1631  0.2113
 2298ntf    fn413408   5.114   3.552   0.440 -0.2332  0.0201 -0.0716
 2298ntf    fn413409   5.235   3.421   0.550 -0.3100 -0.2479 -0.1986
 2298ntf    fn413410   5.312   3.494   0.373 -0.0585 -0.1150 -0.2235
 2299ntf    cn113411   2.028   1.576   6.577  0.0751 -0.2013 -0.4005
 2299ntf    sn213412   1.944   1.736   6.596 -0.0823 -0.3439  0.1205
 2299ntf    nn313413   1.803   1.701   6.537 -0.2655  0.2486  0.2020
 2299ntf    sn213414   1.771   1.697   6.383  0.1819 -0.0802  0.1158
 2299ntf    cn113415   1.640   1.570   6.386  0.1270 -0.0364 -0.3690
 2299ntf    fn413416   2.060   1.537   6.454 -0.1191 -0.0237 -0.5091
 2299ntf    fn413417   2.136   1.577   6.653 -0.0816  0.4944 -0.1777
 2299ntf    fn413418   1.952   1.482   6.630 -0.1388  0.5157  0.5859
 2299ntf    on513419   1.932   1.768   6.736  0.8694  0.8674 -0.0562
 2299ntf    on513420   2.029   1.818   6.512 -0.6139 -0.0063 -0.0982
 2299ntf    on513421   1.873   1.637   6.301  0.1673 -0.1989  0.1830
 2299ntf    on513422   1.710   1.820   6.339  0.2011  0.0286  0.3913
 2299ntf    fn413423   1.522   1.618   6.420  0.2121  0.1433 -0.3274
 2299ntf    fn413424   1.626   1.522   6.264  0.3529 -0.4232 -0.2435
 2299ntf    fn413425   1.670   1.471   6.469 -0.2612 -0.2379 -0.4690
 2300ntf    cn113426   0.773   4.393   1.270  0.0985 -0.0834  0.0343
 2300ntf    sn213427   0.843   4.480   1.126 -0.1095 -0.0377 -0.0399
 2300ntf    nn313428   0.969   4.395   1.089 -0.2993 -0.4827  0.3214
 2300ntf    sn213429   0.972   4.275   0.988  0.1795 -0.0037 -0.2435
 2300ntf    cn113430   1.024   4.367   0.840  0.3265  0.0780 -0.1408
 2300ntf    fn413431   0.859   4.410   1.369 -0.1331 -0.0514  0.2322
 2300ntf    fn413432   0.658   4.448   1.305 -0.0226 -0.4475  0.2094
 2300ntf    fn413433   0.752   4.264   1.254 -0.2850 -0.1480  1.0032
 2300ntf    on513434   0.742   4.493   1.024 -0.1551  0.4746  0.0664
 2300ntf    on513435   0.882   4.606   1.185 -0.8598  0.1010  0.1760
 2300ntf    on513436   0.844   4.218   0.955 -0.0595  0.3381  0.0931
 2300ntf    on513437   1.084   4.185   1.005  0.1417 -0.1406 -0.6996
 2300ntf    fn413438   0.953   4.478   0.826  0.0662 -0.0848 -0.1112
 2300ntf    fn413439   1.148   4.412   0.852  0.4015 -0.2442  0.3396
 2300ntf    fn413440   1.034   4.301   0.726  0.6376 -0.2999  0.1044
 2301ntf    cn113441   2.674   3.777   0.418  0.0428 -0.1772 -0.2743
 2301ntf    sn213442   2.650   3.941   0.344  0.1029  0.0022  0.1029
 2301ntf    nn313443   2.498   3.931   0.305  0.2032 -0.5003 -0.1632
 2301ntf    sn213444   2.437   3.919   0.161 -0.2459 -0.0628 -0.0132
 2301ntf    cn113445   2.284   4.009   0.198 -0.1795  0.0928 -0.1166
 2301ntf    fn413446   2.649   3.679   0.332  0.0275  0.0248 -0.5009
 2301ntf    fn413447   2.800   3.756   0.451  0.0340 -0.0737 -0.1733
 2301ntf    fn413448   2.599   3.766   0.527 -0.4835 -0.3523 -0.6505
 2301ntf    on513449   2.676   4.037   0.449 -0.4156  0.2925 -0.0294
 2301ntf    on513450   2.744   3.939   0.235  0.1492  0.4616  0.1310
 2301ntf    on513451   2.402   3.785   0.119 -0.2342  0.0054 -0.2415
 2301ntf    on513452   2.496   4.003   0.059  0.2646 -0.2418  0.1293
 2301ntf    fn413453   2.203   4.009   0.093 -0.4604  0.2525  0.0975
 2301ntf    fn413454   2.204   3.951   0.286 -0.1905 -0.7285 -0.6531
 2301ntf    fn413455   2.315   4.131   0.239  0.0363  0.1337 -0.4011
 2302ntf    cn113456   1.230   4.280   3.090 -0.1540  0.1905  0.0109
 2302ntf    sn213457   1.328   4.391   2.984  0.0317 -0.0131 -0.0297
 2302ntf    nn313458   1.468   4.321   2.999  0.0664  0.1508  0.4268
 2302ntf    sn213459   1.534   4.216   2.902 -0.2036  0.1509  0.2419
 2302ntf    cn113460   1.623   4.328   2.789 -0.1093  0.1125  0.2780
 2302ntf    fn413461   1.207   4.162   3.034 -0.4104  0.3452 -0.2113
 2302ntf    fn413462   1.299   4.247   3.197 -0.1446 -0.0596 -0.0715
 2302ntf    fn413463   1.111   4.325   3.125 -0.3356 -0.5652  0.3798
 2302ntf    on513464   1.271   4.386   2.852 -0.1852 -0.1067  0.0683
 2302ntf    on513465   1.325   4.517   3.054  0.1114  0.0206 -0.0851
 2302ntf    on513466   1.435   4.147   2.824 -0.3271  0.1009  0.4438
 2302ntf    on513467   1.642   4.144   2.964 -0.3549 -0.6717 -0.4313
 2302ntf    fn413468   1.720   4.403   2.838  0.4435 -0.1583 -0.3910
 2302ntf    fn413469   1.679   4.259   2.691  0.0799  0.4322  0.1604
 2302ntf    fn413470   1.556   4.418   2.719 -0.2896 -0.0891  0.1883
 2303ntf    cn113471   6.184   5.615   2.585  0.0244 -0.0984  0.1148
 2303ntf    sn213472   6.095   5.537   2.723 -0.2906  0.0976  0.0262
 2303ntf    nn313473   6.173   5.613   2.836  0.1541 -0.3513  0.0258
 2303ntf    sn213474   6.135   5.728   2.935  0.0617 -0.1371 -0.2576
 2303ntf    cn113475   6.090   5.632   3.083 -0.1092 -0.0849 -0.2756
 2303ntf    fn413476   6.144   5.741   2.576  0.0953 -0.0530  0.4216
 2303ntf    fn413477   6.316   5.617   2.592  0.0292  0.1083 -0.0125
 2303ntf    fn413478   6.160   5.550   2.473 -0.9102 -0.3172  0.4305
 2303ntf    on513479   5.957   5.574   2.706 -0.3285 -0.1288 -0.1678
 2303ntf    on513480   6.128   5.396   2.726  0.5100  0.2857  0.2641
 2303ntf    on513481   6.012   5.801   2.912  0.2135  0.2218  0.0563
 2303ntf    on513482   6.251   5.800   2.981  0.1165 -0.1061 -0.4470
 2303ntf    fn413483   6.187   5.555   3.128 -0.1121 -0.4074 -0.8110
 2303ntf    fn413484   6.045   5.714   3.177  0.7036  0.2838 -0.2032
 2303ntf    fn413485   5.991   5.546   3.061  0.0088 -0.1797 -0.4357
 2304ntf    cn113486   4.469   0.208   2.429  0.4701  0.2102  0.1601
 2304ntf    sn213487   4.580   0.348   2.462  0.4582  0.1915  0.2773
 2304ntf    nn313488   4.509   0.412   2.587  0.1714  0.2533  0.0832
 2304ntf    sn213489   4.555   0.405   2.737 -0.1729  0.1199  0.1835
 2304ntf    cn113490   4.662   0.551   2.755 -0.1214  0.1248 -0.1531
 2304ntf    fn413491   4.348   0.243   2.385  0.5746  0.3749  0.0014
 2304ntf    fn413492   4.518   0.126   2.337  0.2417  0.3201 -0.0646
 2304ntf    fn413493   4.460   0.137   2.540  0.0627  0.6416  0.4038
 2304ntf    on513494   4.712   0.291   2.473  0.2615 -0.4667 -0.7191
 2304ntf    on513495   4.550   0.429   2.347 -0.2429 -0.4870 -0.0300
 2304ntf    on513496   4.621   0.290   2.793  0.4625  0.4042  0.0230
 2304ntf    on513497   4.446   0.439   2.825  0.0777  0.3337  0.4089
 2304ntf    fn413498   4.680   0.563   2.885  0.1742 -0.3087 -0.1525
 2304ntf    fn413499   4.780   0.526   2.702 -0.1432 -0.3161 -0.0027
 2304ntf    fn413500   4.618   0.662   2.697 -0.2359 -0.1317 -0.5651
 2305ntf    cn113501   0.146   6.758   3.851 -0.1720 -0.1641 -0.1097
 2305ntf    sn213502   0.219   6.916   3.901 -0.1104 -0.1375 -0.2849
 2305ntf    nn313503   0.373   6.886   3.913 -0.0276  0.4263  0.1189
 2305ntf    sn213504   0.483   6.882   3.801  0.0653  0.1572  0.2178
 2305ntf    cn113505   0.526   7.059   3.795  0.0399  0.1461 -0.3031
 2305ntf    fn413506   0.028   6.767   3.792 -0.0313  0.1457 -0.3518
 2305ntf    fn413507   0.213   6.705   3.750 -0.4656  0.1307 -0.4609
 2305ntf    fn413508   0.136   6.667   3.947 -0.0620  0.6569  0.6934
 2305ntf    on513509   0.181   7.007   3.795  0.3846 -0.4504 -0.7390
 2305ntf    on513510   0.159   6.944   4.029  0.0226 -0.0510 -0.2407
 2305ntf    on513511   0.434   6.845   3.671  0.3754 -0.3639  0.2488
 2305ntf    on513512   0.600   6.814   3.852  0.2076  0.0444 -0.2559
 2305ntf    fn413513   0.553   7.109   3.914  0.1341 -0.7478  0.0601
 2305ntf    fn413514   0.634   7.081   3.721  0.1029  0.5564 -0.0897
 2305ntf    fn413515   0.429   7.134   3.747  0.0293  0.2416 -0.1306
 2306ntf    cn113516   2.124   1.884   2.017  0.1524  0.0559  0.0416
 2306ntf    sn213517   2.047   1.761   1.907  0.1418  0.0536  0.0513
 2306ntf    nn313518   2.065   1.840   1.773 -0.0729  0.1626  0.0859
 2306ntf    sn213519   2.072   1.790   1.624 -0.2178  0.2132  0.0614
 2306ntf    cn113520   1.953   1.909   1.557 -0.1243  0.2666 -0.0099
 2306ntf    fn413521   2.062   2.001   2.011 -0.6287 -0.3733 -0.3683
 2306ntf    fn413522   2.116   1.845   2.143  0.0758  0.0158  0.0242
 2306ntf    fn413523   2.251   1.912   1.990  0.2466  0.6168  1.0445
 2306ntf    on513524   2.123   1.640   1.928  0.1444 -0.0097 -0.3219
 2306ntf    on513525   1.909   1.766   1.950  0.1198  0.6349 -0.0731
 2306ntf    on513526   2.011   1.661   1.601  0.1461  0.0174  0.1790
 2306ntf    on513527   2.191   1.819   1.548  0.1566 -0.1966  0.4815
 2306ntf    fn413528   1.995   2.033   1.578 -0.1037  0.2238  0.2069
 2306ntf    fn413529   1.932   1.896   1.427  0.2201  0.0594 -0.0452
 2306ntf    fn413530   1.836   1.891   1.617  0.1314 -0.8295  0.1776
 2307ntf    cn113531   1.122   1.178   4.454 -0.3896  0.1651  0.3898
 2307ntf    sn213532   0.993   1.303   4.482 -0.3810  0.2846 -0.1047
 2307ntf    nn313533   1.064   1.387   4.593  0.0860  0.3700 -0.4638
 2307ntf    sn213534   1.007   1.448   4.727  0.2250  0.0302 -0.2489
 2307ntf    cn113535   0.999   1.303   4.836  0.1292  0.1799 -0.0568
 2307ntf    fn413536   1.099   1.066   4.522 -0.6895 -0.0895 -0.1206
 2307ntf    fn413537   1.112   1.149   4.326 -0.2143  0.5394  0.2931
 2307ntf    fn413538   1.246   1.218   4.477 -0.2085 -0.1474 -0.0244
 2307ntf    on513539   0.979   1.379   4.360 -0.2922 -0.0017 -0.2951
 2307ntf    on513540   0.887   1.216   4.528 -0.0587 -0.0918 -0.0716
 2307ntf    on513541   0.877   1.507   4.714  0.2849  0.0477 -0.7998
 2307ntf    on513542   1.111   1.528   4.787 -0.0566  0.0348  0.2371
 2307ntf    fn413543   0.946   1.339   4.952  0.1598  0.0463 -0.0008
 2307ntf    fn413544   0.927   1.202   4.790 -0.3130  0.6067 -0.3182
 2307ntf    fn413545   1.125   1.265   4.853 -0.1536 -0.7591  0.0251
 2308ntf    cn113546   6.805   3.922   1.954  0.2773  0.2704  0.0009
 2308ntf    sn213547   6.887   3.832   2.089 -0.4227 -0.3864 -0.0031
 2308ntf    nn313548   6.799   3.867   2.214 -0.1688  0.0295  0.0610
 2308ntf    sn213549   6.858   3.899   2.356 -0.0139  0.0922 -0.0167
 2308ntf    cn113550   6.866   4.081   2.350  0.7002  0.0689  0.2220
 2308ntf    fn413551   6.814   4.054   1.958 -0.2067  0.3175 -0.3232
 2308ntf    fn413552   6.861   3.906   1.835  0.4001  0.4184  0.0388
 2308ntf    fn413553   6.677   3.890   1.951  0.3531 -0.0499  0.1281
 2308ntf    on513554   6.870   3.694   2.052  0.0326 -0.4538  0.0283
 2308ntf    on513555   7.019   3.890   2.088 -0.3408 -0.5693 -0.6719
 2308ntf    on513556   6.996   3.862   2.372  0.1603  0.6496 -0.1902
 2308ntf    on513557   6.765   3.867   2.462 -0.1415 -0.0358 -0.1665
 2308ntf    fn413558   6.751   4.142   2.374  1.0515  0.7766  0.1339
 2308ntf    fn413559   6.955   4.133   2.433  1.0036 -0.0999  0.0091
 2308ntf    fn413560   6.902   4.116   2.228 -0.6164 -0.2559 -0.2765
 2309ntf    cn113561   3.432   2.317   4.238 -0.3683 -0.1380  0.0461
 2309ntf    sn213562   3.399   2.177   4.128 -0.1216 -0.0762 -0.1077
 2309ntf    nn313563   3.496   2.215   4.011 -0.1383  0.4844  0.0591
 2309ntf    sn213564   3.467   2.259   3.863 -0.0359 -0.1588 -0.1539
 2309ntf    cn113565   3.527   2.106   3.785  0.6171 -0.2119  0.4425
 2309ntf    fn413566   3.401   2.438   4.193  0.1499  0.0447  0.1625
 2309ntf    fn413567   3.381   2.309   4.360 -0.1797  0.2544  0.1545
 2309ntf    fn413568   3.563   2.311   4.259 -0.3025 -0.0409 -0.3351
 2309ntf    on513569   3.450   2.058   4.193 -0.4497  0.0350  0.3550
 2309ntf    on513570   3.257   2.174   4.107 -0.1078 -0.4949 -0.1642
 2309ntf    on513571   3.562   2.359   3.823 -0.3679  0.0332 -0.4581
 2309ntf    on513572   3.331   2.277   3.818 -0.0574  0.2214  0.0625
 2309ntf    fn413573   3.651   2.084   3.824  0.8090  0.3793  0.1712
 2309ntf    fn413574   3.454   1.996   3.803  0.3250 -0.1723 -0.4535
 2309ntf    fn413575   3.532   2.126   3.654  0.2018 -0.1741  0.4293
 2310ntf    cn113576   1.811   3.564   5.677 -0.0873 -0.0923  0.3073
 2310ntf    sn213577   1.924   3.495   5.802  0.1157 -0.3201 -0.0009
 2310ntf    nn313578   1.828   3.397   5.879 -0.8048  0.1818 -0.4881
 2310ntf    sn213579   1.835   3.365   6.033 -0.0564  0.0424 -0.5483
 2310ntf    cn113580   1.719   3.488   6.099  0.0281 -0.0786 -0.1729
 2310ntf    fn413581   1.774   3.485   5.577 -0.3851  0.4069  0.0189
 2310ntf    fn413582   1.701   3.616   5.729 -0.0627  0.3292 -0.0638
 2310ntf    fn413583   1.868   3.669   5.621 -0.1838  0.0847  0.5410
 2310ntf    on513584   2.027   3.425   5.730  0.9506  0.4882  0.3863
 2310ntf    on513585   1.966   3.614   5.871  0.1524 -0.3744  0.0709
 2310ntf    on513586   1.960   3.388   6.101 -0.0886 -0.2570 -0.3879
 2310ntf    on513587   1.768   3.239   6.053  0.1801 -0.1261 -0.7882
 2310ntf    fn413588   1.616   3.501   6.017 -0.0135 -0.3346 -0.1616
 2310ntf    fn413589   1.671   3.443   6.214 -0.2582 -0.2429 -0.3557
 2310ntf    fn413590   1.775   3.607   6.115 -0.0667 -0.0196 -0.2776
 2311ntf    cn113591   4.123   6.682   6.855  0.2554  0.0733 -0.3647
 2311ntf    sn213592   4.085   6.547   6.970  0.0058  0.2194 -0.2728
 2311ntf    nn313593   4.059   6.625   7.103  0.0545  0.3683 -0.3497
 2311ntf    sn213594   3.938   6.713   7.147 -0.3119 -0.3569  0.1144
 2311ntf    cn113595   4.006   6.879   7.117  0.0113 -0.4940  0.0920
 2311ntf    fn413596   4.203   6.767   6.918  0.5707 -0.7048  0.2912
 2311ntf    fn413597   4.177   6.650   6.739  0.5759 -0.0469 -0.1827
 2311ntf    fn413598   4.020   6.759   6.824  0.1945  0.0126 -0.3133
 2311ntf    on513599   3.972   6.476   6.914  0.0947  0.0189 -0.1997
 2311ntf    on513600   4.211   6.476   6.971 -0.1179 -0.0004 -0.1005
 2311ntf    on513601   3.924   6.713   7.291 -0.0223  0.5156  0.1483
 2311ntf    on513602   3.818   6.713   7.067  0.0906 -0.1754 -0.4925
 2311ntf    fn413603   4.031   6.897   6.988 -0.2120  0.2000  0.1456
 2311ntf    fn413604   3.930   6.977   7.161 -0.0155 -0.2580 -0.4775
 2311ntf    fn413605   4.118   6.896   7.185  0.1103  0.0163 -0.1926
 2312ntf    cn113606   6.894   5.544   4.479  0.1953  0.4471 -0.0562
 2312ntf    sn213607   6.775   5.413   4.522  0.2947  0.4670  0.2796
 2312ntf    nn313608   6.648   5.445   4.436 -0.0225 -0.5345  0.3559
 2312ntf    sn213609   6.608   5.379   4.299  0.3932  0.4566 -0.2574
 2312ntf    cn113610   6.496   5.251   4.363  0.3261  0.5092 -0.2701
 2312ntf    fn413611   7.006   5.534   4.549  0.1984 -0.1503 -0.1449
 2312ntf    fn413612   6.923   5.552   4.351  0.3078  0.7052 -0.0149
 2312ntf    fn413613   6.840   5.663   4.496 -0.0607  0.3546 -0.2225
 2312ntf    on513614   6.841   5.288   4.492 -0.7581 -0.1022  0.3170
 2312ntf    on513615   6.758   5.441   4.663 -0.1103  0.1271  0.2984
 2312ntf    on513616   6.710   5.306   4.229 -0.1701 -0.1924 -0.4042
 2312ntf    on513617   6.520   5.467   4.226  0.1408  0.4185 -0.0006
 2312ntf    fn413618   6.443   5.186   4.261  0.5983 -0.0596 -0.0512
 2312ntf    fn413619   6.554   5.167   4.447  0.1202  0.3456 -0.2907
 2312ntf    fn413620   6.395   5.309   4.426  0.3726  0.8836 -0.5384
 2313ntf    cn113621   3.299   1.444   4.790 -0.2366 -0.2577  0.4666
 2313ntf    sn213622   3.441   1.437   4.903  0.0082  0.3553  0.2030
 2313ntf    nn313623   3.410   1.580   4.958  0.2288  0.4257  0.1461
 2313ntf    sn213624   3.318   1.612   5.082 -0.1498 -0.3576  0.0759
 2313ntf    cn113625   3.435   1.572   5.215  0.1699  0.1571 -0.0472
 2313ntf    fn413626   3.306   1.549   4.709 -0.0479 -0.5377  0.1126
 2313ntf    fn413627   3.288   1.335   4.715  0.0893 -0.2414  0.3934
 2313ntf    fn413628   3.182   1.458   4.849 -0.1634 -0.0923  0.5705
 2313ntf    on513629   3.404   1.321   4.980  0.0842  0.0345 -0.2383
 2313ntf    on513630   3.561   1.426   4.824  0.1040  0.0350  0.3901
 2313ntf    on513631   3.202   1.531   5.110 -0.6945  0.3189 -0.1856
 2313ntf    on513632   3.295   1.753   5.099  0.0056 -0.2996 -0.1827
 2313ntf    fn413633   3.539   1.654   5.207  0.1035  0.2400 -0.0549
 2313ntf    fn413634   3.373   1.588   5.331  0.0609 -0.1852 -0.0576
 2313ntf    fn413635   3.479   1.447   5.204  0.3651  0.2256 -0.0572
 2314ntf    cn113636   2.121   6.828   1.371 -0.1057  0.1037 -0.1717
 2314ntf    sn213637   2.165   6.855   1.545 -0.0502 -0.1790 -0.1420
 2314ntf    nn313638   2.244   6.990   1.534 -0.6404  0.2099  0.3511
 2314ntf    sn213639   2.210   7.139   1.568 -0.1667  0.3979  0.0117
 2314ntf    cn113640   2.237   7.154   1.747  0.1428  0.1855 -0.0177
 2314ntf    fn413641   2.151   6.940   1.308 -0.3125  0.3505  0.1665
 2314ntf    fn413642   2.189   6.730   1.314 -0.0083 -0.0472  0.2016
 2314ntf    fn413643   1.991   6.806   1.356 -0.0757 -0.1662 -0.0455
 2314ntf    on513644   2.036   6.859   1.609 -0.1027 -0.3704 -0.2323
 2314ntf    on513645   2.250   6.742   1.574  0.0718 -0.0739 -0.0873
 2314ntf    on513646   2.071   7.168   1.542 -0.2015  0.1710 -0.0494
 2314ntf    on513647   2.300   7.231   1.503  0.2817  0.2013  0.3546
 2314ntf    fn413648   2.365   7.158   1.778  0.0496  0.0115  0.4024
 2314ntf    fn413649   2.178   7.264   1.791  0.5327  0.3466  0.1003
 2314ntf    fn413650   2.180   7.056   1.816  0.4577  0.2314  0.3098
 2315ntf    cn113651   4.306   1.392   6.351  0.1264 -0.3297 -0.4595
 2315ntf    sn213652   4.208   1.239   6.356 -0.2801 -0.0623 -0.1821
 2315ntf    nn313653   4.287   1.148   6.456 -1.0382 -0.3064  0.2030
 2315ntf    sn213654   4.320   0.995   6.444  0.0468 -0.0654  0.0097
 2315ntf    cn113655   4.296   0.937   6.615 -0.2532 -0.1360 -0.0558
 2315ntf    fn413656   4.277   1.473   6.452 -0.8095 -0.5280 -0.5690
 2315ntf    fn413657   4.437   1.372   6.345  0.1458 -0.4933  0.3275
 2315ntf    fn413658   4.278   1.463   6.244  0.5197  0.0362 -0.3239
 2315ntf    on513659   4.081   1.287   6.405 -0.1623  0.1084 -0.0450
 2315ntf    on513660   4.208   1.199   6.217  0.5070 -0.9333  0.0600
 2315ntf    on513661   4.462   0.973   6.426  0.0781  0.4570 -0.4069
 2315ntf    on513662   4.226   0.914   6.371  0.0967  0.2930 -0.4534
 2315ntf    fn413663   4.349   0.818   6.640  0.4023  0.1460 -0.0673
 2315ntf    fn413664   4.348   1.014   6.709  0.5724  0.1531 -0.7304
 2315ntf    fn413665   4.169   0.922   6.647 -0.0834 -0.6442  0.3987
 2316ntf    cn113666   2.490   2.743   1.873  0.3066 -0.1865  0.2985
 2316ntf    sn213667   2.585   2.716   1.721 -0.2449  0.3165 -0.1427
 2316ntf    nn313668   2.476   2.669   1.618 -0.0865  0.3723 -0.3369
 2316ntf    sn213669   2.459   2.535   1.538 -0.1546 -0.0317  0.3440
 2316ntf    cn113670   2.451   2.586   1.363  0.1173 -0.0386  0.3289
 2316ntf    fn413671   2.407   2.643   1.897 -0.4018  0.2979 -0.0715
 2316ntf    fn413672   2.561   2.766   1.982 -0.4227 -0.8417  0.9262
 2316ntf    fn413673   2.415   2.850   1.851  0.3720 -0.1709  0.1492
 2316ntf    on513674   2.632   2.848   1.689 -0.0996  0.3763  0.3096
 2316ntf    on513675   2.679   2.616   1.766 -0.3234  0.4639  0.3421
 2316ntf    on513676   2.334   2.469   1.566 -0.2957  0.2936  0.4865
 2316ntf    on513677   2.584   2.463   1.524 -0.1358  0.1458 -0.4424
 2316ntf    fn413678   2.420   2.491   1.277  0.0380 -0.0827  0.4068
 2316ntf    fn413679   2.356   2.672   1.331  0.7615  0.4571 -0.2859
 2316ntf    fn413680   2.567   2.636   1.321 -0.1093  0.1325 -0.0940
 2317ntf    cn113681   6.313   0.182   6.471 -0.0949 -0.0682  0.1703
 2317ntf    sn213682   6.378   0.153   6.304 -0.2835  0.3104  0.0290
 2317ntf    nn313683   6.385   0.304   6.260 -0.1576  0.4291  0.4506
 2317ntf    sn213684   6.297   0.368   6.147 -0.1723  0.1264  0.2877
 2317ntf    cn113685   6.146   0.404   6.242 -0.2196  0.0410  0.2453
 2317ntf    fn413686   6.408   0.193   6.562  0.1181 -0.1056 -0.0457
 2317ntf    fn413687   6.241   0.294   6.468 -0.0890 -0.0515  0.5840
 2317ntf    fn413688   6.237   0.087   6.523 -0.1886 -0.0678  0.0366
 2317ntf    on513689   6.508   0.095   6.328 -0.2951  0.2216 -0.1246
 2317ntf    on513690   6.284   0.067   6.238  0.2758 -0.4209  0.1787
 2317ntf    on513691   6.249   0.288   6.037  0.5359 -0.4096  0.3664
 2317ntf    on513692   6.344   0.499   6.108 -0.1404 -0.0052 -0.1268
 2317ntf    fn413693   6.174   0.469   6.355 -0.6979 -0.1057  0.4478
 2317ntf    fn413694   6.066   0.475   6.164 -0.5620 -0.1493  0.4261
 2317ntf    fn413695   6.083   0.292   6.269  0.2498 -0.4095 -0.4940
 2318ntf    cn113696   4.756   4.575   5.756  0.0271 -0.1198  0.0251
 2318ntf    sn213697   4.924   4.642   5.746 -0.0477  0.0705  0.0320
 2318ntf    nn313698   4.994   4.527   5.665 -0.0001  0.1808 -0.0844
 2318ntf    sn213699   4.998   4.506   5.509 -0.3127  0.0139 -0.0712
 2318ntf    cn113700   5.123   4.374   5.500 -0.4528 -0.1054 -0.2900
 2318ntf    fn413701   4.705   4.559   5.635 -0.2532  0.4379  0.0648
 2318ntf    fn413702   4.746   4.458   5.816 -0.6501 -0.2019 -0.2303
 2318ntf    fn413703   4.668   4.652   5.818  0.2907  0.1344  0.0817
 2318ntf    on513704   4.909   4.772   5.686 -0.5375  0.1913  0.4159
 2318ntf    on513705   4.975   4.642   5.881 -0.2441 -0.3485  0.1081
 2318ntf    on513706   5.067   4.611   5.438  0.2899 -0.1141  0.3141
 2318ntf    on513707   4.878   4.447   5.454 -0.2168  0.0585 -0.3265
 2318ntf    fn413708   5.245   4.425   5.515 -0.4841 -0.0847 -0.1055
 2318ntf    fn413709   5.117   4.277   5.589  0.4289 -0.0365 -0.1386
 2318ntf    fn413710   5.112   4.315   5.382  0.3049 -0.5899 -0.1245
 2319ntf    cn113711   0.131   3.587   1.526  0.2750  0.2578  0.0778
 2319ntf    sn213712   0.244   3.477   1.616  0.2398 -0.0896 -0.2993
 2319ntf    nn313713   0.372   3.567   1.622  0.0058  0.2770 -0.7165
 2319ntf    sn213714   0.498   3.570   1.528  0.3652  0.2565 -0.2427
 2319ntf    cn113715   0.510   3.737   1.457  0.3601  0.2906 -0.1629
 2319ntf    fn413716   0.104   3.703   1.583 -0.3362  0.0814  0.1556
 2319ntf    fn413717   0.168   3.615   1.402  0.5377  0.1615  0.1357
 2319ntf    fn413718   0.018   3.521   1.507  0.8706 -0.7634  0.0378
 2319ntf    on513719   0.190   3.462   1.749  0.1827 -0.0849 -0.3218
 2319ntf    on513720   0.260   3.359   1.534 -0.1402 -0.2147 -0.2010
 2319ntf    on513721   0.503   3.489   1.408  0.2377 -0.0687 -0.0302
 2319ntf    on513722   0.618   3.567   1.607  0.1106  0.5133  0.1527
 2319ntf    fn413723   0.632   3.783   1.438  0.2295  0.6915 -0.0399
 2319ntf    fn413724   0.456   3.743   1.337  0.1670  0.0544 -0.0894
 2319ntf    fn413725   0.448   3.827   1.531 -0.6600 -0.7349  0.2612
 2320ntf    cn113726   4.493   5.964   0.174  0.1823 -0.2291  0.0715
 2320ntf    sn213727   4.578   5.872   0.306  0.1487 -0.2639  0.0683
 2320ntf    nn313728   4.728   5.907   0.280 -0.0087  0.2637 -0.1353
 2320ntf    sn213729   4.843   5.820   0.217  0.2768  0.6064 -0.0908
 2320ntf    cn113730   4.917   5.769   0.376  0.0948 -0.3241 -0.3012
 2320ntf    fn413731   4.534   5.933   0.052 -0.2433  0.1637 -0.1714
 2320ntf    fn413732   4.363   5.946   0.159  0.0896  0.3663  0.1376
 2320ntf    fn413733   4.508   6.096   0.176  0.0485 -0.2142  0.1194
 2320ntf    on513734   4.522   5.934   0.424  0.7036 -0.6889  0.5623
 2320ntf    on513735   4.539   5.734   0.289 -0.3696 -0.1596  0.3900
 2320ntf    on513736   4.951   5.891   0.152  0.3876  0.2722 -0.2712
 2320ntf    on513737   4.795   5.698   0.158 -0.1407  0.5981  0.2545
 2320ntf    fn413738   4.835   5.697   0.451  0.1489 -0.0349  0.0393
 2320ntf    fn413739   5.019   5.689   0.350  0.2593 -0.2785  0.2139
 2320ntf    fn413740   4.962   5.870   0.449  0.3112 -0.2677 -0.5106
 2321ntf    cn113741   3.767   2.175   6.141  0.1128  0.6763  0.4237
 2321ntf    sn213742   3.931   2.135   6.208  0.1727 -0.0978 -0.1674
 2321ntf    nn313743   3.945   2.221   6.339 -0.4834 -0.0278 -0.1371
 2321ntf    sn213744   3.892   2.186   6.482 -0.0238  0.1209  0.0735
 2321ntf    cn113745   4.008   2.062   6.548  0.0757  0.1621 -0.0219
 2321ntf    fn413746   3.750   2.300   6.100  0.3267  0.5139 -0.1700
 2321ntf    fn413747   3.742   2.102   6.033 -0.6987  0.7926  0.5276
 2321ntf    fn413748   3.672   2.151   6.230 -0.0789  0.8650  0.2721
 2321ntf    on513749   3.932   1.991   6.222  0.1953 -0.1669 -0.8568
 2321ntf    on513750   4.013   2.180   6.099 -0.1625  0.3644 -0.2325
 2321ntf    on513751   3.757   2.133   6.487  0.2824 -0.6362  0.5574
 2321ntf    on513752   3.905   2.296   6.574  0.4857  0.1920 -0.0819
 2321ntf    fn413753   3.961   2.002   6.656  0.2836 -0.6465 -0.3797
 2321ntf    fn413754   4.033   1.963   6.465  0.4303  0.0122  0.2638
 2321ntf    fn413755   4.126   2.116   6.573  0.2206  0.0038 -0.3691
 2322ntf    cn113756   6.213   1.180   4.020 -0.0550 -0.1538  0.0883
 2322ntf    sn213757   6.319   1.142   4.162 -0.1126 -0.0580  0.1561
 2322ntf    nn313758   6.257   1.239   4.269 -0.1099  0.4501 -0.2997
 2322ntf    sn213759   6.125   1.216   4.351  0.1318 -0.3570 -0.1244
 2322ntf    cn113760   6.170   1.180   4.524  0.1375  0.2698  0.0068
 2322ntf    fn413761   6.189   1.309   4.007  0.1189 -0.1049  0.2454
 2322ntf    fn413762   6.269   1.142   3.905  0.6246  0.2455  0.2847
 2322ntf    fn413763   6.097   1.117   4.020 -0.0111 -0.2352  0.1239
 2322ntf    on513764   6.307   0.999   4.176 -0.2109 -0.0575  0.0727
 2322ntf    on513765   6.451   1.190   4.128 -0.3573  0.7841  0.3728
 2322ntf    on513766   6.045   1.102   4.315 -0.1492 -0.3583  0.4796
 2322ntf    on513767   6.053   1.341   4.358  0.4522 -0.1398 -0.6895
 2322ntf    fn413768   6.267   1.091   4.530 -0.7281 -0.6936  0.0142
 2322ntf    fn413769   6.208   1.293   4.581  0.0432  0.3139 -0.0164
 2322ntf    fn413770   6.072   1.134   4.600  0.5854 -0.2133  0.2945
 2323ntf    cn113771   6.126   3.090   2.077 -0.2742  0.0514  0.2672
 2323ntf    sn213772   6.186   3.151   1.916  0.2914 -0.1076  0.4138
 2323ntf    nn313773   6.057   3.140   1.826  0.4023  0.4970  0.1798
 2323ntf    sn213774   6.027   3.172   1.675 -0.1324 -0.1524  0.1420
 2323ntf    cn113775   6.027   3.006   1.603 -0.0581 -0.1090  0.0418
 2323ntf    fn413776   6.059   2.977   2.062 -0.1172  0.0422 -0.4115
 2323ntf    fn413777   6.227   3.074   2.161 -0.0055 -0.3810 -0.1279
 2323ntf    fn413778   6.042   3.177   2.129  0.0423  0.3809  0.2295
 2323ntf    on513779   6.223   3.289   1.934  0.2539 -0.0041 -0.2605
 2323ntf    on513780   6.291   3.056   1.887 -0.2030 -0.6259  0.2833
 2323ntf    on513781   6.131   3.244   1.605 -0.5865 -0.1764 -0.5609
 2323ntf    on513782   5.892   3.218   1.654 -0.0143  0.2705  0.2860
 2323ntf    fn413783   5.963   2.912   1.670 -0.1201 -0.4347 -0.4644
 2323ntf    fn413784   5.976   2.999   1.481  0.2023  0.5681 -0.1097
 2323ntf    fn413785   6.152   2.964   1.591 -0.0430 -0.1652  0.3916
 2324ntf    cn113786   2.662   5.108   5.403 -0.0053 -0.4558 -0.3578
 2324ntf    sn213787   2.553   5.238   5.337  0.3893  0.2084  0.2824
 2324ntf    nn313788   2.588   5.352   5.439  0.3434  0.0469  0.4811
 2324ntf    sn213789   2.608   5.506   5.416 -0.3666  0.0993  0.1794
 2324ntf    cn113790   2.787   5.511   5.450 -0.2805 -0.2324 -0.2104
 2324ntf    fn413791   2.636   4.984   5.365  0.4045 -0.3986 -0.8362
 2324ntf    fn413792   2.790   5.132   5.377  0.1192  0.3040  0.8591
 2324ntf    fn413793   2.658   5.103   5.535  0.1787 -0.8124 -0.3651
 2324ntf    on513794   2.596   5.255   5.201  0.2677  0.2404  0.2480
 2324ntf    on513795   2.418   5.198   5.370  0.2449  0.5661  0.1278
 2324ntf    on513796   2.548   5.589   5.518  0.2791  0.2472  0.4467
 2324ntf    on513797   2.601   5.552   5.280  0.2342 -0.3257 -0.0019
 2324ntf    fn413798   2.849   5.500   5.334 -0.4850 -0.3818 -0.3053
 2324ntf    fn413799   2.834   5.619   5.511 -0.3530 -0.3297  0.0204
 2324ntf    fn413800   2.831   5.407   5.520 -0.7825 -0.3219 -0.0251
 2325ntf    cn113801   3.337   2.756   6.596 -0.5396 -0.4378  0.0642
 2325ntf    sn213802   3.395   2.879   6.717  0.2301 -0.3501 -0.3915
 2325ntf    nn313803   3.339   2.825   6.852 -0.1253 -0.2142 -0.4836
 2325ntf    sn213804   3.199   2.866   6.911  0.2132  0.2327  0.0178
 2325ntf    cn113805   3.249   3.025   6.984 -0.0795  0.3652 -0.0664
 2325ntf    fn413806   3.361   2.634   6.640 -0.2607 -0.3278  0.2240
 2325ntf    fn413807   3.206   2.765   6.579 -0.5406  0.0217  0.3003
 2325ntf    fn413808   3.391   2.757   6.475  0.2654  0.0574  0.4200
 2325ntf    on513809   3.536   2.849   6.719  0.1927 -0.4621  0.5667
 2325ntf    on513810   3.352   3.009   6.673  0.1387 -0.0589  0.5424
 2325ntf    on513811   3.154   2.792   7.026 -0.3592  0.0832 -0.3000
 2325ntf    on513812   3.095   2.904   6.819 -0.4631 -0.4689  0.4780
 2325ntf    fn413813   3.336   3.093   6.911  0.1885  0.1958  0.0904
 2325ntf    fn413814   3.142   3.097   7.014 -0.3567 -0.3743  0.7792
 2325ntf    fn413815   3.319   3.008   7.096 -0.4482 -0.3553  0.0644
 2326ntf    cn113816   3.184   6.883   3.687  0.1562 -0.2955  0.2655
 2326ntf    sn213817   3.150   6.974   3.841  0.1726  0.4796 -0.1810
 2326ntf    nn313818   2.994   6.961   3.830  0.1941 -0.3427  0.3939
 2326ntf    sn213819   2.883   7.033   3.915 -0.0380 -0.3007  0.0575
 2326ntf    cn113820   2.846   7.171   3.803  0.3532 -0.4204 -0.2221
 2326ntf    fn413821   3.132   6.938   3.578 -0.0829 -0.0457  0.5039
 2326ntf    fn413822   3.313   6.864   3.666  0.1016 -0.1750 -0.1867
 2326ntf    fn413823   3.126   6.765   3.682 -0.3840 -0.0190 -0.1895
 2326ntf    on513824   3.212   6.902   3.949  0.1097  0.7936  0.0672
 2326ntf    on513825   3.196   7.107   3.808  0.0273  0.3952 -0.7410
 2326ntf    on513826   2.925   7.089   4.040 -0.0352  0.0792 -0.1131
 2326ntf    on513827   2.760   6.957   3.912  0.0914 -0.4952 -0.4131
 2326ntf    fn413828   2.797   7.130   3.688  0.5621 -0.0399 -0.4517
 2326ntf    fn413829   2.760   7.259   3.852  0.4084 -0.6957  0.3702
 2326ntf    fn413830   2.947   7.253   3.775  0.4062 -0.3416  0.1942
 2327ntf    cn113831   3.395   2.181   0.427 -0.0843 -0.1663 -0.0209
 2327ntf    sn213832   3.568   2.210   0.472  0.0078 -0.4535 -0.1854
 2327ntf    nn313833   3.619   2.063   0.492  0.2231 -0.3523  0.0243
 2327ntf    sn213834   3.611   1.964   0.614  0.4396 -0.3175  0.0671
 2327ntf    cn113835   3.789   1.939   0.639  0.5458  0.0149 -0.3299
 2327ntf    fn413836   3.325   2.112   0.516  0.1425 -0.2357  0.1041
 2327ntf    fn413837   3.328   2.294   0.408  0.6326  0.2506 -0.0710
 2327ntf    fn413838   3.388   2.121   0.309 -0.2114  0.6146 -0.4172
 2327ntf    on513839   3.618   2.260   0.346 -0.1709  0.2940  0.0317
 2327ntf    on513840   3.574   2.298   0.586  0.4046  0.0398 -0.5821
 2327ntf    on513841   3.565   1.833   0.575 -0.2465  0.0875 -0.5167
 2327ntf    on513842   3.577   2.017   0.744  0.3692 -0.1191 -0.0306
 2327ntf    fn413843   3.850   2.054   0.660 -0.1987  0.2513  0.5440
 2327ntf    fn413844   3.812   1.857   0.741 -0.4387  0.6483  0.4163
 2327ntf    fn413845   3.850   1.874   0.541  0.1342 -0.2253 -0.4289
 2328ntf    cn113846   6.529   3.068   4.269  0.1855 -0.3049  0.5106
 2328ntf    sn213847   6.528   2.893   4.222 -0.0185 -0.2007  0.1155
 2328ntf    nn313848   6.461   2.901   4.081 -0.0004 -0.5005  0.0896
 2328ntf    sn213849   6.315   2.891   4.022  0.0753 -0.2600 -0.1422
 2328ntf    cn113850   6.318   2.717   3.968 -0.0346 -0.3596  0.1641
 2328ntf    fn413851   6.404   3.108   4.290  0.1854  0.1207 -0.2481
 2328ntf    fn413852   6.605   3.089   4.375  0.0481  0.1371  0.5250
 2328ntf    fn413853   6.577   3.148   4.175 -0.1708 -0.1790  0.4321
 2328ntf    on513854   6.669   2.863   4.222  0.0824  0.2697  0.5185
 2328ntf    on513855   6.446   2.819   4.316  0.0589 -0.0559  0.2969
 2328ntf    on513856   6.293   2.962   3.899  0.2112  0.1501  0.0692
 2328ntf    on513857   6.208   2.888   4.119 -0.1870  0.1687 -0.4183
 2328ntf    fn413858   6.342   2.632   4.066  0.1401 -0.3917  0.0937
 2328ntf    fn413859   6.196   2.684   3.928 -0.3814  0.5694  0.4270
 2328ntf    fn413860   6.404   2.691   3.871  0.3185 -0.2923  0.4581
 2329ntf    cn113861   6.243   3.284   2.461  0.0117  0.0737  0.0046
 2329ntf    sn213862   6.132   3.428   2.466 -0.1125 -0.0289  0.1976
 2329ntf    nn313863   6.186   3.512   2.345  0.1711 -0.4662  0.0184
 2329ntf    sn213864   6.299   3.619   2.330 -0.0494 -0.2267  0.0557
 2329ntf    cn113865   6.192   3.766   2.330  0.2312 -0.0212 -0.3187
 2329ntf    fn413866   6.208   3.213   2.566  0.1433 -0.0255 -0.0182
 2329ntf    fn413867   6.241   3.217   2.347  0.4679  0.3721 -0.1840
 2329ntf    fn413868   6.370   3.319   2.475 -0.1192  0.5489  0.0147
 2329ntf    on513869   6.001   3.371   2.452 -0.0746 -0.0905  0.0991
 2329ntf    on513870   6.158   3.489   2.595  0.6185 -0.0918  0.0858
 2329ntf    on513871   6.366   3.622   2.203  0.3038  0.3507  0.2492
 2329ntf    on513872   6.385   3.640   2.444 -0.1890 -0.2778  0.1705
 2329ntf    fn413873   6.114   3.772   2.437  0.3507 -0.2072 -0.2202
 2329ntf    fn413874   6.252   3.884   2.321  0.9368 -0.3456  0.0594
 2329ntf    fn413875   6.111   3.760   2.225 -0.1707  0.0635 -0.0176
 2330ntf    cn113876   4.414   6.788   1.359  0.3078 -0.1857  0.0258
 2330ntf    sn213877   4.472   6.954   1.313  0.1285 -0.0986  0.1108
 2330ntf    nn313878   4.382   6.980   1.188  0.6078 -0.0969 -0.2368
 2330ntf    sn213879   4.243   7.052   1.169  0.2513 -0.6748  0.1559
 2330ntf    cn113880   4.281   7.226   1.137  0.3189 -0.6286  0.4808
 2330ntf    fn413881   4.283   6.788   1.375  0.2667 -0.0292 -0.2999
 2330ntf    fn413882   4.434   6.708   1.256 -0.4232  0.0780 -0.3232
 2330ntf    fn413883   4.463   6.737   1.471  0.5601  0.0968  0.0459
 2330ntf    on513884   4.438   7.029   1.432 -0.1218 -0.0812  0.0275
 2330ntf    on513885   4.611   6.944   1.275  0.3868  0.6222  0.8302
 2330ntf    on513886   4.167   7.044   1.292 -0.6477  0.7293 -0.2878
 2330ntf    on513887   4.170   7.007   1.053  0.0052 -0.0846  0.0802
 2330ntf    fn413888   4.177   7.302   1.103  0.7669 -0.3724 -0.3523
 2330ntf    fn413889   4.338   7.288   1.239  0.5812 -0.2460  0.1067
 2330ntf    fn413890   4.366   7.244   1.037  0.0669 -0.0311  0.3693
 2331ntf    cn113891   6.798   2.081   5.958 -0.6723 -0.0623 -0.2964
 2331ntf    sn213892   6.755   2.085   6.134  0.0513 -0.1145 -0.1154
 2331ntf    nn313893   6.662   2.212   6.143 -0.1050 -0.2873  0.8122
 2331ntf    sn213894   6.507   2.223   6.121  0.0447  0.0231 -0.1101
 2331ntf    cn113895   6.508   2.400   6.079 -0.0057 -0.0372 -0.3662
 2331ntf    fn413896   6.885   1.985   5.934 -0.5189  0.0717 -0.2807
 2331ntf    fn413897   6.688   2.056   5.887 -0.6318  0.1598 -0.4395
 2331ntf    fn413898   6.860   2.190   5.914  0.1940 -0.2737  0.3772
 2331ntf    on513899   6.690   1.960   6.165 -0.2943  0.0959  0.0186
 2331ntf    on513900   6.879   2.110   6.203 -0.1932 -0.3417  0.4116
 2331ntf    on513901   6.433   2.226   6.244  0.2894  0.4004  0.0326
 2331ntf    on513902   6.446   2.157   6.009 -0.4853 -0.1754  0.2939
 2331ntf    fn413903   6.387   2.434   6.038  0.0620  0.4340 -0.1858
 2331ntf    fn413904   6.543   2.474   6.183  0.0965 -0.3690 -0.1639
 2331ntf    fn413905   6.590   2.428   5.978  0.1865 -0.2337 -0.2654
 2332ntf    cn113906   5.838   5.363   1.947 -0.1334  0.1407 -0.1812
 2332ntf    sn213907   5.665   5.306   1.957 -0.1762  0.3317  0.1668
 2332ntf    nn313908   5.599   5.408   2.056 -0.0548  0.4437  0.1337
 2332ntf    sn213909   5.538   5.408   2.200 -0.2829 -0.2634  0.0409
 2332ntf    cn113910   5.627   5.539   2.290 -0.0538 -0.1295 -0.3809
 2332ntf    fn413911   5.919   5.301   2.030  0.1013  0.3423 -0.2589
 2332ntf    fn413912   5.894   5.349   1.828 -0.4431 -0.3716 -0.2736
 2332ntf    fn413913   5.836   5.492   1.975  0.0993  0.0928  0.0512
 2332ntf    on513914   5.621   5.314   1.820  0.0287  0.2318  0.0943
 2332ntf    on513915   5.688   5.173   2.008  0.7899  0.3186 -0.2701
 2332ntf    on513916   5.561   5.288   2.277  0.4517 -0.1875 -0.0546
 2332ntf    on513917   5.404   5.462   2.203  0.2454  1.1056 -0.4898
 2332ntf    fn413918   5.595   5.545   2.418  0.0809 -0.2853 -0.3386
 2332ntf    fn413919   5.752   5.498   2.298  0.1200  0.5681  0.6888
 2332ntf    fn413920   5.618   5.660   2.236  0.2176  0.1518  0.2038
 2333ntf    cn113921   0.898   5.963   3.771 -0.1825  0.2416  0.0649
 2333ntf    sn213922   1.025   5.901   3.885 -0.1980 -0.0126 -0.0550
 2333ntf    nn313923   1.123   5.833   3.783  0.2755 -0.1519  0.4823
 2333ntf    sn213924   1.111   5.684   3.732 -0.1448 -0.1053  0.4381
 2333ntf    cn113925   1.217   5.609   3.859 -0.0580 -0.2100  0.3050
 2333ntf    fn413926   0.947   6.060   3.695 -0.0762 -0.4480 -0.7627
 2333ntf    fn413927   0.846   5.874   3.687 -0.5774  0.0907  0.4673
 2333ntf    fn413928   0.801   6.030   3.830  0.0110  0.2667  0.3557
 2333ntf    on513929   1.081   6.022   3.941  0.4235 -0.4136  0.1988
 2333ntf    on513930   0.953   5.820   3.980 -0.2058 -0.1610 -0.1866
 2333ntf    on513931   1.181   5.668   3.607 -0.3923  0.4997  0.2149
 2333ntf    on513932   0.987   5.612   3.745 -0.1349 -0.1062  0.5313
 2333ntf    fn413933   1.341   5.655   3.851 -0.1930  0.3163  1.0067
 2333ntf    fn413934   1.178   5.644   3.981 -0.0256 -0.5410  0.4093
 2333ntf    fn413935   1.220   5.477   3.861 -0.1133 -0.2244 -0.3927
 2334ntf    cn113936   0.277   1.371   1.965 -0.1616 -0.0294  0.1171
 2334ntf    sn213937   0.386   1.507   1.915 -0.0398 -0.2375 -0.1848
 2334ntf    nn313938   0.471   1.416   1.818 -0.0867 -0.2169 -0.2448
 2334ntf    sn213939   0.513   1.448   1.670 -0.1727 -0.3864 -0.3054
 2334ntf    cn113940   0.395   1.348   1.574 -0.3267 -0.1153 -0.3976
 2334ntf    fn413941   0.340   1.269   2.020  0.0446  0.2219  0.3440
 2334ntf    fn413942   0.178   1.408   2.045  0.1530  0.1167  0.4359
 2334ntf    fn413943   0.224   1.306   1.863  0.2476 -0.1902  0.0049
 2334ntf    on513944   0.300   1.602   1.850  0.2143 -0.0966 -0.3147
 2334ntf    on513945   0.454   1.546   2.036 -0.6889 -0.6268  0.3136
 2334ntf    on513946   0.640   1.390   1.635  0.3929  0.6759 -0.0508
 2334ntf    on513947   0.487   1.584   1.632  0.2542 -0.2033  0.0542
 2334ntf    fn413948   0.282   1.412   1.547 -0.4583 -0.3384 -0.3819
 2334ntf    fn413949   0.445   1.317   1.455 -0.0464 -0.1550 -0.2698
 2334ntf    fn413950   0.371   1.243   1.651  0.1265  0.2702  0.2790
 2335ntf    cn113951   2.460   6.324   0.357  0.2680  0.1772  0.2072
 2335ntf    sn213952   2.432   6.185   0.472  0.0601  0.0254 -0.0263
 2335ntf    nn313953   2.557   6.097   0.437  0.0090 -0.2199  0.4088
 2335ntf    sn213954   2.575   5.981   0.334  0.1638  0.2616 -0.1098
 2335ntf    cn113955   2.661   6.070   0.201 -0.3946  0.2494 -0.4848
 2335ntf    fn413956   2.416   6.285   0.239  0.1710 -0.2821  0.3910
 2335ntf    fn413957   2.393   6.436   0.380 -0.3367 -0.0842 -0.2672
 2335ntf    fn413958   2.588   6.354   0.353  0.1437  0.6765 -0.0371
 2335ntf    on513959   2.449   6.266   0.590 -0.6359 -0.0253  0.1168
 2335ntf    on513960   2.297   6.142   0.443  0.0997 -0.1533  0.0527
 2335ntf    on513961   2.448   5.939   0.278  0.4014  0.0352 -0.4855
 2335ntf    on513962   2.668   5.877   0.370 -0.5172 -0.3797 -0.1555
 2335ntf    fn413963   2.682   5.994   0.095  0.5428  0.0310 -0.1518
 2335ntf    fn413964   2.594   6.178   0.164 -0.2354  0.4417 -0.2160
 2335ntf    fn413965   2.781   6.118   0.231 -0.4163  0.1816 -0.2910
 2336ntf    cn113966   3.074   1.708   2.346 -0.0502 -0.1255  0.0640
 2336ntf    sn213967   2.920   1.803   2.352 -0.1329 -0.2766  0.3111
 2336ntf    nn313968   2.936   1.891   2.481 -0.1680  0.0164  0.1156
 2336ntf    sn213969   2.968   2.044   2.495 -0.0405  0.0189 -0.2010
 2336ntf    cn113970   3.119   2.034   2.595 -0.1299  0.1512 -0.0508
 2336ntf    fn413971   3.176   1.786   2.312  0.0294 -0.4039 -0.3429
 2336ntf    fn413972   3.109   1.664   2.466  0.1115  0.5575  0.2729
 2336ntf    fn413973   3.071   1.607   2.260  0.2521 -0.0033 -0.0922
 2336ntf    on513974   2.925   1.878   2.229 -0.1174 -0.1005  0.4179
 2336ntf    on513975   2.820   1.700   2.370  0.4681 -0.9843 -0.3546
 2336ntf    on513976   2.885   2.122   2.583 -0.2268 -0.7108  0.2727
 2336ntf    on513977   3.017   2.116   2.380 -0.4033  0.0690 -0.3259
 2336ntf    fn413978   3.103   1.967   2.708 -1.1353 -0.1260 -0.3453
 2336ntf    fn413979   3.224   1.970   2.545 -0.1910 -0.1067  0.1450
 2336ntf    fn413980   3.166   2.154   2.626  0.6369 -0.1660  0.0529
 2337ntf    cn113981   3.993   5.394   6.582 -0.0174  0.1056  0.0063
 2337ntf    sn213982   4.079   5.550   6.620  0.4201 -0.0821 -0.2198
 2337ntf    nn313983   4.186   5.489   6.718  0.0915 -0.3166 -0.0079
 2337ntf    sn213984   4.201   5.513   6.872 -0.4305  0.1558 -0.0256
 2337ntf    cn113985   4.316   5.654   6.873  0.3121 -0.4446  0.1529
 2337ntf    fn413986   4.074   5.293   6.556 -0.2729 -0.3326  0.8572
 2337ntf    fn413987   3.917   5.362   6.685  0.4540  0.5776  0.5129
 2337ntf    fn413988   3.914   5.409   6.478 -0.2418  0.7823  0.2647
 2337ntf    on513989   4.130   5.569   6.486  0.2784  0.2052 -0.2325
 2337ntf    on513990   3.968   5.631   6.662  0.6975  0.0182  0.3215
 2337ntf    on513991   4.288   5.418   6.936 -0.5063  0.1646  0.0922
 2337ntf    on513992   4.088   5.558   6.950 -0.1869  0.3214  0.2362
 2337ntf    fn413993   4.350   5.699   6.992  0.2280  0.5126 -0.1738
 2337ntf    fn413994   4.420   5.640   6.792  0.3273  0.4922 -0.0055
 2337ntf    fn413995   4.254   5.757   6.818  0.3388 -0.4849  0.0468
 2338ntf    cn113996   4.654   5.886   2.008 -0.2426  0.1545  0.0538
 2338ntf    sn213997   4.795   5.971   1.932 -0.0745 -0.1307  0.0451
 2338ntf    nn313998   4.905   5.860   1.917  0.0495  0.0535 -0.4384
 2338ntf    sn213999   5.039   5.838   1.996 -0.3522 -0.1745  0.1895
 2338ntf    cn114000   5.154   5.934   1.893 -0.0857 -0.3365  0.3337
 2338ntf    fn414001   4.696   5.846   2.127 -0.4674  0.1588  0.1349
 2338ntf    fn414002   4.542   5.954   2.025 -0.1621  0.3209 -0.0739
 2338ntf    fn414003   4.608   5.777   1.949 -0.7354  0.6131 -0.4196
 2338ntf    on514004   4.747   6.003   1.799  0.4982  0.0508 -0.1216
 2338ntf    on514005   4.829   6.080   2.020  0.6499  0.0877 -0.4916
 2338ntf    on514006   5.091   5.704   1.988  0.0902 -0.0230  0.5213
 2338ntf    on514007   5.034   5.898   2.127  0.1020  0.1068  0.0792
 2338ntf    fn414008   5.162   6.065   1.911 -0.1966 -0.2743 -0.0561
 2338ntf    fn414009   5.278   5.891   1.894 -0.2492 -0.8489 -0.4522
 2338ntf    fn414010   5.115   5.929   1.766 -0.2713 -0.6961  0.4026
 2339ntf    cn114011   0.434   5.975   4.712 -0.0599  0.0020 -0.3884
 2339ntf    sn214012   0.260   5.920   4.714 -0.2346  0.5724  0.2256
 2339ntf    nn314013   0.214   5.968   4.572  0.1729 -0.3309 -0.2241
 2339ntf    sn214014   0.219   5.884   4.440  0.2757 -0.1912 -0.3089
 2339ntf    cn114015   0.243   6.015   4.315 -0.1324 -0.0172 -0.2092
 2339ntf    fn414016   0.504   5.882   4.774 -0.2675  0.1495  0.0685
 2339ntf    fn414017   0.483   5.988   4.589  0.5225  0.3957 -0.1172
 2339ntf    fn414018   0.454   6.087   4.778 -0.2971  0.2490 -0.7301
 2339ntf    on514019   0.257   5.776   4.723  0.5676  0.5286 -0.0952
 2339ntf    on514020   0.188   5.995   4.813 -0.3118  0.2286  0.4326
 2339ntf    on514021   0.095   5.818   4.406  0.0208  0.1356 -0.0277
 2339ntf    on514022   0.337   5.802   4.432  0.6678  0.3372 -0.0126
 2339ntf    fn414023   0.208   5.965   4.198 -0.3215 -0.3055 -0.0312
 2339ntf    fn414024   0.175   6.126   4.333  0.2704  0.1059  0.6327
 2339ntf    fn414025   0.368   6.056   4.297 -0.2762  0.4102 -0.2402
 2340ntf    cn114026   0.678   4.043   6.583 -0.2387  0.0635 -0.2530
 2340ntf    sn214027   0.576   4.048   6.433 -0.1954 -0.2201 -0.2919
 2340ntf    nn314028   0.523   4.191   6.470 -0.1700 -0.3830  0.3919
 2340ntf    sn214029   0.394   4.268   6.426  0.0011 -0.3570 -0.0748
 2340ntf    cn114030   0.351   4.335   6.590 -0.1407 -0.1676 -0.1889
 2340ntf    fn414031   0.720   3.918   6.596 -0.2526  0.0928  0.1055
 2340ntf    fn414032   0.781   4.123   6.562 -0.2629  0.1798  0.0652
 2340ntf    fn414033   0.605   4.076   6.689 -0.0945 -0.4683  0.0145
 2340ntf    on514034   0.665   4.054   6.320  0.7115  0.2598  0.4367
 2340ntf    on514035   0.485   3.937   6.451 -0.2175 -0.0690  0.5695
 2340ntf    on514036   0.285   4.185   6.379  0.2679 -0.6879 -0.1128
 2340ntf    on514037   0.432   4.379   6.342  0.0975 -0.4557 -0.1621
 2340ntf    fn414038   0.430   4.435   6.627 -0.2261  0.0286 -0.5283
 2340ntf    fn414039   0.228   4.384   6.597  0.1948  0.5533  0.7622
 2340ntf    fn414040   0.357   4.244   6.685  0.4000  0.0979  0.0302
 2341ntf    cn114041   5.605   6.932   0.864 -0.2776  0.0184  0.0531
 2341ntf    sn214042   5.477   7.048   0.806 -0.3450  0.0182  0.2033
 2341ntf    nn314043   5.390   7.039   0.936  0.0178  0.0791  0.4538
 2341ntf    sn214044   5.316   7.156   1.009 -0.3132  0.2320 -0.1254
 2341ntf    cn114045   5.420   7.180   1.156 -0.2315  0.2897 -0.1921
 2341ntf    fn414046   5.556   6.814   0.897  0.3229 -0.0536  0.7154
 2341ntf    fn414047   5.690   6.911   0.765 -0.4083 -0.1898 -0.0167
 2341ntf    fn414048   5.668   6.974   0.972 -0.5106  0.5494 -0.0124
 2341ntf    on514049   5.534   7.177   0.777  0.5110 -0.3970  0.0154
 2341ntf    on514050   5.402   6.985   0.701  0.1533 -0.2842  0.0257
 2341ntf    on514051   5.191   7.124   1.074 -0.3861  0.1678 -0.2964
 2341ntf    on514052   5.327   7.281   0.938 -0.1238 -0.0369 -0.5689
 2341ntf    fn414053   5.390   7.290   1.224  0.7016  0.0556  0.6198
 2341ntf    fn414054   5.399   7.087   1.248  0.4180  0.5701  0.2509
 2341ntf    fn414055   5.551   7.185   1.139 -0.1793  0.2521  0.1848
 2342ntf    cn114056   0.487   0.429   1.088 -0.3660  0.1972  0.1267
 2342ntf    sn214057   0.410   0.590   1.124 -0.0060  0.3455  0.2442
 2342ntf    nn314058   0.447   0.603   1.276 -0.5295 -0.0021  0.4056
 2342ntf    sn214059   0.537   0.713   1.343 -0.0234 -0.2226  0.0861
 2342ntf    cn114060   0.702   0.661   1.285  0.1544 -0.0579  0.4372
 2342ntf    fn414061   0.484   0.392   0.961  0.1712  0.0013  0.1672
 2342ntf    fn414062   0.618   0.427   1.107 -0.4054  0.0899  0.3897
 2342ntf    fn414063   0.428   0.330   1.153 -0.5150  0.1054 -0.1476
 2342ntf    on514064   0.487   0.670   1.032  0.1038  0.0487  0.0768
 2342ntf    on514065   0.268   0.575   1.099  0.0291  0.2132  0.1205
 2342ntf    on514066   0.550   0.707   1.487 -0.0836 -0.6456  0.0750
 2342ntf    on514067   0.521   0.842   1.283  0.7206  0.0286  0.4159
 2342ntf    fn414068   0.738   0.544   1.335  0.6914 -0.3180 -0.5359
 2342ntf    fn414069   0.717   0.650   1.154 -0.1662  0.3176  0.3657
 2342ntf    fn414070   0.794   0.747   1.325 -0.2077  0.6262 -0.1689
 2343ntf    cn114071   3.005   0.858   4.511  0.3363 -0.3280 -0.0114
 2343ntf    sn214072   2.928   0.735   4.620 -0.2997  0.2801  0.2287
 2343ntf    nn314073   2.906   0.632   4.503 -0.3593  0.2548  0.2621
 2343ntf    sn214074   2.776   0.559   4.456  0.0491 -0.2413 -0.1048
 2343ntf    cn114075   2.712   0.698   4.357  0.0061  0.0315  0.3025
 2343ntf    fn414076   3.128   0.841   4.465  0.3622 -0.2358  0.0228
 2343ntf    fn414077   2.934   0.874   4.401  0.4448 -0.6348 -0.1272
 2343ntf    fn414078   2.999   0.981   4.560  0.2827 -0.1681 -0.4106
 2343ntf    on514079   3.030   0.694   4.713 -0.2289  0.3982  0.2042
 2343ntf    on514080   2.819   0.811   4.677  0.0675  0.3704  0.8153
 2343ntf    on514081   2.683   0.519   4.559 -0.0640 -0.1441 -0.1692
 2343ntf    on514082   2.802   0.467   4.348 -0.1181  0.4899 -0.7863
 2343ntf    fn414083   2.796   0.740   4.263 -0.4520 -0.2422 -0.2331
 2343ntf    fn414084   2.592   0.683   4.303  0.1093 -0.1963  0.1338
 2343ntf    fn414085   2.695   0.800   4.439 -0.0205  0.5034 -0.2870
 2344ntf    cn114086   2.808   1.546   1.878  0.3513 -0.1820 -0.1387
 2344ntf    sn214087   2.812   1.385   1.963 -0.3330  0.0201  0.2809
 2344ntf    nn314088   2.950   1.388   2.038  0.0157  0.3389 -0.3701
 2344ntf    sn214089   3.093   1.356   1.982  0.2194 -0.3229  0.5082
 2344ntf    cn114090   3.158   1.260   2.122  0.2126 -0.4613  0.4166
 2344ntf    fn414091   2.813   1.522   1.748  0.0163  0.4027 -0.2624
 2344ntf    fn414092   2.709   1.624   1.917  0.7317  0.4712 -0.4582
 2344ntf    fn414093   2.914   1.615   1.915  0.5972 -0.4969 -0.2449
 2344ntf    on514094   2.699   1.389   2.053 -0.6734 -0.7421 -0.1035
 2344ntf    on514095   2.796   1.289   1.857 -0.1769 -0.0967  0.3626
 2344ntf    on514096   3.181   1.470   1.971 -0.3047  0.0049 -0.4871
 2344ntf    on514097   3.105   1.256   1.878 -0.7257  0.2126 -0.1300
 2344ntf    fn414098   3.165   1.334   2.231  0.2043  0.2699 -0.0683
 2344ntf    fn414099   3.075   1.161   2.149 -0.2617 -0.2838 -0.3483
 2344ntf    fn414100   3.279   1.214   2.094  0.3705  0.2471 -0.1054
 2345ntf    cn114101   1.765   3.868   4.422 -0.0948 -0.2801 -0.0810
 2345ntf    sn214102   1.902   3.902   4.538 -0.3775 -0.5218  0.3275
 2345ntf    nn314103   1.911   3.759   4.601 -0.0841 -0.4634  0.4177
 2345ntf    sn214104   2.043   3.674   4.597  0.3770  0.2725 -0.2564
 2345ntf    cn114105   1.998   3.551   4.723  0.1556  0.1584 -0.4480
 2345ntf    fn414106   1.797   3.785   4.324 -0.4142 -0.3476 -0.1286
 2345ntf    fn414107   1.655   3.821   4.478  0.0829 -0.3573  0.2103
 2345ntf    fn414108   1.750   3.975   4.346 -0.4394 -0.5551 -0.3960
 2345ntf    on514109   2.004   3.944   4.445 -0.3734 -0.2345  0.4627
 2345ntf    on514110   1.858   3.993   4.640  0.1886 -0.2157  0.3035
 2345ntf    on514111   2.167   3.719   4.655 -0.0073  0.2653  0.5818
 2345ntf    on514112   2.040   3.594   4.477  0.1775  0.6763 -0.5225
 2345ntf    fn414113   1.909   3.461   4.684  0.0925  0.0285 -0.0120
 2345ntf    fn414114   2.105   3.480   4.755 -0.3735 -0.3301  0.2754
 2345ntf    fn414115   1.946   3.600   4.834  0.4261 -0.5051 -0.0259
 2346ntf    cn114116   5.022   3.230   2.811  0.0034 -0.0957  0.3040
 2346ntf    sn214117   5.191   3.169   2.781 -0.0219  0.0492 -0.1414
 2346ntf    nn314118   5.215   3.223   2.636 -0.3289  0.7544  0.0655
 2346ntf    sn214119   5.362   3.245   2.586 -0.0673  0.1648  0.5590
 2346ntf    cn114120   5.320   3.229   2.409  0.0764  0.1118  0.5298
 2346ntf    fn414121   4.982   3.188   2.930  0.0094 -0.1976  0.2707
 2346ntf    fn414122   5.016   3.362   2.813 -0.2442 -0.0952 -0.3074
 2346ntf    fn414123   4.933   3.187   2.723 -0.1577  0.4129  0.2195
 2346ntf    on514124   5.272   3.227   2.885 -0.1531 -0.5528  0.3106
 2346ntf    on514125   5.182   3.025   2.784  0.0969  0.0420 -0.1115
 2346ntf    on514126   5.455   3.138   2.612  0.0678  0.2618  0.4813
 2346ntf    on514127   5.421   3.376   2.598  0.4465 -0.0381  0.2859
 2346ntf    fn414128   5.425   3.231   2.329  0.0421  0.0562  0.4837
 2346ntf    fn414129   5.248   3.119   2.394  0.2525 -0.0368  0.7492
 2346ntf    fn414130   5.247   3.327   2.361  0.1782 -0.0270  0.0901
 2347ntf    cn114131   0.885   0.798   3.117  0.3862 -0.0426 -0.1867
 2347ntf    sn214132   0.922   0.973   3.152 -0.2205  0.0619 -0.0608
 2347ntf    nn314133   1.070   0.966   3.202 -0.3166  0.0752  0.2290
 2347ntf    sn214134   1.116   0.960   3.352 -0.0439  0.2055  0.1528
 2347ntf    cn114135   1.297   0.953   3.339 -0.0792 -0.5702  0.0101
 2347ntf    fn414136   0.877   0.717   3.221 -0.1832  0.1978 -0.0405
 2347ntf    fn414137   0.778   0.797   3.038 -0.1101 -0.3779  0.4806
 2347ntf    fn414138   0.987   0.752   3.047 -0.1962 -0.2854 -0.8921
 2347ntf    on514139   0.910   1.031   3.020  0.0980 -0.3525 -0.2759
 2347ntf    on514140   0.815   1.005   3.243  0.0670  0.0072  0.2994
 2347ntf    on514141   1.083   0.835   3.415 -0.1197  0.3488  0.3964
 2347ntf    on514142   1.087   1.083   3.422  0.7658  0.3331  0.2710
 2347ntf    fn414143   1.340   0.840   3.285  0.0783 -0.3662 -0.2987
 2347ntf    fn414144   1.354   1.051   3.271 -0.0440 -0.2697  0.4662
 2347ntf    fn414145   1.353   0.963   3.458  0.0329  0.4898 -0.1207
 2348ntf    cn114146   5.017   0.289   1.706 -0.0717  0.3508  0.3360
 2348ntf    sn214147   4.977   0.273   1.882 -0.4823 -0.0443  0.2102
 2348ntf    nn314148   4.930   0.125   1.903 -0.0839 -0.2200 -0.1284
 2348ntf    sn214149   4.981   0.015   2.003 -0.3166 -0.4410 -0.2534
 2348ntf    cn114150   4.840   0.032   2.117 -0.0283 -0.1533  0.0600
 2348ntf    fn414151   5.082   0.400   1.675 -0.0917  0.3221  0.1869
 2348ntf    fn414152   5.107   0.198   1.671  0.3680  0.8536  0.1406
 2348ntf    fn414153   4.915   0.278   1.622  0.0382 -0.1683  0.2688
 2348ntf    on514154   5.102   0.311   1.945  0.0303 -0.2799 -0.6444
 2348ntf    on514155   4.868   0.364   1.905 -0.4343  0.0895 -0.0844
 2348ntf    on514156   5.094   0.039   2.089 -0.6032  0.4350 -0.1130
 2348ntf    on514157   4.973  -0.116   1.942  0.0336 -0.0985 -1.0515
 2348ntf    fn414158   4.850  -0.021   2.238  0.6002 -0.0124  0.0720
 2348ntf    fn414159   4.824   0.159   2.148  0.1539 -0.2234  0.4546
 2348ntf    fn414160   4.724  -0.007   2.068  0.0141 -0.3107  0.0821
 2349ntf    cn114161   3.942   3.960   6.628 -0.0811  0.1482 -0.5067
 2349ntf    sn214162   3.849   3.985   6.783  0.2125 -0.0401 -0.2984
 2349ntf    nn314163   3.700   3.954   6.742 -0.1625  0.4084  0.6900
 2349ntf    sn214164   3.606   3.830   6.761  0.2483  0.0068  0.1490
 2349ntf    cn114165   3.583   3.794   6.584  0.4007 -0.3578  0.2021
 2349ntf    fn414166   4.051   4.033   6.612 -0.1753  0.2989 -0.4662
 2349ntf    fn414167   3.975   3.835   6.604  0.0120  0.1400 -0.3368
 2349ntf    fn414168   3.863   3.992   6.527 -0.1673  0.3034 -0.3919
 2349ntf    on514169   3.910   3.892   6.874  0.8226  0.4847 -0.1670
 2349ntf    on514170   3.865   4.126   6.811 -0.1174 -0.0178 -0.2209
 2349ntf    on514171   3.480   3.877   6.812  0.3227 -0.2824  0.6036
 2349ntf    on514172   3.660   3.707   6.814 -0.0544  0.0624  0.5886
 2349ntf    fn414173   3.693   3.771   6.514  0.4859  0.3979  0.0786
 2349ntf    fn414174   3.518   3.679   6.573  0.4299 -0.3693  0.1534
 2349ntf    fn414175   3.511   3.887   6.523  0.1162 -0.3876  0.4871
 2350ntf    cn114176   5.325   2.809   6.300  0.1366  0.0937 -0.0933
 2350ntf    sn214177   5.373   2.848   6.471 -0.3991  0.0407  0.0685
 2350ntf    nn314178   5.528   2.826   6.466 -0.3579  0.3304  0.0482
 2350ntf    sn214179   5.622   2.758   6.571 -0.2978  0.0774 -0.1662
 2350ntf    cn114180   5.630   2.890   6.696 -0.3037  0.0023 -0.0868
 2350ntf    fn414181   5.350   2.907   6.214  0.2829  0.1038 -0.0396
 2350ntf    fn414182   5.381   2.695   6.265  0.2751 -0.1307  0.8406
 2350ntf    fn414183   5.199   2.771   6.298  0.1874 -0.0769 -0.0592
 2350ntf    on514184   5.339   2.988   6.481 -0.1190  0.0880  0.3360
 2350ntf    on514185   5.302   2.757   6.557  0.5150 -0.6231  0.1322
 2350ntf    on514186   5.756   2.732   6.525 -0.1390  0.1070  0.2704
 2350ntf    on514187   5.572   2.644   6.644 -0.2665  0.0457 -0.1943
 2350ntf    fn414188   5.506   2.906   6.740  0.0594  0.1900  0.9098
 2350ntf    fn414189   5.698   2.856   6.804 -0.2815 -0.1551 -0.1506
 2350ntf    fn414190   5.668   3.005   6.642 -1.0098 -0.0303 -0.6670
 2351ntf    cn114191   3.369   0.946   5.293  0.0367 -0.0786  0.0845
 2351ntf    sn214192   3.345   0.826   5.427  0.0786  0.2897  0.4242
 2351ntf    nn314193   3.478   0.745   5.406 -0.2568 -0.1624  0.0051
 2351ntf    sn214194   3.621   0.770   5.466 -0.2108 -0.0573 -0.1469
 2351ntf    cn114195   3.615   0.678   5.623  0.1639  0.2543  0.0518
 2351ntf    fn414196   3.462   1.037   5.318 -0.0912  0.0883 -0.0434
 2351ntf    fn414197   3.417   0.884   5.186  0.2205  1.1435 -0.5599
 2351ntf    fn414198   3.266   1.018   5.251  0.2758  0.3461  0.2210
 2351ntf    on514199   3.340   0.911   5.543  0.2715  0.0696  0.5947
 2351ntf    on514200   3.226   0.759   5.379  0.4231  0.0493 -0.1044
 2351ntf    on514201   3.644   0.905   5.513 -0.2844 -0.2740  0.5316
 2351ntf    on514202   3.720   0.694   5.395  0.1926  0.5554 -0.2442
 2351ntf    fn414203   3.520   0.728   5.701 -0.2428 -0.7567  0.2128
 2351ntf    fn414204   3.585   0.550   5.608 -0.0063  0.3411 -0.3503
 2351ntf    fn414205   3.730   0.685   5.689  0.3744 -0.3460 -0.2488
 2352ntf    cn114206   1.302   5.280   0.972  0.7664 -0.0069 -0.1291
 2352ntf    sn214207   1.416   5.154   1.037  0.0398 -0.2766  0.6438
 2352ntf    nn314208   1.430   5.209   1.183  0.2278 -0.2132  0.6030
 2352ntf    sn214209   1.482   5.355   1.207 -0.0338 -0.0098 -0.0374
 2352ntf    cn114210   1.547   5.328   1.375 -0.2794  0.2431  0.0997
 2352ntf    fn414211   1.268   5.252   0.847  0.2145 -0.5258  0.1346
 2352ntf    fn414212   1.193   5.293   1.045  0.4231  0.4927 -0.7207
 2352ntf    fn414213   1.367   5.395   0.980 -0.1899  0.5328  0.0476
 2352ntf    on514214   1.339   5.033   1.024 -0.1363 -0.1075  0.0751
 2352ntf    on514215   1.528   5.170   0.948  0.2197  0.1229  0.9371
 2352ntf    on514216   1.375   5.448   1.234 -0.2863 -0.4504  0.4877
 2352ntf    on514217   1.602   5.405   1.143  0.2955 -0.5509  0.1478
 2352ntf    fn414218   1.454   5.338   1.468 -0.5185 -0.4595 -0.0596
 2352ntf    fn414219   1.596   5.205   1.383 -0.0688  0.3276  0.1261
 2352ntf    fn414220   1.639   5.419   1.406  0.2413 -0.3048  0.1874
 2353ntf    cn114221   2.325   3.921   5.698  0.0883  0.2876 -0.2896
 2353ntf    sn214222   2.382   3.880   5.530  0.3441  0.1301 -0.1662
 2353ntf    nn314223   2.237   3.845   5.479  0.0716  0.9375  0.0398
 2353ntf    sn214224   2.147   3.931   5.383 -0.3786  0.1700 -0.2285
 2353ntf    cn114225   2.040   3.800   5.316  0.1578 -0.4104  0.0387
 2353ntf    fn414226   2.238   4.020   5.691 -0.2087  0.0167 -0.4916
 2353ntf    fn414227   2.265   3.820   5.758  0.6968 -0.0607 -0.2518
 2353ntf    fn414228   2.423   3.966   5.775  0.0467 -0.2744  0.0991
 2353ntf    on514229   2.443   4.003   5.486 -0.2607  0.4365 -0.1536
 2353ntf    on514230   2.457   3.759   5.547 -0.1157 -0.0266  0.7843
 2353ntf    on514231   2.208   3.992   5.268 -0.4883 -0.2274 -0.5017
 2353ntf    on514232   2.059   4.016   5.458 -0.6061 -0.4053  0.1665
 2353ntf    fn414233   1.956   3.834   5.220  0.0524  0.0148  0.2767
 2353ntf    fn414234   2.111   3.698   5.271  0.5976  0.0224 -0.2498
 2353ntf    fn414235   1.958   3.741   5.402 -0.1275 -0.1448 -0.0505
 2354ntf    cn114236   4.590   2.879   1.997 -0.0153  0.0900  0.1563
 2354ntf    sn214237   4.415   2.885   2.043 -0.0912  0.4365 -0.1776
 2354ntf    nn314238   4.383   2.738   1.996 -0.1966  0.3180  0.2624
 2354ntf    sn214239   4.390   2.607   2.083 -0.1464  0.2190  0.1089
 2354ntf    cn114240   4.213   2.587   2.120 -0.2297 -0.1959 -0.4952
 2354ntf    fn414241   4.614   2.871   1.867  0.0953  0.7492  0.1349
 2354ntf    fn414242   4.656   2.984   2.042  0.6292 -0.2610  0.0504
 2354ntf    fn414243   4.649   2.778   2.059 -0.5762 -0.2916  0.0706
 2354ntf    on514244   4.407   2.904   2.185 -0.3345 -0.9995  0.0122
 2354ntf    on514245   4.354   2.989   1.964  0.3514  0.8654  0.0450
 2354ntf    on514246   4.455   2.619   2.211  0.0684  0.7738 -0.0456
 2354ntf    on514247   4.418   2.490   2.004 -0.3274 -0.3882  0.9413
 2354ntf    fn414248   4.141   2.598   2.010 -0.3651 -0.0863 -0.3960
 2354ntf    fn414249   4.205   2.466   2.172 -1.0575  0.2727  0.4975
 2354ntf    fn414250   4.165   2.669   2.213 -0.1819 -0.7970  0.0635
 2355ntf    cn114251   2.476   4.510   3.190  0.0702  0.2059 -0.4479
 2355ntf    sn214252   2.302   4.466   3.158  0.0816  0.0714 -0.3269
 2355ntf    nn314253   2.265   4.571   3.047  0.4147  0.6334  0.0881
 2355ntf    sn214254   2.258   4.579   2.891 -0.1639  0.1150  0.0820
 2355ntf    cn114255   2.089   4.520   2.864 -0.1167  0.0408 -0.0525
 2355ntf    fn414256   2.543   4.417   3.256 -0.1580 -0.1667 -0.7396
 2355ntf    fn414257   2.535   4.521   3.072  0.3616 -0.0152 -0.3216
 2355ntf    fn414258   2.490   4.629   3.247 -0.0879 -0.1769  0.4029
 2355ntf    on514259   2.296   4.331   3.108 -0.6164 -0.0849  0.1719
 2355ntf    on514260   2.243   4.493   3.287  0.4098  0.0116 -0.1605
 2355ntf    on514261   2.341   4.493   2.810 -0.4684  0.1631 -0.2852
 2355ntf    on514262   2.249   4.720   2.860 -0.1622  0.1360  0.1741
 2355ntf    fn414263   2.062   4.508   2.735 -0.2903  0.1575 -0.0282
 2355ntf    fn414264   2.057   4.406   2.923 -0.1443 -0.0811 -0.3015
 2355ntf    fn414265   2.000   4.611   2.901  0.3063  0.2106  0.5573
 2356ntf    cn114266   4.119   0.710   1.210 -0.3298 -0.0748  0.0026
 2356ntf    sn214267   4.203   0.870   1.233 -0.2792 -0.0882 -0.0895
 2356ntf    nn314268   4.348   0.828   1.190 -0.0559 -0.1086  0.6716
 2356ntf    sn214269   4.449   0.756   1.286 -0.0091 -0.4271  0.3847
 2356ntf    cn114270   4.537   0.905   1.342 -0.1667 -0.1964  0.0196
 2356ntf    fn414271   4.023   0.695   1.301 -0.3001 -0.0115  0.0447
 2356ntf    fn414272   4.072   0.690   1.088  0.7428  0.5583 -0.5247
 2356ntf    fn414273   4.200   0.607   1.218 -0.1081  0.0694 -0.3751
 2356ntf    on514274   4.143   0.961   1.139  0.5090  0.3108 -0.2125
 2356ntf    on514275   4.177   0.903   1.371  0.1096 -0.2017  0.0139
 2356ntf    on514276   4.545   0.674   1.216 -0.1264 -0.0246 -0.2504
 2356ntf    on514277   4.399   0.706   1.412  0.6135 -0.8765  0.4609
 2356ntf    fn414278   4.586   0.980   1.246  0.0691 -0.0496  0.2527
 2356ntf    fn414279   4.455   0.991   1.400  0.3945  0.0523  0.4529
 2356ntf    fn414280   4.639   0.874   1.421 -0.2062 -0.5538 -0.0677
 2357ntf    cn114281   0.988   1.588   3.831  0.1911  0.6983 -0.0673
 2357ntf    sn214282   0.998   1.648   4.003  0.0590 -0.0116  0.1889
 2357ntf    nn314283   1.001   1.804   3.986  0.4823 -0.0664 -0.2944
 2357ntf    sn214284   1.123   1.902   3.972  0.0976  0.4612  0.0145
 2357ntf    cn114285   1.066   1.980   3.818 -0.2927  0.3157  0.0842
 2357ntf    fn414286   0.872   1.605   3.769  0.0898  0.5298  0.0742
 2357ntf    fn414287   1.089   1.627   3.755 -0.0175  0.7928 -0.2997
 2357ntf    fn414288   1.015   1.459   3.834  0.1405  0.6868 -0.1069
 2357ntf    on514289   0.874   1.614   4.068 -0.0471 -0.0763 -0.0446
 2357ntf    on514290   1.117   1.591   4.062 -0.2993 -0.6120  0.3378
 2357ntf    on514291   1.245   1.837   3.932  0.1505  0.2058  0.5792
 2357ntf    on514292   1.114   2.001   4.076 -0.4206 -0.0094  0.4254
 2357ntf    fn414293   0.981   2.078   3.842 -0.0926  0.5974 -0.3606
 2357ntf    fn414294   1.167   2.038   3.756 -0.4630  0.1701 -0.3300
 2357ntf    fn414295   1.003   1.899   3.735 -0.4243  0.0905  0.3984
 2358ntf    cn114296   6.520   4.560   6.779 -0.2709  0.3900 -0.0664
 2358ntf    sn214297   6.402   4.444   6.704  0.1531 -0.1575  0.1056
 2358ntf    nn314298   6.399   4.333   6.815  0.0698  0.4800  0.7484
 2358ntf    sn214299   6.506   4.220   6.839  0.0157  0.2720  0.0322
 2358ntf    cn114300   6.425   4.082   6.753  0.2256  0.4841 -0.5113
 2358ntf    fn414301   6.507   4.564   6.911  0.1591  0.2287 -0.0161
 2358ntf    fn414302   6.646   4.523   6.758 -0.4093  0.0554 -0.3071
 2358ntf    fn414303   6.509   4.677   6.720 -0.2694  0.0899 -0.6643
 2358ntf    on514304   6.274   4.510   6.703 -0.1908 -0.8127 -0.8787
 2358ntf    on514305   6.459   4.410   6.575 -0.0525  0.4724 -0.1539
 2358ntf    on514306   6.517   4.170   6.974 -0.0597  0.4717  0.1121
 2358ntf    on514307   6.632   4.226   6.769 -0.1046 -0.0066 -0.2130
 2358ntf    fn414308   6.406   4.099   6.623  0.2675  0.6509 -0.4949
 2358ntf    fn414309   6.490   3.967   6.766  0.3038  0.5893  0.0200
 2358ntf    fn414310   6.305   4.059   6.803  0.3833 -0.1879 -0.4297
 2359ntf    cn114311   5.117   2.679   5.749  0.7005 -0.1585  0.3501
 2359ntf    sn214312   5.138   2.618   5.579  0.1193 -0.1123  0.2598
 2359ntf    nn314313   5.214   2.737   5.510 -0.0755 -0.3746 -0.4112
 2359ntf    sn214314   5.182   2.820   5.380 -0.0353 -0.1441 -0.2734
 2359ntf    cn114315   5.326   2.794   5.272  0.0752 -0.4327 -0.0615
 2359ntf    fn414316   5.053   2.795   5.752  0.5371 -0.2361 -0.0370
 2359ntf    fn414317   5.061   2.588   5.827  0.1192  0.1793  0.3334
 2359ntf    fn414318   5.239   2.702   5.794  0.7913  0.4378 -0.1927
 2359ntf    on514319   5.207   2.493   5.593 -0.1428 -0.2963 -0.0648
 2359ntf    on514320   4.999   2.612   5.538  0.0447  0.7066  0.3641
 2359ntf    on514321   5.191   2.961   5.406 -0.7590 -0.1063 -0.2011
 2359ntf    on514322   5.072   2.776   5.298 -0.0136 -1.1921  0.2363
 2359ntf    fn414323   5.318   2.873   5.165 -0.3774  0.2019  0.4308
 2359ntf    fn414324   5.434   2.838   5.334 -0.3774  0.3376  0.2036
 2359ntf    fn414325   5.356   2.669   5.244 -0.4988 -0.4941 -0.4246
 2360ntf    cn114326   3.719   2.280   5.132  0.1295 -0.2750 -0.0127
 2360ntf    sn214327   3.547   2.338   5.123  0.1897 -0.1495 -0.3828
 2360ntf    nn314328   3.484   2.213   5.053  0.0434 -0.2644 -0.0488
 2360ntf    sn214329   3.423   2.207   4.909  0.3275  0.0778 -0.1849
 2360ntf    cn114330   3.494   2.046   4.862 -0.0595 -0.0777 -0.2442
 2360ntf    fn414331   3.799   2.381   5.160 -0.1993  0.0366 -0.1791
 2360ntf    fn414332   3.731   2.193   5.230 -0.0517 -0.1795  0.0949
 2360ntf    fn414333   3.759   2.223   5.019 -0.3943  0.3158 -0.5072
 2360ntf    on514334   3.515   2.361   5.262 -0.0262  0.0935 -0.4701
 2360ntf    on514335   3.558   2.459   5.045 -0.1107 -0.3856 -0.7943
 2360ntf    on514336   3.465   2.298   4.804  0.4753  0.4199  0.1694
 2360ntf    on514337   3.281   2.183   4.916  0.4875 -0.6159  0.8411
 2360ntf    fn414338   3.476   1.953   4.954 -0.2800  0.0398 -0.1654
 2360ntf    fn414339   3.431   2.011   4.752 -0.2725 -0.1062 -0.1135
 2360ntf    fn414340   3.624   2.041   4.840  0.0373  0.1215  0.2663
 2361ntf    cn114341   3.329   4.277   2.521 -0.4205  0.1100  0.1069
 2361ntf    sn214342   3.267   4.141   2.418 -0.1474  0.2184 -0.2036
 2361ntf    nn314343   3.117   4.183   2.404 -0.0773  0.7384  0.5250
 2361ntf    sn214344   3.033   4.224   2.277  0.0713 -0.1208  0.1444
 2361ntf    cn114345   2.945   4.074   2.224 -0.1486 -0.0059  0.1818
 2361ntf    fn414346   3.266   4.297   2.636 -0.3864  0.1795  0.1140
 2361ntf    fn414347   3.455   4.256   2.553 -0.2685 -0.4228 -0.8182
 2361ntf    fn414348   3.330   4.393   2.456 -0.1773 -0.1923 -0.4365
 2361ntf    on514349   3.345   4.134   2.297 -0.2086 -0.0725 -0.2274
 2361ntf    on514350   3.276   4.026   2.504  0.0794  0.3061 -0.1101
 2361ntf    on514351   3.101   4.266   2.157  0.7927 -0.1741  0.5283
 2361ntf    on514352   2.922   4.305   2.320  0.2150  0.1070  0.0837
 2361ntf    fn414353   2.890   4.010   2.326 -0.0959 -0.2083  0.0848
 2361ntf    fn414354   2.856   4.097   2.129  0.1687  0.4182 -0.0146
 2361ntf    fn414355   3.039   3.989   2.183 -0.2353  0.1321 -0.3118
 2362ntf    cn114356   3.643   1.319   5.414 -0.4962 -0.0702  0.5233
 2362ntf    sn214357   3.686   1.330   5.590 -0.1915 -0.0127  0.4451
 2362ntf    nn314358   3.839   1.297   5.576 -0.1548  0.3704 -0.0980
 2362ntf    sn214359   3.970   1.372   5.617 -0.0959  0.3042 -0.1645
 2362ntf    cn114360   4.016   1.443   5.456  0.3115  0.5321  0.0484
 2362ntf    fn414361   3.634   1.195   5.366 -0.7643  0.0009  0.3832
 2362ntf    fn414362   3.522   1.368   5.394 -0.5172  0.0573  0.9579
 2362ntf    fn414363   3.726   1.387   5.337 -0.1889 -0.4883  0.4845
 2362ntf    on514364   3.643   1.466   5.611 -0.1515 -0.0331  0.6629
 2362ntf    on514365   3.605   1.226   5.649 -0.4267 -0.2223 -0.2351
 2362ntf    on514366   4.075   1.279   5.653 -0.2224 -0.0705 -0.7568
 2362ntf    on514367   3.952   1.481   5.710 -0.6864 -0.4356  0.6069
 2362ntf    fn414368   4.114   1.530   5.470  0.5094  0.1694  0.9796
 2362ntf    fn414369   4.047   1.346   5.372  0.2182  0.5262  0.0199
 2362ntf    fn414370   3.915   1.505   5.396 -0.0904 -0.1679 -0.0207
 2363ntf    cn114371   3.479   6.729   4.524  0.4217 -0.2829 -0.0400
 2363ntf    sn214372   3.465   6.549   4.549  0.2185 -0.2581  0.0282
 2363ntf    nn314373   3.328   6.517   4.480  0.2272  0.2734 -0.2412
 2363ntf    sn214374   3.177   6.515   4.524  0.3104 -0.2612  0.0246
 2363ntf    cn114375   3.105   6.374   4.434 -0.3786 -0.1158  0.3397
 2363ntf    fn414376   3.571   6.784   4.601  0.3232 -0.0794 -0.0666
 2363ntf    fn414377   3.511   6.754   4.398  0.7268  0.4350  0.1760
 2363ntf    fn414378   3.368   6.796   4.551  0.2417 -0.6699  0.1957
 2363ntf    on514379   3.575   6.503   4.468  0.1932 -0.2873  0.0106
 2363ntf    on514380   3.465   6.527   4.692 -0.3991 -0.3246  0.0216
 2363ntf    on514381   3.101   6.619   4.460  0.3220  0.0109  0.4532
 2363ntf    on514382   3.153   6.478   4.662  0.0655  0.2423  0.1180
 2363ntf    fn414383   3.163   6.259   4.463 -0.5948 -0.3039  0.0365
 2363ntf    fn414384   2.979   6.352   4.468 -0.2836 -0.5331  0.4169
 2363ntf    fn414385   3.111   6.389   4.302 -0.3040  0.4311  0.3993
 2364ntf    cn114386   0.820   6.317   2.997 -0.1424 -0.0203 -0.4269
 2364ntf    sn214387   0.776   6.420   2.854 -0.1374  0.3258 -0.1805
 2364ntf    nn314388   0.633   6.459   2.906 -0.2363  0.2152 -0.3697
 2364ntf    sn214389   0.496   6.382   2.907 -0.1293  0.0321 -0.0408
 2364ntf    cn114390   0.395   6.520   2.846  0.1226  0.2732  0.0840
 2364ntf    fn414391   0.947   6.282   2.985  0.0245  0.3523  0.2238
 2364ntf    fn414392   0.803   6.371   3.116 -0.1783 -0.2017 -0.3499
 2364ntf    fn414393   0.744   6.210   3.000 -0.8049  0.4606  0.1376
 2364ntf    on514394   0.871   6.529   2.856  0.1821  0.0515 -0.3979
 2364ntf    on514395   0.784   6.332   2.740  0.2201  0.3150 -0.1490
 2364ntf    on514396   0.454   6.347   3.041  0.1337 -0.5958 -0.1171
 2364ntf    on514397   0.482   6.282   2.804  0.3533  0.0017 -0.0787
 2364ntf    fn414398   0.268   6.498   2.818  0.1623  0.3841 -0.1894
 2364ntf    fn414399   0.398   6.630   2.918  0.2136  0.0799  0.3762
 2364ntf    fn414400   0.447   6.556   2.730  0.2071 -0.1075  0.0029
 2365ntf    cn114401   6.423   3.415   6.055  0.3637 -0.1472  0.5432
 2365ntf    sn214402   6.421   3.245   5.991 -0.0819  0.1845 -0.3452
 2365ntf    nn314403   6.472   3.162   6.114 -0.4597  0.7202  0.1776
 2365ntf    sn214404   6.398   3.082   6.228  0.0074 -0.2641 -0.1950
 2365ntf    cn114405   6.538   3.009   6.317  0.2615  0.0587 -0.3254
 2365ntf    fn414406   6.542   3.447   6.102  0.4557 -0.1487  0.3121
 2365ntf    fn414407   6.393   3.505   5.962 -0.1710 -0.1584  0.7039
 2365ntf    fn414408   6.332   3.421   6.151  0.2016 -0.4192  0.4070
 2365ntf    on514409   6.282   3.234   5.954 -0.1616 -0.1161  0.0328
 2365ntf    on514410   6.513   3.243   5.880  0.1308 -0.3369 -0.1625
 2365ntf    on514411   6.325   2.965   6.188 -0.3426 -0.2683  0.4416
 2365ntf    on514412   6.333   3.175   6.318  0.3057  0.4130 -0.6671
 2365ntf    fn414413   6.626   3.097   6.363 -0.2368  0.1570  0.4446
 2365ntf    fn414414   6.509   2.942   6.427  0.9204 -0.4319 -0.4393
 2365ntf    fn414415   6.611   2.924   6.246 -0.1670 -0.0832 -0.5973
 2366ntf    cn114416   4.558   4.147   6.649 -0.2476  0.0351  0.0548
 2366ntf    sn214417   4.676   4.009   6.666 -0.0415  0.1951 -0.0773
 2366ntf    nn314418   4.805   4.093   6.698  0.1331 -0.3082  0.5630
 2366ntf    sn214419   4.941   4.106   6.620  0.0803  0.0262  0.5248
 2366ntf    cn114420   5.054   4.116   6.762  0.3781  0.1149  0.2823
 2366ntf    fn414421   4.431   4.109   6.646 -0.1631 -0.2444  0.0250
 2366ntf    fn414422   4.569   4.232   6.749  0.0425 -0.2725  0.2882
 2366ntf    fn414423   4.587   4.219   6.542  0.3665 -0.2652  0.0175
 2366ntf    on514424   4.635   3.937   6.784 -0.2005 -0.0393 -0.2756
 2366ntf    on514425   4.672   3.940   6.540 -0.1962  0.4629 -0.2201
 2366ntf    on514426   4.953   4.239   6.566 -0.2987  0.0033  0.3803
 2366ntf    on514427   4.986   3.990   6.548  0.1567  0.4025 -0.0376
 2366ntf    fn414428   5.064   4.000   6.826  0.4034 -0.0896 -0.0902
 2366ntf    fn414429   5.177   4.149   6.726  0.2061 -0.0736 -0.4797
 2366ntf    fn414430   5.003   4.197   6.854 -0.1697  0.0524  0.0399
 2367ntf    cn114431   4.956   5.156   2.727 -0.5295  0.2150 -0.2185
 2367ntf    sn214432   5.022   5.081   2.879 -0.4885  0.3379 -0.1773
 2367ntf    nn314433   5.048   4.935   2.828 -0.6123  0.0445  0.5799
 2367ntf    sn214434   4.973   4.800   2.855 -0.2998 -0.2282  0.1021
 2367ntf    cn114435   4.905   4.761   2.691 -0.1353 -0.0201 -0.0167
 2367ntf    fn414436   4.923   5.281   2.753  0.0214  0.2546  0.3213
 2367ntf    fn414437   5.059   5.159   2.645  0.1241 -0.5387  0.5550
 2367ntf    fn414438   4.853   5.092   2.674 -0.4473  0.1816 -0.3365
 2367ntf    on514439   5.137   5.169   2.885 -0.4354  0.2718 -0.2119
 2367ntf    on514440   4.912   5.103   2.969 -0.1160  0.0713  0.3469
 2367ntf    on514441   4.852   4.807   2.933  0.1405  0.1371  0.7702
 2367ntf    on514442   5.068   4.695   2.882  0.1531  0.2430  0.3532
 2367ntf    fn414443   4.994   4.745   2.594 -0.3744 -0.1873 -0.2085
 2367ntf    fn414444   4.830   4.653   2.676 -0.4951  0.2588 -0.2362
 2367ntf    fn414445   4.825   4.860   2.655 -0.4138  0.0107  0.6745
 2368ntf    cn114446   3.270   0.141   6.861  0.3067 -0.4990 -0.0205
 2368ntf    sn214447   3.246   0.174   6.684  0.1319 -0.2585  0.0471
 2368ntf    nn314448   3.220   0.329   6.688  0.1336 -0.2599  0.1142
 2368ntf    sn214449   3.309   0.452   6.652 -0.2507 -0.0184 -0.0211
 2368ntf    cn114450   3.237   0.566   6.774 -0.2236  0.1181 -0.1329
 2368ntf    fn414451   3.155   0.109   6.917 -0.0887  0.4008 -0.3093
 2368ntf    fn414452   3.357   0.044   6.886  0.4422 -0.5391 -0.6386
 2368ntf    fn414453   3.317   0.248   6.923  0.5333 -0.3485 -0.4461
 2368ntf    on514454   3.368   0.132   6.619 -0.1207 -0.8852 -0.0297
 2368ntf    on514455   3.123   0.114   6.640 -0.0352  0.2123 -0.1336
 2368ntf    on514456   3.281   0.509   6.523 -0.3790 -0.0987 -0.0297
 2368ntf    on514457   3.449   0.451   6.690 -0.1971 -0.2641 -0.2233
 2368ntf    fn414458   3.276   0.692   6.761 -0.1664  0.1269  0.1239
 2368ntf    fn414459   3.106   0.562   6.757 -0.1717  0.1026 -0.5463
 2368ntf    fn414460   3.263   0.536   6.900  0.5207  0.3833 -0.2209
 2369ntf    cn114461   2.833   1.261   6.292  0.4377 -0.0366  0.0642
 2369ntf    sn214462   2.905   1.139   6.178  0.2941 -0.1281  0.0726
 2369ntf    nn314463   2.796   1.026   6.196 -0.0298  0.1444 -0.1639
 2369ntf    sn214464   2.656   1.005   6.129  0.0538  0.0693 -0.3171
 2369ntf    cn114465   2.712   0.888   6.002  0.1159 -0.2589  0.0090
 2369ntf    fn414466   2.745   1.214   6.379  0.4132 -0.2644 -0.0854
 2369ntf    fn414467   2.930   1.329   6.350  0.6629 -0.1085 -0.2267
 2369ntf    fn414468   2.767   1.352   6.222  0.0970 -0.5117 -0.2341
 2369ntf    on514469   2.918   1.197   6.047  0.1669 -0.5247 -0.1193
 2369ntf    on514470   3.025   1.107   6.250  0.5626  0.6314 -0.0323
 2369ntf    on514471   2.612   1.121   6.056  0.0318 -0.1362 -0.6299
 2369ntf    on514472   2.563   0.925   6.206  0.1409  0.0869 -0.1934
 2369ntf    fn414473   2.794   0.951   5.919 -0.0131 -0.1179 -0.0126
 2369ntf    fn414474   2.775   0.784   6.054  0.1131 -0.3383 -0.1461
 2369ntf    fn414475   2.610   0.841   5.932  0.2258 -0.7988  0.2062
 2370ntf    cn114476   2.581   0.502   6.241 -0.2886  0.3031  0.0594
 2370ntf    sn214477   2.603   0.459   6.065 -0.2561 -0.0793  0.1550
 2370ntf    nn314478   2.494   0.554   6.004  0.1196  0.2417 -0.0212
 2370ntf    sn214479   2.355   0.534   5.933  0.1017  0.1458  0.0413
 2370ntf    cn114480   2.399   0.560   5.758  0.3471 -0.2103  0.0487
 2370ntf    fn414481   2.631   0.620   6.274  0.6300 -0.1936  0.4815
 2370ntf    fn414482   2.457   0.496   6.286 -0.2228  0.6874  0.2891
 2370ntf    fn414483   2.648   0.418   6.318  0.2120  0.2203 -0.4536
 2370ntf    on514484   2.738   0.503   6.041 -0.2232 -0.1524  0.2047
 2370ntf    on514485   2.583   0.316   6.066 -0.1741 -0.0996 -0.5588
 2370ntf    on514486   2.263   0.638   5.970  0.0980  0.4673 -0.8425
 2370ntf    on514487   2.297   0.402   5.928  0.1057  0.1324  0.3580
 2370ntf    fn414488   2.469   0.462   5.703  0.2036 -0.2240 -0.1134
 2370ntf    fn414489   2.289   0.577   5.687  0.3526  0.4694  0.1962
 2370ntf    fn414490   2.471   0.668   5.737 -0.3807  0.2655 -0.0382
 2371ntf    cn114491   3.148   5.151   6.491  0.3152 -0.1110 -0.1762
 2371ntf    sn214492   3.285   5.263   6.448  0.2256 -0.0506 -0.3034
 2371ntf    nn314493   3.387   5.157   6.392 -0.1292 -0.3964 -0.3017
 2371ntf    sn214494   3.502   5.075   6.460  0.1476  0.0984 -0.1652
 2371ntf    cn114495   3.645   5.187   6.457  0.1762  0.0703  0.1102
 2371ntf    fn414496   3.187   5.052   6.569 -0.6099 -0.4879 -0.1836
 2371ntf    fn414497   3.048   5.213   6.551 -0.0626 -0.2681 -0.6379
 2371ntf    fn414498   3.095   5.091   6.386  0.3172 -0.4419  0.0095
 2371ntf    on514499   3.228   5.342   6.342 -0.7126 -0.2859  0.0145
 2371ntf    on514500   3.317   5.324   6.574  0.1295  0.3218 -0.4586
 2371ntf    on514501   3.550   4.963   6.383  0.4058  0.1082 -0.0185
 2371ntf    on514502   3.480   5.045   6.599  0.0270 -0.2957 -0.2668
 2371ntf    fn414503   3.659   5.237   6.335  0.5203 -0.3723 -0.0346
 2371ntf    fn414504   3.621   5.291   6.535  0.0848 -0.3312  0.6220
 2371ntf    fn414505   3.759   5.132   6.497  0.4034  0.3395 -0.1618
 2372ntf    cn114506   4.850   1.411   0.723 -0.3788  0.0403  0.1901
 2372ntf    sn214507   4.883   1.285   0.849  0.0126 -0.3318 -0.2803
 2372ntf    nn314508   5.035   1.260   0.819  0.0891 -0.1068 -0.0880
 2372ntf    sn214509   5.146   1.256   0.929 -0.2123 -0.2556  0.2109
 2372ntf    cn114510   5.234   1.103   0.882  0.1092 -0.0585  0.1685
 2372ntf    fn414511   4.729   1.457   0.751 -0.5262 -0.7506  0.9028
 2372ntf    fn414512   4.933   1.514   0.722 -0.5313  0.1709  0.6095
 2372ntf    fn414513   4.850   1.358   0.602 -0.4633 -0.1220  0.2615
 2372ntf    on514514   4.857   1.364   0.967  0.3024 -0.2667 -0.2585
 2372ntf    on514515   4.795   1.176   0.814  0.0004 -0.2026 -0.6501
 2372ntf    on514516   5.110   1.223   1.065  0.0196 -0.3710  0.2454
 2372ntf    on514517   5.253   1.350   0.908 -0.8135  0.4157  0.1236
 2372ntf    fn414518   5.275   1.107   0.756  0.4199 -0.0093  0.2691
 2372ntf    fn414519   5.340   1.089   0.960  0.4625  0.1244 -0.2759
 2372ntf    fn414520   5.161   0.993   0.889  0.2605 -0.1447  0.4103
 2373ntf    cn114521   4.583   5.488   5.305  0.1688  0.1621 -0.1184
 2373ntf    sn214522   4.675   5.641   5.270  0.4480  0.0211 -0.0077
 2373ntf    nn314523   4.809   5.570   5.232  0.2823 -0.2938 -0.0143
 2373ntf    sn214524   4.868   5.569   5.087 -0.3280 -0.4271 -0.2643
 2373ntf    cn114525   4.973   5.421   5.096  0.3977  0.0792 -0.2349
 2373ntf    fn414526   4.456   5.514   5.329  0.0815 -0.3170 -0.0417
 2373ntf    fn414527   4.581   5.398   5.208 -0.0911 -0.3977  0.4003
 2373ntf    fn414528   4.618   5.428   5.418 -0.3512 -0.0415 -0.0645
 2373ntf    on514529   4.604   5.711   5.166  0.8098  0.4610  0.0399
 2373ntf    on514530   4.672   5.705   5.399 -0.4937  0.0518 -0.0339
 2373ntf    on514531   4.963   5.678   5.075 -0.6149 -0.0828  0.5445
 2373ntf    on514532   4.784   5.547   4.972 -0.8416  0.6285 -0.0989
 2373ntf    fn414533   5.081   5.441   5.168  0.2359  0.0668  0.0124
 2373ntf    fn414534   4.906   5.322   5.153  0.4492  0.2134  0.0562
 2373ntf    fn414535   5.015   5.379   4.977  0.6557 -0.0579 -0.0948
 2374ntf    cn114536   1.660   5.309   4.959  0.1878  0.0227  0.8658
 2374ntf    sn214537   1.716   5.461   4.876  0.1314 -0.3943  0.0543
 2374ntf    nn314538   1.865   5.431   4.837  0.3006 -0.0881  0.4582
 2374ntf    sn214539   1.914   5.360   4.705  0.4016  0.7093  0.0597
 2374ntf    cn114540   1.971   5.497   4.600  0.3018  0.5402 -0.2161
 2374ntf    fn414541   1.533   5.284   4.931  0.3318  0.0799  0.1273
 2374ntf    fn414542   1.722   5.207   4.901 -0.6487 -0.1509  0.2497
 2374ntf    fn414543   1.688   5.308   5.088 -0.1233 -0.7917  0.9315
 2374ntf    on514544   1.621   5.488   4.770  0.0758 -0.0088  0.2026
 2374ntf    on514545   1.716   5.541   4.995 -0.0191 -0.2703 -0.0288
 2374ntf    on514546   1.815   5.298   4.621  0.5401  0.3849  0.1342
 2374ntf    on514547   2.036   5.287   4.729  0.0811  0.2149  0.1912
 2374ntf    fn414548   1.866   5.574   4.577 -0.2420 -0.1903 -0.2079
 2374ntf    fn414549   2.068   5.569   4.654 -0.0799  0.4515  0.6122
 2374ntf    fn414550   2.022   5.465   4.483 -0.2782  0.2351 -0.3920
 2375ntf    cn114551   6.361   4.850   0.143 -0.2215 -0.2995 -0.2338
 2375ntf    sn214552   6.264   5.001   0.171  0.2719 -0.0422  0.0972
 2375ntf    nn314553   6.293   5.081   0.039  0.6154 -0.0747  0.1521
 2375ntf    sn214554   6.211   5.080  -0.095  0.4416  0.1831  0.2554
 2375ntf    cn114555   6.067   5.182  -0.052  0.1787  0.0172 -0.2295
 2375ntf    fn414556   6.356   4.765   0.245  0.0678  0.0289  0.0565
 2375ntf    fn414557   6.321   4.777   0.039 -0.3572 -0.6733  0.0764
 2375ntf    fn414558   6.488   4.877   0.116 -0.4536  0.9072 -0.1684
 2375ntf    on514559   6.129   4.953   0.188  0.1292  0.0598 -0.6811
 2375ntf    on514560   6.329   5.061   0.285  0.2230 -0.2989  0.2605
 2375ntf    on514561   6.146   4.954  -0.124  0.3181  0.3096 -0.0203
 2375ntf    on514562   6.269   5.153  -0.205  0.2379 -0.0100  0.0207
 2375ntf    fn414563   6.017   5.236  -0.162 -0.6146 -0.3714 -0.0708
 2375ntf    fn414564   5.972   5.114   0.011  0.1451  0.1623 -0.1249
 2375ntf    fn414565   6.102   5.276   0.034  0.2348 -0.3957  0.2033
 2376ntf    cn114566   2.494   4.082   3.741 -0.0671 -0.0985 -0.4687
 2376ntf    sn214567   2.472   3.914   3.806  0.1988  0.1730  0.3350
 2376ntf    nn314568   2.541   3.926   3.947  0.4778 -0.2315  0.2338
 2376ntf    sn214569   2.531   3.830   4.071 -0.2615 -0.2779  0.1410
 2376ntf    cn114570   2.689   3.861   4.156 -0.3132  0.1054  0.1006
 2376ntf    fn414571   2.421   4.178   3.798 -0.0810 -0.3222 -0.1063
 2376ntf    fn414572   2.616   4.132   3.740 -0.0657 -0.0658  0.3095
 2376ntf    fn414573   2.454   4.076   3.615 -0.2883 -0.2799 -0.3899
 2376ntf    on514574   2.330   3.895   3.822  0.2310 -0.1170  0.2919
 2376ntf    on514575   2.542   3.825   3.716 -0.0112  0.2243  0.1226
 2376ntf    on514576   2.537   3.689   4.040  0.0319 -0.2538  0.0813
 2376ntf    on514577   2.434   3.875   4.167 -0.5013  0.1103 -0.2786
 2376ntf    fn414578   2.704   3.986   4.194 -0.2681  0.2598 -0.4226
 2376ntf    fn414579   2.712   3.784   4.261 -0.2404 -0.1948 -0.1320
 2376ntf    fn414580   2.793   3.845   4.076 -0.1324  1.2364  0.0941
 2377ntf    cn114581   1.649   3.410   0.532 -0.0132  0.0038  0.0482
 2377ntf    sn214582   1.556   3.269   0.464 -0.0546  0.1935 -0.2935
 2377ntf    nn314583   1.634   3.156   0.542 -0.2305  0.0304 -0.3535
 2377ntf    sn214584   1.756   3.062   0.515 -0.2721 -0.1663  0.1432
 2377ntf    cn114585   1.823   3.042   0.683  0.3655  0.0220 -0.0852
 2377ntf    fn414586   1.635   3.429   0.662 -0.2678 -0.0990  0.0368
 2377ntf    fn414587   1.777   3.410   0.501 -0.0071  0.3243  0.0686
 2377ntf    fn414588   1.600   3.524   0.486 -0.1777  0.0681  0.3767
 2377ntf    on514589   1.424   3.280   0.520 -0.3639  0.0824 -0.9935
 2377ntf    on514590   1.586   3.286   0.324 -0.0232 -0.4450 -0.3697
 2377ntf    on514591   1.869   3.124   0.451  0.2521 -0.3047  0.9205
 2377ntf    on514592   1.727   2.924   0.485 -0.5137 -0.1627  0.3589
 2377ntf    fn414593   1.811   3.161   0.741 -0.2068 -0.0781  0.0132
 2377ntf    fn414594   1.765   2.950   0.759  0.1804  0.1515 -0.0674
 2377ntf    fn414595   1.950   3.007   0.689  0.0569 -1.1530 -0.2997
 2378ntf    cn114596   4.210   1.685   4.017  0.6233  0.4002 -0.1199
 2378ntf    sn214597   4.320   1.740   4.152  0.4936  0.1228  0.0981
 2378ntf    nn314598   4.219   1.782   4.265  0.3031  0.5044 -0.2125
 2378ntf    sn214599   4.201   1.929   4.319 -0.2853  0.3430  0.0341
 2378ntf    cn114600   4.336   1.953   4.439  0.0679 -0.1696 -0.2529
 2378ntf    fn414601   4.163   1.793   3.957 -0.1493  0.0370 -0.1783
 2378ntf    fn414602   4.270   1.604   3.932  0.1327  0.1695 -0.2442
 2378ntf    fn414603   4.112   1.613   4.069  0.2486  0.0792 -1.2415
 2378ntf    on514604   4.373   1.614   4.200 -0.1240 -0.0344  0.3826
 2378ntf    on514605   4.411   1.825   4.080  0.7265 -0.4115 -0.2433
 2378ntf    on514606   4.083   1.934   4.402 -0.2940  0.3383  0.0209
 2378ntf    on514607   4.225   2.031   4.221  0.3416  0.2906  0.1250
 2378ntf    fn414608   4.309   2.060   4.512  0.5726  0.0985 -0.4533
 2378ntf    fn414609   4.360   1.851   4.518  0.4511 -0.1211 -0.3071
 2378ntf    fn414610   4.456   1.974   4.388  0.3632  0.1602  0.5782
 2379ntf    cn114611   5.592   6.618   4.967  0.6351 -0.0939  0.1375
 2379ntf    sn214612   5.626   6.448   5.020  0.4860 -0.1558  0.0372
 2379ntf    nn314613   5.748   6.423   4.923  0.4397  0.1920 -0.1112
 2379ntf    sn214614   5.884   6.356   4.963  0.4062 -0.0208 -0.3507
 2379ntf    cn114615   5.987   6.500   5.006 -0.2967  0.4348 -0.1852
 2379ntf    fn414616   5.490   6.671   5.033  0.5757  0.1502 -0.1462
 2379ntf    fn414617   5.699   6.692   4.989  0.3932  0.1637  0.4625
 2379ntf    fn414618   5.564   6.628   4.838  0.1523  0.0936  0.2521
 2379ntf    on514619   5.652   6.459   5.161 -0.4114  0.2370  0.1761
 2379ntf    on514620   5.505   6.381   4.980  0.6231 -0.0185 -0.6245
 2379ntf    on514621   5.959   6.293   4.857  0.4137  0.0441 -0.3851
 2379ntf    on514622   5.884   6.289   5.090 -0.3822  0.4802 -0.0767
 2379ntf    fn414623   5.922   6.588   5.081  0.1457  0.4902  0.1293
 2379ntf    fn414624   6.102   6.464   5.060 -0.2493  0.5474 -0.2107
 2379ntf    fn414625   6.027   6.566   4.898 -0.0753  0.5805 -0.0131
 2380ntf    cn114626   6.447   5.698   0.737 -0.2013 -0.3955  0.3169
 2380ntf    sn214627   6.409   5.746   0.908 -0.2536  0.0446  0.1840
 2380ntf    nn314628   6.522   5.849   0.941 -0.1872  0.1641 -0.4032
 2380ntf    sn214629   6.529   6.003   0.912  0.0536  0.2403  0.0444
 2380ntf    cn114630   6.433   6.076   1.048 -0.3105  0.0941 -0.1353
 2380ntf    fn414631   6.361   5.611   0.687 -0.8934 -0.0375  0.8619
 2380ntf    fn414632   6.444   5.801   0.654 -0.1059 -0.7380 -0.1125
 2380ntf    fn414633   6.564   5.640   0.712 -0.1271  0.1213 -0.6003
 2380ntf    on514634   6.279   5.808   0.906 -0.0894  0.3954  0.3498
 2380ntf    on514635   6.425   5.628   0.989 -0.2446 -0.1411 -0.0880
 2380ntf    on514636   6.476   6.047   0.786  0.4133 -0.5152 -0.3762
 2380ntf    on514637   6.663   6.051   0.940  0.1241  0.2600 -0.3247
 2380ntf    fn414638   6.503   6.048   1.156 -0.4219  0.0944 -0.0631
 2380ntf    fn414639   6.411   6.206   1.040 -0.3947  0.1289  0.6458
 2380ntf    fn414640   6.311   6.025   1.058 -0.3474  0.2773  0.3460
 2381ntf    cn114641   4.804   3.289   1.236 -0.5603  0.0445 -0.0098
 2381ntf    sn214642   4.809   3.119   1.299 -0.1072  0.1388  0.2126
 2381ntf    nn314643   4.779   3.138   1.452 -0.1076  0.0285  0.2262
 2381ntf    sn214644   4.878   3.174   1.568  0.0165  0.1120  0.0950
 2381ntf    cn114645   4.857   3.022   1.666 -0.0600  0.0270 -0.0539
 2381ntf    fn414646   4.904   3.362   1.282 -0.3943 -0.0740 -0.1796
 2381ntf    fn414647   4.823   3.287   1.105 -0.2421 -0.3938  0.0390
 2381ntf    fn414648   4.691   3.350   1.268 -0.3004  0.6250 -0.1782
 2381ntf    on514649   4.697   3.054   1.235 -0.0721 -0.1621  0.4518
 2381ntf    on514650   4.938   3.066   1.262 -0.1618 -0.1609  0.4448
 2381ntf    on514651   4.825   3.276   1.655  0.7535  0.5170  0.0767
 2381ntf    on514652   5.020   3.182   1.544  0.1142 -0.2254  0.5416
 2381ntf    fn414653   4.936   3.004   1.771  0.1882  0.5188 -0.1525
 2381ntf    fn414654   4.730   3.015   1.703 -0.2045 -0.0374 -0.5538
 2381ntf    fn414655   4.877   2.920   1.585 -0.0454 -0.0230  0.0129
 2382ntf    cn114656   1.948   3.082   1.084 -0.1219 -0.4630 -0.1958
 2382ntf    sn214657   2.024   3.125   1.244 -0.2985 -0.0226 -0.2292
 2382ntf    nn314658   2.051   3.278   1.218  0.4935  0.0434  0.9307
 2382ntf    sn214659   1.968   3.397   1.278 -0.0734  0.0666  0.1171
 2382ntf    cn114660   1.989   3.512   1.139 -0.0406  0.2479  0.2725
 2382ntf    fn414661   1.844   3.162   1.064  0.4853  0.2343 -0.6162
 2382ntf    fn414662   2.034   3.103   0.986 -0.0937 -0.2601 -0.1286
 2382ntf    fn414663   1.909   2.956   1.079  0.8842 -0.8115  0.3853
 2382ntf    on514664   1.930   3.092   1.348 -0.0474 -0.1246 -0.0361
 2382ntf    on514665   2.147   3.052   1.235 -0.1889  0.1339 -0.0114
 2382ntf    on514666   2.041   3.466   1.382  0.8738 -0.3071 -0.2820
 2382ntf    on514667   1.825   3.387   1.288 -0.1044  0.1369 -0.2574
 2382ntf    fn414668   1.949   3.636   1.165  0.3239  0.3371  0.4224
 2382ntf    fn414669   2.114   3.521   1.097 -0.1121  0.0024  0.0096
 2382ntf    fn414670   1.919   3.471   1.035 -0.6231 -0.4599  0.9327
 2383ntf    cn114671   5.591   2.477   1.464 -0.0538 -0.3629 -0.0000
 2383ntf    sn214672   5.569   2.497   1.284  0.0118 -0.1543  0.0146
 2383ntf    nn314673   5.429   2.426   1.283  0.1394 -0.4061 -0.0274
 2383ntf    sn214674   5.287   2.487   1.257  0.2702 -0.1180 -0.0702
 2383ntf    cn114675   5.211   2.366   1.144 -0.1524 -0.1984  0.2957
 2383ntf    fn414676   5.683   2.554   1.521  0.1285 -0.4106 -0.2270
 2383ntf    fn414677   5.487   2.515   1.535  0.0335 -0.4436  0.1709
 2383ntf    fn414678   5.616   2.356   1.512 -0.0720 -0.2990  0.1685
 2383ntf    on514679   5.581   2.640   1.283 -0.1470 -0.1377  0.2780
 2383ntf    on514680   5.683   2.420   1.238  0.4232  0.3915  0.1107
 2383ntf    on514681   5.266   2.609   1.184  0.2043  0.3715  0.7557
 2383ntf    on514682   5.218   2.459   1.381  0.7193  0.7208  0.3767
 2383ntf    fn414683   5.080   2.383   1.135 -0.1617 -0.2571  0.3217
 2383ntf    fn414684   5.253   2.365   1.019  0.2174 -0.1748  0.4188
 2383ntf    fn414685   5.227   2.243   1.189 -0.1919 -0.3053  0.0195
 2384ntf    cn114686   4.024   6.715   5.535  0.3090 -0.1532  0.4211
 2384ntf    sn214687   3.892   6.653   5.427 -0.0108  0.3621  0.5136
 2384ntf    nn314688   3.826   6.783   5.368  0.4531  0.2416 -0.2874
 2384ntf    sn214689   3.683   6.841   5.395  0.3301 -0.2406  0.1195
 2384ntf    cn114690   3.709   6.959   5.530 -0.2196  0.0048  0.0146
 2384ntf    fn414691   4.088   6.619   5.600  0.3014 -0.0844  0.5302
 2384ntf    fn414692   4.114   6.774   5.458 -0.0093 -0.3497 -0.1095
 2384ntf    fn414693   3.979   6.802   5.623  0.1686 -0.1189  0.3163
 2384ntf    on514694   3.959   6.585   5.319 -0.3249  0.1256  0.4642
 2384ntf    on514695   3.819   6.568   5.518 -0.0506  0.2958  0.4211
 2384ntf    on514696   3.588   6.750   5.453 -0.2762  0.2708 -0.0549
 2384ntf    on514697   3.627   6.921   5.288 -0.6404 -1.0319  0.0175
 2384ntf    fn414698   3.600   7.026   5.565 -0.1189 -0.0730  0.4852
 2384ntf    fn414699   3.749   6.891   5.637  0.2962  0.9225  0.4166
 2384ntf    fn414700   3.808   7.044   5.508 -0.4022  0.0124 -0.8100
 2385ntf    cn114701   1.592   6.812   6.418  0.2487  0.2426 -0.5030
 2385ntf    sn214702   1.580   6.733   6.255 -0.2477  0.1130 -0.4054
 2385ntf    nn314703   1.606   6.583   6.296 -0.1016  0.1838 -0.2354
 2385ntf    sn214704   1.742   6.520   6.340 -0.1455  0.1801 -0.1050
 2385ntf    cn114705   1.765   6.415   6.194  0.2134 -0.2041  0.2233
 2385ntf    fn414706   1.645   6.933   6.416  0.1223  0.3139  0.0861
 2385ntf    fn414707   1.481   6.821   6.489  0.2556  0.1765 -0.4839
 2385ntf    fn414708   1.672   6.751   6.505 -0.3189  0.2279  0.0143
 2385ntf    on514709   1.441   6.746   6.218 -0.2922 -0.2419 -0.3729
 2385ntf    on514710   1.684   6.794   6.176  0.2429  0.4109  0.4579
 2385ntf    on514711   1.734   6.428   6.451  0.2897  0.0286 -0.1962
 2385ntf    on514712   1.854   6.610   6.333  0.1124 -0.0933  0.4120
 2385ntf    fn414713   1.650   6.359   6.158  0.4128 -0.8987  0.6514
 2385ntf    fn414714   1.806   6.478   6.085 -0.0345  0.5026  0.5350
 2385ntf    fn414715   1.851   6.315   6.209 -0.1986 -0.5572  0.2629
 2386ntf    cn114716   1.629   5.797   0.365  0.1165 -0.0237 -0.0804
 2386ntf    sn214717   1.509   5.661   0.377 -0.2764  0.3242 -0.0285
 2386ntf    nn314718   1.484   5.652   0.532  0.3305 -0.0047  0.0553
 2386ntf    sn214719   1.353   5.652   0.619  0.2221 -0.2404 -0.1081
 2386ntf    cn114720   1.398   5.737   0.773 -0.0915  0.1377 -0.2210
 2386ntf    fn414721   1.740   5.791   0.437  0.0670  0.3688  0.0325
 2386ntf    fn414722   1.661   5.812   0.238  0.3618  0.0533 -0.0083
 2386ntf    fn414723   1.573   5.912   0.400  0.0902 -0.1395  0.2623
 2386ntf    on514724   1.406   5.699   0.285 -0.1211 -0.3700 -0.4968
 2386ntf    on514725   1.580   5.544   0.333 -0.3395  0.6006 -0.8689
 2386ntf    on514726   1.324   5.518   0.663  0.0796 -0.3001 -0.3780
 2386ntf    on514727   1.239   5.718   0.559  0.1834 -0.1188  0.1005
 2386ntf    fn414728   1.307   5.756   0.867  0.0620  0.5374 -0.1503
 2386ntf    fn414729   1.489   5.663   0.835 -0.3312 -0.1130 -0.1635
 2386ntf    fn414730   1.448   5.858   0.758 -0.1825  0.2005 -0.0230
 2387ntf    cn114731   5.349   6.505   3.159  0.4858  0.1216  0.0095
 2387ntf    sn214732   5.276   6.473   2.996  0.5249  0.1312 -0.0095
 2387ntf    nn314733   5.409   6.438   2.920  0.4537 -0.2342  0.0351
 2387ntf    sn214734   5.514   6.519   2.836  0.1138 -0.0321 -0.1998
 2387ntf    cn114735   5.429   6.524   2.675 -0.2876 -0.0197  0.0107
 2387ntf    fn414736   5.448   6.593   3.155  0.3839  0.2343 -0.0549
 2387ntf    fn414737   5.260   6.544   3.249  0.0838 -0.1302 -0.2813
 2387ntf    fn414738   5.398   6.395   3.214 -0.2109  0.0929  0.5900
 2387ntf    on514739   5.187   6.363   3.017  0.2328  0.3220 -0.2408
 2387ntf    on514740   5.210   6.597   2.961  0.3077  0.1507  0.4670
 2387ntf    on514741   5.630   6.440   2.802 -0.0045 -0.3285  0.0783
 2387ntf    on514742   5.541   6.654   2.877 -0.6450 -0.1652  0.7589
 2387ntf    fn414743   5.442   6.408   2.612 -0.3866 -0.3249  0.5506
 2387ntf    fn414744   5.300   6.540   2.698 -0.2720 -0.5711  0.4912
 2387ntf    fn414745   5.456   6.620   2.588 -0.0650 -0.3394 -0.2790
 2388ntf    cn114746   0.152   1.644   3.494  0.0528 -0.0914 -0.0615
 2388ntf    sn214747   0.214   1.692   3.329  0.1352  0.0225  0.0023
 2388ntf    nn314748   0.196   1.555   3.255 -0.3071 -0.2438  0.5890
 2388ntf    sn214749   0.302   1.441   3.237 -0.1160 -0.0016  0.1511
 2388ntf    cn114750   0.227   1.313   3.342  0.3211 -0.2666  0.1447
 2388ntf    fn414751   0.256   1.596   3.560  0.2782  1.0052  0.4157
 2388ntf    fn414752   0.116   1.751   3.563 -0.2539 -0.6212  0.6092
 2388ntf    fn414753   0.054   1.556   3.494 -0.3541  0.3546  0.1386
 2388ntf    on514754   0.117   1.785   3.277 -0.0184 -0.0691  0.1239
 2388ntf    on514755   0.346   1.746   3.354 -0.1633  0.5453  0.4759
 2388ntf    on514756   0.433   1.462   3.294  0.1138  0.3254 -0.4863
 2388ntf    on514757   0.288   1.383   3.106  0.0378  0.3440 -0.0174
 2388ntf    fn414758   0.217   1.358   3.466  0.0040 -0.3985  0.1677
 2388ntf    fn414759   0.102   1.280   3.314  0.0132  0.2440  0.8932
 2388ntf    fn414760   0.294   1.199   3.332  0.6053 -0.0865 -0.0189
 2389ntf    cn114761   5.930   4.911   5.201  0.2728 -0.0161  0.5276
 2389ntf    sn214762   5.752   4.946   5.210  0.2488 -0.0359  0.1429
 2389ntf    nn314763   5.692   4.833   5.119 -0.2129  0.6613 -0.4267
 2389ntf    sn214764   5.541   4.831   5.074 -0.2644  0.0012 -0.2372
 2389ntf    cn114765   5.457   4.767   5.221  0.0821  0.1168  0.0149
 2389ntf    fn414766   5.940   4.779   5.205 -0.1817 -0.1172 -1.0076
 2389ntf    fn414767   5.984   4.956   5.090  0.0056  0.1458  0.4611
 2389ntf    fn414768   6.005   4.968   5.295  0.5006 -0.3334  0.5391
 2389ntf    on514769   5.727   4.928   5.351  0.7564 -0.0162  0.2360
 2389ntf    on514770   5.753   5.082   5.163 -0.3180 -0.2205 -0.4154
 2389ntf    on514771   5.520   4.723   4.981  0.1642 -0.6472  0.4042
 2389ntf    on514772   5.478   4.956   5.040  0.1761  0.3328  0.1518
 2389ntf    fn414773   5.331   4.733   5.198  0.1918 -0.0590 -0.3325
 2389ntf    fn414774   5.516   4.657   5.265  0.0961  0.1165 -0.0047
 2389ntf    fn414775   5.454   4.854   5.320 -0.0261  0.1849 -0.0480
 2390ntf    cn114776   6.827   2.754   3.000  0.1034  0.0392  0.2020
 2390ntf    sn214777   6.715   2.786   3.140 -0.0860  0.1384  0.0270
 2390ntf    nn314778   6.817   2.761   3.256 -0.7484 -0.1971  0.5435
 2390ntf    sn214779   6.846   2.632   3.341  0.2771 -0.1999  0.2033
 2390ntf    cn114780   6.714   2.634   3.465  0.2472  0.2412  0.1649
 2390ntf    fn414781   6.885   2.635   2.999 -0.6828 -0.3480  0.2359
 2390ntf    fn414782   6.775   2.769   2.880  0.0845 -0.1590  0.1852
 2390ntf    fn414783   6.932   2.835   3.010  0.1353  0.0257 -0.0218
 2390ntf    on514784   6.690   2.927   3.124  0.1625  0.1980  0.1583
 2390ntf    on514785   6.609   2.689   3.126 -0.1249  0.1380  0.3198
 2390ntf    on514786   6.971   2.642   3.412 -0.0799  0.1380  0.7925
 2390ntf    on514787   6.821   2.507   3.273 -0.7099 -0.2616  0.6620
 2390ntf    fn414788   6.719   2.536   3.554 -0.0000 -0.1133 -0.2066
 2390ntf    fn414789   6.710   2.747   3.535  0.1638  0.1247  0.3500
 2390ntf    fn414790   6.600   2.612   3.402  0.3541  0.3054 -0.0516
 2391ntf    cn114791   0.617   1.993   6.563  0.0062  0.3031 -0.0708
 2391ntf    sn214792   0.460   1.946   6.484 -0.0048  0.0339  0.1091
 2391ntf    nn314793   0.401   1.861   6.602  0.0372 -0.1983 -0.0362
 2391ntf    sn214794   0.425   1.710   6.637 -0.1592 -0.2063  0.0705
 2391ntf    cn114795   0.250   1.665   6.627 -0.2176  0.1008 -0.3175
 2391ntf    fn414796   0.674   2.086   6.488  0.3877 -0.0015 -0.1568
 2391ntf    fn414797   0.602   2.042   6.686 -0.5202 -0.5499  0.2113
 2391ntf    fn414798   0.700   1.891   6.572  0.2415  0.4717 -0.3501
 2391ntf    on514799   0.384   2.069   6.475  0.2660  0.1421 -0.7625
 2391ntf    on514800   0.501   1.880   6.363  0.2952 -0.5665  0.5309
 2391ntf    on514801   0.453   1.680   6.775  0.7449  0.2298 -0.0061
 2391ntf    on514802   0.481   1.624   6.535  0.9279  0.0471  0.4337
 2391ntf    fn414803   0.207   1.673   6.502  0.3552  0.2893 -0.5034
 2391ntf    fn414804   0.217   1.542   6.663 -0.2123  0.2079  0.0567
 2391ntf    fn414805   0.183   1.753   6.699  0.8465  0.6845 -0.0272
 2392ntf    cn114806   0.780   3.925   4.652  0.0279  0.0379 -0.0253
 2392ntf    sn214807   0.824   3.854   4.813 -0.3300 -0.2197 -0.0402
 2392ntf    nn314808   0.692   3.886   4.893 -0.6152 -0.2186 -0.5113
 2392ntf    sn214809   0.642   4.020   4.956  0.0522 -0.0697 -0.2932
 2392ntf    cn114810   0.688   3.991   5.129 -0.2246 -0.3423 -0.2656
 2392ntf    fn414811   0.872   3.992   4.585 -0.1359 -0.5417 -0.8379
 2392ntf    fn414812   0.726   3.833   4.574 -0.4467  0.2624  0.0359
 2392ntf    fn414813   0.681   4.012   4.664  0.4739  0.5032  0.3533
 2392ntf    on514814   0.847   3.713   4.801 -0.1796 -0.1489 -0.5932
 2392ntf    on514815   0.938   3.933   4.853 -0.6718  0.1379  0.2504
 2392ntf    on514816   0.499   4.032   4.967  0.1311  0.3955  0.2765
 2392ntf    on514817   0.711   4.142   4.921  0.4735  0.0927  1.0732
 2392ntf    fn414818   0.817   4.013   5.151 -0.3368  0.4957 -0.4375
 2392ntf    fn414819   0.630   4.084   5.202  0.0351 -0.1703 -0.2803
 2392ntf    fn414820   0.644   3.875   5.177 -0.3206  0.1467  0.8517
 2393ntf    cn114821   6.654   2.634   4.871 -0.0951 -0.1675 -0.4089
 2393ntf    sn214822   6.806   2.551   4.928 -0.2192  0.0008  0.1741
 2393ntf    nn314823   6.787   2.563   5.084  0.0875 -0.4945  0.2492
 2393ntf    sn214824   6.865   2.646   5.192 -0.5402  0.2954  0.0934
 2393ntf    cn114825   6.730   2.667   5.312 -0.1797  0.5011  0.4661
 2393ntf    fn414826   6.548   2.561   4.902  0.0316  0.0022  0.4664
 2393ntf    fn414827   6.642   2.751   4.933  0.1428  0.1227 -0.9083
 2393ntf    fn414828   6.653   2.663   4.742 -0.1329 -0.3344 -0.4469
 2393ntf    on514829   6.778   2.416   4.885 -0.6570 -0.0328  0.5536
 2393ntf    on514830   6.919   2.617   4.867  0.0001  0.1515  0.7374
 2393ntf    on514831   6.886   2.786   5.161 -0.6553  0.2592 -0.1467
 2393ntf    on514832   6.979   2.588   5.257 -0.2787  0.6532 -0.0453
 2393ntf    fn414833   6.625   2.723   5.253 -0.5880 -0.4913  0.2341
 2393ntf    fn414834   6.688   2.556   5.371 -0.0356  0.0015 -0.3555
 2393ntf    fn414835   6.774   2.749   5.406  0.4798 -0.0526  0.6436
 2394ntf    cn114836   0.491   5.489   2.667  0.2935  0.1115 -0.3467
 2394ntf    sn214837   0.434   5.617   2.551  0.1568  0.0887 -0.3049
 2394ntf    nn314838   0.511   5.586   2.418 -0.0096 -0.1665 -0.3426
 2394ntf    sn214839   0.484   5.473   2.312  0.3284 -0.3073 -0.2798
 2394ntf    cn114840   0.366   5.548   2.196  0.2475 -0.1634 -0.1048
 2394ntf    fn414841   0.612   5.510   2.716  0.1043 -0.0982  0.2211
 2394ntf    fn414842   0.414   5.496   2.775  0.4192 -0.5581 -0.2113
 2394ntf    fn414843   0.484   5.364   2.626 -0.1788 -0.0316  0.1539
 2394ntf    on514844   0.291   5.599   2.544  0.1435  0.0304  0.0727
 2394ntf    on514845   0.463   5.741   2.618  0.0533 -0.3158  0.5036
 2394ntf    on514846   0.414   5.357   2.361  0.2668 -0.1150  0.0893
 2394ntf    on514847   0.601   5.445   2.233  0.2318 -0.0951 -0.5001
 2394ntf    fn414848   0.358   5.502   2.072  0.4182  0.0777 -0.2064
 2394ntf    fn414849   0.242   5.536   2.241  0.1853  0.0854 -0.2050
 2394ntf    fn414850   0.391   5.677   2.184  0.1707 -0.1909 -0.5750
 2395ntf    cn114851   5.916   5.440   6.185  0.0186  0.0569  0.2718
 2395ntf    sn214852   5.762   5.355   6.231 -0.0246  0.0253  0.0684
 2395ntf    nn314853   5.738   5.393   6.381 -0.1170  0.0284  0.0530
 2395ntf    sn214854   5.634   5.490   6.447 -0.0446 -0.0853  0.3385
 2395ntf    cn114855   5.484   5.387   6.450  0.0594 -0.2421  0.1488
 2395ntf    fn414856   5.894   5.570   6.195 -0.1772  0.0416  0.0461
 2395ntf    fn414857   6.012   5.425   6.274  0.2015 -0.2012  0.0338
 2395ntf    fn414858   5.975   5.413   6.070  0.3438  0.1980  0.4065
 2395ntf    on514859   5.657   5.392   6.138 -0.1104 -0.4538 -0.0287
 2395ntf    on514860   5.798   5.217   6.214  0.0885  0.0387  0.2016
 2395ntf    on514861   5.600   5.613   6.379  0.5554 -0.0758  0.0520
 2395ntf    on514862   5.660   5.500   6.588  0.4770  0.6687  0.1947
 2395ntf    fn414863   5.439   5.367   6.327 -0.4673  0.6182  0.1952
 2395ntf    fn414864   5.512   5.267   6.498  0.1086 -0.3113 -0.0492
 2395ntf    fn414865   5.381   5.431   6.519 -0.2245 -0.2878 -0.2387
 2396ntf    cn114866   3.690   3.139   1.900 -0.3205  0.1283  0.1623
 2396ntf    sn214867   3.610   2.983   1.948 -0.1383  0.0644  0.2571
 2396ntf    nn314868   3.692   2.894   1.847  0.0765 -0.1416  0.6116
 2396ntf    sn214869   3.831   2.829   1.879  0.2889 -0.0554 -0.1231
 2396ntf    cn114870   3.786   2.708   2.008  0.4632 -0.0640 -0.0698
 2396ntf    fn414871   3.812   3.161   1.947 -0.2078  0.0811 -0.1057
 2396ntf    fn414872   3.702   3.141   1.768 -0.9586  0.9194  0.1066
 2396ntf    fn414873   3.610   3.240   1.930 -0.1833  0.2695  0.0592
 2396ntf    on514874   3.643   2.968   2.087 -0.1483 -0.4697  0.2040
 2396ntf    on514875   3.473   2.994   1.906 -0.0923 -0.5479 -0.0564
 2396ntf    on514876   3.926   2.917   1.942  0.0739  0.2379 -0.2060
 2396ntf    on514877   3.872   2.742   1.772  0.0161  0.2209 -0.4546
 2396ntf    fn414878   3.893   2.639   2.045  0.5656 -0.0498 -0.3366
 2396ntf    fn414879   3.746   2.751   2.127 -0.3524 -0.0685 -0.3379
 2396ntf    fn414880   3.702   2.614   1.969  0.3517  0.0391 -0.0802
 2397ntf    cn114881   1.160   3.317   5.631 -0.0631  0.0643 -0.3935
 2397ntf    sn214882   1.029   3.426   5.693  0.2430  0.3142 -0.1853
 2397ntf    nn314883   1.114   3.545   5.750 -0.2776  0.6464 -0.0905
 2397ntf    sn214884   1.168   3.666   5.665  0.1384  0.5078 -0.0265
 2397ntf    cn114885   1.332   3.701   5.736  0.0001  0.3044  0.4006
 2397ntf    fn414886   1.239   3.371   5.540 -0.3997  0.9039 -0.1952
 2397ntf    fn414887   1.242   3.277   5.727  0.3942  0.2088 -0.7208
 2397ntf    fn414888   1.105   3.206   5.583 -0.1593 -0.3589  0.6532
 2397ntf    on514889   0.945   3.455   5.580  0.2723 -0.1905 -0.3373
 2397ntf    on514890   0.966   3.352   5.800  0.7268 -0.0546 -0.1513
 2397ntf    on514891   1.097   3.787   5.696  0.1371  0.6045 -0.4072
 2397ntf    on514892   1.199   3.646   5.526 -0.0180 -1.3225  0.1745
 2397ntf    fn414893   1.423   3.609   5.708 -0.0993  0.4014 -0.2576
 2397ntf    fn414894   1.370   3.812   5.675 -0.6310  0.2783 -0.0604
 2397ntf    fn414895   1.327   3.719   5.866 -0.3617  0.1696  0.4065
 2398ntf    cn114896   5.917   0.868   3.483  0.3665  0.0195  0.2705
 2398ntf    sn214897   5.877   0.811   3.651 -0.3995  0.0851  0.1143
 2398ntf    nn314898   5.892   0.940   3.738  0.3117  0.3000 -0.3183
 2398ntf    sn214899   5.784   1.040   3.792 -0.1155 -0.2917 -0.0690
 2398ntf    cn114900   5.883   1.191   3.770 -0.5255 -0.0132 -0.0161
 2398ntf    fn414901   5.898   0.778   3.388 -0.2264 -0.0618  0.4650
 2398ntf    fn414902   5.848   0.974   3.445  0.6322  0.0228 -0.2003
 2398ntf    fn414903   6.045   0.899   3.465  0.2219  0.1371 -0.6035
 2398ntf    on514904   5.743   0.759   3.646 -0.7208  0.8546  0.5335
 2398ntf    on514905   5.988   0.723   3.683  0.0470  0.5624 -0.1100
 2398ntf    on514906   5.775   1.034   3.936  0.0979 -0.2530 -0.0541
 2398ntf    on514907   5.669   1.066   3.708 -0.1930 -1.1696 -0.2406
 2398ntf    fn414908   5.972   1.203   3.867 -0.6172  0.4370  0.0160
 2398ntf    fn414909   5.939   1.202   3.651  0.0459  0.2744  0.2734
 2398ntf    fn414910   5.807   1.299   3.777 -0.1394  0.2745 -0.2387
 2399ntf    cn114911   5.587   4.421   6.410 -0.2641 -0.1066  0.2436
 2399ntf    sn214912   5.747   4.492   6.362 -0.4444  0.2163  0.1171
 2399ntf    nn314913   5.719   4.647   6.361 -0.6303  0.1822 -0.0781
 2399ntf    sn214914   5.719   4.744   6.485  0.0204  0.2583 -0.1350
 2399ntf    cn114915   5.544   4.793   6.482 -0.1587 -0.3405  0.4686
 2399ntf    fn414916   5.552   4.477   6.525 -0.5528 -0.2291  0.2175
 2399ntf    fn414917   5.494   4.453   6.321 -0.0362  0.1459  0.0938
 2399ntf    fn414918   5.591   4.290   6.426 -0.0071 -0.1897 -0.4693
 2399ntf    on514919   5.841   4.437   6.456 -0.5860 -0.1131  0.0650
 2399ntf    on514920   5.781   4.444   6.231  0.4578  0.5629  0.2130
 2399ntf    on514921   5.788   4.864   6.442  0.4426  0.2733  0.5738
 2399ntf    on514922   5.745   4.681   6.612 -0.4646 -0.0613 -0.1911
 2399ntf    fn414923   5.525   4.883   6.576  0.1089  0.1372  0.0697
 2399ntf    fn414924   5.507   4.849   6.368  0.2536 -0.8730  0.0689
 2399ntf    fn414925   5.463   4.689   6.498 -0.0518 -0.4980  0.0001
 2400ntf    cn114926   5.512   5.668   3.470 -0.4706  0.2850 -0.2456
 2400ntf    sn214927   5.553   5.504   3.538 -0.3892  0.2480 -0.3849
 2400ntf    nn314928   5.700   5.488   3.483 -0.2800  0.2270 -0.0886
 2400ntf    sn214929   5.815   5.593   3.507 -0.0424 -0.0727  0.0875
 2400ntf    cn114930   5.964   5.489   3.496 -0.0202 -0.0139 -0.1698
 2400ntf    fn414931   5.541   5.758   3.562 -0.4495 -0.0845  0.1131
 2400ntf    fn414932   5.568   5.701   3.355 -0.2394  0.0233 -0.2106
 2400ntf    fn414933   5.382   5.682   3.451 -0.6143 -0.4220  0.1468
 2400ntf    on514934   5.538   5.527   3.679  0.0837  0.3914 -0.3563
 2400ntf    on514935   5.463   5.406   3.483  0.2381 -0.0249 -0.9474
 2400ntf    on514936   5.818   5.657   3.636 -0.0521 -0.1141  0.1084
 2400ntf    on514937   5.829   5.684   3.396  0.8088 -0.1958  0.0891
 2400ntf    fn414938   6.079   5.554   3.512 -0.2388  0.2322  0.4210
 2400ntf    fn414939   5.965   5.395   3.589  0.2025  0.1372 -0.0178
 2400ntf    fn414940   5.969   5.428   3.379 -0.0258 -0.1242 -0.1125
 2401ntf    cn114941   6.875   1.036   6.586  0.1603  0.2666 -0.2485
 2401ntf    sn214942   6.787   1.125   6.453  0.0379 -0.0396 -0.3745
 2401ntf    nn314943   6.827   1.272   6.491  0.5034 -0.2689  0.0521
 2401ntf    sn214944   6.921   1.371   6.413 -0.1583  0.0272 -0.3824
 2401ntf    cn114945   6.806   1.424   6.282 -0.4222  0.1383 -0.1065
 2401ntf    fn414946   6.820   1.059   6.704  0.4237 -0.3423 -0.0030
 2401ntf    fn414947   6.865   0.904   6.579  0.2081  0.2411  0.1431
 2401ntf    fn414948   7.001   1.074   6.599  0.0960  0.2987  0.2867
 2401ntf    on514949   6.836   1.072   6.328 -0.1407  0.0560 -0.4845
 2401ntf    on514950   6.651   1.092   6.488  0.0242  0.1053 -0.2862
 2401ntf    on514951   7.033   1.308   6.347 -0.0302 -0.0912 -0.0532
 2401ntf    on514952   6.945   1.493   6.485 -0.2794 -0.2129  0.0675
 2401ntf    fn414953   6.680   1.388   6.302 -0.2648 -0.0730  0.5292
 2401ntf    fn414954   6.819   1.554   6.264  0.7208 -0.0028 -0.3533
 2401ntf    fn414955   6.836   1.365   6.168 -0.4482 -0.5010  0.2131
 2402ntf    cn114956   2.077   6.960   5.176  0.3044  0.7576  0.1236
 2402ntf    sn214957   2.213   6.862   5.245 -0.3085  0.0553  0.3421
 2402ntf    nn314958   2.195   6.907   5.394  0.2199  0.0151  0.4211
 2402ntf    sn214959   2.099   6.839   5.499 -0.1584  0.0298  0.0875
 2402ntf    cn114960   2.187   6.698   5.573 -0.1022  0.1185  0.1909
 2402ntf    fn414961   2.094   7.088   5.208 -0.1466  0.7523  0.3965
 2402ntf    fn414962   2.075   6.952   5.044  0.2515 -0.5445  0.1924
 2402ntf    fn414963   1.959   6.915   5.215  0.3974 -0.1061 -0.5898
 2402ntf    on514964   2.192   6.721   5.220  0.1657  0.1119 -0.3954
 2402ntf    on514965   2.330   6.923   5.188 -0.4883  0.0600 -0.0233
 2402ntf    on514966   1.980   6.783   5.441 -0.1195  0.1473 -0.1042
 2402ntf    on514967   2.079   6.932   5.607  0.2664 -0.0049  0.1981
 2402ntf    fn414968   2.310   6.730   5.611  0.0679 -0.1647 -0.1177
 2402ntf    fn414969   2.118   6.657   5.678 -0.0850 -0.2169  0.0721
 2402ntf    fn414970   2.200   6.596   5.489 -0.1739  0.4217 -0.1911
 2403ntf    cn114971   3.728   4.563   2.853  0.1432 -0.3824  0.1052
 2403ntf    sn214972   3.843   4.434   2.796  0.0983 -0.2337 -0.3193
 2403ntf    nn314973   3.798   4.409   2.647  0.0861 -0.1405 -0.3316
 2403ntf    sn214974   3.815   4.500   2.520  0.0164  0.0033 -0.2385
 2403ntf    cn114975   3.915   4.381   2.425  0.1132 -0.0318 -0.0929
 2403ntf    fn414976   3.598   4.537   2.845  0.0146  0.2709 -0.0290
 2403ntf    fn414977   3.752   4.595   2.979 -0.0905  0.1958  0.0059
 2403ntf    fn414978   3.749   4.671   2.780 -0.1244  0.0076  0.6002
 2403ntf    on514979   3.973   4.491   2.819 -0.0159  0.1548 -0.6100
 2403ntf    on514980   3.802   4.330   2.887  0.0156 -0.0383 -0.1328
 2403ntf    on514981   3.898   4.617   2.535  0.5225 -0.2915 -0.6794
 2403ntf    on514982   3.693   4.524   2.448 -0.1556 -0.2627 -0.0400
 2403ntf    fn414983   3.852   4.269   2.393  0.6011 -0.1803 -0.5404
 2403ntf    fn414984   3.967   4.432   2.315 -0.2321 -0.1846 -0.3278
 2403ntf    fn414985   4.019   4.337   2.494 -0.0537  0.2115  0.3193
 2404ntf    cn114986   0.724   5.331   2.938 -0.1545 -0.3014 -0.3191
 2404ntf    sn214987   0.774   5.289   3.108 -0.0919 -0.1165 -0.2920
 2404ntf    nn314988   0.923   5.252   3.079 -0.2137 -0.6160 -0.2852
 2404ntf    sn214989   1.010   5.131   3.131  0.2290 -0.2762 -0.2246
 2404ntf    cn114990   1.019   5.022   2.985  0.2066 -0.4456 -0.0998
 2404ntf    fn414991   0.764   5.245   2.845 -0.0270 -0.5221 -0.0610
 2404ntf    fn414992   0.592   5.329   2.929 -0.1828 -0.1781  0.0860
 2404ntf    fn414993   0.765   5.448   2.893  0.0441 -0.1250  0.3147
 2404ntf    on514994   0.752   5.413   3.178  0.8281 -0.1038 -0.0261
 2404ntf    on514995   0.692   5.175   3.140  0.4555 -0.6121 -0.6367
 2404ntf    on514996   0.957   5.051   3.239  0.0406  0.3898  0.1854
 2404ntf    on514997   1.145   5.180   3.139  0.0080  0.3837 -0.4334
 2404ntf    fn414998   0.904   5.009   2.922 -0.1057 -0.0895  0.3925
 2404ntf    fn414999   1.108   5.057   2.894  0.0552  0.2932  0.0279
 2404ntf    fn415000   1.067   4.904   3.019  0.3943 -0.5603 -0.7491
 2405ntf    cn115001   4.994   2.181   1.508  0.3012  0.2685 -0.4755
 2405ntf    sn215002   4.850   2.075   1.545  0.5157  0.2080  0.2085
 2405ntf    nn315003   4.821   2.114   1.694 -0.7885 -0.4539  0.1418
 2405ntf    sn215004   4.732   2.235   1.738  0.0202  0.1206  0.2256
 2405ntf    cn115005   4.572   2.153   1.713  0.1359  0.0214 -0.1970
 2405ntf    fn415006   4.980   2.301   1.561  0.6900  0.2160 -0.2498
 2405ntf    fn415007   5.092   2.117   1.570 -0.0867  0.3148  0.1984
 2405ntf    fn415008   5.027   2.187   1.380  0.4660  0.3286 -0.4304
 2405ntf    on515009   4.751   2.123   1.451  0.5113  0.1558  0.1865
 2405ntf    on515010   4.881   1.935   1.541 -0.1213  0.0675  0.1195
 2405ntf    on515011   4.721   2.349   1.650  0.6881 -0.0545 -0.0899
 2405ntf    on515012   4.746   2.256   1.880  0.3618  0.1185  0.1935
 2405ntf    fn415013   4.589   2.034   1.769  0.3568  0.4212  0.6130
 2405ntf    fn415014   4.473   2.213   1.777 -0.4364 -0.2076 -0.8519
 2405ntf    fn415015   4.527   2.140   1.590 -0.6675 -0.0973  0.0987
 2406ntf    cn115016   1.279   0.570   1.723  0.5687 -0.2289  0.2230
 2406ntf    sn215017   1.240   0.594   1.548  0.1507 -0.1593  0.3242
 2406ntf    nn315018   1.364   0.683   1.510 -0.2048 -0.0344 -0.5722
 2406ntf    sn215019   1.447   0.689   1.377  0.0844  0.1973 -0.3803
 2406ntf    cn115020   1.361   0.820   1.285 -0.0260  0.2291 -0.2316
 2406ntf    fn415021   1.384   0.492   1.740  0.0298 -0.9500  0.3252
 2406ntf    fn415022   1.307   0.679   1.792 -0.4430  0.0630  0.1871
 2406ntf    fn415023   1.176   0.515   1.786  0.2576  0.2713  0.1555
 2406ntf    on515024   1.244   0.464   1.487 -0.3634  0.1831 -0.4645
 2406ntf    on515025   1.115   0.667   1.539  0.4372  0.3295  0.2805
 2406ntf    on515026   1.443   0.569   1.296 -0.2290  0.2291 -0.4106
 2406ntf    on515027   1.575   0.750   1.404  0.2372  0.1192 -0.9160
 2406ntf    fn415028   1.405   0.828   1.161 -0.1418  0.3124 -0.2670
 2406ntf    fn415029   1.230   0.804   1.275 -0.0651  0.0778  0.4459
 2406ntf    fn415030   1.386   0.939   1.338 -0.2292  0.3078 -0.3118
 2407ntf    cn115031   2.153   1.015   1.171  0.0376 -0.3784 -0.2844
 2407ntf    sn215032   2.316   1.052   1.240 -0.0811  0.0507 -0.2308
 2407ntf    nn315033   2.367   0.905   1.263 -0.0633  0.0752 -0.1125
 2407ntf    sn215034   2.355   0.810   1.387  0.1608 -0.0912 -0.2197
 2407ntf    cn115035   2.521   0.821   1.460 -0.0118 -0.4140  0.2310
 2407ntf    fn415036   2.160   1.008   1.039 -0.5051 -0.8182 -0.2950
 2407ntf    fn415037   2.115   0.895   1.210 -0.8570  0.0483  0.2013
 2407ntf    fn415038   2.058   1.102   1.202  0.1758 -0.3623  0.0858
 2407ntf    on515039   2.381   1.130   1.137  0.3549 -0.3696 -0.2812
 2407ntf    on515040   2.272   1.130   1.353  0.1133  0.4226 -0.4074
 2407ntf    on515041   2.346   0.672   1.345  0.1123 -0.1920  0.1233
 2407ntf    on515042   2.271   0.860   1.492 -0.2127 -0.4012 -0.3667
 2407ntf    fn415043   2.543   0.736   1.558 -0.1040 -0.3103  0.3422
 2407ntf    fn415044   2.622   0.809   1.375 -0.2170  0.4167 -0.1400
 2407ntf    fn415045   2.543   0.938   1.518  0.7352 -0.2492 -0.3572
 2408ntf    cn115046   3.956   3.655   5.189 -0.1231  0.2492  0.3565
 2408ntf    sn215047   4.009   3.828   5.179  0.1379  0.1465 -0.0380
 2408ntf    nn315048   3.930   3.888   5.301  0.1400 -1.0096  0.5483
 2408ntf    sn215049   3.992   3.943   5.434  0.1250  0.1083  0.1029
 2408ntf    cn115050   3.836   3.986   5.517  0.1715  0.2920  0.0949
 2408ntf    fn415051   4.011   3.586   5.288  0.4527  0.1195 -0.0488
 2408ntf    fn415052   3.825   3.650   5.210 -0.1298 -0.7039  0.1306
 2408ntf    fn415053   3.976   3.583   5.080 -0.2025  0.5170  0.1647
 2408ntf    on515054   4.153   3.832   5.181  0.1320  0.5756 -0.2344
 2408ntf    on515055   3.948   3.867   5.054 -0.0457 -0.7277 -0.2257
 2408ntf    on515056   4.062   4.068   5.416 -0.0268  0.2362  0.3986
 2408ntf    on515057   4.045   3.841   5.520  0.3956  0.0180 -0.1668
 2408ntf    fn415058   3.757   4.035   5.423 -0.1306 -0.0130  0.1910
 2408ntf    fn415059   3.775   3.880   5.568 -0.1010  0.0612 -0.6998
 2408ntf    fn415060   3.852   4.075   5.614 -0.4830  0.5835 -0.0562
 2409ntf    cn115061   0.486   3.643   4.278 -0.1952  0.1062 -0.1008
 2409ntf    sn215062   0.425   3.536   4.412  0.1549  0.0851  0.0429
 2409ntf    nn315063   0.358   3.421   4.328  0.7886 -0.1396 -0.1686
 2409ntf    sn215064   0.426   3.290   4.275  0.3707 -0.3359 -0.2218
 2409ntf    cn115065   0.408   3.181   4.419  0.1940 -0.3975 -0.2891
 2409ntf    fn415066   0.523   3.572   4.172  0.4467  0.0718  0.1418
 2409ntf    fn415067   0.392   3.728   4.240  0.2631  0.6926  0.0630
 2409ntf    fn415068   0.591   3.716   4.313  0.1713 -0.5219  0.1318
 2409ntf    on515069   0.540   3.494   4.489 -0.0474 -0.2323  0.1746
 2409ntf    on515070   0.327   3.617   4.478 -0.4784 -0.8223  0.2427
 2409ntf    on515071   0.568   3.292   4.253  0.4441  0.6564  0.2786
 2409ntf    on515072   0.342   3.217   4.183 -0.5767  0.1191  0.2597
 2409ntf    fn415073   0.482   3.071   4.419  0.1958 -0.3988  0.2358
 2409ntf    fn415074   0.449   3.250   4.524  0.1422  0.1822 -0.6511
 2409ntf    fn415075   0.284   3.139   4.439  0.1278  0.1365  0.4551
 2410ntf    cn115076   1.190   5.551   5.896 -0.5467 -0.3095 -0.0335
 2410ntf    sn215077   1.363   5.521   5.942 -0.4448  0.0830 -0.1584
 2410ntf    nn315078   1.423   5.666   5.944  0.6787 -0.3781  0.0946
 2410ntf    sn215079   1.430   5.768   6.063  0.3878 -0.2205 -0.0218
 2410ntf    cn115080   1.367   5.916   5.978  0.4910 -0.2520 -0.1539
 2410ntf    fn415081   1.139   5.617   5.998  0.1128 -0.1625  0.2053
 2410ntf    fn415082   1.183   5.619   5.783 -0.4599  0.0084  0.1541
 2410ntf    fn415083   1.114   5.445   5.870 -0.6084 -0.2130 -0.2518
 2410ntf    on515084   1.364   5.452   6.069 -0.2029 -0.4496 -0.4454
 2410ntf    on515085   1.413   5.436   5.837 -0.2427  0.0503 -0.0365
 2410ntf    on515086   1.565   5.805   6.097  0.5895 -0.5619 -0.4426
 2410ntf    on515087   1.337   5.740   6.169  0.1005 -0.3247 -0.2993
 2410ntf    fn415088   1.234   5.917   5.976  0.4745 -0.6020  0.4081
 2410ntf    fn415089   1.400   6.029   6.037  0.2076 -0.3557  0.2127
 2410ntf    fn415090   1.411   5.919   5.854  0.4813  0.0113 -0.1509
 2411ntf    cn115091   2.511   4.924   1.301 -0.1738  0.1339  0.0686
 2411ntf    sn215092   2.442   4.775   1.224 -0.2834  0.2296 -0.0178
 2411ntf    nn315093   2.516   4.771   1.086  0.4751  0.3125  0.3834
 2411ntf    sn215094   2.453   4.812   0.948  0.4829  0.0328  0.2961
 2411ntf    cn115095   2.570   4.744   0.826  0.1387 -0.2018  0.0969
 2411ntf    fn415096   2.509   5.027   1.218 -0.0114 -0.1638 -0.3092
 2411ntf    fn415097   2.440   4.960   1.407  0.1799  0.2301  0.2768
 2411ntf    fn415098   2.636   4.906   1.342 -0.2295  0.3909  0.3552
 2411ntf    on515099   2.481   4.672   1.317  0.4100  0.7116  0.2321
 2411ntf    on515100   2.299   4.797   1.222 -0.3346 -0.0949 -0.0803
 2411ntf    on515101   2.451   4.954   0.924  0.1977  0.0634  0.5024
 2411ntf    on515102   2.330   4.747   0.912  0.0390  0.5646  0.8367
 2411ntf    fn415103   2.534   4.793   0.708  0.2841 -0.3320 -0.0023
 2411ntf    fn415104   2.695   4.779   0.850  0.1591  0.3125 -0.7380
 2411ntf    fn415105   2.556   4.612   0.823  0.2390 -0.2192  0.3865
 2412ntf    cn115106   5.472   4.191   2.710 -0.5394 -0.3968 -0.3598
 2412ntf    sn215107   5.485   4.010   2.697  0.2002 -0.3958  0.3013
 2412ntf    nn315108   5.351   3.970   2.769 -0.2416 -0.4915 -0.5604
 2412ntf    sn215109   5.326   3.837   2.849  0.1132 -0.2036  0.0417
 2412ntf    cn115110   5.191   3.757   2.758 -0.1969  0.3183  0.0392
 2412ntf    fn415111   5.360   4.246   2.666 -0.0394  0.5297 -0.4909
 2412ntf    fn415112   5.488   4.230   2.835  0.2916  0.0065 -0.5825
 2412ntf    fn415113   5.576   4.239   2.644  0.1063 -0.6479  0.4651
 2412ntf    on515114   5.485   3.978   2.557 -0.3544  0.1827  0.1661
 2412ntf    on515115   5.607   3.976   2.766  0.5625 -0.6662 -0.4642
 2412ntf    on515116   5.265   3.859   2.977 -0.8464  0.4890 -0.5215
 2412ntf    on515117   5.429   3.736   2.837 -0.1666 -0.4955  0.0817
 2412ntf    fn415118   5.084   3.833   2.739 -0.4436 -0.0392 -0.0144
 2412ntf    fn415119   5.232   3.723   2.637 -0.9701  0.3374 -0.2376
 2412ntf    fn415120   5.146   3.648   2.818 -0.2819  0.4639  0.2398
 2413ntf    cn115121   2.680   1.148   5.242  0.0206  0.0586 -0.3619
 2413ntf    sn215122   2.578   1.044   5.133  0.1537 -0.0175 -0.4144
 2413ntf    nn315123   2.576   0.919   5.228 -0.1422  0.5073  0.2811
 2413ntf    sn215124   2.475   0.881   5.343 -0.1266  0.1496  0.1783
 2413ntf    cn115125   2.465   0.705   5.298 -0.3712  0.1274  0.3190
 2413ntf    fn415126   2.793   1.086   5.270  0.2811  0.5563 -0.2963
 2413ntf    fn415127   2.705   1.267   5.189 -0.7968  0.3545 -0.0967
 2413ntf    fn415128   2.620   1.168   5.358  0.4981  0.2405 -0.1426
 2413ntf    on515129   2.460   1.126   5.127  0.3901  0.4141  0.5067
 2413ntf    on515130   2.652   1.031   5.010 -0.3648 -0.0257 -0.7233
 2413ntf    on515131   2.337   0.918   5.326 -0.3147 -0.5043  0.2732
 2413ntf    on515132   2.532   0.875   5.475 -0.1595 -0.6716  0.1607
 2413ntf    fn415133   2.374   0.638   5.366 -0.2308 -0.1464  0.2373
 2413ntf    fn415134   2.421   0.700   5.174 -0.2811 -0.3221  0.3044
 2413ntf    fn415135   2.580   0.639   5.295 -0.4679 -0.0141 -0.3168
 2414ntf    cn115136   3.629   6.209   6.332 -0.0348  0.0155 -0.2009
 2414ntf    sn215137   3.581   6.234   6.505  0.0384 -0.3923 -0.1218
 2414ntf    nn315138   3.427   6.212   6.490  0.1066 -0.4608 -0.7298
 2414ntf    sn215139   3.330   6.089   6.504 -0.1504 -0.2196 -0.3766
 2414ntf    cn115140   3.191   6.151   6.405 -0.1024 -0.1880 -0.4244
 2414ntf    fn415141   3.565   6.292   6.252 -0.4607 -0.5461 -0.4478
 2414ntf    fn415142   3.759   6.233   6.318 -0.0947  0.6206  0.2437
 2414ntf    fn415143   3.601   6.087   6.291  0.1746  0.0757 -0.5294
 2414ntf    on515144   3.648   6.133   6.584  0.0690 -0.1701  0.1356
 2414ntf    on515145   3.619   6.370   6.533 -0.0956 -0.3298 -0.2415
 2414ntf    on515146   3.254   6.075   6.626  0.2059  0.1021 -0.1150
 2414ntf    on515147   3.363   5.969   6.431 -0.5910 -0.9303  0.5620
 2414ntf    fn415148   3.231   6.174   6.281  0.1098 -0.4819 -0.4131
 2414ntf    fn415149   3.095   6.060   6.395 -0.3573  0.0404 -0.0641
 2414ntf    fn415150   3.138   6.264   6.448  0.3009 -0.0949 -0.1730
 2415ntf    cn115151   2.431   1.067   3.754  0.1610 -0.6550  0.1487
 2415ntf    sn215152   2.558   0.950   3.700  0.3296 -0.2081 -0.4354
 2415ntf    nn315153   2.535   0.947   3.545  0.3807  0.0641 -0.4486
 2415ntf    sn215154   2.514   0.813   3.466 -0.2484  0.0048 -0.1901
 2415ntf    cn115155   2.574   0.869   3.304  0.1483  0.3389  0.0714
 2415ntf    fn415156   2.319   1.018   3.704  0.0694  0.0459 -0.3546
 2415ntf    fn415157   2.423   1.066   3.886 -0.3408  0.1926  0.1355
 2415ntf    fn415158   2.444   1.194   3.718 -0.1554 -0.5471  0.4105
 2415ntf    on515159   2.676   1.020   3.744 -0.3320 -0.1048  1.2567
 2415ntf    on515160   2.520   0.834   3.777 -0.1857  0.0555 -0.2946
 2415ntf    on515161   2.375   0.779   3.450 -0.2287 -0.2859  0.2373
 2415ntf    on515162   2.594   0.696   3.493 -0.1351  0.0838 -0.1831
 2415ntf    fn415163   2.526   0.987   3.269 -0.2736  0.0548 -0.3127
 2415ntf    fn415164   2.707   0.872   3.304  0.1528  0.2361 -0.3396
 2415ntf    fn415165   2.540   0.782   3.211 -0.3069  0.0421  0.5157
 2416ntf    cn115166   2.208   0.618   4.514  0.0458 -0.2676  0.1328
 2416ntf    sn215167   2.126   0.632   4.676 -0.1159  0.2684  0.0088
 2416ntf    nn315168   1.976   0.609   4.637  0.0368  0.0451 -0.4521
 2416ntf    sn215169   1.889   0.479   4.637  0.1570 -0.0353 -0.1356
 2416ntf    cn115170   1.868   0.456   4.458  0.2036  0.1450 -0.1640
 2416ntf    fn415171   2.169   0.711   4.428 -0.1696  0.0585  0.5745
 2416ntf    fn415172   2.336   0.644   4.536 -0.0165  0.2549 -0.1018
 2416ntf    fn415173   2.194   0.501   4.455  0.1555  0.2270 -0.8837
 2416ntf    on515174   2.194   0.526   4.747  0.3077  0.1266 -0.5964
 2416ntf    on515175   2.154   0.766   4.721  0.6434  0.0400  0.2469
 2416ntf    on515176   1.759   0.501   4.694  0.2238  0.8641 -0.3300
 2416ntf    on515177   1.963   0.369   4.696  0.2988  0.1109 -0.0408
 2416ntf    fn415178   1.798   0.545   4.391  0.4964  0.4189 -0.1069
 2416ntf    fn415179   1.986   0.454   4.399  0.2602 -0.4636 -0.0323
 2416ntf    fn415180   1.812   0.340   4.428  0.9800 -0.1981 -0.3054
 2417ntf    cn115181   0.721   6.896   0.869  0.2212 -0.2150  0.2141
 2417ntf    sn215182   0.763   6.915   0.693 -0.0223  0.1029  0.1893
 2417ntf    nn315183   0.916   6.948   0.701  0.0149 -0.0403  0.0621
 2417ntf    sn215184   1.033   6.848   0.670 -0.1276 -0.0824 -0.3452
 2417ntf    cn115185   1.032   6.863   0.489 -0.3075  0.5100 -0.2974
 2417ntf    fn415186   0.598   6.858   0.902  0.1756  0.2792  0.6227
 2417ntf    fn415187   0.801   6.805   0.921  0.1648 -0.1554  0.4081
 2417ntf    fn415188   0.747   7.005   0.939  0.2650 -0.3160  0.3560
 2417ntf    on515189   0.726   6.788   0.636  0.3217 -0.0848  0.3845
 2417ntf    on515190   0.691   7.028   0.640 -0.1606 -0.2037 -0.2757
 2417ntf    on515191   1.016   6.706   0.684  0.3585 -0.1582 -0.4788
 2417ntf    on515192   1.160   6.905   0.708 -0.0061 -0.3560 -0.3359
 2417ntf    fn415193   1.146   6.815   0.440 -0.1423  0.6360 -0.0389
 2417ntf    fn415194   0.931   6.808   0.424 -0.0677 -0.2286 -0.0600
 2417ntf    fn415195   1.030   6.990   0.452  0.4198  0.5784 -0.1209
 2418ntf    cn115196   5.909   1.187   5.797  0.0849  0.1791  0.6856
 2418ntf    sn215197   6.072   1.209   5.720 -0.1320 -0.2736  0.0878
 2418ntf    nn315198   6.085   1.074   5.642 -0.3461 -0.3379  0.1631
 2418ntf    sn215199   6.069   1.044   5.488  0.0002  0.0218  0.0568
 2418ntf    cn115200   6.161   0.888   5.485  0.2851  0.1985 -0.4811
 2418ntf    fn415201   5.819   1.191   5.700  0.2163  0.5736  0.5765
 2418ntf    fn415202   5.901   1.073   5.863  0.7114 -0.0958  0.2960
 2418ntf    fn415203   5.879   1.282   5.884  0.0747  0.4149  0.4241
 2418ntf    on515204   6.070   1.341   5.660 -0.0540 -0.2716  0.0898
 2418ntf    on515205   6.153   1.199   5.839 -0.3893 -0.5990  0.2355
 2418ntf    on515206   6.144   1.128   5.398 -0.4425  0.2374 -0.1165
 2418ntf    on515207   5.939   1.000   5.445  0.4156 -1.0348 -0.1431
 2418ntf    fn415208   6.164   0.833   5.365  0.0669 -0.3729 -0.2293
 2418ntf    fn415209   6.287   0.918   5.514  0.3139 -0.2792 -0.1024
 2418ntf    fn415210   6.116   0.805   5.577 -0.2101  0.5091 -0.4423
 2419ntf    cn115211   5.857   5.332   1.146  0.1122 -0.4282  0.5540
 2419ntf    sn215212   5.964   5.396   1.279  0.3682  0.0468  0.1220
 2419ntf    nn315213   6.090   5.323   1.219  0.5880  0.6312 -0.1370
 2419ntf    sn215214   6.213   5.249   1.282  0.0496 -0.1332  0.0266
 2419ntf    cn115215   6.135   5.088   1.316 -0.0809 -0.1150 -0.1855
 2419ntf    fn415216   5.733   5.367   1.174  0.0620  0.0062 -0.1981
 2419ntf    fn415217   5.881   5.394   1.032 -0.5389  0.1504  0.7246
 2419ntf    fn415218   5.864   5.204   1.114 -0.1707 -0.3208  0.0563
 2419ntf    on515219   5.968   5.540   1.266  0.1713  0.0827  0.4414
 2419ntf    on515220   5.913   5.347   1.405 -0.1498  0.3623  0.0401
 2419ntf    on515221   6.251   5.303   1.410  0.5275  0.4979 -0.3776
 2419ntf    on515222   6.319   5.216   1.191 -0.1440  0.1257 -0.2932
 2419ntf    fn415223   6.010   5.093   1.359  0.0270 -0.2577  0.1443
 2419ntf    fn415224   6.135   5.015   1.206 -0.0538 -0.0514 -0.2279
 2419ntf    fn415225   6.200   5.032   1.417  0.2671  0.2549 -0.2032
 2420ntf    cn115226   0.053   2.438   2.570  0.0557  0.4565  0.1112
 2420ntf    sn215227   0.117   2.285   2.497 -0.0992  0.4874 -0.0910
 2420ntf    nn315228   0.225   2.237   2.600 -0.8220  0.0484  0.4702
 2420ntf    sn215229   0.231   2.122   2.707 -0.3637 -0.3003  0.0735
 2420ntf    cn115230   0.410   2.131   2.739 -0.4584  0.0454  0.5177
 2420ntf    fn415231   0.138   2.539   2.572  0.2077  0.3252  0.4426
 2420ntf    fn415232  -0.049   2.481   2.498  0.0294 -0.0040 -0.1267
 2420ntf    fn415233   0.016   2.428   2.697 -0.0965  0.5337  0.0739
 2420ntf    on515234   0.001   2.201   2.490  0.2926 -0.0561 -0.1350
 2420ntf    on515235   0.173   2.338   2.375  0.0627 -0.1515 -0.2991
 2420ntf    on515236   0.218   1.990   2.650  0.5022 -0.4885  0.2937
 2420ntf    on515237   0.157   2.156   2.826  0.0208 -0.1740  0.2763
 2420ntf    fn415238   0.490   2.085   2.645  0.1166  0.2407  0.9067
 2420ntf    fn415239   0.450   2.256   2.754  0.0334 -0.1128  0.5258
 2420ntf    fn415240   0.436   2.060   2.848 -0.5861 -0.1958  0.3922
 2421ntf    cn115241   2.381   1.798   5.059  0.0839 -0.3231  0.0568
 2421ntf    sn215242   2.558   1.835   5.071  0.0469 -0.1945  0.2248
 2421ntf    nn315243   2.555   1.991   5.080 -0.2138 -0.1937  0.1216
 2421ntf    sn215244   2.594   2.085   5.200 -0.3032  0.1367 -0.1049
 2421ntf    cn115245   2.435   2.171   5.221 -0.5524 -0.3566  0.0566
 2421ntf    fn415246   2.326   1.814   5.179 -0.3947  0.1339 -0.2207
 2421ntf    fn415247   2.325   1.878   4.970  0.5811 -0.4231 -0.3444
 2421ntf    fn415248   2.356   1.672   5.027  0.5055 -0.2499 -0.5711
 2421ntf    on515249   2.604   1.763   5.187 -0.7600  0.0806  0.7193
 2421ntf    on515250   2.608   1.790   4.943  0.3964  0.1868  0.2258
 2421ntf    on515251   2.689   2.187   5.165  0.1017 -0.1539  0.1277
 2421ntf    on515252   2.607   2.026   5.331 -0.2928  0.0269 -0.1555
 2421ntf    fn415253   2.446   2.274   5.303 -0.7491 -0.6647  0.4748
 2421ntf    fn415254   2.391   2.212   5.103  0.2235 -0.4595 -0.2724
 2421ntf    fn415255   2.336   2.098   5.270 -0.2965 -0.6030  0.2090
 2422ntf    cn115256   4.450   4.871   0.968 -0.1296 -0.1769  0.2551
 2422ntf    sn215257   4.629   4.891   0.944 -0.2074 -0.0658 -0.2296
 2422ntf    nn315258   4.646   5.006   0.838  0.3109 -0.1487 -0.2391
 2422ntf    sn215259   4.647   4.997   0.681 -0.2738  0.1020 -0.2602
 2422ntf    cn115260   4.815   4.938   0.643 -0.1414  0.2283  0.1168
 2422ntf    fn415261   4.413   4.763   1.036 -0.2373 -0.1852  0.1840
 2422ntf    fn415262   4.415   4.973   1.045  0.6248  0.1934  0.1181
 2422ntf    fn415263   4.384   4.882   0.854 -0.1812 -0.1211  0.2900
 2422ntf    on515264   4.669   4.935   1.075  0.0288 -0.2659 -0.2325
 2422ntf    on515265   4.669   4.760   0.896 -0.4370 -0.3836  0.4433
 2422ntf    on515266   4.647   5.134   0.636  0.4295  0.1576 -0.1128
 2422ntf    on515267   4.557   4.898   0.627 -0.1071  0.4386 -1.1716
 2422ntf    fn415268   4.857   4.817   0.675 -0.2761  0.2431  0.3477
 2422ntf    fn415269   4.839   4.947   0.513  0.1547  0.2732  0.1737
 2422ntf    fn415270   4.903   5.022   0.695  0.4002 -0.4666  0.3198
 2423ntf    cn115271   6.101   0.777   2.091 -0.0703 -0.2704 -0.0534
 2423ntf    sn215272   6.067   0.953   2.122  0.1300 -0.2720  0.1789
 2423ntf    nn315273   5.993   1.002   1.992 -0.0992  0.3233  0.5275
 2423ntf    sn215274   6.056   1.079   1.871 -0.1318  0.3850  0.5501
 2423ntf    cn115275   5.985   1.243   1.905  0.0232  0.4914  0.3661
 2423ntf    fn415276   6.183   0.722   2.179  0.4961  0.1316 -0.3214
 2423ntf    fn415277   5.988   0.710   2.098 -0.1403 -0.1586 -0.1032
 2423ntf    fn415278   6.159   0.753   1.974  0.1208 -0.2124  0.0277
 2423ntf    on515279   5.972   0.940   2.229 -0.3335  0.0696 -0.1862
 2423ntf    on515280   6.198   1.010   2.146  0.1935 -0.0583 -0.6178
 2423ntf    on515281   5.989   1.045   1.748 -0.1229 -0.0742  0.6691
 2423ntf    on515282   6.199   1.099   1.867 -0.1506  0.4480  0.0459
 2423ntf    fn415283   6.022   1.282   2.026 -0.1396  0.4048  0.4438
 2423ntf    fn415284   6.022   1.330   1.813  0.4010  0.2271  0.2621
 2423ntf    fn415285   5.853   1.237   1.904  0.0204  0.5579 -0.3480
 2424ntf    cn115286   4.014   3.679   1.394 -0.1216  0.2891 -0.2531
 2424ntf    sn215287   3.950   3.576   1.259 -0.2358  0.1653 -0.1055
 2424ntf    nn315288   4.086   3.532   1.193  0.1855  0.5365  0.5089
 2424ntf    sn215289   4.191   3.421   1.228  0.0300  0.2491  0.0678
 2424ntf    cn115290   4.343   3.490   1.154  0.1054  0.0130  0.0011
 2424ntf    fn415291   3.906   3.728   1.453 -0.2409 -0.1678 -0.0865
 2424ntf    fn415292   4.083   3.625   1.493 -0.2268  0.4475 -0.0927
 2424ntf    fn415293   4.085   3.785   1.358  0.4768 -0.1894 -0.5094
 2424ntf    on515294   3.871   3.473   1.322  0.0602  0.2632  0.4351
 2424ntf    on515295   3.873   3.674   1.187  0.0237  0.2398 -0.2874
 2424ntf    on515296   4.162   3.307   1.145 -0.0848 -0.1051  0.5932
 2424ntf    on515297   4.217   3.404   1.369 -0.3772  0.3629  0.1565
 2424ntf    fn415298   4.453   3.418   1.171  0.2527  0.1387 -0.4243
 2424ntf    fn415299   4.332   3.502   1.023  0.3743 -0.0898 -0.0303
 2424ntf    fn415300   4.363   3.611   1.204 -0.2973 -0.0048  0.2130
 2425ntf    cn115301   4.709   3.269   4.105  0.0924  0.1156 -0.1331
 2425ntf    sn215302   4.641   3.408   4.200 -0.0253  0.0179 -0.0731
 2425ntf    nn315303   4.642   3.517   4.087  0.0930 -0.0290 -0.1168
 2425ntf    sn215304   4.557   3.521   3.955 -0.1118  0.0449  0.0172
 2425ntf    cn115305   4.423   3.641   3.982 -0.1234 -0.0374  0.3211
 2425ntf    fn415306   4.634   3.238   4.001 -0.7449 -0.4807  0.6260
 2425ntf    fn415307   4.830   3.295   4.060  0.3138  0.4965  0.6704
 2425ntf    fn415308   4.719   3.161   4.182 -0.7553  0.1857  0.0893
 2425ntf    on515309   4.510   3.373   4.248 -0.2169  0.1905 -0.4582
 2425ntf    on515310   4.747   3.425   4.295 -0.2608  0.0197  0.1885
 2425ntf    on515311   4.485   3.399   3.927  0.4454 -0.3130  0.1376
 2425ntf    on515312   4.632   3.585   3.850  0.6339 -0.0298  0.5000
 2425ntf    fn415313   4.348   3.654   3.875 -0.1971  0.5288  0.4378
 2425ntf    fn415314   4.339   3.601   4.076 -0.7532  0.5124  0.0038
 2425ntf    fn415315   4.469   3.761   4.015 -0.2223  0.0271  0.2275
 2426ntf    cn115316   3.589   0.184   4.560 -0.1137 -0.1414  0.1924
 2426ntf    sn215317   3.659   0.351   4.560  0.1038 -0.2313 -0.0323
 2426ntf    nn315318   3.776   0.324   4.662 -0.0004  0.0282  0.1586
 2426ntf    sn215319   3.929   0.342   4.631 -0.0886  0.1569 -0.2135
 2426ntf    cn115320   3.977   0.444   4.774 -0.0705  0.0818 -0.1658
 2426ntf    fn415321   3.528   0.148   4.672 -0.4685 -0.3939 -0.0775
 2426ntf    fn415322   3.497   0.162   4.467  0.0414  0.1387 -0.0284
 2426ntf    fn415323   3.681   0.091   4.541  0.4076  0.3153  0.4666
 2426ntf    on515324   3.681   0.373   4.420 -0.2950 -0.1063 -0.0753
 2426ntf    on515325   3.557   0.431   4.623  0.1489  0.0811 -0.3498
 2426ntf    on515326   3.980   0.424   4.525  0.1497 -0.0180 -0.2347
 2426ntf    on515327   4.002   0.220   4.654 -0.2459  0.2319  0.7438
 2426ntf    fn415328   3.893   0.545   4.782 -0.2151  0.0001 -0.6036
 2426ntf    fn415329   3.958   0.373   4.884  1.2054  0.6812  0.4542
 2426ntf    fn415330   4.103   0.484   4.777 -0.1990  0.4503  0.4151
 2427ntf    cn115331   5.582   6.114   1.285  0.3755  0.1002 -0.3026
 2427ntf    sn215332   5.663   6.187   1.431 -0.2868 -0.1162  0.1750
 2427ntf    nn315333   5.626   6.338   1.407  0.0688 -0.0168  0.2533
 2427ntf    sn215334   5.720   6.463   1.400  0.0827 -0.0579 -0.2811
 2427ntf    cn115335   5.703   6.509   1.225 -0.0254  0.1142 -0.2265
 2427ntf    fn415336   5.451   6.125   1.278  0.3474 -0.2227 -0.3070
 2427ntf    fn415337   5.629   6.170   1.174  0.3696 -0.4308 -0.5748
 2427ntf    fn415338   5.601   5.984   1.269  0.4934  0.1209 -0.3361
 2427ntf    on515339   5.587   6.118   1.532 -0.7617 -0.8720 -0.6854
 2427ntf    on515340   5.800   6.148   1.410 -0.2291  0.6745 -1.0198
 2427ntf    on515341   5.860   6.445   1.431 -0.1289  0.3142  0.9345
 2427ntf    on515342   5.663   6.581   1.460  0.1797 -0.2509  0.1906
 2427ntf    fn415343   5.726   6.633   1.185 -0.3484  0.2035 -0.1348
 2427ntf    fn415344   5.780   6.437   1.145 -0.0100  0.1240 -0.2211
 2427ntf    fn415345   5.578   6.482   1.191 -0.2051  0.3270  0.2668
 2428ntf    cn115346   2.152   1.350   0.843 -0.1586 -0.0377 -0.1642
 2428ntf    sn215347   2.202   1.524   0.839  0.0804 -0.1047 -0.0944
 2428ntf    nn315348   2.238   1.540   0.687 -0.0016  0.4941 -0.0530
 2428ntf    sn215349   2.374   1.557   0.610  0.1755  0.1349  0.1787
 2428ntf    cn115350   2.373   1.733   0.565  0.4340  0.1689  0.3040
 2428ntf    fn415351   2.241   1.268   0.789 -0.1899 -0.0185 -0.2449
 2428ntf    fn415352   2.123   1.303   0.963 -0.5258 -0.2731 -0.3427
 2428ntf    fn415353   2.040   1.329   0.775 -0.0005 -0.4706 -0.2956
 2428ntf    on515354   2.085   1.605   0.865  0.1618 -0.0093 -0.0238
 2428ntf    on515355   2.311   1.522   0.933  0.1324  0.0523 -0.1513
 2428ntf    on515356   2.369   1.500   0.477  0.0482  0.4609  0.0421
 2428ntf    on515357   2.495   1.545   0.687  0.2690 -0.5015 -0.0622
 2428ntf    fn415358   2.375   1.808   0.674 -0.1852  0.4833  0.1060
 2428ntf    fn415359   2.483   1.764   0.500  0.1780  0.2434 -0.0986
 2428ntf    fn415360   2.269   1.776   0.495 -0.2256 -0.4186  0.9072
 2429ntf    cn115361   6.279   0.339   0.663  0.0505  0.5573  0.5388
 2429ntf    sn215362   6.356   0.175   0.659 -0.4095  0.3522 -0.0238
 2429ntf    nn315363   6.279   0.105   0.776  0.0273 -0.4548 -0.2100
 2429ntf    sn215364   6.336   0.000   0.878  0.0289  0.0202  0.2803
 2429ntf    cn115365   6.208  -0.129   0.876  0.3218 -0.2709  0.1531
 2429ntf    fn415366   6.148   0.329   0.683  0.1377  0.1158  0.9113
 2429ntf    fn415367   6.330   0.409   0.763  0.3765  0.2847  0.5661
 2429ntf    fn415368   6.285   0.411   0.552  0.4802 -0.4373 -0.0936
 2429ntf    on515369   6.328   0.117   0.529 -0.2545 -0.2065  0.1882
 2429ntf    on515370   6.496   0.192   0.689 -0.2240 -0.7455 -0.2169
 2429ntf    on515371   6.340   0.047   1.015  0.2655 -0.0437  0.2968
 2429ntf    on515372   6.446  -0.081   0.830  0.3449  0.1586  0.7588
 2429ntf    fn415373   6.212  -0.191   0.759  0.1664 -0.1641  0.0909
 2429ntf    fn415374   6.218  -0.231   0.959 -0.4719 -0.2826  0.2386
 2429ntf    fn415375   6.086  -0.078   0.884  0.3894 -0.0752 -0.0322
 2430ntf    cn115376   4.718   1.533   6.312 -0.0569  0.3855  0.4038
 2430ntf    sn215377   4.868   1.548   6.210 -0.2634  0.2689  0.0794
 2430ntf    nn315378   4.802   1.611   6.083  0.1365  0.4519 -0.0401
 2430ntf    sn215379   4.736   1.554   5.953  0.0584  0.0962  0.1547
 2430ntf    cn115380   4.878   1.559   5.840 -0.1104 -0.0866 -0.0694
 2430ntf    fn415381   4.745   1.460   6.419 -0.3369 -0.0457  0.1823
 2430ntf    fn415382   4.677   1.654   6.344  0.3199  0.4867  0.5132
 2430ntf    fn415383   4.616   1.481   6.247  0.1246  0.3254  0.1624
 2430ntf    on515384   4.949   1.644   6.281  0.0264  0.3438 -0.3500
 2430ntf    on515385   4.919   1.413   6.194  0.5143  0.4800  0.6845
 2430ntf    on515386   4.649   1.647   5.884  0.1340 -0.3485 -0.5525
 2430ntf    on515387   4.703   1.414   5.961 -0.9122  0.3288  0.3372
 2430ntf    fn415388   4.972   1.477   5.885 -0.6984 -0.7342 -0.0052
 2430ntf    fn415389   4.843   1.517   5.720 -0.1214 -0.2726 -0.0000
 2430ntf    fn415390   4.919   1.684   5.824 -0.0280 -0.0963  0.0596
 2431ntf    cn115391   3.916   5.496   2.880  0.0027  0.5547 -0.0507
 2431ntf    sn215392   3.748   5.507   2.948 -0.0148 -0.4281  0.0762
 2431ntf    nn315393   3.676   5.375   2.901 -0.3645 -0.1079 -0.2860
 2431ntf    sn215394   3.639   5.243   2.977 -0.0822  0.1866  0.3701
 2431ntf    cn115395   3.464   5.270   3.017 -0.2269 -0.0852 -0.0665
 2431ntf    fn415396   3.928   5.501   2.748 -0.5276 -0.1937 -0.1371
 2431ntf    fn415397   3.991   5.590   2.935  0.2012  0.4062 -0.0652
 2431ntf    fn415398   3.970   5.377   2.903  0.7265  0.8222 -0.3310
 2431ntf    on515399   3.773   5.523   3.089 -0.5547  0.1235  0.1129
 2431ntf    on515400   3.690   5.621   2.881 -0.0659 -0.9719 -0.8186
 2431ntf    on515401   3.710   5.236   3.102 -0.5971  0.0504  0.6595
 2431ntf    on515402   3.647   5.127   2.891  0.3227  0.7320 -0.3400
 2431ntf    fn415403   3.437   5.390   3.066  0.0734 -0.3570  0.8003
 2431ntf    fn415404   3.384   5.269   2.912 -0.1684 -0.3498 -0.1073
 2431ntf    fn415405   3.428   5.183   3.110  0.3894  0.2257  0.4719
 2432ntf    cn115406   3.318   6.636   0.551 -0.1515  0.4593  0.0953
 2432ntf    sn215407   3.158   6.627   0.464 -0.0678 -0.2171  0.0105
 2432ntf    nn315408   3.086   6.758   0.510  0.2120 -0.0014 -0.1625
 2432ntf    sn215409   2.998   6.865   0.436  0.0625  0.0516  0.0901
 2432ntf    cn115410   3.122   6.997   0.446  0.1688 -0.0024 -0.4556
 2432ntf    fn415411   3.361   6.761   0.551  0.6557  0.1878  0.3124
 2432ntf    fn415412   3.309   6.603   0.679 -0.3307  0.6760  0.1406
 2432ntf    fn415413   3.404   6.558   0.489 -0.7041  0.4733 -0.7007
 2432ntf    on515414   3.201   6.617   0.327 -0.0552  0.0581 -0.0067
 2432ntf    on515415   3.093   6.514   0.525 -0.1296  0.2124  0.7463
 2432ntf    on515416   2.894   6.915   0.522 -0.2624  0.2942 -0.4381
 2432ntf    on515417   2.977   6.852   0.294 -0.2500 -0.0662  0.1453
 2432ntf    fn415418   3.243   6.960   0.409  0.5132  0.0737  0.5647
 2432ntf    fn415419   3.085   7.100   0.372  0.4003  0.6414  0.3118
 2432ntf    fn415420   3.142   7.038   0.571  0.1106 -0.1533 -0.3969
 2433ntf    cn115421   6.705   1.848   5.021 -0.0968  0.1083 -0.0051
 2433ntf    sn215422   6.780   1.704   4.938 -0.2029  0.0512 -0.0023
 2433ntf    nn315423   6.724   1.711   4.792  0.4698  0.3165 -0.2528
 2433ntf    sn215424   6.694   1.596   4.689 -0.0774  0.0444  0.2018
 2433ntf    cn115425   6.514   1.616   4.680 -0.0630  0.1789  0.2141
 2433ntf    fn415426   6.750   1.967   4.986  0.0500  0.0663  0.0404
 2433ntf    fn415427   6.575   1.863   5.003 -0.1748 -0.0324  0.4243
 2433ntf    fn415428   6.727   1.848   5.151  0.2610  0.5097 -0.0653
 2433ntf    on515429   6.923   1.724   4.947 -0.0960 -0.8341  0.3163
 2433ntf    on515430   6.729   1.593   5.014 -0.0712  0.0283  0.0523
 2433ntf    on515431   6.715   1.462   4.737 -1.0401 -0.2095 -0.0647
 2433ntf    on515432   6.739   1.628   4.555  0.6549 -0.7676  0.2394
 2433ntf    fn415433   6.452   1.660   4.788  0.1829  0.1095  0.3831
 2433ntf    fn415434   6.470   1.697   4.585  0.0191  0.0922  0.1024
 2433ntf    fn415435   6.460   1.498   4.656 -0.8015  0.5023  0.2407
 2434ntf    cn115436   2.853   2.880   5.506  0.1962  0.4646  0.4836
 2434ntf    sn215437   2.728   2.782   5.594 -0.0333  0.2242 -0.1033
 2434ntf    nn315438   2.637   2.728   5.478 -0.5072  0.2360  0.2581
 2434ntf    sn215439   2.506   2.780   5.409 -0.1806  0.3344 -0.3017
 2434ntf    cn115440   2.380   2.687   5.501  0.0117  0.0229 -0.3539
 2434ntf    fn415441   2.947   2.800   5.456 -0.3337  0.1805 -0.0751
 2434ntf    fn415442   2.798   2.935   5.399  0.0136 -0.1294  0.2650
 2434ntf    fn415443   2.908   2.981   5.571  0.1508  0.4027  0.6186
 2434ntf    on515444   2.800   2.674   5.656  0.6136  0.8136  0.1794
 2434ntf    on515445   2.674   2.877   5.688 -1.1086  0.0676 -0.5478
 2434ntf    on515446   2.494   2.747   5.269  0.1960  0.4140 -0.3545
 2434ntf    on515447   2.480   2.917   5.447  0.0580  0.3291 -0.1179
 2434ntf    fn415448   2.336   2.585   5.430  0.2683 -0.5775  0.3308
 2434ntf    fn415449   2.435   2.642   5.613 -0.1185 -0.3586 -0.4391
 2434ntf    fn415450   2.276   2.757   5.544  0.2001  0.3700 -0.4586
 2435ntf    cn115451   3.842   3.868   2.242 -0.6259  0.2521  0.0952
 2435ntf    sn215452   3.764   3.748   2.130 -0.2082 -0.0424  0.1188
 2435ntf    nn315453   3.853   3.776   2.004 -0.1836  0.4285  0.2381
 2435ntf    sn215454   3.824   3.743   1.853 -0.0794 -0.1117  0.3346
 2435ntf    cn115455   3.883   3.571   1.848  0.3354  0.0419 -0.1823
 2435ntf    fn415456   3.974   3.863   2.242 -0.6271  0.2236  0.1387
 2435ntf    fn415457   3.812   3.992   2.205  0.3520  0.3760 -0.3017
 2435ntf    fn415458   3.796   3.859   2.366  0.1764  0.2479  0.3953
 2435ntf    on515459   3.795   3.626   2.200  0.1536  0.2190  0.4254
 2435ntf    on515460   3.627   3.793   2.119 -0.0720  0.4500  0.3724
 2435ntf    on515461   3.906   3.813   1.757 -0.7582  0.8682  0.4503
 2435ntf    on515462   3.685   3.725   1.819  0.1278 -0.3502 -0.3998
 2435ntf    fn415463   3.802   3.489   1.913  0.2165 -0.0076 -0.3905
 2435ntf    fn415464   3.895   3.531   1.722 -0.1243 -0.0227 -0.2089
 2435ntf    fn415465   3.997   3.559   1.913  0.2806 -0.9050 -0.2541
 2436ntf    cn115466   6.793   1.467   0.128 -0.2581 -0.1611 -0.1869
 2436ntf    sn215467   6.897   1.422   0.270 -0.2501 -0.1611 -0.1928
 2436ntf    nn315468   7.038   1.470   0.220 -0.2770 -0.0004 -0.1112
 2436ntf    sn215469   7.165   1.383   0.191 -0.1110  0.1760  0.0852
 2436ntf    cn115470   7.186   1.438   0.019 -0.0423  0.0928  0.0672
 2436ntf    fn415471   6.811   1.370   0.040  0.1298  0.1882 -0.4945
 2436ntf    fn415472   6.662   1.482   0.146 -0.2109 -0.1963  0.1835
 2436ntf    fn415473   6.834   1.581   0.075 -0.3586 -0.0854 -0.1029
 2436ntf    on515474   6.858   1.507   0.379 -0.0177 -0.2106 -0.0695
 2436ntf    on515475   6.884   1.278   0.278 -0.0383 -0.1850 -0.2694
 2436ntf    on515476   7.147   1.241   0.174  0.2033  0.1088  0.2983
 2436ntf    on515477   7.283   1.415   0.268 -0.3030  0.1661  0.3859
 2436ntf    fn415478   7.096   1.393  -0.066  0.3348  0.1135 -0.3507
 2436ntf    fn415479   7.188   1.570   0.007  0.0333  0.1094  0.2581
 2436ntf    fn415480   7.304   1.402  -0.030 -0.0958 -0.7394  0.5299
 2437ntf    cn115481   4.004   6.183   0.856 -0.1552  0.2124  0.1773
 2437ntf    sn215482   3.902   6.329   0.819  0.0453  0.2469 -0.2362
 2437ntf    nn315483   3.756   6.273   0.833 -0.0279  0.4661 -0.1094
 2437ntf    sn215484   3.664   6.184   0.742  0.1022 -0.1604  0.3625
 2437ntf    cn115485   3.538   6.303   0.687  0.7699  0.2269 -0.3429
 2437ntf    fn415486   3.988   6.145   0.982  0.1867 -0.0268  0.1482
 2437ntf    fn415487   3.978   6.079   0.778  0.2313  0.4288 -0.2412
 2437ntf    fn415488   4.128   6.223   0.837 -0.1084  0.1489  0.3456
 2437ntf    on515489   3.924   6.426   0.923 -0.4474  0.0764  0.0335
 2437ntf    on515490   3.945   6.378   0.690 -0.1189 -0.1466 -0.4433
 2437ntf    on515491   3.589   6.097   0.829  0.0832 -0.2079  0.2995
 2437ntf    on515492   3.724   6.131   0.622 -0.3811  0.4372 -0.1537
 2437ntf    fn415493   3.453   6.248   0.602  0.2572  0.0903  0.2572
 2437ntf    fn415494   3.465   6.351   0.786  0.1500  0.5644 -0.9592
 2437ntf    fn415495   3.591   6.409   0.627  0.1271  0.2764 -0.8310
 2438ntf    cn115496   1.048   1.639   6.163 -0.3655 -0.1783  0.2656
 2438ntf    sn215497   1.078   1.794   6.072  0.0531 -0.2065  0.3538
 2438ntf    nn315498   1.002   1.759   5.940  0.1638  0.3715  0.1318
 2438ntf    sn215499   0.855   1.801   5.905 -0.0695 -0.3802  0.1918
 2438ntf    cn115500   0.875   1.963   5.826 -0.3225 -0.2914  0.3084
 2438ntf    fn415501   1.109   1.643   6.280 -0.3666 -0.1821  0.2659
 2438ntf    fn415502   0.917   1.630   6.177 -0.3480 -0.6420  0.1284
 2438ntf    fn415503   1.101   1.533   6.105 -0.6431 -0.2118  0.0705
 2438ntf    on515504   1.022   1.907   6.142  0.0777  0.4131 -0.6015
 2438ntf    on515505   1.221   1.804   6.051 -0.1236  0.2832 -0.6571
 2438ntf    on515506   0.768   1.829   6.016  0.5042  0.6212  0.4024
 2438ntf    on515507   0.799   1.729   5.793  0.1333 -0.1846 -0.0359
 2438ntf    fn415508   0.768   1.998   5.756 -0.1885 -0.0441  0.2268
 2438ntf    fn415509   0.907   2.060   5.910 -0.2609 -0.4197  0.4341
 2438ntf    fn415510   0.982   1.952   5.748 -0.4729  0.1742  0.0306
 2439ntf    cn115511   5.526   1.749   5.502  0.5595  0.1851  0.0932
 2439ntf    sn215512   5.434   1.727   5.347  0.4901 -0.0025  0.1612
 2439ntf    nn315513   5.283   1.742   5.387  0.4076  0.7033 -0.3992
 2439ntf    sn215514   5.181   1.861   5.377 -0.2546  0.1881  0.1506
 2439ntf    cn115515   5.095   1.829   5.534 -0.0112  0.0509  0.2567
 2439ntf    fn415516   5.447   1.777   5.604  0.4346  0.6128 -0.1183
 2439ntf    fn415517   5.587   1.642   5.550  0.5104  0.2746  0.3596
 2439ntf    fn415518   5.620   1.842   5.494  0.1616  0.6241  0.4350
 2439ntf    on515519   5.488   1.816   5.247  0.2206 -0.1506 -0.1182
 2439ntf    on515520   5.467   1.588   5.323 -0.3786 -0.1429 -0.2809
 2439ntf    on515521   5.080   1.837   5.276 -0.3753 -0.2863  0.3798
 2439ntf    on515522   5.240   1.991   5.394  0.4322 -0.2064  0.8825
 2439ntf    fn415523   5.054   1.704   5.546 -1.0854  0.3156 -0.5489
 2439ntf    fn415524   5.169   1.868   5.637  0.0757 -0.0781  0.2415
 2439ntf    fn415525   4.988   1.907   5.535 -0.0161  0.0449  0.1440
 2440ntf    cn115526   6.367   4.185   1.495 -0.1766  0.2296  0.1567
 2440ntf    sn215527   6.310   4.295   1.629 -0.0258  0.4321  0.0547
 2440ntf    nn315528   6.208   4.384   1.549  0.2698  0.0219 -0.7970
 2440ntf    sn215529   6.057   4.351   1.520  0.0273  0.1542  0.2788
 2440ntf    cn115530   5.978   4.502   1.583  0.2812  0.3594  0.1063
 2440ntf    fn415531   6.266   4.112   1.450 -0.4164  0.2681  0.6215
 2440ntf    fn415532   6.414   4.252   1.391  0.0879 -0.0860  0.0740
 2440ntf    fn415533   6.461   4.100   1.532 -0.4574 -0.3287 -0.3995
 2440ntf    on515534   6.245   4.208   1.723  0.0682  0.1343 -0.1547
 2440ntf    on515535   6.436   4.353   1.669 -0.0955  0.7100 -0.1206
 2440ntf    on515536   5.991   4.253   1.603  0.3485 -0.4436 -0.1682
 2440ntf    on515537   6.024   4.347   1.380  0.2528 -0.5786  0.2405
 2440ntf    fn415538   6.059   4.605   1.565  0.3140  0.3043 -0.0643
 2440ntf    fn415539   5.866   4.518   1.514  0.0854 -0.2698  0.2708
 2440ntf    fn415540   5.943   4.499   1.710 -0.3088 -0.2245 -0.0645
 2441ntf    cn115541   2.987   3.305   1.491  0.0788 -0.1052  0.0996
 2441ntf    sn215542   3.099   3.330   1.632  0.0420 -0.1558  0.1378
 2441ntf    nn315543   2.984   3.358   1.734 -0.0073  0.2746 -0.0336
 2441ntf    sn215544   2.919   3.276   1.851  0.1478  0.1450 -0.0378
 2441ntf    cn115545   2.740   3.295   1.826  0.0634 -0.3363  0.1961
 2441ntf    fn415546   3.049   3.268   1.380 -0.6600 -0.2337 -0.2750
 2441ntf    fn415547   2.897   3.211   1.516 -0.0805  0.0483  0.1066
 2441ntf    fn415548   2.931   3.418   1.451 -0.2915 -0.0544  0.7453
 2441ntf    on515549   3.184   3.213   1.640 -0.1475 -0.3025  0.0029
 2441ntf    on515550   3.166   3.453   1.597 -0.2727 -0.0078  0.0531
 2441ntf    on515551   2.941   3.329   1.984  0.4807  0.6740 -0.3007
 2441ntf    on515552   2.935   3.134   1.832 -0.0319  0.0833  0.2685
 2441ntf    fn415553   2.704   3.417   1.861  0.4270 -0.3191  0.5197
 2441ntf    fn415554   2.696   3.274   1.703 -0.1675 -0.5139  0.3074
 2441ntf    fn415555   2.663   3.216   1.901 -0.6909  0.5598  0.3834
 2442ntf    cn115556   4.242   2.474   4.357 -0.0233 -0.0565  0.2258
 2442ntf    sn215557   4.293   2.609   4.467  0.0220  0.1888 -0.0953
 2442ntf    nn315558   4.268   2.734   4.376  0.0881  0.3698  0.1316
 2442ntf    sn215559   4.365   2.808   4.276  0.0857  0.1987  0.0026
 2442ntf    cn115560   4.433   2.942   4.379 -0.6241  0.5483  0.0196
 2442ntf    fn415561   4.280   2.488   4.231  0.1543 -0.4679  0.2299
 2442ntf    fn415562   4.297   2.364   4.407 -0.0568 -0.2166 -0.0887
 2442ntf    fn415563   4.112   2.452   4.351  0.0375 -0.3263 -0.1944
 2442ntf    on515564   4.205   2.596   4.581  0.6590 -0.3234  0.3384
 2442ntf    on515565   4.429   2.575   4.500 -0.0659 -0.4246 -0.3704
 2442ntf    on515566   4.299   2.878   4.169  0.7961  0.3798 -0.3242
 2442ntf    on515567   4.486   2.740   4.236 -0.0827 -0.2520  0.2494
 2442ntf    fn415568   4.476   2.893   4.494 -0.3676  0.3213 -0.1719
 2442ntf    fn415569   4.536   3.006   4.326 -0.0289  0.1036  0.6263
 2442ntf    fn415570   4.349   3.038   4.413 -0.1947  0.7332  0.5638
 2443ntf    cn115571   0.035   4.749   3.661 -0.1056  0.0131 -0.0372
 2443ntf    sn215572  -0.105   4.666   3.741  0.1637  0.1170  0.5485
 2443ntf    nn315573  -0.036   4.629   3.877 -0.0600 -0.0532  0.6157
 2443ntf    sn215574  -0.027   4.716   4.007 -0.0634  0.2389  0.4204
 2443ntf    cn115575   0.151   4.751   4.009 -0.0013 -0.0109 -0.3212
 2443ntf    fn415576   0.005   4.796   3.541 -0.3588 -0.0270  0.0105
 2443ntf    fn415577   0.071   4.859   3.725  0.2818  0.0021 -0.2321
 2443ntf    fn415578   0.145   4.677   3.641 -0.2834 -0.0629 -0.7611
 2443ntf    on515579  -0.208   4.767   3.739 -0.1419 -0.2016 -0.0941
 2443ntf    on515580  -0.126   4.550   3.658 -0.4331  0.2681  0.4843
 2443ntf    on515581  -0.049   4.639   4.127 -0.7082 -0.3714 -0.0858
 2443ntf    on515582  -0.086   4.848   4.010  0.3254  0.4203  0.1700
 2443ntf    fn415583   0.200   4.816   4.114  0.0376  0.2823 -0.5216
 2443ntf    fn415584   0.229   4.644   4.008 -0.0259 -0.0355  0.0682
 2443ntf    fn415585   0.180   4.824   3.902  0.6254  0.5962  0.2478
 2444ntf    cn115586   6.890   2.783   1.684  0.1164 -0.3278 -0.3977
 2444ntf    sn215587   6.840   2.958   1.678  0.3567 -0.2375  0.0995
 2444ntf    nn315588   6.702   2.941   1.605  0.2413  1.0031  0.0134
 2444ntf    sn215589   6.556   2.907   1.652  0.2839  0.1701 -0.4284
 2444ntf    cn115590   6.479   3.071   1.635 -0.2240 -0.0531 -0.2901
 2444ntf    fn415591   6.811   2.707   1.757  0.2625  0.2549  0.3882
 2444ntf    fn415592   6.896   2.731   1.563  0.3773  0.1297 -0.5833
 2444ntf    fn415593   7.012   2.784   1.736  0.2389  0.5428 -0.6808
 2444ntf    on515594   6.846   3.007   1.813  0.0750  0.3525 -0.0985
 2444ntf    on515595   6.926   3.017   1.578  0.0953  0.5405  0.3316
 2444ntf    on515596   6.548   2.879   1.793 -0.1145  0.0256 -0.4791
 2444ntf    on515597   6.478   2.820   1.569 -0.4581  0.0047  0.4320
 2444ntf    fn415598   6.504   3.115   1.513 -0.0399 -0.0887 -0.2663
 2444ntf    fn415599   6.348   3.088   1.644 -0.1529  0.4231 -0.1204
 2444ntf    fn415600   6.532   3.158   1.720 -0.1257 -0.3751 -0.0221
 2445ntf    cn115601   1.269   0.399   2.054  0.2808  0.0737 -0.1065
 2445ntf    sn215602   1.329   0.325   2.209 -0.1174 -0.2877 -0.1253
 2445ntf    nn315603   1.233   0.202   2.227 -0.0069 -0.1994  1.0893
 2445ntf    sn215604   1.255   0.052   2.185 -0.4346 -0.0148  0.1999
 2445ntf    cn115605   1.083  -0.001   2.165 -0.3561 -0.1467 -0.1297
 2445ntf    fn415606   1.321   0.330   1.954 -0.1182  0.2153 -0.4148
 2445ntf    fn415607   1.139   0.402   2.033  0.2376  0.1286  0.1619
 2445ntf    fn415608   1.323   0.519   2.035  0.2504  0.1082  0.0257
 2445ntf    on515609   1.469   0.310   2.179 -0.0166  0.3112  0.0524
 2445ntf    on515610   1.302   0.432   2.301 -0.2572  0.0319 -0.5362
 2445ntf    on515611   1.300  -0.043   2.283  0.1514  0.3602  0.3002
 2445ntf    on515612   1.302   0.039   2.049 -0.4827 -0.5253  0.2305
 2445ntf    fn415613   1.013   0.059   2.069  0.2711  0.3914 -0.2566
 2445ntf    fn415614   1.068  -0.129   2.132 -0.4480 -0.1614 -0.0297
 2445ntf    fn415615   1.014   0.029   2.273 -0.1746  0.2881 -0.1334
 2446ntf    cn115616   4.713   4.583   4.741 -0.2527  0.0580  0.4736
 2446ntf    sn215617   4.652   4.450   4.849 -0.2553  0.0411  0.4510
 2446ntf    nn315618   4.726   4.326   4.786  0.2879  0.3136  0.5415
 2446ntf    sn215619   4.726   4.177   4.836 -0.3586 -0.0462 -0.5001
 2446ntf    cn115620   4.853   4.163   4.965 -0.6368 -0.0490 -0.2256
 2446ntf    fn415621   4.653   4.699   4.763  0.0537  0.2474  0.3169
 2446ntf    fn415622   4.844   4.601   4.747 -0.3273  0.4740  0.9153
 2446ntf    fn415623   4.681   4.557   4.615  0.1288 -0.4180  0.4701
 2446ntf    on515624   4.705   4.492   4.977 -0.3724 -0.5110  0.6822
 2446ntf    on515625   4.513   4.463   4.814 -0.1899  0.0661  0.1980
 2446ntf    on515626   4.790   4.098   4.734 -0.3918 -0.2970 -0.3260
 2446ntf    on515627   4.603   4.129   4.894 -0.0299 -0.1487  0.1218
 2446ntf    fn415628   4.839   4.257   5.056 -0.3518  0.5424 -0.7869
 2446ntf    fn415629   4.846   4.046   5.028 -0.3906 -0.2150 -0.5029
 2446ntf    fn415630   4.977   4.169   4.919 -0.2154  0.2606  0.9122
 2447ntf    cn115631   5.046   6.582   3.565  0.1321  0.1807  0.2557
 2447ntf    sn215632   4.966   6.483   3.696 -0.0838 -0.2828 -0.2220
 2447ntf    nn315633   4.961   6.590   3.810 -0.1659 -0.3410 -0.1703
 2447ntf    sn215634   4.869   6.582   3.937 -0.0875 -0.2131 -0.1041
 2447ntf    cn115635   4.984   6.610   4.075 -0.2325 -0.5844  0.0935
 2447ntf    fn415636   5.165   6.619   3.607  0.0190  0.1363  0.6227
 2447ntf    fn415637   5.069   6.510   3.457  0.2261  0.3785  0.1453
 2447ntf    fn415638   4.965   6.683   3.538  0.0365  0.0713  0.1289
 2447ntf    on515639   4.833   6.448   3.651 -0.3115  0.4650 -0.1583
 2447ntf    on515640   5.056   6.375   3.726  0.0276 -0.0429  0.3083
 2447ntf    on515641   4.807   6.455   3.966  0.0267 -0.1012  0.6565
 2447ntf    on515642   4.783   6.698   3.947 -0.1875 -0.2972  0.0139
 2447ntf    fn415643   5.082   6.522   4.058 -0.2425 -0.4695 -0.6122
 2447ntf    fn415644   5.035   6.732   4.082 -0.3955 -0.5073 -0.0578
 2447ntf    fn415645   4.908   6.611   4.183 -0.4856  0.7625 -0.0827
 2448ntf    cn115646   6.249   5.965   2.388 -0.1000 -0.0548  0.1450
 2448ntf    sn215647   6.375   6.072   2.313 -0.1416 -0.0772  0.0431
 2448ntf    nn315648   6.286   6.195   2.274 -0.1960 -0.2820 -0.4931
 2448ntf    sn215649   6.256   6.253   2.131 -0.2625  0.0732 -0.3354
 2448ntf    cn115650   6.083   6.296   2.168 -0.3084 -0.1156 -0.3265
 2448ntf    fn415651   6.307   5.847   2.407  0.4673  0.1408 -0.3342
 2448ntf    fn415652   6.202   6.009   2.503 -0.3098 -0.5510  0.2542
 2448ntf    fn415653   6.146   5.933   2.312 -0.1320 -0.4703  0.3562
 2448ntf    on515654   6.466   6.106   2.420 -0.0657  0.1899 -0.1068
 2448ntf    on515655   6.426   5.994   2.202  0.6862 -0.3369  0.5982
 2448ntf    on515656   6.248   6.159   2.022  0.3798  0.1921 -0.4867
 2448ntf    on515657   6.328   6.374   2.102  0.3864 -0.1918  0.1339
 2448ntf    fn415658   6.013   6.189   2.201  0.3065 -0.3626  0.2045
 2448ntf    fn415659   6.070   6.376   2.273  0.7872  0.0825 -0.3269
 2448ntf    fn415660   6.016   6.343   2.065  0.2369  0.6239 -0.3498
 2449ntf    cn115661   0.581   0.898   5.896 -0.0769  0.3792  0.1583
 2449ntf    sn215662   0.595   0.992   5.742 -0.1140  0.4632  0.2059
 2449ntf    nn315663   0.751   0.989   5.724 -0.1282 -0.1252  0.1677
 2449ntf    sn215664   0.834   1.081   5.628 -0.5059  0.0609  0.0154
 2449ntf    cn115665   0.899   1.203   5.746 -0.2492 -0.1122  0.0533
 2449ntf    fn415666   0.591   0.766   5.887 -0.0314  0.3995 -0.0829
 2449ntf    fn415667   0.680   0.937   5.975  0.3098  0.0669 -0.1739
 2449ntf    fn415668   0.474   0.914   5.972  0.2401  0.1529  0.6587
 2449ntf    on515669   0.522   0.911   5.646 -0.1863  0.1912  0.4900
 2449ntf    on515670   0.530   1.118   5.772  0.1095  0.5674  0.2522
 2449ntf    on515671   0.759   1.162   5.535  0.3743  0.4978 -0.3217
 2449ntf    on515672   0.949   1.007   5.581 -0.3997 -0.0686  0.4748
 2449ntf    fn415673   0.964   1.294   5.676  0.3193 -0.5147  0.0463
 2449ntf    fn415674   0.809   1.274   5.811 -0.2473 -0.3524  0.3196
 2449ntf    fn415675   0.984   1.149   5.832  0.4453  0.6064 -0.1745
 2450ntf    cn115676   3.095   3.782   6.016  0.1145 -0.3476 -0.1813
 2450ntf    sn215677   3.274   3.752   6.005  0.1657 -0.1649  0.1470
 2450ntf    nn315678   3.297   3.680   5.868 -0.3122  0.2800 -0.1727
 2450ntf    sn215679   3.306   3.736   5.722  0.2062  0.1863 -0.1785
 2450ntf    cn115680   3.486   3.758   5.707  0.2398  0.1465  0.1588
 2450ntf    fn415681   3.044   3.827   5.903  0.0525 -0.1570 -0.0780
 2450ntf    fn415682   3.023   3.676   6.049 -0.3355 -0.0052 -0.0494
 2450ntf    fn415683   3.076   3.875   6.109 -0.0786 -0.1745 -0.3914
 2450ntf    on515684   3.329   3.885   6.011 -0.3076  0.0879 -0.9637
 2450ntf    on515685   3.301   3.663   6.115  1.0519 -0.0080  0.0626
 2450ntf    on515686   3.254   3.870   5.712 -0.1017  0.0991  0.2361
 2450ntf    on515687   3.282   3.643   5.615 -0.5011 -0.3184  0.4117
 2450ntf    fn415688   3.521   3.779   5.581 -0.3387 -0.5261 -0.1132
 2450ntf    fn415689   3.528   3.863   5.776  0.3626  0.4252 -0.3306
 2450ntf    fn415690   3.554   3.657   5.758  0.1559  0.3661  0.7123
 2451ntf    cn115691   6.821   5.934   3.536 -0.0192 -0.3671  0.4366
 2451ntf    sn215692   6.654   5.863   3.536 -0.2415  0.1464  0.0006
 2451ntf    nn315693   6.697   5.733   3.459  0.0794  0.3426 -0.1535
 2451ntf    sn215694   6.638   5.588   3.462  0.0150  0.3783  0.2525
 2451ntf    cn115695   6.732   5.497   3.588 -0.3271 -0.2539  0.0576
 2451ntf    fn415696   6.832   6.059   3.579  0.2372 -0.2443  0.0226
 2451ntf    fn415697   6.903   5.868   3.616  0.3966  0.0757  0.3800
 2451ntf    fn415698   6.871   5.941   3.414 -0.3178  0.2621  0.3487
 2451ntf    on515699   6.631   5.834   3.675  0.0924  0.1760  0.0638
 2451ntf    on515700   6.577   5.964   3.469 -0.5972 -0.3834 -0.3954
 2451ntf    on515701   6.668   5.511   3.344 -0.4332 -0.0679  0.4219
 2451ntf    on515702   6.501   5.581   3.509  0.0789  0.2662  0.4227
 2451ntf    fn415703   6.712   5.552   3.707  0.3044 -0.3541  0.2125
 2451ntf    fn415704   6.715   5.366   3.601  0.2974 -0.3025  0.4234
 2451ntf    fn415705   6.863   5.509   3.576 -0.2884 -0.3438  0.3745
 2452ntf    cn115706   5.896   1.693   3.383 -0.2511  0.0127  0.2016
 2452ntf    sn215707   5.869   1.688   3.562  0.0817 -0.0920  0.2499
 2452ntf    nn315708   5.963   1.803   3.612 -0.1026  0.2064 -0.0807
 2452ntf    sn215709   5.938   1.958   3.611 -0.1077  0.2085  0.1414
 2452ntf    cn115710   5.918   1.985   3.789 -0.1973 -0.7358  0.2814
 2452ntf    fn415711   5.943   1.806   3.335  0.2554 -0.0767  0.4785
 2452ntf    fn415712   5.985   1.603   3.344 -0.4654 -0.1514  0.0848
 2452ntf    fn415713   5.778   1.667   3.327 -0.0802  0.0201 -0.1670
 2452ntf    on515714   5.727   1.710   3.578  0.0144  0.3891 -0.9516
 2452ntf    on515715   5.920   1.557   3.592  0.8059  0.1864  0.2460
 2452ntf    on515716   5.815   2.002   3.550 -0.6219 -0.8030  0.4268
 2452ntf    on515717   6.058   2.031   3.576  0.1964  0.0019  0.7395
 2452ntf    fn415718   5.915   2.113   3.823  0.0738 -0.6103 -0.1579
 2452ntf    fn415719   5.800   1.940   3.828 -0.4499  0.0220  0.4018
 2452ntf    fn415720   6.010   1.925   3.863  0.1066 -0.9844 -0.2921
 2453ntf    cn115721   3.268   3.749   0.851 -0.1918  0.0193  0.0748
 2453ntf    sn215722   3.236   3.770   0.673  0.2508  0.1174  0.0056
 2453ntf    nn315723   3.345   3.673   0.615 -0.1635 -0.0567 -0.4895
 2453ntf    sn215724   3.334   3.520   0.580 -0.4512 -0.1382 -0.0442
 2453ntf    cn115725   3.440   3.452   0.711 -0.0933 -0.2158 -0.3717
 2453ntf    fn415726   3.281   3.624   0.891 -0.5096 -0.0345  0.0185
 2453ntf    fn415727   3.378   3.812   0.889 -0.1288  0.1416 -0.3005
 2453ntf    fn415728   3.175   3.812   0.922 -0.1481  0.2984 -0.1153
 2453ntf    on515729   3.100   3.723   0.660  0.1782  0.2897  0.1506
 2453ntf    on515730   3.257   3.910   0.649 -0.8303  0.2389 -0.2931
 2453ntf    on515731   3.406   3.482   0.461  0.2856  0.0924  0.3190
 2453ntf    on515732   3.211   3.452   0.613 -0.3138 -0.2914  0.1544
 2453ntf    fn415733   3.547   3.528   0.727 -0.5037  0.1782  0.5695
 2453ntf    fn415734   3.373   3.443   0.825 -0.1975  0.5898 -0.3631
 2453ntf    fn415735   3.479   3.329   0.681  0.0573 -0.0646 -0.7987
 2454ntf    cn115736   4.269   1.125   4.733 -0.1260  0.1076 -0.1463
 2454ntf    sn215737   4.172   1.027   4.615 -0.1370 -0.3080  0.2038
 2454ntf    nn315738   4.070   1.134   4.560  0.2468  0.2325  0.5358
 2454ntf    sn215739   3.927   1.165   4.616  0.1248  0.5395  0.0648
 2454ntf    cn115740   3.819   1.057   4.518  0.0759  0.3531  0.3199
 2454ntf    fn415741   4.374   1.057   4.778 -0.1027  0.4268  0.2979
 2454ntf    fn415742   4.314   1.235   4.676 -0.1201  0.1770 -0.0086
 2454ntf    fn415743   4.200   1.155   4.842 -0.1243  0.4192 -0.2314
 2454ntf    on515744   4.262   0.986   4.511 -0.3995 -0.1114 -0.1029
 2454ntf    on515745   4.111   0.920   4.691 -0.5836 -0.0701  0.1860
 2454ntf    on515746   3.891   1.302   4.589  0.2468  0.4566 -0.5235
 2454ntf    on515747   3.912   1.125   4.754  0.7308 -0.4795 -0.1508
 2454ntf    fn415748   3.830   1.084   4.388  0.0756  0.0647  0.2611
 2454ntf    fn415749   3.861   0.933   4.538 -0.0055  0.3149  0.2554
 2454ntf    fn415750   3.690   1.060   4.546  0.0943  0.4240  0.3957
 2455ntf    cn115751   2.285   3.852   3.400  0.1593 -0.3992 -0.3481
 2455ntf    sn215752   2.117   3.830   3.335 -0.0582 -0.2244  0.1452
 2455ntf    nn315753   2.065   3.978   3.349 -0.0244 -0.1461 -0.4965
 2455ntf    sn215754   1.970   4.035   3.460  0.2230 -0.5557 -0.0684
 2455ntf    cn115755   1.814   4.023   3.369  0.1394 -0.1767  0.0208
 2455ntf    fn415756   2.284   3.897   3.525  0.2848  0.7295 -0.7383
 2455ntf    fn415757   2.365   3.748   3.409  0.0921 -0.4252 -0.0218
 2455ntf    fn415758   2.346   3.945   3.328 -0.3938  0.2836  0.0484
 2455ntf    on515759   2.136   3.800   3.195 -0.0557 -0.2064  0.1416
 2455ntf    on515760   2.043   3.735   3.414  0.2648 -0.3250  0.3258
 2455ntf    on515761   1.974   4.179   3.467  0.1924 -0.5531 -0.1134
 2455ntf    on515762   1.954   3.956   3.580 -0.4576  0.8244  0.7758
 2455ntf    fn415763   1.816   4.096   3.259 -0.0653  0.2273  0.2810
 2455ntf    fn415764   1.796   3.897   3.332  0.0114 -0.1525 -0.0013
 2455ntf    fn415765   1.707   4.061   3.438  0.1331 -0.1491 -0.0042
 2456ntf    cn115766   0.767   3.938   2.671  0.0362 -0.1362  0.4789
 2456ntf    sn215767   0.927   3.858   2.641  0.1033  0.2458 -0.2087
 2456ntf    nn315768   0.912   3.810   2.493 -0.8852 -0.2881  0.0532
 2456ntf    sn215769   0.970   3.683   2.419 -0.1554  0.2037 -0.2283
 2456ntf    cn115770   1.005   3.743   2.251 -0.0257  0.0714 -0.2482
 2456ntf    fn415771   0.660   3.864   2.645 -0.6155  0.9892 -0.1064
 2456ntf    fn415772   0.759   3.981   2.796 -0.2453 -0.0394  0.4304
 2456ntf    fn415773   0.743   4.039   2.589 -0.2434 -0.9426 -0.4509
 2456ntf    on515774   1.026   3.960   2.662  0.2316  0.0942 -0.0708
 2456ntf    on515775   0.930   3.747   2.734  0.3116  0.1334 -0.3495
 2456ntf    on515776   0.861   3.590   2.402 -0.0163 -0.0658  0.3323
 2456ntf    on515777   1.096   3.632   2.465 -0.0858  0.0864 -0.5514
 2456ntf    fn415778   0.903   3.814   2.204  0.0117  0.7237  0.6096
 2456ntf    fn415779   1.109   3.823   2.236  0.0784  0.0722  0.4233
 2456ntf    fn415780   1.019   3.643   2.167 -0.6525  0.1683 -0.4725
 2457ntf    cn115781   6.425   6.636   3.361 -0.1235  0.2273  0.0396
 2457ntf    sn215782   6.325   6.579   3.501 -0.1264 -0.1216 -0.1038
 2457ntf    nn315783   6.421   6.468   3.557 -0.0587  0.1375  0.2967
 2457ntf    sn215784   6.466   6.435   3.704 -0.1779 -0.0387  0.2940
 2457ntf    cn115785   6.642   6.479   3.694 -0.1682 -0.0562  0.3913
 2457ntf    fn415786   6.549   6.675   3.385 -0.0584  0.0066  0.0640
 2457ntf    fn415787   6.439   6.539   3.271  0.2975  0.1519  0.1837
 2457ntf    fn415788   6.368   6.737   3.297  0.3564  0.6510  0.2775
 2457ntf    on515789   6.319   6.697   3.583  0.4756 -0.0529 -0.1528
 2457ntf    on515790   6.206   6.533   3.434 -0.7171  0.2078  0.6998
 2457ntf    on515791   6.468   6.294   3.735  0.4112 -0.0244  0.3412
 2457ntf    on515792   6.410   6.521   3.805 -0.4522 -0.2868  0.3556
 2457ntf    fn415793   6.717   6.438   3.795  0.1685 -0.0390  0.1493
 2457ntf    fn415794   6.685   6.434   3.577 -0.4439  0.1843  0.1961
 2457ntf    fn415795   6.660   6.610   3.694  0.7288 -0.1697  0.4997
 2458ntf    cn115796   4.917   2.353   3.577 -0.0543 -0.0214 -0.2327
 2458ntf    sn215797   4.786   2.292   3.687 -0.0178  0.3431  0.0111
 2458ntf    nn315798   4.856   2.171   3.759 -0.1531  0.3368  0.1311
 2458ntf    sn215799   4.877   2.143   3.913 -0.0920  0.1756  0.0939
 2458ntf    cn115800   4.726   2.050   3.950  0.0137 -0.0627 -0.0667
 2458ntf    fn415801   5.033   2.362   3.639  0.0680 -0.0902 -0.4499
 2458ntf    fn415802   4.932   2.268   3.476 -0.2553 -0.1289 -0.1732
 2458ntf    fn415803   4.897   2.471   3.521  0.0438 -0.0276 -0.2802
 2458ntf    on515804   4.785   2.408   3.773 -0.2610  0.0787  0.3671
 2458ntf    on515805   4.682   2.260   3.593  0.3363  0.0074 -0.2718
 2458ntf    on515806   4.878   2.255   4.004  0.2027  0.1503  0.1239
 2458ntf    on515807   4.987   2.050   3.922  0.0376  0.3826  0.6836
 2458ntf    fn415808   4.719   2.014   4.077 -0.1906 -0.1416 -0.0989
 2458ntf    fn415809   4.615   2.118   3.924  0.0090 -0.0847 -0.1037
 2458ntf    fn415810   4.713   1.936   3.886  0.7657 -0.1738 -0.0223
 2459ntf    cn115811   1.927   5.577   3.473 -0.3383  0.3032 -0.2374
 2459ntf    sn215812   1.905   5.466   3.615  0.4301  0.3197 -0.0970
 2459ntf    nn315813   1.750   5.484   3.636  0.4395 -0.3201  0.5445
 2459ntf    sn215814   1.677   5.601   3.711 -0.1143 -0.1554 -0.2420
 2459ntf    cn115815   1.662   5.531   3.878 -0.4635 -0.2815 -0.3244
 2459ntf    fn415816   2.009   5.528   3.382  0.0464  0.2589  0.1295
 2459ntf    fn415817   1.816   5.589   3.403 -0.5710  0.5438  0.1666
 2459ntf    fn415818   1.974   5.699   3.494  0.4145 -0.0799  0.3574
 2459ntf    on515819   1.926   5.333   3.565  0.1471  0.0158  0.5737
 2459ntf    on515820   2.000   5.512   3.713 -0.7420  0.8916  0.8043
 2459ntf    on515821   1.541   5.610   3.663 -0.1279 -0.1800 -0.2081
 2459ntf    on515822   1.745   5.727   3.722 -0.3788 -0.0455  0.1658
 2459ntf    fn415823   1.754   5.437   3.898 -0.2954 -0.0365  0.0655
 2459ntf    fn415824   1.658   5.610   3.984  0.3768  0.1721 -0.6211
 2459ntf    fn415825   1.556   5.453   3.894 -0.4700 -0.2001  0.0441
 2460ntf    cn115826   6.221   0.717   3.228  0.2867 -0.3346 -0.0113
 2460ntf    sn215827   6.132   0.572   3.162 -0.2711  0.1978 -0.4356
 2460ntf    nn315828   5.991   0.640   3.156 -0.4706 -0.0088  1.2946
 2460ntf    sn215829   5.860   0.649   3.069  0.2458  0.0411  0.1892
 2460ntf    cn115830   5.751   0.557   3.182  0.1357  0.1659  0.1848
 2460ntf    fn415831   6.179   0.819   3.155  0.4506 -0.0669  0.2667
 2460ntf    fn415832   6.200   0.743   3.356  0.1121 -0.1129 -0.0861
 2460ntf    fn415833   6.351   0.697   3.212  0.4198  0.1152  0.4730
 2460ntf    on515834   6.203   0.545   3.039 -0.1545 -0.6972 -0.1780
 2460ntf    on515835   6.133   0.472   3.266 -0.5606  0.8469  0.2057
 2460ntf    on515836   5.853   0.569   2.949  0.6080 -0.1291  0.2799
 2460ntf    on515837   5.799   0.779   3.075  0.6837  0.2644 -0.2188
 2460ntf    fn415838   5.625   0.548   3.143  0.2784  0.3501 -0.3190
 2460ntf    fn415839   5.794   0.432   3.194  0.0462  0.1439  0.2787
 2460ntf    fn415840   5.756   0.601   3.306  0.3749  0.6569 -0.0006
 2461ntf    cn115841   4.462   0.230   0.212  0.3548 -0.1270  0.1855
 2461ntf    sn215842   4.416   0.170   0.377  0.3003 -0.0191  0.2098
 2461ntf    nn315843   4.526   0.246   0.459  0.0010  0.1851  0.4241
 2461ntf    sn215844   4.672   0.200   0.491  0.0772  0.0477 -0.1027
 2461ntf    cn115845   4.635   0.119   0.650 -0.1110  0.0987 -0.1208
 2461ntf    fn415846   4.372   0.182   0.128  0.3749 -0.4109  0.3268
 2461ntf    fn415847   4.452   0.362   0.203 -0.3363 -0.1704  0.2512
 2461ntf    fn415848   4.583   0.188   0.178  0.2896 -0.3913  0.2796
 2461ntf    on515849   4.288   0.234   0.395  0.4438  0.5571 -0.7329
 2461ntf    on515850   4.420   0.026   0.368 -0.8164 -0.0414 -0.0576
 2461ntf    on515851   4.757   0.310   0.529  0.1068 -0.1151  0.3096
 2461ntf    on515852   4.726   0.094   0.409 -0.6580 -0.6869  0.3505
 2461ntf    fn415853   4.616   0.209   0.746 -0.7824  0.0455 -0.1980
 2461ntf    fn415854   4.517   0.060   0.653 -0.0746  0.0299 -0.0322
 2461ntf    fn415855   4.730   0.034   0.685 -0.5275 -0.2682  0.1185
 2462ntf    cn115856   6.330   3.802   5.350 -0.1777 -0.1021  0.1969
 2462ntf    sn215857   6.265   3.714   5.205 -0.0044  0.1391 -0.0281
 2462ntf    nn315858   6.398   3.678   5.130 -0.1993 -0.1621 -0.2284
 2462ntf    sn215859   6.495   3.558   5.160 -0.1858 -0.0859  0.0314
 2462ntf    cn115860   6.645   3.620   5.079 -0.0471  0.2271  0.5249
 2462ntf    fn415861   6.388   3.711   5.427 -0.2259 -0.5419 -0.2850
 2462ntf    fn415862   6.421   3.895   5.325 -0.5365  0.3604  0.5957
 2462ntf    fn415863   6.228   3.852   5.417 -0.2234 -0.3404  0.3074
 2462ntf    on515864   6.204   3.594   5.255  0.3719 -0.2100 -0.4013
 2462ntf    on515865   6.188   3.811   5.131 -0.0793  0.4018  0.3908
 2462ntf    on515866   6.463   3.441   5.081 -0.2538 -0.1270  0.1193
 2462ntf    on515867   6.524   3.544   5.301  0.2734 -0.4884 -0.1023
 2462ntf    fn415868   6.631   3.647   4.950  0.2129 -0.3989  0.3636
 2462ntf    fn415869   6.680   3.732   5.141  0.0562  0.2228  0.4745
 2462ntf    fn415870   6.749   3.540   5.093 -0.1133 -0.0515 -0.4477
 2463ntf    cn115871   4.751   2.810   3.581 -0.1708  0.1524 -0.1890
 2463ntf    sn215872   4.761   2.991   3.598  0.3974  0.1206 -0.1624
 2463ntf    nn315873   4.772   3.026   3.445  0.3394 -0.1728 -0.2337
 2463ntf    sn215874   4.732   3.158   3.370  0.2206 -0.1462 -0.1237
 2463ntf    cn115875   4.565   3.119   3.310  0.3218  0.1841 -0.6284
 2463ntf    fn415876   4.649   2.768   3.508  0.2336 -0.3024 -0.4945
 2463ntf    fn415877   4.862   2.773   3.521 -0.1254  0.1025 -0.0743
 2463ntf    fn415878   4.741   2.746   3.696  0.0153  0.4520 -0.0038
 2463ntf    on515879   4.639   3.027   3.666  0.0907 -0.6293 -0.3104
 2463ntf    on515880   4.885   3.010   3.668  0.3725 -0.0573 -0.0708
 2463ntf    on515881   4.802   3.173   3.245 -0.0887  0.1494 -0.2619
 2463ntf    on515882   4.702   3.272   3.452 -0.1281 -0.2094 -0.1619
 2463ntf    fn415883   4.509   3.224   3.252  0.1878  0.2870 -0.3177
 2463ntf    fn415884   4.554   3.023   3.220  0.2919  0.0521 -0.4848
 2463ntf    fn415885   4.477   3.085   3.403  0.3223 -0.3796 -0.8307
 2464ntf    cn115886   5.269   5.955   4.423 -0.5652 -0.0758 -0.2061
 2464ntf    sn215887   5.442   5.996   4.383 -0.5395 -0.0009 -0.0185
 2464ntf    nn315888   5.454   5.892   4.266 -1.2142  0.1785 -0.2507
 2464ntf    sn215889   5.474   5.923   4.113 -0.4910 -0.1000 -0.2118
 2464ntf    cn115890   5.479   5.754   4.046 -0.1411  0.1626 -0.8493
 2464ntf    fn415891   5.240   5.830   4.453  0.5014 -0.3118 -0.1005
 2464ntf    fn415892   5.216   6.038   4.512 -0.2202  0.1072 -0.1679
 2464ntf    fn415893   5.202   5.968   4.310 -0.4759  0.3463 -0.2123
 2464ntf    on515894   5.436   6.136   4.346  0.3093  0.0487  0.0248
 2464ntf    on515895   5.504   5.951   4.505 -0.1606  0.0754 -0.1811
 2464ntf    on515896   5.606   5.977   4.092 -0.8368  1.0254  0.4563
 2464ntf    on515897   5.369   6.000   4.051 -0.5790 -0.3600 -0.3864
 2464ntf    fn415898   5.508   5.756   3.916  0.0420  0.2951 -0.8066
 2464ntf    fn415899   5.571   5.673   4.096 -0.1691  0.7687  0.1999
 2464ntf    fn415900   5.361   5.695   4.050 -0.0721  0.0995  0.4717
 2465ntf    cn115901   3.513   4.606   1.309  0.1104 -0.2547 -0.0405
 2465ntf    sn215902   3.369   4.672   1.399  0.1790 -0.2955  0.1003
 2465ntf    nn315903   3.270   4.551   1.396 -0.1939  0.0077  0.0319
 2465ntf    sn215904   3.241   4.449   1.512 -0.4001 -0.1442 -0.1542
 2465ntf    cn115905   3.129   4.553   1.609 -0.2901 -0.0700 -0.1069
 2465ntf    fn415906   3.496   4.578   1.181 -0.0815  0.2733 -0.1315
 2465ntf    fn415907   3.615   4.689   1.312 -0.1741  0.0873  0.3104
 2465ntf    fn415908   3.556   4.497   1.370 -0.3355 -0.4963 -0.1507
 2465ntf    on515909   3.431   4.710   1.524 -0.4324  0.0540  0.3025
 2465ntf    on515910   3.319   4.772   1.308  0.2820 -0.2740  0.0664
 2465ntf    on515911   3.346   4.416   1.604  0.4165  1.0033 -0.6524
 2465ntf    on515912   3.163   4.337   1.464  0.0353 -0.3757 -0.3287
 2465ntf    fn415913   3.179   4.668   1.652  0.3075 -0.0369 -0.8662
 2465ntf    fn415914   3.018   4.579   1.542 -0.1589  0.3902 -0.1506
 2465ntf    fn415915   3.086   4.482   1.712  0.6279 -0.2309  0.1654
 2466ntf    cn115916   1.291   6.948   6.884 -0.0666  0.3546 -0.1715
 2466ntf    sn215917   1.416   7.077   6.856  0.0687  0.3296  0.3180
 2466ntf    nn315918   1.370   7.179   6.965 -0.3304 -0.4694  0.9086
 2466ntf    sn215919   1.331   7.329   6.940 -0.0722 -0.5101  0.2399
 2466ntf    cn115920   1.164   7.311   7.010 -0.2748  0.0101 -0.0978
 2466ntf    fn415921   1.283   6.856   6.790 -0.2689  0.5795 -0.3787
 2466ntf    fn415922   1.301   6.890   7.002 -0.0878  0.5982 -0.0483
 2466ntf    fn415923   1.174   7.010   6.882 -0.3522 -0.1617  0.4084
 2466ntf    on515924   1.541   7.014   6.892  0.4909  0.2630 -1.1772
 2466ntf    on515925   1.391   7.107   6.717  0.2242 -0.4634  0.1090
 2466ntf    on515926   1.321   7.365   6.801 -0.2302 -0.3058  0.3031
 2466ntf    on515927   1.411   7.414   7.026  0.3353  0.0549 -0.6854
 2466ntf    fn415928   1.084   7.415   6.994  0.0274  0.2309 -0.1879
 2466ntf    fn415929   1.100   7.205   6.964  0.4905 -0.4146 -0.2104
 2466ntf    fn415930   1.165   7.291   7.141  0.3654 -0.2907 -0.1407
 2467ntf    cn115931   6.217   4.645   4.296 -0.2467  0.1017 -0.3162
 2467ntf    sn215932   6.177   4.802   4.215 -0.1437  0.1888 -0.1980
 2467ntf    nn315933   6.216   4.769   4.066  0.0718  0.6816 -0.2546
 2467ntf    sn215934   6.118   4.729   3.950  0.0445 -0.2826  0.0876
 2467ntf    cn115935   6.156   4.858   3.828  0.2325 -0.5238 -0.1100
 2467ntf    fn415936   6.161   4.535   4.248 -0.5012 -0.1983  0.6379
 2467ntf    fn415937   6.348   4.626   4.293 -0.2607 -0.1438  0.3368
 2467ntf    fn415938   6.180   4.650   4.423 -0.0312  0.5673 -0.2726
 2467ntf    on515939   6.037   4.822   4.242 -0.2807 -0.1426 -0.6416
 2467ntf    on515940   6.269   4.890   4.282  0.3313 -0.0020 -0.5989
 2467ntf    on515941   5.978   4.754   3.972  0.1385  0.4504 -0.1003
 2467ntf    on515942   6.155   4.605   3.886  0.7578  0.1210 -0.2945
 2467ntf    fn415943   6.149   4.808   3.705 -0.0079 -0.6610 -0.0416
 2467ntf    fn415944   6.087   4.971   3.830  0.7542 -0.2027 -0.2182
 2467ntf    fn415945   6.276   4.907   3.850 -0.0571  0.3457 -0.4180
 2468ntf    cn115946   1.382   2.435   1.463  0.1680 -0.0150  0.3404
 2468ntf    sn215947   1.501   2.405   1.597  0.1052  0.4106  0.4917
 2468ntf    nn315948   1.578   2.541   1.613  0.1181  0.4696 -0.0793
 2468ntf    sn215949   1.665   2.590   1.734  0.0509  0.0110  0.1566
 2468ntf    cn115950   1.601   2.757   1.768 -0.2552 -0.0819  0.0413
 2468ntf    fn415951   1.436   2.435   1.342  0.0238  0.5637  0.2762
 2468ntf    fn415952   1.293   2.337   1.457  0.2825 -0.1202  0.3473
 2468ntf    fn415953   1.317   2.549   1.477  0.1910 -0.0147  0.4471
 2468ntf    on515954   1.414   2.366   1.705  0.2150 -0.5766  0.2336
 2468ntf    on515955   1.583   2.300   1.541  0.1716  0.5087  0.4054
 2468ntf    on515956   1.801   2.613   1.693  0.0462 -0.3486 -0.0640
 2468ntf    on515957   1.642   2.518   1.856  0.4050 -0.0352  0.1967
 2468ntf    fn415958   1.634   2.850   1.679 -0.1469 -0.1463  0.0145
 2468ntf    fn415959   1.469   2.756   1.777 -0.2398 -0.3106  0.2428
 2468ntf    fn415960   1.644   2.807   1.883 -0.2300 -0.0316  0.0101
 2469ntf    cn115961   4.277   0.965   3.561  0.0781  0.4480  0.1028
 2469ntf    sn215962   4.424   0.868   3.512 -0.1778  0.1868 -0.1499
 2469ntf    nn315963   4.453   0.933   3.372 -0.2489 -0.2986 -0.3914
 2469ntf    sn215964   4.552   1.051   3.342 -0.1764 -0.1958  0.2363
 2469ntf    cn115965   4.710   0.961   3.329 -0.1700 -0.1879  0.2618
 2469ntf    fn415966   4.319   1.078   3.615 -0.2320  0.7687 -0.3301
 2469ntf    fn415967   4.198   0.979   3.456 -0.0650 -0.6443  0.0485
 2469ntf    fn415968   4.209   0.909   3.659  0.2135 -0.0436 -0.0800
 2469ntf    on515969   4.525   0.907   3.607 -0.1307 -0.2427 -0.0249
 2469ntf    on515970   4.376   0.732   3.507  0.2706  0.0180  0.1526
 2469ntf    on515971   4.579   1.149   3.444  0.0964 -0.5413  0.4982
 2469ntf    on515972   4.538   1.107   3.209 -0.5643  0.0480  0.3810
 2469ntf    fn415973   4.748   0.927   3.451  0.0665  0.4358  0.3638
 2469ntf    fn415974   4.702   0.858   3.247 -0.0360  0.2276 -0.2776
 2469ntf    fn415975   4.811   1.033   3.285 -0.4014  0.2069  0.3717
 2470ntf    cn115976   2.107   3.667   2.372  0.2469 -0.4780  0.2299
 2470ntf    sn215977   1.966   3.557   2.405 -0.1681  0.0083  0.0900
 2470ntf    nn315978   2.017   3.472   2.527  0.1741 -0.0778 -0.1129
 2470ntf    sn215979   1.963   3.452   2.672  0.0406  0.4856 -0.0818
 2470ntf    cn115980   2.009   3.613   2.743 -0.0403  0.7920 -0.7215
 2470ntf    fn415981   2.108   3.767   2.459 -0.2174  0.2622 -0.5944
 2470ntf    fn415982   2.225   3.606   2.375  0.3740 -0.2607 -0.2209
 2470ntf    fn415983   2.102   3.717   2.250 -0.7258 -0.4802  0.2623
 2470ntf    on515984   1.856   3.645   2.437  0.1464  0.3092  0.3548
 2470ntf    on515985   1.954   3.482   2.283 -0.7663  0.7060 -0.2833
 2470ntf    on515986   2.035   3.351   2.745 -0.5802 -0.3371 -0.5808
 2470ntf    on515987   1.819   3.452   2.687 -0.0032 -1.2098 -0.2894
 2470ntf    fn415988   2.138   3.626   2.717  0.2312  0.2119  0.2865
 2470ntf    fn415989   1.942   3.718   2.697 -0.6620  0.6280 -0.2125
 2470ntf    fn415990   2.002   3.626   2.874  0.3008  0.1477 -0.6350
 2471ntf    cn115991   1.669   1.264   3.001 -0.0597  0.4979 -0.0299
 2471ntf    sn215992   1.578   1.345   3.137 -0.0298 -0.0802  0.3374
 2471ntf    nn315993   1.614   1.493   3.102  0.3714 -0.2809 -0.1145
 2471ntf    sn215994   1.718   1.588   3.171  0.0049  0.0385  0.0083
 2471ntf    cn115995   1.631   1.713   3.269 -0.2625 -0.0421 -0.1265
 2471ntf    fn415996   1.643   1.135   2.988  0.5950  0.3313  0.3182
 2471ntf    fn415997   1.635   1.324   2.888 -0.3992  0.1632 -0.1055
 2471ntf    fn415998   1.799   1.275   3.020 -0.0524  0.0708  0.1800
 2471ntf    on515999   1.437   1.315   3.127  0.0432 -0.4662  0.4474
 2471ntf    on516000   1.635   1.295   3.259  0.7426 -0.6557 -0.2453
 2471ntf    on516001   1.786   1.674   3.078 -0.4319  0.0649 -0.2847
 2471ntf    on516002   1.809   1.528   3.266 -0.0725  0.4858  0.3703
 2471ntf    fn416003   1.584   1.801   3.183 -0.1419  0.2037  0.0563
 2471ntf    fn416004   1.524   1.677   3.339 -0.3651  0.0598 -0.2295
 2471ntf    fn416005   1.711   1.788   3.343  0.0843 -0.4320 -0.1073
 2472ntf    cn116006   2.045   5.222   1.420 -0.3827  0.2875  0.3187
 2472ntf    sn216007   2.156   5.347   1.490  0.0958 -0.0773  0.2153
 2472ntf    nn316008   2.276   5.260   1.542 -0.0042 -0.5012 -0.2597
 2472ntf    sn216009   2.421   5.260   1.482 -0.0411  0.2031 -0.3625
 2472ntf    cn116010   2.490   5.409   1.559  0.2392 -0.3547  0.4766
 2472ntf    fn416011   2.099   5.152   1.322  0.1208  0.0508  0.7655
 2472ntf    fn416012   2.017   5.135   1.516 -0.1267 -0.1910 -0.0327
 2472ntf    fn416013   1.933   5.271   1.369  0.0964  0.6593 -0.3901
 2472ntf    on516014   2.190   5.435   1.381  0.9437 -0.2504  0.3286
 2472ntf    on516015   2.081   5.407   1.597  0.0458 -0.1211  0.2048
 2472ntf    on516016   2.434   5.259   1.338 -0.5759  0.1347 -0.4128
 2472ntf    on516017   2.500   5.162   1.553  0.3696  0.5015 -0.4059
 2472ntf    fn416018   2.494   5.397   1.691  0.4036  0.9045  0.5993
 2472ntf    fn416019   2.605   5.443   1.503 -0.2653  0.0668 -0.3209
 2472ntf    fn416020   2.406   5.509   1.540  0.7825  0.1447  0.6698
 2473ntf    cn116021   2.171   6.276   3.250  0.3759 -0.0284 -0.0902
 2473ntf    sn216022   2.329   6.244   3.333  0.1354  0.3340  0.5208
 2473ntf    nn316023   2.408   6.175   3.216 -0.6257 -0.3289  0.3870
 2473ntf    sn216024   2.473   6.032   3.213 -0.0275 -0.0535 -0.1894
 2473ntf    cn116025   2.616   6.064   3.107  0.3605 -0.5384  0.1828
 2473ntf    fn416026   2.078   6.326   3.330  0.1527  0.5376 -0.6948
 2473ntf    fn416027   2.188   6.367   3.156 -0.2274 -0.0266 -0.2008
 2473ntf    fn416028   2.109   6.172   3.197  0.0164  0.1334  0.0082
 2473ntf    on516029   2.381   6.374   3.368  0.8553  0.4184 -0.7864
 2473ntf    on516030   2.288   6.161   3.444  0.0875 -0.2542  0.0723
 2473ntf    on516031   2.394   5.937   3.137 -0.5185 -0.1331  0.4081
 2473ntf    on516032   2.537   5.990   3.335 -0.3744 -0.0722 -0.0119
 2473ntf    fn416033   2.675   5.953   3.067  0.2419 -0.5612  0.0720
 2473ntf    fn416034   2.576   6.121   2.994  1.1066 -0.7649 -0.2065
 2473ntf    fn416035   2.704   6.138   3.173  0.0906 -0.2187  0.1854
 2474ntf    cn116036   1.359   0.057   4.765 -0.3327 -0.2098 -0.1399
 2474ntf    sn216037   1.199   0.142   4.776 -0.2284 -0.0503  0.1975
 2474ntf    nn316038   1.113   0.075   4.662  0.3245  0.0193 -0.2653
 2474ntf    sn216039   0.979   0.132   4.602  0.0569 -0.0552  0.2595
 2474ntf    cn116040   0.857   0.038   4.700 -0.2646  0.0507 -0.0392
 2474ntf    fn416041   1.399   0.058   4.639 -0.2472 -0.1388 -0.1126
 2474ntf    fn416042   1.443   0.128   4.840  0.5837  0.1366 -1.4501
 2474ntf    fn416043   1.359  -0.066   4.813  0.3994  0.1173  0.7396
 2474ntf    on516044   1.148   0.113   4.907 -0.5501 -1.0427 -0.1366
 2474ntf    on516045   1.246   0.276   4.749  0.5131 -0.3379  0.0378
 2474ntf    on516046   0.975   0.075   4.470  0.1539  0.2367  0.1325
 2474ntf    on516047   0.951   0.272   4.616  0.3860 -0.0614  1.0365
 2474ntf    fn416048   0.879  -0.092   4.714  0.2009  0.1488  0.1532
 2474ntf    fn416049   0.844   0.092   4.820  0.2030  0.2941 -0.0929
 2474ntf    fn416050   0.737   0.050   4.645 -0.2495  0.4082  0.0019
 2475ntf    cn116051   5.460   3.650   6.768  0.2536 -0.1629  0.2038
 2475ntf    sn216052   5.582   3.768   6.831  0.0459  0.2265 -0.1220
 2475ntf    nn316053   5.680   3.679   6.916 -0.3053 -0.0233  0.0201
 2475ntf    sn216054   5.768   3.730   7.035  0.2415  0.0655 -0.4156
 2475ntf    cn116055   5.929   3.652   7.007  0.2389  0.0143 -0.2849
 2475ntf    fn416056   5.514   3.551   6.699 -0.0343  0.0759 -0.3706
 2475ntf    fn416057   5.387   3.589   6.860  0.1602 -0.3310  0.0201
 2475ntf    fn416058   5.376   3.712   6.687  0.1935  0.1241  0.4832
 2475ntf    on516059   5.637   3.811   6.704 -0.4241  0.7458 -0.1545
 2475ntf    on516060   5.501   3.868   6.895 -0.3045  0.0771 -0.3324
 2475ntf    on516061   5.724   3.685   7.165 -0.1235  1.1852 -0.1345
 2475ntf    on516062   5.804   3.869   7.023  0.6123  0.0153  0.0883
 2475ntf    fn416063   5.931   3.522   7.034  0.1557  0.0468 -0.1164
 2475ntf    fn416064   5.978   3.677   6.887  0.1506 -0.1764 -0.3609
 2475ntf    fn416065   6.025   3.695   7.088  0.1807 -0.5241  0.0837
 2476ntf    cn116066   5.959   4.901   2.940 -0.0557  0.0478  0.1400
 2476ntf    sn216067   5.988   5.012   3.081  0.1962  0.0005  0.1256
 2476ntf    nn316068   6.033   4.920   3.200 -0.2050  0.0615  0.3251
 2476ntf    sn216069   6.171   4.886   3.265 -0.0149 -0.1586 -0.1840
 2476ntf    cn116070   6.204   5.012   3.392  0.3476 -0.3146 -0.1211
 2476ntf    fn416071   6.067   4.833   2.905 -0.3616 -0.4137  0.0811
 2476ntf    fn416072   5.855   4.824   2.969  0.1557 -0.1859  0.2736
 2476ntf    fn416073   5.922   4.972   2.834  0.0299  0.6259  0.4961
 2476ntf    on516074   6.096   5.097   3.037 -0.2235  0.3509 -0.2417
 2476ntf    on516075   5.858   5.073   3.098  0.2568  0.0692  0.3453
 2476ntf    on516076   6.287   4.883   3.179 -0.3423 -0.2465 -0.6232
 2476ntf    on516077   6.151   4.759   3.331  0.2738 -0.3898 -0.5391
 2476ntf    fn416078   6.314   4.994   3.463 -0.0168  0.1712  0.5839
 2476ntf    fn416079   6.215   5.131   3.334 -0.1950  0.0709  0.5422
 2476ntf    fn416080   6.117   5.022   3.492  0.0621 -0.3173 -0.3687
 2477ntf    cn116081   5.112   1.301   3.636  0.1197 -0.0519 -0.6568
 2477ntf    sn216082   5.009   1.370   3.503 -0.4053  0.2301 -0.1110
 2477ntf    nn316083   4.991   1.522   3.536  0.1484  0.3470 -0.3401
 2477ntf    sn216084   5.084   1.646   3.512  0.4961  0.1167 -0.1823
 2477ntf    cn116085   5.029   1.686   3.344  0.1189  0.1116 -0.0602
 2477ntf    fn416086   5.043   1.274   3.746 -0.3571  0.1568 -0.9040
 2477ntf    fn416087   5.167   1.190   3.590 -0.1583 -0.3651 -0.2378
 2477ntf    fn416088   5.213   1.379   3.671 -0.0512 -0.2665  0.3684
 2477ntf    on516089   5.083   1.345   3.382 -0.5371 -0.0302 -0.1400
 2477ntf    on516090   4.886   1.296   3.514 -0.0338 -0.3871 -0.0353
 2477ntf    on516091   5.224   1.622   3.487  0.4437 -0.2319 -0.1468
 2477ntf    on516092   5.032   1.756   3.589  0.3789 -0.5672  0.7359
 2477ntf    fn416093   4.897   1.695   3.332  0.1238  0.3303  0.0453
 2477ntf    fn416094   5.078   1.805   3.313 -0.0624  0.0816 -0.4698
 2477ntf    fn416095   5.074   1.599   3.255 -0.2381  0.2071 -0.3352
 2478ntf    cn116096   5.632   5.841   0.300 -0.5466  0.2046  0.3156
 2478ntf    sn216097   5.612   5.993   0.399  0.0640  0.2814  0.3272
 2478ntf    nn316098   5.595   5.926   0.539  0.5738  0.2085  0.3562
 2478ntf    sn216099   5.470   5.901   0.631 -0.0904  0.5768 -0.4350
 2478ntf    cn116100   5.458   5.719   0.638  0.0678  0.5884  0.1561
 2478ntf    fn416101   5.616   5.864   0.171 -0.1295 -0.3965  0.1545
 2478ntf    fn416102   5.753   5.792   0.324 -0.4137  0.0850 -0.5613
 2478ntf    fn416103   5.539   5.754   0.335 -0.2444 -0.4312 -0.4410
 2478ntf    on516104   5.741   6.056   0.388  0.6372 -0.8279  0.4768
 2478ntf    on516105   5.498   6.063   0.345 -0.3706 -0.1468  0.6743
 2478ntf    on516106   5.345   5.942   0.573 -0.3942  0.4309  0.1091
 2478ntf    on516107   5.500   5.942   0.766  0.1046 -0.0709 -0.2744
 2478ntf    fn416108   5.577   5.664   0.656 -0.2881 -0.1963  0.1262
 2478ntf    fn416109   5.378   5.676   0.734 -0.0546 -0.2819 -0.3274
 2478ntf    fn416110   5.412   5.672   0.524  0.3835  0.1843  0.1924
 2479ntf    cn116111   0.413   5.827   0.046  0.0607 -0.2360 -0.0745
 2479ntf    sn216112   0.409   5.997  -0.020  0.1347 -0.0396  0.4208
 2479ntf    nn316113   0.406   5.957  -0.171  0.8869  0.0372  0.3800
 2479ntf    sn216114   0.456   6.042  -0.293 -0.2117 -0.2572 -0.2885
 2479ntf    cn116115   0.313   6.133  -0.359 -0.1564  0.2635  0.2942
 2479ntf    fn416116   0.523   5.757   0.023  0.2658 -0.0444  0.3028
 2479ntf    fn416117   0.395   5.819   0.177 -0.2113 -0.5145 -0.1299
 2479ntf    fn416118   0.316   5.752  -0.002  0.0152 -0.1297 -0.1482
 2479ntf    on516119   0.289   6.043   0.045 -0.1602 -0.1251 -0.0666
 2479ntf    on516120   0.530   6.059   0.029  0.2310 -0.4617  0.7320
 2479ntf    on516121   0.497   5.969  -0.410  0.2068 -0.7775  0.1808
 2479ntf    on516122   0.538   6.156  -0.261 -0.1851 -0.3976  0.1477
 2479ntf    fn416123   0.273   6.230  -0.279 -0.0526  0.3292  0.2659
 2479ntf    fn416124   0.321   6.175  -0.485 -0.5677  0.0603  0.1962
 2479ntf    fn416125   0.212   6.046  -0.361 -0.0424  0.1244  0.6157
 2480ntf    cn116126   5.360   2.226   6.182  0.3809 -0.0133  0.9254
 2480ntf    sn216127   5.471   2.095   6.121  0.1853  0.2155  0.0538
 2480ntf    nn316128   5.496   2.015   6.254 -0.3432 -0.2056 -0.0947
 2480ntf    sn216129   5.611   2.033   6.359 -0.5302  0.1107  0.0554
 2480ntf    cn116130   5.583   1.899   6.479 -0.2971  0.2209  0.2359
 2480ntf    fn416131   5.252   2.182   6.243  0.0741 -0.7213 -0.0915
 2480ntf    fn416132   5.418   2.306   6.269  0.5379  0.3267  0.5146
 2480ntf    fn416133   5.315   2.302   6.084  0.7108 -1.0017 -0.0179
 2480ntf    on516134   5.383   2.017   6.036  0.1650 -0.3609  0.5906
 2480ntf    on516135   5.582   2.163   6.061 -0.0688  0.4005 -0.2097
 2480ntf    on516136   5.593   2.153   6.438 -0.0819 -0.1705  0.5947
 2480ntf    on516137   5.745   2.008   6.311 -0.4930  0.3902  0.0079
 2480ntf    fn416138   5.625   1.783   6.431 -0.1376  0.4434 -0.1695
 2480ntf    fn416139   5.649   1.922   6.591 -0.2342 -0.0991  0.2656
 2480ntf    fn416140   5.456   1.877   6.512 -0.0751 -0.3489  0.7198
 2481ntf    cn116141   4.898   6.274   6.055  0.0672  0.0527 -0.3562
 2481ntf    sn216142   4.983   6.214   6.204 -0.3975  0.2933  0.0091
 2481ntf    nn316143   5.104   6.139   6.137 -0.1671  0.4291  0.2715
 2481ntf    sn216144   5.215   6.054   6.209 -0.2442  0.0192 -0.0895
 2481ntf    cn116145   5.313   6.192   6.275  0.1775 -0.3992  0.1564
 2481ntf    fn416146   4.783   6.334   6.080  0.0897 -0.2744  0.5510
 2481ntf    fn416147   4.968   6.367   5.991 -0.2034  0.1856 -0.4590
 2481ntf    fn416148   4.875   6.176   5.969 -0.4802 -0.5811  0.4992
 2481ntf    on516149   5.009   6.337   6.273  0.1349  0.2100 -0.0397
 2481ntf    on516150   4.883   6.127   6.261 -0.1662  0.1611  0.2167
 2481ntf    on516151   5.299   5.987   6.113 -0.2795  0.1376 -0.2036
 2481ntf    on516152   5.172   5.972   6.319 -0.2643  0.2592  0.0811
 2481ntf    fn416153   5.258   6.253   6.378  0.5850  0.9963 -0.4307
 2481ntf    fn416154   5.432   6.151   6.318  0.0201 -0.4801  0.5159
 2481ntf    fn416155   5.348   6.284   6.187  0.2329 -0.0586  0.5289
 2482ntf    cn116156   5.832   3.596   1.268 -0.2455  0.2803 -0.2980
 2482ntf    sn216157   5.737   3.654   1.125 -0.3023  0.0448 -0.3545
 2482ntf    nn316158   5.659   3.521   1.091 -0.2479  0.1294 -0.8186
 2482ntf    sn216159   5.507   3.497   1.119 -0.0913 -0.0173 -0.0652
 2482ntf    cn116160   5.424   3.596   0.990 -0.2408 -0.2057 -0.1133
 2482ntf    fn416161   5.747   3.572   1.367  0.4828 -0.9056  0.0537
 2482ntf    fn416162   5.903   3.486   1.250 -0.0824  0.4003 -0.3865
 2482ntf    fn416163   5.917   3.686   1.316 -0.3492  0.1297  0.1732
 2482ntf    on516164   5.662   3.768   1.173  0.1613  0.2702 -0.1677
 2482ntf    on516165   5.838   3.683   1.027  0.1888 -0.8302 -0.1200
 2482ntf    on516166   5.462   3.548   1.246 -0.6736 -0.6744  0.0002
 2482ntf    on516167   5.477   3.359   1.089  0.8584 -0.0754 -0.7800
 2482ntf    fn416168   5.448   3.555   0.867 -0.2665  0.1039 -0.2227
 2482ntf    fn416169   5.292   3.594   1.006 -0.2140  0.0844  0.1584
 2482ntf    fn416170   5.458   3.723   0.980 -0.3993 -0.1567 -0.0452
 2483ntf    cn116171   2.890   0.864   1.127 -0.1823  0.0727 -0.3170
 2483ntf    sn216172   2.899   0.683   1.107 -0.1700  0.0213  0.1492
 2483ntf    nn316173   2.884   0.670   0.951 -0.6928 -0.4261  0.2332
 2483ntf    sn216174   2.779   0.604   0.856 -0.3049 -0.1388 -0.4003
 2483ntf    cn116175   2.888   0.547   0.722  0.1767  0.1146 -0.1180
 2483ntf    fn416176   2.972   0.935   1.051  0.3912  0.1324  0.3545
 2483ntf    fn416177   2.769   0.900   1.088 -0.1670  0.1951 -0.2475
 2483ntf    fn416178   2.905   0.893   1.255 -0.6946 -0.1303 -0.2076
 2483ntf    on516179   3.026   0.638   1.159 -0.1943 -0.3487 -0.1064
 2483ntf    on516180   2.781   0.637   1.176 -0.3392 -0.4966 -0.4788
 2483ntf    on516181   2.699   0.703   0.788 -0.4122 -0.2097 -0.3764
 2483ntf    on516182   2.716   0.486   0.909  0.4911 -0.1711  0.4882
 2483ntf    fn416183   2.960   0.441   0.754 -0.3216 -0.0871  0.3556
 2483ntf    fn416184   2.827   0.513   0.610 -0.1534  0.1844  0.0409
 2483ntf    fn416185   2.975   0.636   0.677  0.0110  0.0699 -0.5310
 2484ntf    cn116186   5.082   5.009   4.551 -0.1375  0.1954 -0.3788
 2484ntf    sn216187   5.162   5.105   4.420  0.3688  0.3532  0.0414
 2484ntf    nn316188   5.280   5.170   4.500  0.5887  0.4658 -0.3684
 2484ntf    sn216189   5.297   5.309   4.570  0.1406  0.2382  0.1959
 2484ntf    cn116190   5.419   5.377   4.453 -0.3799  0.3739 -0.2732
 2484ntf    fn416191   5.009   4.910   4.502  0.1929  0.1119 -0.7015
 2484ntf    fn416192   5.163   4.955   4.641 -0.4765  0.6557  0.2153
 2484ntf    fn416193   5.002   5.088   4.621  0.0671  0.1876 -0.1347
 2484ntf    on516194   5.199   4.997   4.332  0.2439 -0.3223  0.8089
 2484ntf    on516195   5.060   5.193   4.370 -0.0017 -0.0701  0.0485
 2484ntf    on516196   5.369   5.285   4.693 -0.1368 -0.1376  0.2861
 2484ntf    on516197   5.184   5.399   4.572  0.1506  0.2446  0.6997
 2484ntf    fn416198   5.462   5.498   4.483 -0.0135  0.1710  0.0443
 2484ntf    fn416199   5.520   5.291   4.446 -0.3219  0.4353 -0.1803
 2484ntf    fn416200   5.375   5.384   4.329  0.0304  0.2393 -0.4257
 2485ntf    cn116201   0.275   3.409   3.380 -0.2382 -0.2589  0.0749
 2485ntf    sn216202   0.431   3.318   3.402  0.1941  0.3751 -0.3286
 2485ntf    nn316203   0.515   3.403   3.503 -0.0743  0.2467  0.0049
 2485ntf    sn216204   0.611   3.354   3.617 -0.0664  0.4673  0.0944
 2485ntf    cn116205   0.761   3.454   3.592 -0.0151  0.4092  0.1702
 2485ntf    fn416206   0.298   3.539   3.371  0.4993 -0.3580  0.4144
 2485ntf    fn416207   0.205   3.379   3.271  0.0243 -0.3946 -0.0581
 2485ntf    fn416208   0.194   3.389   3.482 -0.0771  0.3062  0.3191
 2485ntf    on516209   0.385   3.194   3.460  0.3686  0.6795  0.4654
 2485ntf    on516210   0.493   3.300   3.273  0.1951  0.5052 -0.3458
 2485ntf    on516211   0.656   3.218   3.603 -0.0545  0.5391 -0.5975
 2485ntf    on516212   0.568   3.394   3.748 -0.2271  0.2085  0.1212
 2485ntf    fn416213   0.849   3.411   3.502 -0.3316 -0.5513  0.3093
 2485ntf    fn416214   0.738   3.582   3.566  0.1690  0.3333 -0.3880
 2485ntf    fn416215   0.834   3.451   3.703  0.2959 -0.6661 -0.0491
 2486ntf    cn116216   5.079   1.938   0.093  0.4347 -0.1554 -0.3561
 2486ntf    sn216217   5.108   2.023   0.251  0.0889 -0.0709 -0.3363
 2486ntf    nn316218   5.032   2.158   0.231  0.2612  0.2191  0.8728
 2486ntf    sn216219   5.080   2.307   0.243  0.4347  0.2549 -0.1437
 2486ntf    cn116220   4.922   2.392   0.275  0.1991 -0.0666 -0.4452
 2486ntf    fn416221   4.949   1.936   0.068  0.1530 -0.1211  1.0084
 2486ntf    fn416222   5.135   2.001  -0.009  0.0854  0.7695  0.0139
 2486ntf    fn416223   5.124   1.813   0.092 -0.0190 -0.3313  0.2871
 2486ntf    on516224   5.047   1.936   0.349  0.0748  0.0580 -0.2310
 2486ntf    on516225   5.253   2.022   0.254  0.0916  0.1933 -0.4148
 2486ntf    on516226   5.140   2.365   0.126  0.5886 -0.1306 -0.2559
 2486ntf    on516227   5.147   2.327   0.369 -0.4094  1.0752  0.1925
 2486ntf    fn416228   4.939   2.523   0.268  0.1596 -0.0217  0.1805
 2486ntf    fn416229   4.829   2.353   0.190 -0.5095  0.3994  0.1100
 2486ntf    fn416230   4.881   2.363   0.398 -0.0047 -0.2380 -0.5540
 2487ntf    cn116231   2.696   3.751   5.111  0.1231 -0.5142 -0.7736
 2487ntf    sn216232   2.777   3.617   5.203  0.0205 -0.1213 -0.1062
 2487ntf    nn316233   2.927   3.626   5.157 -0.0184 -0.3036 -0.2749
 2487ntf    sn216234   2.985   3.569   5.024  0.1289 -0.0663 -0.3135
 2487ntf    cn116235   3.026   3.404   5.089  0.1885  0.0276 -0.1152
 2487ntf    fn416236   2.716   3.754   4.980  0.0083 -0.4077 -0.7896
 2487ntf    fn416237   2.565   3.752   5.124  0.2150 -0.3335  0.2062
 2487ntf    fn416238   2.744   3.863   5.162 -0.0770 -0.6545 -0.2707
 2487ntf    on516239   2.776   3.662   5.340  0.5247 -0.0877 -0.1137
 2487ntf    on516240   2.704   3.496   5.176 -0.2226  0.0103 -0.0407
 2487ntf    on516241   3.114   3.617   4.982  0.1888 -0.0052 -0.0599
 2487ntf    on516242   2.885   3.534   4.926 -0.1655  0.4064 -0.1842
 2487ntf    fn416243   3.082   3.320   5.004  0.3075 -0.1387  0.1263
 2487ntf    fn416244   3.116   3.415   5.186 -0.0949 -0.1820  0.1747
 2487ntf    fn416245   2.923   3.344   5.146  0.0851  0.0439 -0.2863
 2488ntf    cn116246   5.762   4.487   5.198  0.3658 -0.5080 -0.1333
 2488ntf    sn216247   5.851   4.333   5.238  0.1480 -0.5728  0.1044
 2488ntf    nn316248   5.730   4.245   5.286 -0.4831  0.1650 -0.1021
 2488ntf    sn216249   5.729   4.129   5.392 -0.2147 -0.0673 -0.3524
 2488ntf    cn116250   5.680   4.224   5.539 -0.0403 -0.7100  0.1236
 2488ntf    fn416251   5.636   4.460   5.167  0.1887  0.1026  0.0341
 2488ntf    fn416252   5.741   4.557   5.308 -0.0610 -0.2963 -0.3463
 2488ntf    fn416253   5.810   4.565   5.103  0.1483 -0.0067  0.1639
 2488ntf    on516254   5.917   4.299   5.114 -0.6020 -0.0094 -0.4663
 2488ntf    on516255   5.939   4.362   5.348 -0.1168  0.0477  0.1609
 2488ntf    on516256   5.859   4.078   5.428  0.0307  1.0796  0.4348
 2488ntf    on516257   5.622   4.035   5.370  0.2639 -0.6774 -0.1069
 2488ntf    fn416258   5.678   4.151   5.650 -0.0128 -0.6858  0.1398
 2488ntf    fn416259   5.774   4.314   5.562  0.0150 -0.6657 -0.2673
 2488ntf    fn416260   5.569   4.294   5.524  0.5679  0.1593 -0.3927
 2489ntf    cn116261   2.902   4.076   3.211 -0.1449  0.0730 -0.1970
 2489ntf    sn216262   3.019   4.057   3.073  0.0878 -0.0700  0.0190
 2489ntf    nn316263   2.974   4.161   2.964  0.3114 -0.1501 -0.1504
 2489ntf    sn216264   2.872   4.136   2.848  0.0706 -0.2445  0.0801
 2489ntf    cn116265   2.983   4.160   2.706 -0.0165 -0.2042  0.0180
 2489ntf    fn416266   2.913   4.190   3.278 -0.1383 -0.2162  0.2975
 2489ntf    fn416267   2.776   4.080   3.170 -0.2344 -0.1741  0.0563
 2489ntf    fn416268   2.922   3.979   3.299  0.1542  0.4955  0.2032
 2489ntf    on516269   3.141   4.102   3.137  0.0840  0.1283 -0.1114
 2489ntf    on516270   3.004   3.916   3.050  0.7946 -0.1207 -0.1659
 2489ntf    on516271   2.778   4.243   2.826  0.3956  0.1056  0.3887
 2489ntf    on516272   2.813   4.006   2.827 -1.0235  0.2050  0.3028
 2489ntf    fn416273   2.909   4.144   2.598 -0.0435  0.1145 -0.0105
 2489ntf    fn416274   3.033   4.282   2.706 -0.5952  0.0336 -0.0407
 2489ntf    fn416275   3.085   4.075   2.699 -0.3178 -0.5331 -0.4510
 2490ntf    cn116276   3.434   5.184   4.033  0.8272 -0.5165 -0.3193
 2490ntf    sn216277   3.490   5.162   3.862  0.1079 -0.3036 -0.5852
 2490ntf    nn316278   3.451   5.299   3.796 -0.3012 -0.5032 -0.7624
 2490ntf    sn216279   3.321   5.367   3.738 -0.3768  0.0232 -0.0002
 2490ntf    cn116280   3.305   5.277   3.581  0.2905  0.1464 -0.1414
 2490ntf    fn416281   3.508   5.269   4.103 -0.1218  0.3518 -0.3539
 2490ntf    fn416282   3.307   5.222   4.039  0.8103 -0.5707 -0.3305
 2490ntf    fn416283   3.438   5.068   4.096 -0.6324 -0.5249 -0.2110
 2490ntf    on516284   3.634   5.149   3.865  0.0558 -0.6974  0.6965
 2490ntf    on516285   3.410   5.050   3.820  0.2198 -0.3118 -0.7779
 2490ntf    on516286   3.348   5.506   3.710  0.0582  0.0703  0.6101
 2490ntf    on516287   3.203   5.347   3.818 -0.7453 -0.0794 -0.5698
 2490ntf    fn416288   3.418   5.276   3.510  0.5188 -0.0635  0.2234
 2490ntf    fn416289   3.275   5.150   3.598  0.6851 -0.0364 -0.7609
 2490ntf    fn416290   3.207   5.330   3.510  0.1318 -0.1523 -0.1439
 2491ntf    cn116291   5.006   2.522   6.257 -0.1669 -0.1250 -0.3018
 2491ntf    sn216292   4.846   2.448   6.300 -0.0381 -0.0763  0.2714
 2491ntf    nn316293   4.878   2.310   6.231  0.2975 -0.0432  0.3637
 2491ntf    sn216294   4.785   2.202   6.167 -0.0381  0.5389 -0.1348
 2491ntf    cn116295   4.845   2.232   5.998 -0.1139 -0.0354 -0.2662
 2491ntf    fn416296   5.106   2.454   6.310 -0.5497 -0.2125  0.3240
 2491ntf    fn416297   5.047   2.513   6.132 -0.4104  0.4885 -0.4290
 2491ntf    fn416298   5.016   2.647   6.301 -0.3249 -0.1481 -0.1984
 2491ntf    on516299   4.860   2.447   6.444  0.1106 -0.0053  0.2576
 2491ntf    on516300   4.747   2.536   6.243 -0.2330 -0.5563 -0.1423
 2491ntf    on516301   4.642   2.222   6.158 -0.0582  0.6114  0.3496
 2491ntf    on516302   4.829   2.069   6.200 -0.4688  0.3656 -0.2427
 2491ntf    fn416303   4.820   2.128   5.919  0.0523 -0.6388  0.4709
 2491ntf    fn416304   4.782   2.335   5.943 -0.3622  0.3131  0.6478
 2491ntf    fn416305   4.974   2.260   5.998 -0.1520  0.1467 -0.0721
 2492ntf    cn116306   4.974   4.556   3.967 -0.2394  0.1727 -0.4565
 2492ntf    sn216307   4.920   4.383   3.977  0.1300  0.0806 -0.0159
 2492ntf    nn316308   4.775   4.399   4.035  0.0621  0.5073 -0.3001
 2492ntf    sn216309   4.732   4.409   4.186 -0.1808  0.1454 -0.3449
 2492ntf    cn116310   4.620   4.552   4.181 -0.0016  0.2835 -0.4530
 2492ntf    fn416311   4.952   4.613   4.084  0.0091 -0.4079 -0.1197
 2492ntf    fn416312   5.096   4.580   3.923 -0.1294 -0.3941 -0.4616
 2492ntf    fn416313   4.898   4.625   3.884 -0.3255  0.0207 -0.5043
 2492ntf    on516314   4.919   4.348   3.837  0.1512  0.7429 -0.1844
 2492ntf    on516315   5.014   4.317   4.064 -0.1518 -0.1028  0.1546
 2492ntf    on516316   4.833   4.443   4.283 -0.3565  1.0516 -0.4735
 2492ntf    on516317   4.637   4.308   4.227  0.0842  0.2935  0.6513
 2492ntf    fn416318   4.529   4.545   4.086 -0.3163 -0.6718 -0.1002
 2492ntf    fn416319   4.555   4.568   4.296  0.1212  0.5018 -0.4140
 2492ntf    fn416320   4.685   4.663   4.153  0.3628  0.0173 -0.6802
 2493ntf    cn116321   3.213   6.364   1.177 -0.4468 -0.0942 -0.1312
 2493ntf    sn216322   3.114   6.490   1.262 -0.1138 -0.2341  0.4676
 2493ntf    nn316323   3.208   6.615   1.257 -0.2010 -0.1658  0.5184
 2493ntf    sn216324   3.168   6.765   1.281 -0.0849 -0.0509  0.0117
 2493ntf    cn116325   3.214   6.847   1.126 -0.1885  0.3840  0.2094
 2493ntf    fn416326   3.331   6.348   1.235 -0.5266 -0.4660 -0.0715
 2493ntf    fn416327   3.152   6.247   1.178 -0.6049 -0.0160 -0.5150
 2493ntf    fn416328   3.235   6.393   1.049  0.3629  0.0175  0.0273
 2493ntf    on516329   2.993   6.502   1.185  0.3188 -0.4745 -0.2588
 2493ntf    on516330   3.106   6.437   1.396  0.3181 -0.2080  0.5038
 2493ntf    on516331   3.253   6.828   1.378 -0.2182  0.0493  0.0635
 2493ntf    on516332   3.025   6.786   1.288 -0.1092 -0.2290  0.0654
 2493ntf    fn416333   3.342   6.841   1.093 -0.4301 -0.3900 -0.6545
 2493ntf    fn416334   3.153   6.799   1.019 -0.5689  0.0022  0.5937
 2493ntf    fn416335   3.171   6.972   1.131 -0.3885  0.3168  0.1557
 2494ntf    cn116336   6.630   6.607   1.185 -0.0519  0.4887  0.2657
 2494ntf    sn216337   6.583   6.502   1.325  0.3693  0.3320  0.2912
 2494ntf    nn316338   6.564   6.605   1.442 -0.3409  0.1137  0.3770
 2494ntf    sn216339   6.663   6.637   1.561  0.0416  0.1364  0.0558
 2494ntf    cn116340   6.563   6.585   1.704 -0.0998  0.3528  0.0358
 2494ntf    fn416341   6.704   6.542   1.097  0.2492  0.2581  0.6879
 2494ntf    fn416342   6.535   6.668   1.115 -0.0399  0.2793  0.0638
 2494ntf    fn416343   6.709   6.705   1.225  0.2596  0.2164  0.3159
 2494ntf    on516344   6.454   6.468   1.269  0.6720  0.7020 -0.6571
 2494ntf    on516345   6.680   6.397   1.340  0.2310  0.1691  0.0508
 2494ntf    on516346   6.682   6.778   1.579  0.4165  0.0697  0.1790
 2494ntf    on516347   6.779   6.552   1.572 -0.2157 -0.2733 -0.3269
 2494ntf    fn416348   6.619   6.621   1.818 -0.2602  0.0570  0.2098
 2494ntf    fn416349   6.441   6.635   1.689 -0.1167  0.1523 -0.5075
 2494ntf    fn416350   6.541   6.455   1.706  0.3879  0.2686  0.0799
 2495ntf    cn116351   1.246   3.071   1.323  0.0181  0.0937  0.0516
 2495ntf    sn216352   1.182   3.184   1.196  0.2189  0.0646 -0.0763
 2495ntf    nn316353   1.087   3.272   1.285  0.0307 -0.5824  0.3645
 2495ntf    sn216354   1.109   3.414   1.348  0.3825 -0.3386 -0.3108
 2495ntf    cn116355   0.971   3.404   1.466  0.2142  0.0417 -0.4726
 2495ntf    fn416356   1.312   3.139   1.416 -0.1800  0.1038  0.1874
 2495ntf    fn416357   1.143   3.018   1.387  0.1419 -0.1058  0.0854
 2495ntf    fn416358   1.318   2.974   1.270  0.4471  0.4617 -0.0422
 2495ntf    on516359   1.299   3.253   1.149 -0.0401  0.3742 -0.2690
 2495ntf    on516360   1.110   3.099   1.104 -0.1642 -0.3394  0.5902
 2495ntf    on516361   1.066   3.521   1.260 -0.0857 -0.4602 -0.2336
 2495ntf    on516362   1.221   3.430   1.436  0.3095  0.4965 -0.3572
 2495ntf    fn416363   0.962   3.514   1.539 -0.1398 -0.1813 -0.1756
 2495ntf    fn416364   0.851   3.390   1.413 -0.1843  0.0407  0.4096
 2495ntf    fn416365   0.980   3.305   1.553  0.1328  0.4763  0.0420
 2496ntf    cn116366   2.570   4.404   6.413  0.2768  0.5965 -0.3114
 2496ntf    sn216367   2.418   4.410   6.313  0.0194 -0.2328  0.0183
 2496ntf    nn316368   2.475   4.400   6.167  0.0678  0.4056 -0.0072
 2496ntf    sn216369   2.388   4.372   6.039 -0.0534  0.0261  0.1572
 2496ntf    cn116370   2.407   4.522   5.939  0.3262 -0.0822  0.0635
 2496ntf    fn416371   2.621   4.283   6.400 -0.0683  0.4826 -0.6246
 2496ntf    fn416372   2.661   4.491   6.376  0.8730  0.0455 -0.1645
 2496ntf    fn416373   2.546   4.429   6.541 -0.1602  0.4179 -0.3552
 2496ntf    on516374   2.355   4.292   6.366 -0.5676  0.0706  0.0052
 2496ntf    on516375   2.364   4.539   6.349 -0.0308 -0.4332  0.6807
 2496ntf    on516376   2.245   4.363   6.052  0.0301 -0.7962  0.5978
 2496ntf    on516377   2.444   4.270   5.953 -0.9272 -0.5130  0.2125
 2496ntf    fn416378   2.341   4.517   5.824 -0.2003  0.0473  0.3546
 2496ntf    fn416379   2.378   4.629   6.012 -0.2909 -0.2704  0.1047
 2496ntf    fn416380   2.534   4.530   5.905  0.2763  0.2696 -0.0547
 2497ntf    cn116381   3.364   5.308   0.759 -0.7658  0.2508 -0.0590
 2497ntf    sn216382   3.251   5.167   0.771 -0.3415 -0.0689  0.2470
 2497ntf    nn316383   3.127   5.247   0.826 -0.1296  0.4538 -0.0350
 2497ntf    sn216384   3.079   5.256   0.975 -0.1337 -0.1907  0.0028
 2497ntf    cn116385   3.066   5.436   0.992 -0.0724 -0.1841 -0.0178
 2497ntf    fn416386   3.307   5.411   0.699 -0.5327  0.0279 -0.6668
 2497ntf    fn416387   3.403   5.352   0.877 -0.1610 -0.0472 -0.1425
 2497ntf    fn416388   3.476   5.284   0.692 -0.5315  0.3105  0.3033
 2497ntf    on516389   3.238   5.129   0.632 -0.0530  0.4088  0.0887
 2497ntf    on516390   3.301   5.069   0.864  0.3041 -0.2940 -0.3330
 2497ntf    on516391   3.172   5.223   1.080 -0.3364 -0.0322  0.2324
 2497ntf    on516392   2.942   5.217   0.999 -0.1549 -0.2482 -0.2063
 2497ntf    fn416393   2.958   5.491   0.938 -0.3438 -0.2765  0.4243
 2497ntf    fn416394   3.065   5.481   1.116  0.0337 -0.0453 -0.0669
 2497ntf    fn416395   3.164   5.502   0.931 -0.2077  0.6702  0.6706
 2498ntf    cn116396   4.068   0.205   2.311  0.5132 -0.0372 -0.1855
 2498ntf    sn216397   3.898   0.173   2.254  0.4489  0.0248 -0.0307
 2498ntf    nn316398   3.844   0.321   2.258  0.1080 -0.1048  0.1573
 2498ntf    sn216399   3.850   0.425   2.141  0.2096  0.1933  0.4262
 2498ntf    cn116400   3.680   0.402   2.082  0.4770  0.3893 -0.4278
 2498ntf    fn416401   4.118   0.090   2.354  0.4754  0.0722  0.1591
 2498ntf    fn416402   4.155   0.248   2.221  0.4938  1.0206  0.2840
 2498ntf    fn416403   4.076   0.291   2.412  0.4611  0.0948 -0.2933
 2498ntf    on516404   3.909   0.110   2.125 -0.2946  0.0323 -0.1005
 2498ntf    on516405   3.843   0.087   2.355  0.4843 -0.0847 -0.1040
 2498ntf    on516406   3.935   0.392   2.030 -0.9329  0.3413 -0.5083
 2498ntf    on516407   3.859   0.565   2.175  0.1100  0.2991  0.0224
 2498ntf    fn416408   3.643   0.491   1.991 -0.6428  0.4224  0.0448
 2498ntf    fn416409   3.654   0.284   2.028  0.0813  0.1184  0.3520
 2498ntf    fn416410   3.591   0.412   2.179  0.2067 -0.2769 -0.5999
 2499ntf    cn116411   3.997   3.698   3.675 -0.1291 -0.1675 -0.4437
 2499ntf    sn216412   3.986   3.766   3.507 -0.3455  0.0343 -0.3474
 2499ntf    nn316413   3.974   3.625   3.440 -0.1817  0.1981 -0.7234
 2499ntf    sn216414   3.849   3.557   3.374 -0.3573  0.0048 -0.1972
 2499ntf    cn116415   3.925   3.395   3.343 -0.2404  0.0881 -0.3502
 2499ntf    fn416416   3.883   3.661   3.731  0.0448  0.7078  0.5146
 2499ntf    fn416417   4.065   3.584   3.665 -0.0798 -0.1596 -0.2001
 2499ntf    fn416418   4.067   3.771   3.761 -0.3251 -0.4481 -0.0447
 2499ntf    on516419   3.865   3.845   3.506  0.2215  0.9312  0.1017
 2499ntf    on516420   4.115   3.831   3.500 -0.3694  0.1189 -0.0027
 2499ntf    on516421   3.809   3.613   3.247 -0.2969  0.6989  0.0841
 2499ntf    on516422   3.751   3.545   3.479 -0.0486 -0.3666  0.0529
 2499ntf    fn416423   4.009   3.368   3.442 -0.7042  0.2223  0.0858
 2499ntf    fn416424   3.836   3.297   3.342 -0.1760  0.0265 -0.1941
 2499ntf    fn416425   3.997   3.386   3.233 -0.2898 -0.3593 -0.3499
 2500ntf    cn116426   4.636   0.310   4.265  0.0015  0.3708  0.0963
 2500ntf    sn216427   4.770   0.394   4.175  0.2599 -0.1054  0.0358
 2500ntf    nn316428   4.747   0.544   4.215  0.1814 -0.1489  0.1545
 2500ntf    sn216429   4.652   0.648   4.145  0.1751 -0.4244 -0.2526
 2500ntf    cn116430   4.770   0.749   4.052  0.0387 -0.3087 -0.2994
 2500ntf    fn416431   4.647   0.312   4.397  0.4402 -0.2941  0.0768
 2500ntf    fn416432   4.519   0.366   4.241 -0.0493  0.3054  0.1902
 2500ntf    fn416433   4.627   0.185   4.224 -0.2767  0.4404 -0.0546
 2500ntf    on516434   4.887   0.339   4.239  0.1543 -0.6580 -0.2364
 2500ntf    on516435   4.755   0.361   4.036  0.6408  0.7622 -0.2135
 2500ntf    on516436   4.595   0.739   4.242  0.5752 -0.9960  0.5372
 2500ntf    on516437   4.566   0.596   4.042 -0.1315 -0.0532 -0.1866
 2500ntf    fn416438   4.848   0.684   3.967  0.1958 -0.2262 -0.2200
 2500ntf    fn416439   4.714   0.855   3.996  0.1535 -0.0730  0.0294
 2500ntf    fn416440   4.863   0.797   4.133 -0.2183 -0.5325  0.1290
 2501ntf    cn116441   4.048   4.834   3.518  0.0721  0.2437  0.0519
 2501ntf    sn216442   4.079   4.920   3.675 -0.4552 -0.1929  0.3965
 2501ntf    nn316443   4.231   4.883   3.690 -0.1367  0.7166 -0.5505
 2501ntf    sn216444   4.358   4.970   3.658  0.3254  0.3833  0.3552
 2501ntf    cn116445   4.369   5.035   3.827  0.1831  0.4668  0.3325
 2501ntf    fn416446   4.125   4.876   3.419  0.5600 -0.0247  0.3162
 2501ntf    fn416447   4.067   4.704   3.534  0.2063  0.2407 -0.1182
 2501ntf    fn416448   3.926   4.852   3.470  0.0330 -0.3807 -0.0927
 2501ntf    on516449   4.054   5.061   3.658  0.7224 -0.0836 -0.5410
 2501ntf    on516450   3.989   4.845   3.760 -0.6548 -0.2064  0.1765
 2501ntf    on516451   4.348   5.087   3.574  0.0131  0.2897  0.2601
 2501ntf    on516452   4.469   4.879   3.643 -0.3624 -0.4972  0.5075
 2501ntf    fn416453   4.481   5.104   3.843  0.2630  0.3840  0.1307
 2501ntf    fn416454   4.264   5.111   3.856  0.1234  0.6064 -0.2486
 2501ntf    fn416455   4.368   4.934   3.912 -0.4039 -0.1684 -0.4144
 2502ntf    cn116456   2.766   4.954   3.623 -0.2670  0.3778  0.3536
 2502ntf    sn216457   2.663   4.880   3.753 -0.1129 -0.4648 -0.0004
 2502ntf    nn316458   2.618   4.747   3.684  0.3790 -0.1324 -0.9780
 2502ntf    sn216459   2.672   4.600   3.699 -0.0362 -0.2186 -0.2848
 2502ntf    cn116460   2.521   4.511   3.650 -0.3753  0.3289 -0.2512
 2502ntf    fn416461   2.895   4.925   3.632 -0.3111  0.1799  0.3402
 2502ntf    fn416462   2.724   4.934   3.499  0.1034 -0.0859  0.3003
 2502ntf    fn416463   2.766   5.086   3.632 -0.0870  0.3992  0.0353
 2502ntf    on516464   2.749   4.861   3.868  0.1815  0.3519 -0.0790
 2502ntf    on516465   2.556   4.975   3.770  0.1808  0.0388 -0.9137
 2502ntf    on516466   2.688   4.562   3.837 -0.1438  0.4173 -0.0938
 2502ntf    on516467   2.769   4.556   3.601 -0.2301  0.1505 -0.6450
 2502ntf    fn416468   2.425   4.541   3.736 -0.0967  0.1125  0.1400
 2502ntf    fn416469   2.488   4.563   3.533  0.0716 -0.0451 -0.5536
 2502ntf    fn416470   2.527   4.379   3.640  0.3144  0.3714 -0.4449
 2503ntf    cn116471   4.315   4.345   6.911 -0.1587 -0.4681  0.4073
 2503ntf    sn216472   4.216   4.481   6.980 -0.0371 -0.0262 -0.2793
 2503ntf    nn316473   4.330   4.572   7.040  0.0507 -0.4775  0.2539
 2503ntf    sn216474   4.390   4.593   7.183 -0.1060  0.0255  0.2494
 2503ntf    cn116475   4.535   4.693   7.136  0.2232 -0.4017  0.3402
 2503ntf    fn416476   4.376   4.382   6.800 -0.5029 -0.1166  0.3320
 2503ntf    fn416477   4.412   4.300   6.988  0.2194  0.0734  0.2528
 2503ntf    fn416478   4.236   4.242   6.884 -0.5645  0.0100 -0.2652
 2503ntf    on516479   4.153   4.529   6.860 -0.4940 -0.1966 -0.1089
 2503ntf    on516480   4.130   4.419   7.078  0.0276  0.5816  0.1726
 2503ntf    on516481   4.455   4.475   7.235 -0.2412 -0.2814 -0.2744
 2503ntf    on516482   4.324   4.685   7.271  0.4915  0.2452  0.4698
 2503ntf    fn416483   4.503   4.816   7.100 -0.3242 -0.8045 -0.5738
 2503ntf    fn416484   4.630   4.687   7.227 -0.0027 -0.2760  0.5871
 2503ntf    fn416485   4.583   4.651   7.020 -0.0780  0.2587 -0.0284
 2504ntf    cn116486   0.373   2.719   4.258  0.4782 -0.2680  0.0503
 2504ntf    sn216487   0.385   2.538   4.239  0.1968 -0.2516 -0.2887
 2504ntf    nn316488   0.501   2.517   4.136  0.4788  0.0522 -0.0321
 2504ntf    sn216489   0.620   2.415   4.129  0.0381 -0.4511 -0.1876
 2504ntf    cn116490   0.578   2.345   3.966 -0.4308  0.0355 -0.2778
 2504ntf    fn416491   0.271   2.769   4.326  0.2119 -0.0953 -0.4671
 2504ntf    fn416492   0.479   2.765   4.321  0.2469  0.2557  0.0608
 2504ntf    fn416493   0.369   2.781   4.141  0.3803  0.3935  0.4041
 2504ntf    on516494   0.417   2.500   4.374 -0.0609 -0.2019 -0.2122
 2504ntf    on516495   0.254   2.507   4.186 -0.2431  0.2308  0.4961
 2504ntf    on516496   0.619   2.299   4.214  0.3118 -0.4001 -0.1146
 2504ntf    on516497   0.751   2.473   4.117  0.0248 -0.3474  0.1651
 2504ntf    fn416498   0.603   2.435   3.872 -0.1178  0.2274 -0.0128
 2504ntf    fn416499   0.648   2.240   3.926  0.1203  0.3444 -0.1391
 2504ntf    fn416500   0.450   2.314   3.951 -0.4973  0.3554 -0.3678
 2505ntf    cn116501   0.094   3.937   5.861 -0.2296 -0.1622 -0.0501
 2505ntf    sn216502   0.145   3.781   5.782 -0.1470 -0.1078 -0.1044
 2505ntf    nn316503   0.106   3.678   5.894  0.0258 -0.2471 -0.1714
 2505ntf    sn216504   0.195   3.621   6.010  0.1203  0.2165 -0.0107
 2505ntf    cn116505   0.070   3.606   6.140  0.1480 -0.2508 -0.0357
 2505ntf    fn416506   0.166   3.966   5.968  0.0961  0.3143 -0.3913
 2505ntf    fn416507   0.116   4.039   5.779  0.1627  0.0171  0.2751
 2505ntf    fn416508  -0.034   3.936   5.894 -0.1583 -0.3687  0.2219
 2505ntf    on516509   0.068   3.768   5.661  0.6010  0.0080 -0.6024
 2505ntf    on516510   0.288   3.789   5.764 -0.1465 -0.2009 -0.1444
 2505ntf    on516511   0.293   3.711   6.065  0.3781 -0.5004  0.7373
 2505ntf    on516512   0.229   3.481   5.996 -0.3982  0.1371 -0.5373
 2505ntf    fn416513  -0.019   3.510   6.121  0.1273 -0.2647  0.1250
 2505ntf    fn416514   0.136   3.579   6.251  0.6927 -0.3627 -0.3843
 2505ntf    fn416515   0.001   3.714   6.175 -0.1682 -0.1836 -0.8446
 2506ntf    cn116516   0.232   2.519   1.429  0.1327 -0.0103  0.2068
 2506ntf    sn216517   0.085   2.412   1.434  0.0320  0.1250  0.1773
 2506ntf    nn316518   0.094   2.376   1.587 -0.3350  0.2329  0.2235
 2506ntf    sn216519   0.002   2.272   1.661  0.1641 -0.3598  0.0195
 2506ntf    cn116520  -0.101   2.379   1.766 -0.1694 -0.4255 -0.2399
 2506ntf    fn416521   0.210   2.633   1.492  0.7400  0.0603  0.2948
 2506ntf    fn416522   0.337   2.454   1.474  0.1233  0.0613  0.3328
 2506ntf    fn416523   0.259   2.552   1.304 -0.6853 -0.2042 -0.0276
 2506ntf    on516524  -0.030   2.491   1.401  0.5600  0.8077 -0.0552
 2506ntf    on516525   0.116   2.307   1.340 -0.5013  0.0530  0.0810
 2506ntf    on516526   0.081   2.195   1.754 -0.5770 -0.0662  0.9067
 2506ntf    on516527  -0.090   2.199   1.578  0.3220 -0.2769 -0.2300
 2506ntf    fn416528  -0.170   2.304   1.851 -0.4397 -0.3243 -0.3708
 2506ntf    fn416529  -0.015   2.447   1.840 -0.1461 -0.2721 -0.4096
 2506ntf    fn416530  -0.181   2.465   1.706 -0.3144 -0.2567  0.1873
 2507ntf    cn116531   5.960   0.196   1.983  0.0717  0.1332 -0.1202
 2507ntf    sn216532   6.057   0.107   1.857  0.0124 -0.1767  0.0538
 2507ntf    nn316533   6.170   0.037   1.940 -0.0411 -0.4609 -0.1110
 2507ntf    sn216534   6.317   0.083   1.969 -0.1406 -0.0564 -0.2413
 2507ntf    cn116535   6.330   0.004   2.132 -0.2335 -0.0781 -0.2443
 2507ntf    fn416536   5.908   0.313   1.948 -0.1712  0.0013 -0.2003
 2507ntf    fn416537   5.855   0.139   2.040  0.5985 -0.1550  0.5796
 2507ntf    fn416538   6.044   0.231   2.080  0.5827  0.6496 -0.7350
 2507ntf    on516539   5.965   0.007   1.806 -0.5765  0.3452  0.0762
 2507ntf    on516540   6.097   0.206   1.761 -0.8369 -0.5571 -0.7092
 2507ntf    on516541   6.340   0.221   2.006  0.4805 -0.2188 -0.0139
 2507ntf    on516542   6.419   0.012   1.896  0.1302  0.5047 -0.4192
 2507ntf    fn416543   6.282  -0.120   2.135  0.5990 -0.4126 -0.4518
 2507ntf    fn416544   6.453  -0.008   2.181 -0.2294 -0.2521 -0.2971
 2507ntf    fn416545   6.262   0.074   2.221 -0.0520 -0.0056 -0.1610
 2508ntf    cn116546   1.744   1.142   0.097  0.0911  0.6392 -0.1018
 2508ntf    sn216547   1.632   1.266   0.025 -0.1217  0.3346 -0.2973
 2508ntf    nn316548   1.689   1.394   0.096  0.0461  0.1105 -0.0254
 2508ntf    sn216549   1.627   1.518   0.169 -0.1940 -0.0982  0.1266
 2508ntf    cn116550   1.636   1.631   0.026  0.3465 -0.4625 -0.1311
 2508ntf    fn416551   1.742   1.153   0.228  0.4101  0.7488 -0.1040
 2508ntf    fn416552   1.703   1.020   0.065 -0.4846  0.8546 -0.1999
 2508ntf    fn416553   1.871   1.148   0.060  0.1142  0.1149 -0.1235
 2508ntf    on516554   1.673   1.264  -0.114  0.3587  0.1590 -0.1569
 2508ntf    on516555   1.501   1.225   0.068 -0.2605  0.4472 -0.6112
 2508ntf    on516556   1.724   1.571   0.262 -0.1094  0.0449 -0.0425
 2508ntf    on516557   1.488   1.507   0.206 -0.1377  0.3559  0.4708
 2508ntf    fn416558   1.760   1.635  -0.019  0.3330 -0.2962 -0.1538
 2508ntf    fn416559   1.553   1.606  -0.074  0.3792  0.6306 -0.4414
 2508ntf    fn416560   1.601   1.755   0.056  0.3655 -0.4734 -0.0619
 2509ntf    cn116561   5.505   6.808   3.605 -0.8190 -0.2470  0.0220
 2509ntf    sn216562   5.513   6.955   3.712  0.1248 -0.3777  0.1387
 2509ntf    nn316563   5.444   6.888   3.836  0.1554 -0.7500 -0.0448
 2509ntf    sn216564   5.512   6.818   3.959  0.3508 -0.3492  0.0755
 2509ntf    cn116565   5.371   6.833   4.072  0.1986  0.2764 -0.1915
 2509ntf    fn416566   5.392   6.738   3.604 -0.2724 -1.1423  0.0422
 2509ntf    fn416567   5.527   6.847   3.481 -0.6756 -0.2417  0.0498
 2509ntf    fn416568   5.609   6.731   3.633 -0.2799  0.3788 -0.2527
 2509ntf    on516569   5.653   6.987   3.725  0.1152 -0.0033 -0.5818
 2509ntf    on516570   5.428   7.056   3.653 -0.1499 -0.4212  0.4554
 2509ntf    on516571   5.606   6.899   4.033 -0.0636  0.0290  0.1875
 2509ntf    on516572   5.529   6.675   3.949 -0.2623 -0.4859  0.9214
 2509ntf    fn416573   5.269   6.756   4.037  0.6550 -0.2307 -0.4333
 2509ntf    fn416574   5.388   6.808   4.201 -0.2960 -0.4947 -0.2665
 2509ntf    fn416575   5.328   6.958   4.072  0.1246  0.2525  0.2502
 2510ntf    cn116576   2.157   0.846   2.265 -0.2866 -0.1593 -0.2464
 2510ntf    sn216577   2.195   0.750   2.116 -0.0235 -0.1820 -0.1644
 2510ntf    nn316578   2.058   0.674   2.106 -0.5338  0.5400  1.0834
 2510ntf    sn216579   1.929   0.729   2.037 -0.1201  0.1141 -0.0671
 2510ntf    cn116580   1.953   0.676   1.865 -0.3161 -0.0142 -0.0556
 2510ntf    fn416581   2.253   0.925   2.309  0.1008 -0.8215  0.1193
 2510ntf    fn416582   2.057   0.929   2.241 -0.2956 -0.2406 -0.4863
 2510ntf    fn416583   2.121   0.766   2.365  0.4132  0.1986  0.3032
 2510ntf    on516584   2.218   0.854   2.019 -0.0016  0.3772  0.4291
 2510ntf    on516585   2.309   0.670   2.157 -0.2043 -0.3535  0.0057
 2510ntf    on516586   1.911   0.872   2.031  0.9898  0.2720  0.1359
 2510ntf    on516587   1.815   0.650   2.077 -0.1092 -0.0762 -0.4100
 2510ntf    fn416588   2.038   0.757   1.804  0.3682 -0.3573  0.4302
 2510ntf    fn416589   1.991   0.550   1.851  0.0687  0.0107  0.6864
 2510ntf    fn416590   1.840   0.679   1.797  0.1094 -0.4806 -0.7944
 2511ntf    cn116591   2.874   3.741   1.166  0.0289 -0.3980  0.1297
 2511ntf    sn216592   2.718   3.782   1.081  0.1040 -0.2860  0.0459
 2511ntf    nn316593   2.633   3.661   1.134  0.1385 -0.2305  0.2262
 2511ntf    sn216594   2.482   3.632   1.104  0.0673  0.1488  0.2033
 2511ntf    cn116595   2.506   3.479   1.008 -0.1265  0.3063 -0.0964
 2511ntf    fn416596   2.863   3.749   1.297  0.2253 -0.2657  0.1376
 2511ntf    fn416597   2.931   3.630   1.122 -0.1349 -0.3599 -0.1856
 2511ntf    fn416598   2.964   3.831   1.132  0.0061 -0.3357  0.2351
 2511ntf    on516599   2.673   3.905   1.142 -0.0652 -0.6849  0.7309
 2511ntf    on516600   2.747   3.770   0.940 -0.9403 -0.0678 -0.1924
 2511ntf    on516601   2.412   3.716   1.010  0.0911 -0.1052 -0.0435
 2511ntf    on516602   2.418   3.578   1.221 -0.1674  0.8513  0.4034
 2511ntf    fn416603   2.556   3.381   1.080 -0.4404  0.0265 -0.2532
 2511ntf    fn416604   2.392   3.435   0.957 -0.0218  0.2787 -0.3081
 2511ntf    fn416605   2.583   3.492   0.901  0.0962 -0.2550 -0.0069
 2512ntf    cn116606   5.775   5.453   5.802 -0.5585 -0.1193 -0.4200
 2512ntf    sn216607   5.878   5.390   5.666 -0.0971 -0.0134 -0.1173
 2512ntf    nn316608   6.008   5.340   5.740 -0.2128 -0.2836 -0.0976
 2512ntf    sn216609   6.141   5.290   5.673  0.1790  0.2566  0.2753
 2512ntf    cn116610   6.173   5.148   5.782 -0.3224 -0.1434 -0.0970
 2512ntf    fn416611   5.662   5.506   5.758 -0.2116  0.6338 -0.4120
 2512ntf    fn416612   5.748   5.358   5.890  0.1557  0.1493  0.0891
 2512ntf    fn416613   5.831   5.542   5.881 -0.4991 -0.7645  0.2751
 2512ntf    on516614   5.807   5.278   5.611  0.2650 -0.1425 -0.3275
 2512ntf    on516615   5.904   5.502   5.579  0.5970 -0.2363 -0.2092
 2512ntf    on516616   6.253   5.378   5.697  0.3592  0.1704 -0.2213
 2512ntf    on516617   6.126   5.230   5.543 -0.5513  0.2345  0.3644
 2512ntf    fn416618   6.148   5.181   5.907  0.1853 -0.0339 -0.0239
 2512ntf    fn416619   6.094   5.044   5.756 -0.4505 -0.0490 -0.0873
 2512ntf    fn416620   6.296   5.102   5.768  0.1315  1.0330 -0.0078
 2513ntf    cn116621   0.754   2.467   5.793  0.0031 -0.0349  0.0408
 2513ntf    sn216622   0.625   2.594   5.790 -0.2059 -0.2486 -0.0382
 2513ntf    nn316623   0.692   2.698   5.887 -0.6100  0.1095 -0.1347
 2513ntf    sn216624   0.657   2.743   6.033 -0.2233 -0.0962  0.0228
 2513ntf    cn116625   0.784   2.658   6.132  0.0150  0.3907  0.1372
 2513ntf    fn416626   0.745   2.393   5.902 -0.0966 -0.2818 -0.1339
 2513ntf    fn416627   0.750   2.385   5.689 -0.1502 -0.3258  0.2737
 2513ntf    fn416628   0.874   2.523   5.800 -0.1602  0.2880  0.2630
 2513ntf    on516629   0.610   2.643   5.655 -0.1865  0.4749  0.2174
 2513ntf    on516630   0.508   2.526   5.840 -0.0040 -0.2300  0.4606
 2513ntf    on516631   0.535   2.688   6.086 -0.2031 -0.8317 -0.6829
 2513ntf    on516632   0.694   2.879   6.063 -0.8306  0.0844 -0.0434
 2513ntf    fn416633   0.765   2.527   6.131  0.6813  0.2909 -0.3569
 2513ntf    fn416634   0.907   2.680   6.087 -0.0002  0.3830  0.0913
 2513ntf    fn416635   0.779   2.703   6.256 -0.2776 -0.0187  0.2748
 2514ntf    cn116636   3.444   1.539   3.745 -0.2033  0.5465 -0.3317
 2514ntf    sn216637   3.351   1.599   3.889  0.1623 -0.1792  0.2134
 2514ntf    nn316638   3.229   1.671   3.820  0.4068  0.2040  0.1824
 2514ntf    sn216639   3.098   1.713   3.895  0.2153 -0.1096  0.0245
 2514ntf    cn116640   3.140   1.844   4.015 -0.1230  0.0447 -0.0234
 2514ntf    fn416641   3.382   1.446   3.673 -0.3512 -0.2827  0.8453
 2514ntf    fn416642   3.480   1.636   3.663 -0.2869  0.5323 -0.3868
 2514ntf    fn416643   3.558   1.492   3.793 -0.3761  0.3627 -0.0961
 2514ntf    on516644   3.305   1.475   3.946 -0.7162 -0.0785 -0.2411
 2514ntf    on516645   3.445   1.683   3.958  0.3009  0.0287 -0.2245
 2514ntf    on516646   3.030   1.611   3.971 -0.2411  0.0765 -0.1308
 2514ntf    on516647   3.014   1.786   3.804  0.1888 -0.1697  0.0010
 2514ntf    fn416648   3.194   1.947   3.951 -0.1787  0.0182 -0.1133
 2514ntf    fn416649   3.045   1.886   4.096 -0.3256 -0.0248 -0.2238
 2514ntf    fn416650   3.242   1.801   4.088 -0.1187 -0.0303 -0.0724
 2515ntf    cn116651   5.690   1.011   6.129  0.2163  0.2775  0.2660
 2515ntf    sn216652   5.666   0.843   6.063 -0.0964  0.4901 -0.1638
 2515ntf    nn316653   5.561   0.792   6.168 -0.0876  0.0608 -0.3602
 2515ntf    sn216654   5.406   0.793   6.148 -0.1020  0.0446 -0.2529
 2515ntf    cn116655   5.388   0.636   6.059  0.3332 -0.1976  0.0829
 2515ntf    fn416656   5.712   1.010   6.259  0.3883  0.1943  0.2364
 2515ntf    fn416657   5.783   1.083   6.069 -0.0978  0.1821 -0.3478
 2515ntf    fn416658   5.579   1.081   6.117  0.0065 -0.0332  0.3658
 2515ntf    on516659   5.624   0.862   5.926  0.7870 -0.3904 -0.5719
 2515ntf    on516660   5.791   0.774   6.084 -0.3795 -0.1284 -0.4744
 2515ntf    on516661   5.355   0.895   6.059 -0.3570  0.0151 -0.1410
 2515ntf    on516662   5.335   0.772   6.271  0.0479 -0.1575 -0.2015
 2515ntf    fn416663   5.455   0.629   5.945  0.0136 -0.5542 -0.0906
 2515ntf    fn416664   5.437   0.536   6.130  0.0238 -0.2080  0.2882
 2515ntf    fn416665   5.261   0.604   6.039  0.3045 -0.4040  0.5773
 2516ntf    cn116666   3.518   1.016   1.872 -0.3149 -0.3610  0.1609
 2516ntf    sn216667   3.698   0.995   1.864 -0.2716 -0.0040  0.1892
 2516ntf    nn316668   3.749   1.127   1.932 -0.1432  0.0912 -0.0882
 2516ntf    sn216669   3.849   1.146   2.052 -0.1966 -0.3712  0.0325
 2516ntf    cn116670   3.985   1.231   1.966  0.1162 -0.6076  0.2942
 2516ntf    fn416671   3.472   1.123   1.809 -0.2393 -0.6745 -0.4336
 2516ntf    fn416672   3.453   0.917   1.812  0.1790 -0.8027  0.3484
 2516ntf    fn416673   3.479   1.020   1.998 -0.1989  0.3176  0.1768
 2516ntf    on516674   3.733   0.875   1.935 -0.3399 -0.4785 -0.5725
 2516ntf    on516675   3.718   1.007   1.721  0.2169  0.0864  0.2627
 2516ntf    on516676   3.917   1.029   2.100  0.2767 -0.0590  0.1262
 2516ntf    on516677   3.811   1.246   2.149  0.2319  0.0078 -0.1876
 2516ntf    fn416678   4.006   1.165   1.853  0.0049 -0.0372 -0.0599
 2516ntf    fn416679   3.944   1.353   1.934 -1.0341 -0.8990  0.5937
 2516ntf    fn416680   4.094   1.238   2.040  0.0843  0.5132  0.2524
 2517ntf    cn116681   3.345   0.292   6.097  0.0477 -0.5978  0.5140
 2517ntf    sn216682   3.370   0.113   6.075  0.2102 -0.4928 -0.1559
 2517ntf    nn316683   3.514   0.109   6.013  0.1875 -0.0546 -0.2421
 2517ntf    sn216684   3.652   0.096   6.087  0.0853  0.1235 -0.0198
 2517ntf    cn116685   3.699  -0.076   6.051  0.1179  0.1630 -0.1716
 2517ntf    fn416686   3.216   0.313   6.121  0.0549 -0.0080  0.0389
 2517ntf    fn416687   3.412   0.337   6.202  0.5717 -0.2918  0.0521
 2517ntf    fn416688   3.388   0.363   5.994 -0.9254 -0.6870  0.0347
 2517ntf    on516689   3.349   0.054   6.204 -0.2622  0.1380  0.0597
 2517ntf    on516690   3.269   0.087   5.975 -0.1619 -0.2822  0.1619
 2517ntf    on516691   3.654   0.108   6.230  0.5299  0.0022 -0.0129
 2517ntf    on516692   3.750   0.183   6.026  0.2473 -0.3560 -0.4555
 2517ntf    fn416693   3.811  -0.116   6.109 -0.0940 -0.3551 -0.1211
 2517ntf    fn416694   3.612  -0.164   6.096  0.1628  0.0444 -0.3168
 2517ntf    fn416695   3.717  -0.113   5.925 -0.1820  0.0421 -0.1796
 2518ntf    cn116696   0.865   2.315   5.105  0.1696 -0.0353 -0.0866
 2518ntf    sn216697   0.992   2.443   5.124 -0.1154  0.2537 -0.1129
 2518ntf    nn316698   0.936   2.535   5.238 -0.2874 -0.6481  0.5446
 2518ntf    sn216699   0.984   2.530   5.387  0.4112 -0.3416  0.3328
 2518ntf    cn116700   1.149   2.604   5.375  0.1581  0.1624 -0.0784
 2518ntf    fn416701   0.835   2.263   5.223  0.3698  0.0111 -0.0157
 2518ntf    fn416702   0.751   2.362   5.056  0.1905 -0.0732 -0.1722
 2518ntf    fn416703   0.893   2.221   5.016 -0.2192 -0.0475 -0.2016
 2518ntf    on516704   1.107   2.367   5.167 -0.4584  0.0905  0.5411
 2518ntf    on516705   0.998   2.509   4.997 -0.8562  0.3728 -0.0914
 2518ntf    on516706   1.002   2.403   5.454 -0.5844 -0.7877 -0.2269
 2518ntf    on516707   0.909   2.625   5.465 -0.2858 -0.2118 -0.4822
 2518ntf    fn416708   1.240   2.514   5.342  0.3335  0.1836  0.3300
 2518ntf    fn416709   1.154   2.705   5.289 -0.2539  0.0207 -0.2694
 2518ntf    fn416710   1.188   2.660   5.489 -0.0345 -0.0701  0.1020
 2519ntf    cn116711   4.224   0.117   3.523  0.0607 -0.4195 -0.4168
 2519ntf    sn216712   4.048   0.072   3.538 -0.1120  0.3494 -0.0681
 2519ntf    nn316713   4.059  -0.078   3.492 -0.4224  0.2598  0.1529
 2519ntf    sn216714   3.960  -0.197   3.520  0.1429 -0.2334  0.0484
 2519ntf    cn116715   4.067  -0.284   3.638 -0.2747 -0.2691  0.4023
 2519ntf    fn416716   4.296   0.067   3.622  0.1944  0.4041 -0.0860
 2519ntf    fn416717   4.289   0.086   3.413  0.7530  0.2030 -0.1919
 2519ntf    fn416718   4.241   0.248   3.534  0.0001 -0.4224 -0.2838
 2519ntf    on516719   4.025   0.093   3.679 -0.3150  0.2000 -0.0779
 2519ntf    on516720   3.972   0.150   3.444  0.2108  0.1900 -0.4649
 2519ntf    on516721   3.951  -0.288   3.408  0.1043  0.1079 -0.2255
 2519ntf    on516722   3.846  -0.153   3.595  0.0297 -0.1364 -0.1808
 2519ntf    fn416723   4.029  -0.410   3.652 -0.1949 -0.2801  0.5247
 2519ntf    fn416724   4.195  -0.300   3.606 -0.2421  0.6787  0.0313
 2519ntf    fn416725   4.066  -0.229   3.758 -0.0825  0.4849  0.0633
 2520ntf    cn116726   6.486   3.295   0.130 -0.5017  0.4593 -0.3586
 2520ntf    sn216727   6.412   3.446   0.198  0.1560  0.4136  0.4709
 2520ntf    nn316728   6.363   3.510   0.063  0.4050  0.0325  0.1979
 2520ntf    sn216729   6.436   3.606  -0.038  0.1224 -0.0115 -0.0464
 2520ntf    cn116730   6.352   3.761   0.005 -0.2826 -0.2231 -0.0641
 2520ntf    fn416731   6.529   3.222   0.231  0.2565  0.3024 -0.7854
 2520ntf    fn416732   6.396   3.218   0.069 -0.5874  0.5648 -0.3649
 2520ntf    fn416733   6.588   3.309   0.046  0.4187  0.0053  0.6668
 2520ntf    on516734   6.315   3.388   0.287 -0.2361  0.3896  0.0300
 2520ntf    on516735   6.519   3.524   0.256  0.5290  0.0147  0.3233
 2520ntf    on516736   6.405   3.586  -0.178  0.2107 -0.4494 -0.0045
 2520ntf    on516737   6.577   3.622  -0.013  0.0071  0.5178  0.2723
 2520ntf    fn416738   6.418   3.873  -0.021  0.2833 -0.6564 -0.5074
 2520ntf    fn416739   6.235   3.780  -0.056 -0.1767  0.7210  0.0033
 2520ntf    fn416740   6.327   3.752   0.134 -0.5351 -0.2623 -0.1144
 2521ntf    cn116741   1.511   5.035   3.757 -0.2786 -0.1620 -0.1974
 2521ntf    sn216742   1.472   4.882   3.847 -0.0613 -0.2128 -0.1891
 2521ntf    nn316743   1.353   4.818   3.768 -0.2667  0.1361 -0.1677
 2521ntf    sn216744   1.324   4.670   3.723  0.2091 -0.0032 -0.0293
 2521ntf    cn116745   1.376   4.680   3.549 -0.4144  0.3541 -0.2013
 2521ntf    fn416746   1.597   5.109   3.826 -0.4770 -0.1478  0.0400
 2521ntf    fn416747   1.558   5.014   3.636 -0.1260  0.6474 -0.2868
 2521ntf    fn416748   1.401   5.108   3.745 -0.1683  0.0074 -0.1844
 2521ntf    on516749   1.597   4.810   3.840  0.1679  0.1277  0.2870
 2521ntf    on516750   1.428   4.931   3.976  0.1585 -0.5438  0.0129
 2521ntf    on516751   1.182   4.649   3.709  0.1715  0.2863 -0.0803
 2521ntf    on516752   1.409   4.569   3.779  0.2873  0.0063 -0.1307
 2521ntf    fn416753   1.327   4.785   3.486 -0.0567  0.5364 -0.1791
 2521ntf    fn416754   1.508   4.694   3.551 -0.3593 -0.1803  0.0935
 2521ntf    fn416755   1.354   4.576   3.471  0.0491 -0.0208  0.1600
 2522ntf    cn116756   6.910   5.061   6.336 -0.1970 -0.1261  0.2786
 2522ntf    sn216757   7.047   5.002   6.232 -0.1654  0.1511  0.1599
 2522ntf    nn316758   7.086   4.879   6.322 -0.2814  0.3890  0.5390
 2522ntf    sn216759   7.217   4.871   6.407  0.0023 -0.2626  0.0543
 2522ntf    cn116760   7.167   4.758   6.540  0.0338  0.0415  0.3274
 2522ntf    fn416761   6.873   5.186   6.310  0.5501  0.0900  0.2277
 2522ntf    fn416762   6.812   4.972   6.328 -0.1558 -0.1272 -0.3065
 2522ntf    fn416763   6.951   5.065   6.462  0.4284  0.2088  0.0713
 2522ntf    on516764   6.989   4.949   6.111 -0.2928 -0.1331  0.3444
 2522ntf    on516765   7.142   5.110   6.223  0.2775 -0.2680 -0.2916
 2522ntf    on516766   7.270   4.985   6.479 -0.2630 -0.1057  0.0021
 2522ntf    on516767   7.320   4.791   6.346  0.1942 -0.0249  0.0613
 2522ntf    fn416768   7.257   4.754   6.637  0.2977 -0.6200  0.0616
 2522ntf    fn416769   7.055   4.805   6.594  0.2675 -0.4012  1.2033
 2522ntf    fn416770   7.146   4.638   6.489 -0.4019  0.2915 -0.0948
 2523ntf    cn116771   1.632   1.276   5.380 -0.0615 -0.1389  0.0608
 2523ntf    sn216772   1.760   1.406   5.378 -0.2662  0.0634  0.0471
 2523ntf    nn316773   1.705   1.493   5.496  0.3887  0.6743 -0.0914
 2523ntf    sn216774   1.742   1.487   5.649 -0.1013  0.0848  0.0084
 2523ntf    cn116775   1.866   1.619   5.666 -0.0405  0.0400 -0.0859
 2523ntf    fn416776   1.512   1.326   5.357  0.0998  0.3595  0.2870
 2523ntf    fn416777   1.655   1.190   5.282 -0.6272  0.2115 -0.3806
 2523ntf    fn416778   1.633   1.207   5.493 -0.2722  0.0088  0.1529
 2523ntf    on516779   1.883   1.334   5.400 -0.5309 -0.2715  0.4410
 2523ntf    on516780   1.735   1.467   5.250 -0.1288 -0.1320 -0.0744
 2523ntf    on516781   1.813   1.367   5.685  0.4367  0.3735 -0.0792
 2523ntf    on516782   1.638   1.539   5.734  0.1998 -0.1597  0.5327
 2523ntf    fn416783   1.919   1.607   5.787 -0.2901  0.0727  0.0284
 2523ntf    fn416784   1.963   1.608   5.577 -0.1566  0.4697 -0.2655
 2523ntf    fn416785   1.803   1.734   5.656  0.1246  0.0487 -1.0941
 2524ntf    cn116786   6.856   1.308   0.858  0.1862 -0.2138  0.1482
 2524ntf    sn216787   6.909   1.357   1.024  0.0534  0.3693  0.0196
 2524ntf    nn316788   6.843   1.498   1.048  0.3323  0.4730  0.1816
 2524ntf    sn216789   6.901   1.641   1.019  0.5059  0.3778  0.0524
 2524ntf    cn116790   6.974   1.680   1.181 -0.1689  0.6337  0.3016
 2524ntf    fn416791   6.857   1.411   0.775 -0.0213 -0.7601 -0.5398
 2524ntf    fn416792   6.942   1.216   0.816 -0.0664 -0.2546 -0.2920
 2524ntf    fn416793   6.736   1.252   0.858  0.0515  0.0593 -0.7800
 2524ntf    on516794   6.853   1.253   1.106 -0.3481  0.4656 -0.1277
 2524ntf    on516795   7.051   1.356   0.998 -0.0421 -0.7795 -0.4818
 2524ntf    on516796   6.795   1.736   0.992 -0.2505 -0.4216  0.1615
 2524ntf    on516797   7.004   1.643   0.919  0.1795  0.2705 -0.2861
 2524ntf    fn416798   6.884   1.676   1.277 -0.7615  0.0665 -0.2702
 2524ntf    fn416799   7.065   1.593   1.222 -0.5302  0.0805 -0.0642
 2524ntf    fn416800   7.018   1.805   1.174 -1.0471  0.9151 -0.4549
 2525ntf    cn116801   4.280   5.147   5.424 -0.3345 -0.1150  0.1039
 2525ntf    sn216802   4.343   5.131   5.594 -0.4350  0.0592  0.1580
 2525ntf    nn316803   4.402   5.276   5.609 -0.0446 -0.0719 -0.1111
 2525ntf    sn216804   4.379   5.371   5.731  0.0247  0.0353 -0.1812
 2525ntf    cn116805   4.507   5.311   5.845 -0.0066  0.3845  0.0398
 2525ntf    fn416806   4.185   5.238   5.418  0.2563  0.4845 -0.2764
 2525ntf    fn416807   4.369   5.183   5.334 -0.3341  0.4157  0.3099
 2525ntf    fn416808   4.221   5.035   5.387 -0.4451  0.0202 -0.1311
 2525ntf    on516809   4.232   5.088   5.676 -0.4605  0.0432  0.1150
 2525ntf    on516810   4.453   5.040   5.572 -0.7529 -0.1440 -0.6293
 2525ntf    on516811   4.249   5.359   5.794  0.1808  0.2129  0.1804
 2525ntf    on516812   4.419   5.507   5.706 -0.4673  0.2459  0.1473
 2525ntf    fn416813   4.463   5.198   5.899  0.5829 -0.0806 -0.4439
 2525ntf    fn416814   4.627   5.281   5.797 -0.2816 -0.8766  0.1033
 2525ntf    fn416815   4.524   5.393   5.948 -0.0139 -0.1136  0.4453
 2526ntf    cn116816   3.466   1.421   6.771  0.1201  0.2520 -0.1319
 2526ntf    sn216817   3.446   1.531   6.915 -0.0015 -0.1582  0.1661
 2526ntf    nn316818   3.431   1.666   6.837 -1.0119 -0.3611 -0.0128
 2526ntf    sn216819   3.329   1.782   6.864 -0.5593  0.0263  0.0566
 2526ntf    cn116820   3.315   1.798   7.044 -0.1918  0.1885  0.0723
 2526ntf    fn416821   3.477   1.293   6.805  0.3976  0.3141  0.0197
 2526ntf    fn416822   3.354   1.434   6.702 -0.5340 -0.7101  0.7092
 2526ntf    fn416823   3.569   1.451   6.693  0.1268  0.0062 -0.2178
 2526ntf    on516824   3.322   1.486   6.974 -0.2528  0.4504  0.1140
 2526ntf    on516825   3.571   1.509   6.983  0.2218 -0.3129 -0.2934
 2526ntf    on516826   3.196   1.746   6.822 -0.8494  0.5670  0.4991
 2526ntf    on516827   3.380   1.909   6.816 -0.2536  0.1047  0.5878
 2526ntf    fn416828   3.438   1.813   7.090  0.2177 -0.3743 -0.8150
 2526ntf    fn416829   3.253   1.908   7.085 -0.3243  0.1670 -0.0705
 2526ntf    fn416830   3.269   1.693   7.110  0.0597  0.0586  0.0410
 2527ntf    cn116831   3.324   1.480   0.892 -0.5722  0.1289  0.1382
 2527ntf    sn216832   3.399   1.486   1.058 -0.8281 -0.1849  0.2686
 2527ntf    nn316833   3.442   1.636   1.071 -0.4256 -0.2915  0.1730
 2527ntf    sn216834   3.458   1.709   1.209 -0.2123  0.1803 -0.0962
 2527ntf    cn116835   3.638   1.684   1.219 -0.2041  0.2114 -0.1666
 2527ntf    fn416836   3.205   1.538   0.885 -0.3224  0.5985 -0.1769
 2527ntf    fn416837   3.396   1.540   0.800 -0.3520 -0.2933  0.0307
 2527ntf    fn416838   3.309   1.357   0.846 -0.3002 -0.0556  0.5294
 2527ntf    on516839   3.288   1.452   1.144 -0.7629 -0.5666  0.2033
 2527ntf    on516840   3.513   1.399   1.046 -0.3802  0.3855  0.3301
 2527ntf    on516841   3.399   1.647   1.325  0.2359  0.1519  0.1204
 2527ntf    on516842   3.445   1.852   1.192 -0.0767  0.1874 -0.1396
 2527ntf    fn416843   3.704   1.747   1.123  0.3279  0.1897  0.1826
 2527ntf    fn416844   3.679   1.728   1.337 -0.1646  0.5633 -0.3097
 2527ntf    fn416845   3.670   1.556   1.219 -0.0649  0.2453  0.0117
 2528ntf    cn116846   0.630   4.564   0.534  0.5056 -0.1098  0.0056
 2528ntf    sn216847   0.610   4.606   0.358 -0.0483 -0.0964  0.0682
 2528ntf    nn316848   0.737   4.540   0.292  0.1694 -0.2720  0.6573
 2528ntf    sn216849   0.745   4.388   0.254 -0.1732 -0.1088 -0.0785
 2528ntf    cn116850   0.650   4.364   0.101 -0.1487 -0.0874 -0.0972
 2528ntf    fn416851   0.543   4.631   0.607  0.7029 -0.3555  0.4720
 2528ntf    fn416852   0.609   4.434   0.546 -0.4037  0.0045 -0.2737
 2528ntf    fn416853   0.750   4.587   0.585  0.5228 -0.0090 -0.0787
 2528ntf    on516854   0.483   4.557   0.311 -0.0127 -0.0316 -0.0948
 2528ntf    on516855   0.626   4.748   0.374  0.1763 -0.1124 -0.0095
 2528ntf    on516856   0.685   4.298   0.350 -0.2362  0.2903  0.2594
 2528ntf    on516857   0.883   4.360   0.222  0.1002  0.9582  0.1046
 2528ntf    fn416858   0.706   4.428   0.000  0.0551  0.3222  0.2750
 2528ntf    fn416859   0.642   4.235   0.072  0.1411 -0.0415 -0.3720
 2528ntf    fn416860   0.527   4.413   0.108 -0.2309 -0.1506 -0.9887
 2529ntf    cn116861   6.347   3.523   3.660  0.1613 -0.0473 -0.2630
 2529ntf    sn216862   6.498   3.508   3.760 -0.0273  0.0444  0.0399
 2529ntf    nn316863   6.566   3.379   3.701 -0.2975  0.0634 -0.3165
 2529ntf    sn216864   6.693   3.299   3.747 -0.3784  0.0549 -0.1076
 2529ntf    cn116865   6.788   3.287   3.592 -0.0560  0.2571  0.0730
 2529ntf    fn416866   6.289   3.407   3.633 -0.0788 -0.1376  0.5969
 2529ntf    fn416867   6.255   3.602   3.714  0.3138 -0.0551  0.0110
 2529ntf    fn416868   6.379   3.582   3.546  0.3887  0.1509 -0.0988
 2529ntf    on516869   6.567   3.631   3.730 -0.0275 -0.0899 -0.5400
 2529ntf    on516870   6.454   3.492   3.896 -0.5745  0.4849 -0.0834
 2529ntf    on516871   6.663   3.161   3.773  0.1780 -0.1375 -0.4554
 2529ntf    on516872   6.787   3.373   3.828 -0.1015 -0.1455 -0.2470
 2529ntf    fn416873   6.897   3.216   3.617 -0.2774 -0.2252 -0.3215
 2529ntf    fn416874   6.711   3.225   3.505 -0.5891  0.5832  0.3088
 2529ntf    fn416875   6.827   3.401   3.537 -0.4199  0.0992 -0.5146
 2530ntf    cn116876   6.302   0.869   0.792 -0.0594  0.1042 -0.6203
 2530ntf    sn216877   6.125   0.897   0.759 -0.2044 -0.1032 -0.0262
 2530ntf    nn316878   6.113   1.014   0.864 -0.5624 -0.1105 -0.0590
 2530ntf    sn216879   6.017   1.138   0.854  0.1389  0.4211 -0.3155
 2530ntf    cn116880   6.121   1.249   0.755  0.2534  0.2384 -0.4015
 2530ntf    fn416881   6.385   0.954   0.733  0.1671  0.3858  0.0962
 2530ntf    fn416882   6.329   0.859   0.921 -0.6100  0.1238 -0.4997
 2530ntf    fn416883   6.336   0.752   0.741  0.2690 -0.2186  0.3193
 2530ntf    on516884   6.136   0.943   0.623 -0.7820  0.9407  0.2666
 2530ntf    on516885   6.057   0.777   0.801  0.0073 -0.1755  0.1169
 2530ntf    on516886   6.003   1.202   0.982 -0.6969 -0.4602  0.0506
 2530ntf    on516887   5.895   1.115   0.780  0.1723 -0.6124 -0.0685
 2530ntf    fn416888   6.069   1.370   0.741  0.1237  0.2614  0.2502
 2530ntf    fn416889   6.242   1.261   0.807 -0.0175  0.1234  0.2602
 2530ntf    fn416890   6.127   1.210   0.628  0.2237 -0.3684 -0.2196
 2531ntf    cn116891   1.553   0.813   3.741 -0.1330 -0.1820 -0.2973
 2531ntf    sn216892   1.658   0.742   3.871 -0.2207 -0.2279 -0.2514
 2531ntf    nn316893   1.623   0.589   3.856  0.0860 -0.2915 -0.3300
 2531ntf    sn216894   1.619   0.483   3.972 -0.1952  0.0653 -0.0087
 2531ntf    cn116895   1.783   0.406   3.961 -0.3519 -0.3251  0.3768
 2531ntf    fn416896   1.556   0.753   3.623 -0.0278 -0.1732 -0.2991
 2531ntf    fn416897   1.424   0.818   3.770 -0.0221  0.6900  0.0862
 2531ntf    fn416898   1.589   0.939   3.725  1.0232 -0.3868  0.5795
 2531ntf    on516899   1.793   0.768   3.828  0.0339 -0.4331  0.4154
 2531ntf    on516900   1.621   0.813   3.991  0.3543 -0.2269 -0.0709
 2531ntf    on516901   1.530   0.376   3.936 -0.3580  0.0455  0.4502
 2531ntf    on516902   1.611   0.537   4.105 -0.1770 -0.0985  0.0591
 2531ntf    fn416903   1.826   0.400   3.836 -0.1529  0.3525  0.4117
 2531ntf    fn416904   1.876   0.467   4.033 -0.1249 -0.2456  0.0195
 2531ntf    fn416905   1.782   0.281   4.005 -0.8764 -0.4796 -0.0636
 2532ntf    cn116906   5.885   6.922   0.276  0.0764 -0.1022  0.4838
 2532ntf    sn216907   5.790   6.770   0.310  0.0011 -0.2026 -0.1652
 2532ntf    nn316908   5.880   6.706   0.421 -0.1709 -0.2016 -0.0244
 2532ntf    sn216909   5.884   6.558   0.473 -0.2907 -0.2749 -0.2218
 2532ntf    cn116910   5.805   6.587   0.634  0.3527 -0.2435  0.0936
 2532ntf    fn416911   5.822   6.998   0.188 -0.2726 -0.5011  0.3822
 2532ntf    fn416912   5.908   6.995   0.383  0.2554  0.0043  0.3727
 2532ntf    fn416913   6.005   6.904   0.223 -0.0642  0.0760  0.1039
 2532ntf    on516914   5.662   6.815   0.360  0.0685  0.2256 -0.3734
 2532ntf    on516915   5.785   6.707   0.180  0.2261  0.4062 -0.4762
 2532ntf    on516916   6.014   6.507   0.512 -0.1499  0.3339  0.1138
 2532ntf    on516917   5.797   6.468   0.402  0.3056 -0.8973 -0.1726
 2532ntf    fn416918   5.865   6.677   0.710  0.3808 -0.5081  0.3886
 2532ntf    fn416919   5.678   6.626   0.630  0.4282  0.0500  0.5233
 2532ntf    fn416920   5.802   6.469   0.694  0.7348 -0.0022  0.5875
 2533ntf    cn116921   3.553   0.818   4.269  0.0845 -0.2077  0.2340
 2533ntf    sn216922   3.501   0.834   4.095  0.5246 -0.1243  0.1083
 2533ntf    nn316923   3.635   0.807   4.018  0.3348  0.2441 -0.3574
 2533ntf    sn216924   3.677   0.687   3.925 -0.0693 -0.2315  0.0670
 2533ntf    cn116925   3.819   0.747   3.829  0.1646 -0.1825  0.4406
 2533ntf    fn416926   3.641   0.906   4.313  0.5522 -0.4556 -0.1980
 2533ntf    fn416927   3.446   0.838   4.345 -0.0489 -0.1816  0.0416
 2533ntf    fn416928   3.601   0.699   4.300  0.1649 -0.1596  0.2949
 2533ntf    on516929   3.386   0.749   4.074  0.4271 -0.0735  0.4269
 2533ntf    on516930   3.471   0.975   4.093 -0.3952 -0.3182 -0.1153
 2533ntf    on516931   3.577   0.647   3.829 -0.4770  0.6476  0.1056
 2533ntf    on516932   3.732   0.580   4.005 -0.2117 -0.6175 -0.3505
 2533ntf    fn416933   3.917   0.787   3.908  0.3759  0.0752  0.0553
 2533ntf    fn416934   3.864   0.653   3.748 -0.5537  0.2177 -0.4507
 2533ntf    fn416935   3.790   0.847   3.747 -0.3564 -0.0741  0.7490
 2534ntf    cn116936   6.236   0.577   0.208 -0.1333  0.0004 -0.4327
 2534ntf    sn216937   6.253   0.631   0.035 -0.3388 -0.0210 -0.4597
 2534ntf    nn316938   6.334   0.759   0.075 -0.2039 -0.2002 -0.1519
 2534ntf    sn216939   6.329   0.904   0.016 -0.2324 -0.1245  0.0345
 2534ntf    cn116940   6.198   0.974   0.120 -0.2018  0.2623 -0.1851
 2534ntf    fn416941   6.172   0.461   0.217 -0.1195  0.0108 -0.1944
 2534ntf    fn416942   6.358   0.561   0.258 -0.2248  0.7547  0.0445
 2534ntf    fn416943   6.171   0.664   0.283 -0.1263  0.3555 -0.8392
 2534ntf    on516944   6.327   0.518  -0.017  0.2784  0.0549  0.2242
 2534ntf    on516945   6.115   0.640  -0.006 -0.5075 -0.8129 -0.0959
 2534ntf    on516946   6.280   0.917  -0.119 -0.0535  0.3299  0.0114
 2534ntf    on516947   6.444   0.987   0.044  0.2647 -0.5160 -0.8051
 2534ntf    fn416948   6.182   1.104   0.097 -0.6258  0.1990 -0.2628
 2534ntf    fn416949   6.091   0.903   0.088 -0.2030  0.3695 -0.4239
 2534ntf    fn416950   6.223   0.958   0.249  0.1470  0.2926 -0.2477
 2535ntf    cn116951   4.162   4.655   5.711 -0.7492  0.2346  0.1331
 2535ntf    sn216952   4.233   4.594   5.867 -0.0298 -0.1511 -0.3352
 2535ntf    nn316953   4.149   4.462   5.878  0.1252 -0.1841  0.4866
 2535ntf    sn216954   4.022   4.436   5.967 -0.0449 -0.3940  0.1841
 2535ntf    cn116955   4.099   4.352   6.108  0.3101 -0.0202  0.2155
 2535ntf    fn416956   4.219   4.763   5.659 -0.8749  0.0315 -0.4401
 2535ntf    fn416957   4.159   4.559   5.620  0.3834  0.2843  0.0251
 2535ntf    fn416958   4.035   4.686   5.729 -0.7497  0.2924  0.0330
 2535ntf    on516959   4.373   4.573   5.843 -0.0029  0.3454 -0.6213
 2535ntf    on516960   4.197   4.704   5.953 -0.3006 -0.5049  0.0073
 2535ntf    on516961   3.946   4.327   5.910 -0.0888 -0.2986  0.0587
 2535ntf    on516962   3.955   4.547   6.031 -0.1029 -0.2594 -0.1086
 2535ntf    fn416963   4.162   4.437   6.187 -0.0127  0.6745 -0.2679
 2535ntf    fn416964   4.013   4.297   6.193  0.1414 -0.5829 -0.3137
 2535ntf    fn416965   4.183   4.254   6.079  0.1848 -0.0063 -0.1882
 2536ntf    cn116966   1.667   3.083   1.932 -0.0727  0.0602 -0.2976
 2536ntf    sn216967   1.762   3.210   2.021 -0.1861  0.0404 -0.1470
 2536ntf    nn316968   1.676   3.335   1.980 -0.6622 -0.2503 -0.0382
 2536ntf    sn216969   1.617   3.453   2.065  0.2742 -0.0133  0.2900
 2536ntf    cn116970   1.441   3.423   2.031  0.2843 -0.2378  0.4298
 2536ntf    fn416971   1.541   3.123   1.923 -0.1293 -0.0252  0.0849
 2536ntf    fn416972   1.706   3.062   1.808 -0.5315 -0.2463 -0.3922
 2536ntf    fn416973   1.676   2.968   1.997 -0.3310  0.1120 -0.1683
 2536ntf    on516974   1.760   3.161   2.156 -0.2479 -0.2614 -0.2563
 2536ntf    on516975   1.893   3.197   1.961 -0.0985 -0.0707  0.0683
 2536ntf    on516976   1.638   3.587   2.018  0.2832 -0.1379 -0.0608
 2536ntf    on516977   1.627   3.431   2.208  0.1083  0.7963  0.4308
 2536ntf    fn416978   1.406   3.435   1.904  0.4792 -0.5540  0.3460
 2536ntf    fn416979   1.399   3.303   2.065  0.0101 -0.2941 -0.1003
 2536ntf    fn416980   1.375   3.502   2.114  0.3920  0.3335 -0.0225
 2537ntf    cn116981   2.936   6.175   2.861 -0.1095  0.0097 -0.2323
 2537ntf    sn216982   3.010   6.085   3.001  0.0152  0.0631 -0.2635
 2537ntf    nn316983   3.152   6.054   2.941  0.1372  0.1455 -0.0198
 2537ntf    sn216984   3.235   5.921   2.948  0.2018  0.2026  0.2654
 2537ntf    cn116985   3.289   5.922   3.122  0.3393 -0.0320  0.2250
 2537ntf    fn416986   2.941   6.108   2.747  0.0222  0.4255 -0.4738
 2537ntf    fn416987   2.807   6.184   2.888 -0.0492  0.1271  0.0183
 2537ntf    fn416988   2.984   6.297   2.845  0.2074 -0.0617  0.1459
 2537ntf    on516989   2.997   6.194   3.094 -0.3897 -0.1262 -0.0955
 2537ntf    on516990   2.920   5.972   2.999  0.0038  0.0719 -0.2201
 2537ntf    on516991   3.365   5.940   2.888  0.0293 -0.0530 -0.1893
 2537ntf    on516992   3.164   5.797   2.935 -0.3694  0.5771 -0.1929
 2537ntf    fn416993   3.204   5.966   3.214  0.4797 -0.5664  0.6148
 2537ntf    fn416994   3.331   5.805   3.167  0.0764 -0.2189 -0.0079
 2537ntf    fn416995   3.396   5.996   3.144  0.3932 -0.1192  0.2525
 2538ntf    cn116996   3.464   3.255   5.900  0.2467 -0.2014  0.1175
 2538ntf    sn216997   3.451   3.074   5.899  0.3386 -0.2075  0.0063
 2538ntf    nn316998   3.579   3.031   5.979 -0.0534 -0.6892  0.3809
 2538ntf    sn216999   3.726   3.001   5.936 -0.0688 -0.2312 -0.0019
 2538ntf    cn117000   3.717   2.825   5.890 -0.1958 -0.1199 -0.4123
 2538ntf    fn417001   3.435   3.315   6.014  0.5644  0.1501  0.0154
 2538ntf    fn417002   3.588   3.297   5.878  0.1518 -0.0821 -0.1946
 2538ntf    fn417003   3.390   3.319   5.810 -0.1134 -0.1557  0.4448
 2538ntf    on517004   3.331   3.036   5.970  0.0671  0.8452  0.1261
 2538ntf    on517005   3.455   3.038   5.759 -0.4573  0.2149 -0.1315
 2538ntf    on517006   3.816   3.012   6.048  0.1542 -0.2432 -0.1770
 2538ntf    on517007   3.772   3.062   5.814  0.0397  0.2164  0.2614
 2538ntf    fn417008   3.826   2.787   5.825  0.1542 -0.7296  0.4992
 2538ntf    fn417009   3.706   2.740   5.991 -0.4632 -0.4185 -0.6907
 2538ntf    fn417010   3.613   2.807   5.811 -0.4005 -0.4360 -0.0753
 2539ntf    cn117011   4.986   4.699   1.863 -0.2458  0.1721 -0.7919
 2539ntf    sn217012   5.023   4.872   1.906 -0.3597  0.0087 -0.0306
 2539ntf    nn317013   5.111   4.912   1.782 -0.1061  0.2093  0.2122
 2539ntf    sn217014   5.057   4.979   1.651 -0.1318 -0.2659 -0.0194
 2539ntf    cn117015   5.137   5.140   1.672  0.1452 -0.4293  0.1795
 2539ntf    fn417016   4.901   4.638   1.943 -0.0719  0.2385 -0.5533
 2539ntf    fn417017   4.945   4.680   1.739 -0.1284  0.4061 -0.8690
 2539ntf    fn417018   5.092   4.620   1.875 -0.1405  0.5017  0.6489
 2539ntf    on517019   4.891   4.925   1.926 -0.5159 -0.5814  0.5251
 2539ntf    on517020   5.104   4.866   2.025 -0.3080 -0.4974 -0.0908
 2539ntf    on517021   4.917   5.016   1.645 -0.1611 -0.3103  0.3943
 2539ntf    on517022   5.115   4.930   1.528  0.1188  0.4361 -0.1848
 2539ntf    fn417023   5.082   5.206   1.773 -0.0875 -0.1441 -0.1276
 2539ntf    fn417024   5.265   5.112   1.687  0.2487 -0.2922 -0.4103
 2539ntf    fn417025   5.117   5.219   1.568 -0.1787 -0.4060  0.2591
 2540ntf    cn117026   2.061   5.950   5.275 -0.2242 -0.0012 -0.1659
 2540ntf    sn217027   1.970   6.028   5.412 -0.0949  0.0208 -0.0919
 2540ntf    nn317028   2.055   5.983   5.535  0.2010  0.6291 -0.0730
 2540ntf    sn217029   2.046   5.860   5.633 -0.2900  0.7473  0.0297
 2540ntf    cn117030   2.220   5.807   5.623 -0.3763  0.4171  0.2719
 2540ntf    fn417031   2.188   5.984   5.262 -0.3402  0.5461  0.0897
 2540ntf    fn417032   2.071   5.819   5.261 -0.1397 -0.0206  0.0628
 2540ntf    fn417033   1.996   5.984   5.165 -0.0553 -0.5024 -0.4252
 2540ntf    on517034   1.989   6.168   5.382  0.7952 -0.0959 -0.1005
 2540ntf    on517035   1.836   5.974   5.403 -0.1254  0.0732  0.0464
 2540ntf    on517036   1.976   5.745   5.580 -0.2362  0.3263  0.8575
 2540ntf    on517037   2.027   5.888   5.773 -0.6190 -0.4613  0.2363
 2540ntf    fn417038   2.250   5.775   5.498  0.5996  0.2001  0.5554
 2540ntf    fn417039   2.311   5.891   5.669  0.0319 -0.2352  0.6725
 2540ntf    fn417040   2.230   5.696   5.693 -0.1376  0.4588  0.3044
 2541ntf    cn117041   1.409   6.249   4.716 -0.1673  0.0341 -0.3578
 2541ntf    sn217042   1.544   6.302   4.606  0.0181 -0.1072 -0.1971
 2541ntf    nn317043   1.478   6.422   4.531 -0.1297 -0.1931 -0.2052
 2541ntf    sn217044   1.468   6.573   4.572  0.0140 -0.2012 -0.1406
 2541ntf    cn117045   1.615   6.641   4.489  0.0773 -0.2011 -0.0289
 2541ntf    fn417046   1.439   6.139   4.782 -0.6376 -0.0536 -0.2885
 2541ntf    fn417047   1.379   6.342   4.805  0.3356  0.0162 -0.1657
 2541ntf    fn417048   1.296   6.224   4.651 -0.1963 -0.5481 -0.0879
 2541ntf    on517049   1.648   6.342   4.697 -0.2800 -0.4317  0.2927
 2541ntf    on517050   1.581   6.189   4.524 -0.0682 -0.3419  0.0865
 2541ntf    on517051   1.484   6.602   4.713  0.1821  0.0940 -0.2183
 2541ntf    on517052   1.363   6.642   4.502  0.2902 -0.8145 -1.1703
 2541ntf    fn417053   1.624   6.772   4.475  0.0883 -0.2804 -0.8037
 2541ntf    fn417054   1.727   6.605   4.551 -0.1909 -0.0230  0.5668
 2541ntf    fn417055   1.615   6.597   4.364  0.5351 -0.2273 -0.0236
 2542ntf    cn117056   6.737   2.369   0.380 -0.1045 -0.1333 -0.3693
 2542ntf    sn217057   6.732   2.400   0.559  0.1050 -0.2935 -0.3354
 2542ntf    nn317058   6.657   2.277   0.621  0.2794 -0.1441  0.1745
 2542ntf    sn217059   6.628   2.252   0.774 -0.2242  0.0787  0.1153
 2542ntf    cn117060   6.456   2.311   0.783 -0.1593  0.2567  0.2030
 2542ntf    fn417061   6.625   2.392   0.314 -0.1860  0.3205 -0.0730
 2542ntf    fn417062   6.829   2.440   0.316  0.0943  0.2567  0.3405
 2542ntf    fn417063   6.757   2.241   0.355 -0.0237 -0.2713  0.3774
 2542ntf    on517064   6.872   2.408   0.594 -0.0900 -0.2845  0.4533
 2542ntf    on517065   6.659   2.524   0.555  1.1214  0.3201 -0.3828
 2542ntf    on517066   6.709   2.328   0.866  0.1299  0.0356 -0.1593
 2542ntf    on517067   6.629   2.112   0.808  0.0848 -0.0759 -0.5194
 2542ntf    fn417068   6.404   2.282   0.901 -0.3866 -0.3760 -0.0461
 2542ntf    fn417069   6.464   2.443   0.777  0.3067  0.2438  0.4425
 2542ntf    fn417070   6.385   2.264   0.682 -0.1977 -0.1162  0.4019
 2543ntf    cn117071   2.933   3.060   3.953 -0.0418  0.5889  0.3377
 2543ntf    sn217072   2.976   3.010   4.123 -0.0061  0.1488  0.2001
 2543ntf    nn317073   2.835   3.026   4.191 -0.3089  0.0228 -0.3872
 2543ntf    sn217074   2.775   3.154   4.259  0.2464  0.1685 -0.1649
 2543ntf    cn117075   2.782   3.104   4.434 -0.3240  0.1790 -0.1383
 2543ntf    fn417076   3.031   3.050   3.865 -0.6666  0.0045 -0.3027
 2543ntf    fn417077   2.826   2.998   3.908  0.3427 -0.1108  0.3726
 2543ntf    fn417078   2.894   3.186   3.942 -0.2426  0.4783 -0.2720
 2543ntf    on517079   3.005   2.869   4.113  0.1615  0.2052 -0.1397
 2543ntf    on517080   3.075   3.107   4.160  0.4034 -0.0654 -0.3080
 2543ntf    on517081   2.632   3.155   4.242  0.2616 -0.1707 -0.3163
 2543ntf    on517082   2.838   3.283   4.245  0.4587  0.1023  0.1802
 2543ntf    fn417083   2.908   3.102   4.472 -0.1904  0.1174 -0.5784
 2543ntf    fn417084   2.719   3.195   4.506 -0.2237  0.0543  0.1043
 2543ntf    fn417085   2.730   2.985   4.456  0.1398  0.0704  0.3752
 2544ntf    cn117086   6.051   1.586   0.482  0.1609 -0.3169  0.2839
 2544ntf    sn217087   5.885   1.651   0.514  0.2295  0.1391 -0.2662
 2544ntf    nn317088   5.886   1.596   0.661 -0.1254 -0.0356 -0.3262
 2544ntf    sn217089   5.859   1.664   0.800  0.0824  0.2141 -0.4068
 2544ntf    cn117090   5.813   1.506   0.877 -0.1404  0.4446 -0.0688
 2544ntf    fn417091   6.053   1.457   0.454 -0.1845 -0.2681  0.0342
 2544ntf    fn417092   6.093   1.642   0.369  0.1434  0.0387  0.4523
 2544ntf    fn417093   6.139   1.614   0.577 -0.3680 -0.0989  0.7130
 2544ntf    on517094   5.901   1.792   0.492 -0.1440  0.2500  0.1528
 2544ntf    on517095   5.793   1.573   0.434 -0.3149  0.1273  0.3636
 2544ntf    on517096   5.739   1.745   0.805 -0.1587 -0.1742  0.2339
 2544ntf    on517097   5.973   1.709   0.875  0.0859  0.1401 -0.3687
 2544ntf    fn417098   5.918   1.433   0.910 -0.0953  0.4745 -0.1480
 2544ntf    fn417099   5.741   1.516   0.988  0.1267  0.3077  0.1168
 2544ntf    fn417100   5.734   1.431   0.802  0.3743  0.1966 -0.3594
 2545ntf    cn117101   0.493   6.830   5.674  0.0085 -0.0575 -0.0152
 2545ntf    sn217102   0.364   6.915   5.579  0.0073 -0.0675 -0.0218
 2545ntf    nn317103   0.435   7.041   5.518 -0.4854  0.0442 -0.3722
 2545ntf    sn217104   0.410   7.194   5.544 -0.4474  0.0437 -0.3337
 2545ntf    cn117105   0.567   7.250   5.473 -0.2830  0.1145  0.0814
 2545ntf    fn417106   0.546   6.901   5.772 -0.4557  0.2833 -0.0080
 2545ntf    fn417107   0.436   6.727   5.734  0.5216 -0.5995 -0.4423
 2545ntf    fn417108   0.590   6.782   5.598  0.4999  0.7545  0.0919
 2545ntf    on517109   0.332   6.831   5.466 -0.2434  0.3722 -0.2831
 2545ntf    on517110   0.269   6.954   5.681  0.0997  0.3130 -0.0792
 2545ntf    on517111   0.424   7.249   5.676  0.0842 -0.0167 -0.3632
 2545ntf    on517112   0.311   7.247   5.454 -0.1525  0.2526 -0.5378
 2545ntf    fn417113   0.575   7.209   5.347 -0.5006  0.6636 -0.1122
 2545ntf    fn417114   0.587   7.381   5.474  0.1330  0.0612 -0.5430
 2545ntf    fn417115   0.673   7.201   5.535 -0.1890 -0.4588 -0.5179
 2546ntf    cn117116   1.449   5.412   2.227  0.3955 -0.3219 -0.1146
 2546ntf    sn217117   1.389   5.296   2.354 -0.1353 -0.1420 -0.2023
 2546ntf    nn317118   1.285   5.207   2.277 -0.6446 -0.3045  0.6648
 2546ntf    sn217119   1.322   5.069   2.212 -0.2222  0.1354 -0.0396
 2546ntf    cn117120   1.294   4.968   2.361  0.0431  0.1956  0.0509
 2546ntf    fn417121   1.354   5.484   2.171  0.5136 -0.5093 -0.5669
 2546ntf    fn417122   1.532   5.497   2.286 -0.6590  0.6250  0.0270
 2546ntf    fn417123   1.505   5.357   2.120  0.6798  0.4018 -0.3442
 2546ntf    on517124   1.509   5.232   2.401 -0.0115  0.0294 -0.2813
 2546ntf    on517125   1.308   5.376   2.443 -0.1150 -0.3538  0.0045
 2546ntf    on517126   1.460   5.057   2.174 -0.3028  0.5982 -0.4909
 2546ntf    on517127   1.223   5.027   2.116  0.1365 -0.1292 -0.2959
 2546ntf    fn417128   1.315   4.839   2.343  0.1586  0.2029  0.1353
 2546ntf    fn417129   1.371   5.012   2.459  0.2718  0.2252 -0.1419
 2546ntf    fn417130   1.168   4.973   2.401  0.0095  0.2168 -0.0565
 2547ntf    cn117131   3.392   4.976   4.719  0.9240  0.1668  0.0063
 2547ntf    sn217132   3.506   4.878   4.617  0.1968 -0.3653 -0.3010
 2547ntf    nn317133   3.615   4.850   4.727 -0.2332 -0.2803  0.1480
 2547ntf    sn217134   3.737   4.752   4.720  0.0961  0.0964  0.5592
 2547ntf    cn117135   3.668   4.603   4.798 -0.0529 -0.1095  0.0360
 2547ntf    fn417136   3.444   5.092   4.758  0.0979  0.4941  0.1455
 2547ntf    fn417137   3.291   5.016   4.644  0.6712 -0.1203  0.1952
 2547ntf    fn417138   3.338   4.913   4.821 -0.2954  0.1580 -0.6235
 2547ntf    on517139   3.433   4.761   4.576  0.2524 -0.6094  0.2889
 2547ntf    on517140   3.550   4.968   4.512  0.0074 -0.1219 -0.1706
 2547ntf    on517141   3.843   4.791   4.810 -0.0685  0.0706  0.7638
 2547ntf    on517142   3.770   4.701   4.589  0.0088  0.7060  0.2975
 2547ntf    fn417143   3.747   4.500   4.776 -0.5677 -0.3896 -0.5388
 2547ntf    fn417144   3.649   4.619   4.928 -0.2649  0.4097 -0.0555
 2547ntf    fn417145   3.549   4.573   4.748 -0.1191  0.4648 -0.1645
 2548ntf    cn117146   6.137   4.160   6.441  0.2749  0.0745 -0.1514
 2548ntf    sn217147   6.053   4.073   6.305  0.0567  0.0648 -0.0098
 2548ntf    nn317148   6.130   3.942   6.266 -0.0413 -0.0026  0.0230
 2548ntf    sn217149   6.263   3.939   6.183  0.0303 -0.2724  0.1493
 2548ntf    cn117150   6.320   3.775   6.238 -0.0625 -0.4127 -0.1708
 2548ntf    fn417151   6.262   4.186   6.404  0.4419 -0.0243  0.3412
 2548ntf    fn417152   6.089   4.276   6.481  0.6356  0.3132 -0.4087
 2548ntf    fn417153   6.144   4.076   6.543 -0.3873 -0.3790 -0.4725
 2548ntf    on517154   5.931   4.035   6.372  0.0552 -0.4216 -0.2836
 2548ntf    on517155   6.046   4.168   6.196  0.0294 -0.2679 -0.2983
 2548ntf    on517156   6.365   4.033   6.224  0.1629 -0.2271 -0.2762
 2548ntf    on517157   6.230   3.940   6.043 -0.2799 -0.4473  0.2206
 2548ntf    fn417158   6.249   3.672   6.194 -0.0538 -0.4547 -0.0860
 2548ntf    fn417159   6.442   3.760   6.189  0.0898  0.3505 -0.0338
 2548ntf    fn417160   6.329   3.750   6.368 -0.4630 -0.1912 -0.0980
 2549ntf    cn117161   2.326   4.020   2.225  0.3988 -0.1895 -0.1114
 2549ntf    sn217162   2.495   3.975   2.273  0.2830 -0.0295  0.4664
 2549ntf    nn317163   2.542   3.961   2.124  0.0307 -0.4659  0.4272
 2549ntf    sn217164   2.608   3.840   2.048 -0.2172 -0.2143 -0.1998
 2549ntf    cn117165   2.653   3.931   1.897 -0.1332  0.0769  0.0006
 2549ntf    fn417166   2.248   4.044   2.330 -0.2518 -0.2961 -0.5659
 2549ntf    fn417167   2.323   4.122   2.142  0.5322  0.2127  0.3699
 2549ntf    fn417168   2.262   3.917   2.173  0.0671  0.2311 -0.5455
 2549ntf    on517169   2.544   4.094   2.338 -0.2105  0.4134  0.0339
 2549ntf    on517170   2.495   3.851   2.347 -0.2799 -0.3471 -0.0627
 2549ntf    on517171   2.525   3.735   1.993  0.1394 -0.4725 -0.2487
 2549ntf    on517172   2.740   3.807   2.095 -0.3479  0.3376  0.5751
 2549ntf    fn417173   2.757   3.874   1.838  0.2197  0.1957  0.5013
 2549ntf    fn417174   2.559   3.941   1.805  0.1571 -0.1448 -0.3233
 2549ntf    fn417175   2.697   4.051   1.929  0.6958 -0.4606  0.9694
 2550ntf    cn117176   4.575   5.556   3.891  0.2102  0.0629  0.2389
 2550ntf    sn217177   4.699   5.622   4.006 -0.2766  0.2204  0.6806
 2550ntf    nn317178   4.611   5.665   4.129 -0.4796  0.1117  0.5738
 2550ntf    sn217179   4.569   5.809   4.177 -0.0265  0.4070  0.1082
 2550ntf    cn117180   4.429   5.765   4.285 -0.0400  0.5355  0.1419
 2550ntf    fn417181   4.517   5.449   3.943  0.2471 -0.3786 -0.6246
 2550ntf    fn417182   4.484   5.648   3.862  0.3490  0.2224  0.3082
 2550ntf    fn417183   4.632   5.515   3.780 -0.2720  0.7567 -0.2770
 2550ntf    on517184   4.787   5.518   4.052 -0.4474 -0.1447  0.1850
 2550ntf    on517185   4.763   5.734   3.941 -0.0784  0.0058  0.5042
 2550ntf    on517186   4.505   5.898   4.084  0.4078  0.0240 -0.5649
 2550ntf    on517187   4.665   5.875   4.262  0.2394 -0.1933  0.2801
 2550ntf    fn417188   4.325   5.709   4.227 -0.0524  0.4668  0.2314
 2550ntf    fn417189   4.461   5.683   4.384  0.2042  0.4606  0.0036
 2550ntf    fn417190   4.375   5.878   4.327  0.3939  0.7137  0.2298
 2551ntf    cn117191   2.878   0.295   3.259 -0.2115  0.0212 -0.1827
 2551ntf    sn217192   2.729   0.223   3.183 -0.2353 -0.0652 -0.0544
 2551ntf    nn317193   2.727   0.079   3.246  0.1153 -0.0134  0.0823
 2551ntf    sn217194   2.783  -0.057   3.191 -0.4219 -0.0827 -0.3086
 2551ntf    cn117195   2.828  -0.131   3.350 -0.2811 -0.0213 -0.3188
 2551ntf    fn417196   2.913   0.414   3.211 -0.5089  0.2749  0.2228
 2551ntf    fn417197   2.868   0.295   3.391  0.2618 -0.5708 -0.1439
 2551ntf    fn417198   2.983   0.218   3.239  0.0174  0.3110 -0.0941
 2551ntf    on517199   2.627   0.304   3.245 -0.6346 -0.2385 -0.4845
 2551ntf    on517200   2.754   0.236   3.041  0.4345  0.1002  0.0720
 2551ntf    on517201   2.901  -0.048   3.108 -0.1148 -0.5447  0.0717
 2551ntf    on517202   2.680  -0.144   3.141 -0.2512 -0.3607 -0.1784
 2551ntf    fn417203   2.908  -0.055   3.423 -0.0758 -0.5004 -0.0424
 2551ntf    fn417204   2.720  -0.155   3.423 -0.2244 -0.4455 -0.3694
 2551ntf    fn417205   2.896  -0.244   3.340  0.2412  0.2599  0.0165
 2552ntf    cn117206   0.322   6.383   4.116 -0.2102 -0.2678 -0.0873
 2552ntf    sn217207   0.465   6.425   4.220 -0.1974 -0.0757 -0.1809
 2552ntf    nn317208   0.395   6.480   4.350  0.5449  0.0595  0.1652
 2552ntf    sn217209   0.376   6.408   4.488 -0.0738 -0.1346 -0.0200
 2552ntf    cn117210   0.541   6.440   4.557 -0.0935  0.4462 -0.2357
 2552ntf    fn417211   0.242   6.488   4.102 -0.3769 -0.4025 -0.1558
 2552ntf    fn417212   0.339   6.326   3.997  0.9540 -0.2113  0.0451
 2552ntf    fn417213   0.245   6.293   4.174 -0.0296 -0.2032  0.2498
 2552ntf    on517214   0.534   6.299   4.233  0.1320  0.1139 -0.1012
 2552ntf    on517215   0.541   6.527   4.152  0.3963 -0.5419 -0.2248
 2552ntf    on517216   0.357   6.265   4.484  0.9033 -0.2689 -0.1076
 2552ntf    on517217   0.292   6.482   4.578  0.3222  0.2908 -0.0006
 2552ntf    fn417218   0.636   6.389   4.480  0.0843  0.0799  0.2212
 2552ntf    fn417219   0.564   6.567   4.584 -0.2745  0.4136  0.0782
 2552ntf    fn417220   0.552   6.380   4.675 -0.2861  0.7432 -0.0664
 2553ntf    cn117221   3.284   3.201   3.403  0.4650 -0.0314 -0.3960
 2553ntf    sn217222   3.237   3.372   3.362  0.2203  0.0316  0.1473
 2553ntf    nn317223   3.162   3.349   3.227  0.0013  0.2128  0.2370
 2553ntf    sn217224   3.007   3.357   3.202  0.0750 -0.0774 -0.3479
 2553ntf    cn117225   2.989   3.534   3.163 -0.0314 -0.0284 -0.0779
 2553ntf    fn417226   3.192   3.139   3.474  0.2257  0.5414 -0.1980
 2553ntf    fn417227   3.300   3.137   3.288 -0.3397 -0.7739 -0.1034
 2553ntf    fn417228   3.398   3.188   3.469  0.0719  0.6114  0.4169
 2553ntf    on517229   3.166   3.412   3.481  0.5505  0.0719  0.3331
 2553ntf    on517230   3.359   3.448   3.347  0.1088  0.2784  0.4714
 2553ntf    on517231   2.923   3.326   3.315  0.0417  0.7387 -0.1388
 2553ntf    on517232   2.972   3.306   3.072  0.0982  0.6131 -0.6337
 2553ntf    fn417233   3.030   3.575   3.044  1.0278 -0.0356  0.2733
 2553ntf    fn417234   2.862   3.570   3.179 -0.0521 -0.0784 -0.1309
 2553ntf    fn417235   3.056   3.599   3.257  0.4112  0.0042 -0.4146
 2554ntf    cn117236   6.559   4.403   2.562  0.1591 -0.4083  0.0134
 2554ntf    sn217237   6.623   4.573   2.550 -0.2249 -0.2572  0.1082
 2554ntf    nn317238   6.768   4.537   2.502 -0.0886  0.4055  0.0162
 2554ntf    sn217239   6.904   4.601   2.547  0.2432 -0.0248 -0.3653
 2554ntf    cn117240   6.954   4.486   2.678  0.2411  0.2482 -0.1244
 2554ntf    fn417241   6.634   4.341   2.653 -0.2106 -0.0435  0.5725
 2554ntf    fn417242   6.432   4.391   2.595 -0.0327  0.1278 -0.5189
 2554ntf    fn417243   6.573   4.328   2.454  0.0965 -0.0670 -0.2311
 2554ntf    on517244   6.538   4.628   2.447  0.0952 -0.2822 -0.1715
 2554ntf    on517245   6.608   4.628   2.682 -0.0716 -0.0805  0.0512
 2554ntf    on517246   6.896   4.725   2.621 -0.1363 -0.4741  0.3544
 2554ntf    on517247   7.011   4.583   2.452  0.3391  0.2175 -0.3041
 2554ntf    fn417248   7.061   4.530   2.742  0.3365  0.2733 -0.3010
 2554ntf    fn417249   6.859   4.471   2.769  0.3856  0.2252  0.0252
 2554ntf    fn417250   6.983   4.367   2.628 -0.0269 -0.0635  0.4447
 2555ntf    cn117251   3.020   6.931   5.329 -0.2454 -0.0671 -0.0641
 2555ntf    sn217252   3.043   7.046   5.190 -0.1462  0.1654  0.1446
 2555ntf    nn317253   3.148   6.962   5.107 -0.5823  0.0923 -0.3381
 2555ntf    sn217254   3.124   6.897   4.967  0.0606 -0.0350 -0.3904
 2555ntf    cn117255   3.298   6.888   4.915  0.0861 -0.0689 -0.2988
 2555ntf    fn417256   2.990   6.806   5.295 -0.2325  0.0184 -0.3976
 2555ntf    fn417257   3.124   6.929   5.410 -0.4653 -0.5325  0.2112
 2555ntf    fn417258   2.913   6.954   5.403 -0.1740 -0.9539  0.3349
 2555ntf    on517259   2.912   7.058   5.132 -0.2156  0.3176  0.3313
 2555ntf    on517260   3.095   7.159   5.263 -0.0471 -0.1178  0.5189
 2555ntf    on517261   3.065   6.983   4.868 -0.4976  0.1657  0.1081
 2555ntf    on517262   3.081   6.759   4.969  0.0201 -0.0206 -0.2364
 2555ntf    fn417263   3.299   6.849   4.789 -0.0132  0.1205 -0.3582
 2555ntf    fn417264   3.353   7.008   4.923 -0.1498  0.0348 -0.2303
 2555ntf    fn417265   3.375   6.808   4.987 -0.1754  0.2053  0.2975
 2556ntf    cn117266   6.108   6.180   4.389  0.3654  0.0870  0.1871
 2556ntf    sn217267   5.993   6.284   4.295  0.1153 -0.0810  0.3051
 2556ntf    nn317268   6.085   6.412   4.294  0.0426 -0.0284 -0.1549
 2556ntf    sn217269   6.063   6.553   4.229 -0.2172  0.0453  0.0908
 2556ntf    cn117270   6.232   6.587   4.172 -0.2749 -0.4702 -0.3903
 2556ntf    fn417271   6.235   6.211   4.371  0.4231 -0.3800 -0.2171
 2556ntf    fn417272   6.086   6.178   4.520  0.2225 -0.0556  0.1626
 2556ntf    fn417273   6.113   6.053   4.350 -0.1215  0.2625 -0.4714
 2556ntf    on517274   5.978   6.218   4.168  0.8104  0.1555  0.0950
 2556ntf    on517275   5.869   6.292   4.369  0.1529  0.3697  0.3254
 2556ntf    on517276   6.042   6.655   4.329 -0.0316  0.1336  0.0399
 2556ntf    on517277   5.993   6.563   4.104  0.4041 -0.0332 -0.2684
 2556ntf    fn417278   6.236   6.706   4.113 -0.1477 -0.1461  0.2676
 2556ntf    fn417279   6.312   6.595   4.277 -0.3923 -0.4605 -0.3009
 2556ntf    fn417280   6.279   6.500   4.084 -0.2374 -0.7322 -0.1129
 2557ntf    cn117281   6.405   6.848   2.905  0.1435 -0.0064 -0.1372
 2557ntf    sn217282   6.580   6.898   2.903  0.1280  0.0420 -0.3030
 2557ntf    nn317283   6.647   6.771   2.838 -0.1179  0.0887 -0.6515
 2557ntf    sn217284   6.792   6.718   2.863 -0.2230  0.0085 -0.2137
 2557ntf    cn117285   6.812   6.628   2.706  0.5762 -0.0991 -0.0544
 2557ntf    fn417286   6.357   6.826   2.784 -0.3301 -0.2060  0.0834
 2557ntf    fn417287   6.381   6.745   2.984 -0.0457  0.3352  0.2550
 2557ntf    fn417288   6.328   6.939   2.963 -0.1849 -0.3131 -0.0934
 2557ntf    on517289   6.573   7.015   2.819  0.4230  0.2956  0.0234
 2557ntf    on517290   6.609   6.928   3.041  0.0962 -0.4509 -0.1856
 2557ntf    on517291   6.797   6.611   2.961  0.1258  0.2368  0.0194
 2557ntf    on517292   6.896   6.818   2.860 -0.2563  0.0282 -0.7548
 2557ntf    fn417293   6.830   6.703   2.599  0.4863 -0.4336 -0.3022
 2557ntf    fn417294   6.915   6.548   2.730  0.2808 -0.3655  0.3386
 2557ntf    fn417295   6.707   6.551   2.682  0.3979 -0.0231  0.4571
 2558ntf    cn117296   0.536   3.873   3.160 -0.1738 -0.2948 -0.3118
 2558ntf    sn217297   0.443   4.025   3.197  0.3426 -0.0666  0.0655
 2558ntf    nn317298   0.477   4.092   3.059  0.1889 -0.2600 -0.0672
 2558ntf    sn217299   0.383   4.142   2.943  0.0050  0.1451  0.2553
 2558ntf    cn117300   0.424   4.043   2.797 -0.0742 -0.0193  0.3426
 2558ntf    fn417301   0.490   3.801   3.059 -0.4299 -0.3951 -0.1235
 2558ntf    fn417302   0.665   3.895   3.139  0.0538 -0.6161  0.6892
 2558ntf    fn417303   0.534   3.790   3.263  0.4110 -0.1721 -0.1981
 2558ntf    on517304   0.310   3.975   3.220  0.2818 -0.1396 -0.4141
 2558ntf    on517305   0.518   4.080   3.306  0.8363 -0.4313 -0.0852
 2558ntf    on517306   0.415   4.274   2.896 -0.2260  0.1889  0.2180
 2558ntf    on517307   0.243   4.113   2.960  0.1316 -0.3832  0.3956
 2558ntf    fn417308   0.539   4.080   2.742 -0.1197 -0.6398 -0.1866
 2558ntf    fn417309   0.424   3.913   2.817  0.1991  0.0180  0.5947
 2558ntf    fn417310   0.337   4.060   2.699  0.4352 -0.4200 -0.1919
 2559ntf    cn117311   3.962   2.559   3.344 -0.0946 -0.3043  0.4533
 2559ntf    sn217312   3.857   2.599   3.486 -0.4766  0.4361 -0.0370
 2559ntf    nn317313   3.737   2.667   3.411 -0.6072 -0.3947 -0.5924
 2559ntf    sn217314   3.621   2.742   3.486  0.0475 -0.1584  0.2011
 2559ntf    cn117315   3.654   2.917   3.448  0.0244 -0.2008 -0.0184
 2559ntf    fn417316   3.911   2.466   3.265  0.4709 -0.5551  0.3779
 2559ntf    fn417317   3.992   2.662   3.267 -0.0618 -0.4540  0.2634
 2559ntf    fn417318   4.082   2.516   3.381  0.2447  0.1960 -0.0504
 2559ntf    on517319   3.829   2.468   3.539  0.3302  0.2116 -0.1664
 2559ntf    on517320   3.942   2.687   3.562 -0.1652  0.3196 -0.2520
 2559ntf    on517321   3.616   2.744   3.630 -0.4513  0.2513  0.1793
 2559ntf    on517322   3.493   2.714   3.426 -0.3675  0.1591  0.9269
 2559ntf    fn417323   3.555   2.995   3.487  0.1997  0.0197 -0.0127
 2559ntf    fn417324   3.761   2.961   3.512 -0.3981  0.4881  0.2209
 2559ntf    fn417325   3.680   2.938   3.320 -0.0292  0.0809  0.0158
 2560ntf    cn117326   1.506   0.656   4.994 -0.0570 -0.1302 -0.4252
 2560ntf    sn217327   1.491   0.820   5.071 -0.2430 -0.4233  0.1661
 2560ntf    nn317328   1.561   0.921   4.973 -0.7100 -0.4817 -0.2315
 2560ntf    sn217329   1.514   0.989   4.839 -0.2517  0.3708  0.0340
 2560ntf    cn117330   1.441   1.143   4.901 -0.3019  0.0791  0.7077
 2560ntf    fn417331   1.462   0.557   5.070  0.4561  0.0749  0.1471
 2560ntf    fn417332   1.446   0.646   4.876 -0.0952  0.0237 -0.4197
 2560ntf    fn417333   1.634   0.633   4.969  0.0288 -0.5448  0.3642
 2560ntf    on517334   1.347   0.829   5.084 -0.2445 -0.6316  0.2941
 2560ntf    on517335   1.573   0.810   5.189 -0.0798 -0.4506  0.0506
 2560ntf    on517336   1.405   0.927   4.768 -0.8898  0.5438  0.8565
 2560ntf    on517337   1.627   1.035   4.763  0.1449 -0.4446  0.1105
 2560ntf    fn417338   1.523   1.236   4.947  0.1330 -0.1009  0.2995
 2560ntf    fn417339   1.387   1.212   4.802  0.2319  0.0172  0.3747
 2560ntf    fn417340   1.333   1.123   4.975 -0.7587  0.8649  0.2667
 2561ntf    cn117341   5.145   4.836   3.715  0.3421  0.2057  0.4974
 2561ntf    sn217342   5.223   4.878   3.557 -0.3376  0.3283  0.1875
 2561ntf    nn317343   5.375   4.866   3.597 -0.2192  0.3640 -0.2445
 2561ntf    sn217344   5.493   4.832   3.499 -0.1405 -0.0835  0.0036
 2561ntf    cn117345   5.631   4.814   3.616  0.2487  0.4147 -0.3775
 2561ntf    fn417346   5.013   4.827   3.712  0.3538  0.1405  0.0265
 2561ntf    fn417347   5.188   4.717   3.755  0.7075  0.2530  0.2429
 2561ntf    fn417348   5.174   4.924   3.809  0.1592  0.2993  0.4670
 2561ntf    on517349   5.170   4.777   3.470  0.0396  0.2777  0.0140
 2561ntf    on517350   5.160   5.007   3.548 -0.4434  0.2403 -0.3455
 2561ntf    on517351   5.526   4.937   3.406 -1.0361 -0.2028 -0.4539
 2561ntf    on517352   5.482   4.700   3.443 -0.6603  0.0563 -0.2228
 2561ntf    fn417353   5.596   4.744   3.723  0.9735 -0.2384 -0.5551
 2561ntf    fn417354   5.737   4.746   3.575  0.1876  0.0583  0.0487
 2561ntf    fn417355   5.677   4.926   3.670  0.0569  0.1446  0.3515
 2562ntf    cn117356   4.786   0.516   3.212  0.2596  0.0220  0.1000
 2562ntf    sn217357   4.931   0.445   3.296  0.0667 -0.4528  0.0361
 2562ntf    nn317358   4.904   0.294   3.262 -0.5271 -0.1601 -0.8093
 2562ntf    sn217359   4.805   0.193   3.330 -0.3436  0.1788 -0.0292
 2562ntf    cn117360   4.755   0.093   3.187  0.0788  0.0793 -0.1085
 2562ntf    fn417361   4.670   0.500   3.274  0.0721 -0.0481 -0.2652
 2562ntf    fn417362   4.788   0.646   3.187 -0.0627 -0.0263 -0.1882
 2562ntf    fn417363   4.765   0.464   3.092  0.0458  0.2031  0.0591
 2562ntf    on517364   5.050   0.497   3.233 -0.0560  0.1917  0.3205
 2562ntf    on517365   4.917   0.483   3.435 -0.5429  0.0639 -0.1630
 2562ntf    on517366   4.677   0.239   3.376 -0.7075 -0.7260 -0.1255
 2562ntf    on517367   4.870   0.098   3.417  0.0024 -0.2012 -0.6965
 2562ntf    fn417368   4.848   0.027   3.119  0.4242  0.2715  0.1691
 2562ntf    fn417369   4.659   0.006   3.215  0.3018 -0.1634 -0.0925
 2562ntf    fn417370   4.708   0.168   3.088  0.0557  0.4299  0.1682
 2563ntf    cn117371   3.355   2.354   6.017 -0.2047  0.0963  0.0768
 2563ntf    sn217372   3.352   2.213   5.903  0.2357  0.2091 -0.0762
 2563ntf    nn317373   3.234   2.130   5.964  0.1490  0.4326  0.0626
 2563ntf    sn217374   3.119   2.038   5.908  0.5960  0.0477 -0.2282
 2563ntf    cn117375   2.979   2.084   6.014  0.4549 -0.1729 -0.3184
 2563ntf    fn417376   3.329   2.324   6.144 -0.1921  0.1468  0.0912
 2563ntf    fn417377   3.461   2.432   6.007  0.0986 -0.2994  0.2130
 2563ntf    fn417378   3.250   2.423   5.976 -0.0485  0.1705 -0.1984
 2563ntf    on517379   3.321   2.267   5.773 -0.0282  0.3789  0.0569
 2563ntf    on517380   3.478   2.144   5.919 -0.0952 -0.4396 -0.2334
 2563ntf    on517381   3.135   1.899   5.941  0.1981  0.1397  0.3721
 2563ntf    on517382   3.066   2.081   5.781  0.2430  0.5257  0.0784
 2563ntf    fn417383   2.925   2.202   5.988  0.0817 -0.3245 -0.2449
 2563ntf    fn417384   2.884   1.991   6.012  0.0678  0.1831  0.8370
 2563ntf    fn417385   3.017   2.094   6.140 -0.7902  0.2928  0.0352
 2564ntf    cn117386   5.108   3.392   1.937  0.3102  0.6262  0.2918
 2564ntf    sn217387   5.079   3.569   1.909 -0.4572  0.4383 -0.1369
 2564ntf    nn317388   4.936   3.586   1.970 -0.2059 -0.1809  0.6362
 2564ntf    sn217389   4.882   3.698   2.066 -0.2405  0.4229 -0.0851
 2564ntf    cn117390   4.897   3.618   2.228 -0.0509 -0.0435 -0.3304
 2564ntf    fn417391   5.072   3.315   1.836  0.2989  0.1799  0.6342
 2564ntf    fn417392   5.235   3.365   1.961  0.2461  0.0887  0.0497
 2564ntf    fn417393   5.045   3.350   2.045 -0.0899  0.0822 -0.1454
 2564ntf    on517394   5.193   3.622   1.979 -0.1314 -0.1660 -0.2018
 2564ntf    on517395   5.084   3.578   1.765 -0.1073 -0.2581 -0.1745
 2564ntf    on517396   4.739   3.715   2.057 -0.2805 -0.1885 -0.6529
 2564ntf    on517397   4.950   3.825   2.074  0.3483  0.1041  0.0511
 2564ntf    fn417398   5.023   3.627   2.268 -0.1794  0.0490  0.0659
 2564ntf    fn417399   4.829   3.675   2.326  0.3738 -0.0386 -0.0345
 2564ntf    fn417400   4.871   3.489   2.236 -0.2428  0.0446  0.5500
 2565ntf    cn117401   2.777   4.748   5.633  0.6322  0.5396 -0.1304
 2565ntf    sn217402   2.941   4.725   5.707  0.3105  0.2296  0.4927
 2565ntf    nn317403   2.969   4.869   5.761 -0.2367  0.1878  0.8916
 2565ntf    sn217404   3.077   4.974   5.716 -0.2926 -0.0805  0.1167
 2565ntf    cn117405   3.220   4.939   5.822  0.0370 -0.2941 -0.3965
 2565ntf    fn417406   2.696   4.812   5.716  0.1054  0.0101 -0.2284
 2565ntf    fn417407   2.783   4.820   5.522  0.1021  0.3680 -0.2736
 2565ntf    fn417408   2.723   4.634   5.594 -0.3310  0.9077  0.1027
 2565ntf    on517409   2.915   4.627   5.810  0.4627 -0.2244  0.1058
 2565ntf    on517410   3.025   4.682   5.597 -0.4152  0.3425 -0.1163
 2565ntf    on517411   3.030   5.109   5.736 -0.4114 -0.0206 -0.5619
 2565ntf    on517412   3.119   4.958   5.580 -0.2236  0.1144  0.1139
 2565ntf    fn417413   3.179   4.928   5.947 -0.0015 -0.1452 -0.3957
 2565ntf    fn417414   3.287   4.833   5.781  0.0314 -0.1807 -0.7015
 2565ntf    fn417415   3.313   5.033   5.819  0.0838 -0.2846  0.8515
 2566ntf    cn117416   1.236   3.996   1.741 -0.0032  0.1046 -0.3398
 2566ntf    sn217417   1.176   4.161   1.787  0.1440  0.0740 -0.0373
 2566ntf    nn317418   1.022   4.158   1.753 -0.0846 -0.5359  1.0328
 2566ntf    sn217419   0.906   4.243   1.815 -0.2491  0.0222 -0.0219
 2566ntf    cn117420   0.851   4.335   1.669  0.2605  0.0659 -0.1887
 2566ntf    fn417421   1.163   3.904   1.801 -0.3177  0.5302 -0.0668
 2566ntf    fn417422   1.227   3.981   1.610  0.5659 -0.2443 -0.3413
 2566ntf    fn417423   1.361   3.970   1.775  0.0597  0.8080 -0.0228
 2566ntf    on517424   1.211   4.166   1.927  0.3933 -0.6452 -0.0720
 2566ntf    on517425   1.244   4.249   1.695 -0.3836 -0.0217 -0.5292
 2566ntf    on517426   0.937   4.349   1.909  0.6144  0.2917 -0.5923
 2566ntf    on517427   0.787   4.169   1.845 -0.2021 -0.0808 -0.0888
 2566ntf    fn417428   0.824   4.262   1.562  0.4062 -0.1406 -0.0837
 2566ntf    fn417429   0.749   4.418   1.687 -0.0874 -0.2773 -0.5596
 2566ntf    fn417430   0.952   4.416   1.638  0.2837  0.2500  0.3606
 2567ntf    cn117431   0.408   5.898   1.043 -0.1730  0.4692  0.2181
 2567ntf    sn217432   0.279   5.848   1.162  0.1835 -0.2923  0.2883
 2567ntf    nn317433   0.285   5.691   1.151 -0.5668 -0.3077  0.0026
 2567ntf    sn217434   0.369   5.607   1.254 -0.0827  0.4344  0.2214
 2567ntf    cn117435   0.350   5.442   1.181 -0.0223  0.3837  0.3209
 2567ntf    fn417436   0.440   6.026   1.057  0.0941  0.4237  0.0085
 2567ntf    fn417437   0.517   5.828   1.070 -0.5737 -0.3037 -0.1564
 2567ntf    fn417438   0.374   5.877   0.917  0.7003 -0.2648  0.0968
 2567ntf    on517439   0.330   5.900   1.286  0.8695 -0.3934  0.0545
 2567ntf    on517440   0.158   5.906   1.109  0.0533 -0.1087  0.7822
 2567ntf    on517441   0.310   5.599   1.385  0.6238  0.5566  0.5540
 2567ntf    on517442   0.513   5.615   1.241 -0.0557  0.3365  0.4661
 2567ntf    fn417443   0.426   5.346   1.232 -0.2464 -0.0001 -0.0629
 2567ntf    fn417444   0.225   5.401   1.185  0.0599  0.1422  0.4477
 2567ntf    fn417445   0.371   5.455   1.051 -0.0392  0.2216  0.3019
 2568ntf    cn117446   4.182   2.155   5.122  0.0037 -0.2084 -0.1523
 2568ntf    sn217447   4.176   2.103   5.296 -0.0203  0.0948 -0.0623
 2568ntf    nn317448   4.095   2.220   5.363  0.3393 -0.0413  0.6273
 2568ntf    sn217449   4.158   2.328   5.457  0.2153  0.2711  0.3539
 2568ntf    cn117450   4.005   2.426   5.447  0.0070 -0.0858  0.0246
 2568ntf    fn417451   4.232   2.062   5.043 -0.5919 -0.3704 -0.3505
 2568ntf    fn417452   4.059   2.174   5.076  0.0270 -0.2931 -0.2514
 2568ntf    fn417453   4.250   2.264   5.095  0.5843 -0.5857 -0.2249
 2568ntf    on517454   4.100   1.980   5.295  0.1410 -0.0035 -0.3410
 2568ntf    on517455   4.313   2.092   5.340 -0.0248  0.3595  0.0195
 2568ntf    on517456   4.248   2.420   5.391  0.2570  0.0279  0.0698
 2568ntf    on517457   4.174   2.308   5.599 -0.1693  0.0699  0.3687
 2568ntf    fn417458   3.907   2.368   5.514 -0.3719  0.2397 -0.2483
 2568ntf    fn417459   4.019   2.539   5.514  0.2863  0.2098 -0.5252
 2568ntf    fn417460   3.984   2.458   5.321  0.5466  0.3858  0.0493
 2569ntf    cn117461   4.005   0.524   5.659  0.1661 -0.2392  0.0996
 2569ntf    sn217462   4.078   0.385   5.568 -0.0258  0.1589 -0.6655
 2569ntf    nn317463   4.229   0.425   5.547  0.2343 -0.1677  0.5321
 2569ntf    sn217464   4.282   0.525   5.438 -0.0237 -0.4381  0.1576
 2569ntf    cn117465   4.347   0.416   5.308 -0.4378 -0.3601 -0.1160
 2569ntf    fn417466   3.875   0.509   5.676  0.1294  0.0038  0.0267
 2569ntf    fn417467   4.052   0.540   5.782 -0.2462 -0.3031  0.2660
 2569ntf    fn417468   4.015   0.635   5.589  0.0322 -0.0877  0.3198
 2569ntf    on517469   4.076   0.279   5.666  0.5277  0.5709 -0.2044
 2569ntf    on517470   4.002   0.363   5.447  0.0495  0.5054 -0.7761
 2569ntf    on517471   4.406   0.587   5.476  0.0988 -0.5466 -0.0681
 2569ntf    on517472   4.179   0.598   5.368  0.3534 -0.1521 -0.0974
 2569ntf    fn417473   4.395   0.481   5.203 -0.2798 -0.0999  0.1158
 2569ntf    fn417474   4.442   0.344   5.365 -0.1218  0.5542  0.5311
 2569ntf    fn417475   4.258   0.336   5.251 -0.6848 -0.3390  0.2329
 2570ntf    cn117476   4.925   2.376   0.857 -0.1419 -0.1048 -0.1268
 2570ntf    sn217477   4.744   2.372   0.845 -0.1549  0.3077 -0.0863
 2570ntf    nn317478   4.721   2.514   0.782  0.2768  0.2630 -0.3407
 2570ntf    sn217479   4.694   2.653   0.849  0.0444 -0.0955  0.3091
 2570ntf    cn117480   4.846   2.739   0.800  0.0618 -0.2359  0.1167
 2570ntf    fn417481   4.983   2.473   0.925  0.2721 -0.2916 -0.2101
 2570ntf    fn417482   4.965   2.264   0.915 -0.3609  0.0653  0.3569
 2570ntf    fn417483   4.971   2.384   0.733  0.2178 -0.1781  0.0027
 2570ntf    on517484   4.718   2.266   0.751  0.3503  0.0985  0.0081
 2570ntf    on517485   4.708   2.359   0.984  0.1302 -0.0269 -0.0419
 2570ntf    on517486   4.703   2.658   0.993  0.5158 -0.1628  0.2815
 2570ntf    on517487   4.596   2.731   0.778 -0.5114 -1.0795 -0.0218
 2570ntf    fn417488   4.842   2.871   0.809  0.7747 -0.2301  0.4488
 2570ntf    fn417489   4.947   2.701   0.877  0.0278 -0.3301  0.1154
 2570ntf    fn417490   4.881   2.711   0.676 -0.3446 -0.2082 -0.0047
 2571ntf    cn117491   3.620   1.350   6.169  0.2288  0.1370 -0.2031
 2571ntf    sn217492   3.596   1.367   6.348  0.2345  0.2374 -0.2116
 2571ntf    nn317493   3.707   1.264   6.388 -0.0551 -0.0974 -0.2649
 2571ntf    sn217494   3.691   1.108   6.390  0.0059 -0.0999  0.0032
 2571ntf    cn117495   3.729   1.082   6.566 -0.3133  0.2753  0.1285
 2571ntf    fn417496   3.743   1.359   6.123  0.4602  0.1174  0.4080
 2571ntf    fn417497   3.576   1.231   6.130 -0.0386  0.3643 -0.6093
 2571ntf    fn417498   3.553   1.442   6.101 -0.5146 -0.1163  0.1724
 2571ntf    on517499   3.630   1.504   6.377  0.2635  0.2221 -0.1735
 2571ntf    on517500   3.458   1.335   6.376  0.4023 -0.0877  0.2651
 2571ntf    on517501   3.796   1.050   6.311 -0.3220  0.0752 -0.5637
 2571ntf    on517502   3.559   1.053   6.372 -0.0627  0.0752 -0.0343
 2571ntf    fn417503   3.706   0.958   6.606  0.9633 -0.0730 -0.1617
 2571ntf    fn417504   3.854   1.111   6.599 -0.1687  0.0240 -0.1974
 2571ntf    fn417505   3.657   1.163   6.643  0.0248 -0.1222  0.8776
 2572ntf    cn117506   3.341   4.161   5.436 -0.3281 -0.1073 -0.1827
 2572ntf    sn217507   3.297   4.338   5.437  0.1087  0.0016 -0.0318
 2572ntf    nn317508   3.431   4.401   5.386 -0.0936 -0.1342 -0.7431
 2572ntf    sn217509   3.561   4.422   5.472 -0.5511 -0.3434  0.0019
 2572ntf    cn117510   3.539   4.597   5.514 -0.4311 -0.3701  0.1766
 2572ntf    fn417511   3.247   4.077   5.477 -0.3905  0.0678  0.0401
 2572ntf    fn417512   3.397   4.126   5.321 -0.2512  0.0919 -0.2062
 2572ntf    fn417513   3.438   4.144   5.525 -0.2150  0.2621 -0.2327
 2572ntf    on517514   3.191   4.339   5.339  0.3379 -0.1171 -0.2822
 2572ntf    on517515   3.265   4.366   5.575  0.1872  0.0330 -0.0196
 2572ntf    on517516   3.685   4.424   5.399 -1.0091  0.0984 -0.7786
 2572ntf    on517517   3.562   4.355   5.600  0.3153 -0.3775 -0.0160
 2572ntf    fn417518   3.423   4.615   5.575 -0.3707 -0.6644  0.3796
 2572ntf    fn417519   3.634   4.645   5.593 -0.1851  0.0821 -0.3852
 2572ntf    fn417520   3.550   4.671   5.405 -0.5441  0.1511  0.5106
 2573ntf    cn117521   4.173   5.475   2.391 -0.1093 -0.0652  0.3125
 2573ntf    sn217522   4.309   5.535   2.286 -0.1226 -0.0216  0.3198
 2573ntf    nn317523   4.431   5.494   2.376 -0.2259 -0.3377  0.3148
 2573ntf    sn217524   4.507   5.357   2.394  0.1890 -0.1137  0.2678
 2573ntf    cn117525   4.519   5.338   2.575  0.0777  0.2399  0.3139
 2573ntf    fn417526   4.052   5.469   2.338  0.0673  0.0762 -0.1143
 2573ntf    fn417527   4.201   5.349   2.417 -0.8222 -0.2959  0.0045
 2573ntf    fn417528   4.161   5.533   2.509  0.0387 -0.1542  0.3701
 2573ntf    on517529   4.300   5.464   2.161 -0.0618  0.3012  0.1294
 2573ntf    on517530   4.285   5.677   2.285  1.0883  0.1938 -0.3345
 2573ntf    on517531   4.646   5.374   2.360  0.1132  0.2133  0.1104
 2573ntf    on517532   4.449   5.233   2.351 -0.0010  0.2458 -0.5199
 2573ntf    fn417533   4.406   5.367   2.638 -0.0557 -0.3351  0.3502
 2573ntf    fn417534   4.545   5.214   2.613 -0.2971 -0.0392 -0.3119
 2573ntf    fn417535   4.608   5.418   2.630  0.2367  0.0652  0.3094
 2574ntf    cn117536   6.346   4.145   3.501  0.0605  0.0722  0.0057
 2574ntf    sn217537   6.344   4.179   3.323  0.0064 -0.3655 -0.0766
 2574ntf    nn317538   6.416   4.049   3.271  0.0420 -0.4084  0.0804
 2574ntf    sn217539   6.361   3.937   3.176  0.1112 -0.0083 -0.4407
 2574ntf    cn117540   6.259   3.834   3.286  0.1163  0.0953 -0.3387
 2574ntf    fn417541   6.275   4.046   3.552 -0.5107  0.2889 -0.3545
 2574ntf    fn417542   6.472   4.127   3.538  0.0346  0.1479  0.1341
 2574ntf    fn417543   6.315   4.251   3.575 -0.1524  0.1164 -0.1459
 2574ntf    on517544   6.203   4.196   3.298 -0.2447 -0.3166  1.2985
 2574ntf    on517545   6.436   4.289   3.310  0.0314 -0.3663  0.0966
 2574ntf    on517546   6.466   3.841   3.153 -0.0090 -0.1218 -0.5205
 2574ntf    on517547   6.283   3.987   3.065 -0.4185 -0.4212 -0.2606
 2574ntf    fn417548   6.164   3.908   3.341 -0.2371  0.1542 -1.0147
 2574ntf    fn417549   6.198   3.735   3.223  0.2114 -0.1288 -0.0819
 2574ntf    fn417550   6.329   3.788   3.389 -0.1706 -0.1038 -0.2310
 2575ntf    cn117551   3.312   5.817   5.325  0.1262 -0.2641  0.0937
 2575ntf    sn217552   3.272   5.994   5.316 -0.0733 -0.2799  0.6476
 2575ntf    nn317553   3.180   6.009   5.442  0.0858 -0.1651  0.7505
 2575ntf    sn217554   3.085   6.131   5.470 -0.1775 -0.1508 -0.1716
 2575ntf    cn117555   2.926   6.051   5.508 -0.2086  0.2145  0.4714
 2575ntf    fn417556   3.388   5.779   5.223 -0.3191 -0.0041 -0.3355
 2575ntf    fn417557   3.377   5.781   5.434 -0.2265 -0.1249  0.3483
 2575ntf    fn417558   3.202   5.743   5.326  0.2206 -0.4087 -0.0195
 2575ntf    on517559   3.393   6.070   5.333 -0.2835  0.1928  0.0647
 2575ntf    on517560   3.210   5.993   5.186  0.1129 -0.0074  0.5565
 2575ntf    on517561   3.049   6.215   5.359  0.2037  0.4437  0.1517
 2575ntf    on517562   3.119   6.197   5.593 -0.1432  0.1227 -0.3261
 2575ntf    fn417563   2.836   6.139   5.549 -0.4583 -0.1629  0.7416
 2575ntf    fn417564   2.869   6.002   5.399 -0.1619  0.0393  0.5256
 2575ntf    fn417565   2.937   5.955   5.598 -0.2613 -0.1874  0.0514
 2576ntf    cn117566   0.971   2.237   0.251  0.0133 -0.0861 -0.3961
 2576ntf    sn217567   0.824   2.130   0.252 -0.0893  0.0568  0.1602
 2576ntf    nn317568   0.777   2.163   0.105 -0.0583 -0.2624  0.0790
 2576ntf    sn217569   0.689   2.275   0.040 -0.2542 -0.2283  0.3993
 2576ntf    cn117570   0.530   2.193   0.069 -0.2669 -0.3215  0.0625
 2576ntf    fn417571   0.947   2.364   0.222 -0.2799 -0.0342  0.0603
 2576ntf    fn417572   1.028   2.242   0.370 -0.4714 -0.5353 -0.1415
 2576ntf    fn417573   1.066   2.197   0.168  0.0437 -0.4881 -0.1699
 2576ntf    on517574   0.880   1.998   0.258  0.0663  0.1029 -0.2251
 2576ntf    on517575   0.738   2.181   0.356  0.6189  0.9168  0.3291
 2576ntf    on517576   0.704   2.286  -0.103  0.2297 -0.2064  0.4501
 2576ntf    on517577   0.678   2.400   0.111 -0.6437 -0.0182 -0.0235
 2576ntf    fn417578   0.528   2.064   0.041 -1.0167 -0.2475 -0.2559
 2576ntf    fn417579   0.479   2.216   0.189 -0.1771  0.7318 -0.0935
 2576ntf    fn417580   0.444   2.251  -0.014  0.4448 -0.1113 -0.5382
 2577ntf    cn117581   5.024   5.640   3.526  0.4625  0.3150  0.0364
 2577ntf    sn217582   4.966   5.625   3.354  0.0958  0.0355  0.1841
 2577ntf    nn317583   5.064   5.723   3.280 -0.1338 -0.1364 -0.3486
 2577ntf    sn217584   5.030   5.832   3.172 -0.0617  0.1761 -0.0565
 2577ntf    cn117585   5.114   5.753   3.032 -0.4052 -0.3628  0.0376
 2577ntf    fn417586   5.153   5.615   3.537  0.5301  0.5050 -0.3019
 2577ntf    fn417587   5.001   5.761   3.574 -0.6407  0.1653 -0.0834
 2577ntf    fn417588   4.964   5.564   3.616  0.8114  0.2247  0.1947
 2577ntf    on517589   4.992   5.487   3.322 -0.4614 -0.1228  0.3980
 2577ntf    on517590   4.831   5.673   3.366  0.0019 -0.1028 -0.3090
 2577ntf    on517591   5.111   5.949   3.192  0.4465 -0.1365 -0.2480
 2577ntf    on517592   4.892   5.844   3.132 -0.0522  0.1420 -0.1011
 2577ntf    fn417593   5.227   5.694   3.066 -0.0460  0.0744 -0.3769
 2577ntf    fn417594   5.037   5.659   2.978  0.4864 -0.9869 -0.1785
 2577ntf    fn417595   5.146   5.831   2.930  0.2067 -1.0701 -0.3247
 2578ntf    cn117596   4.575   1.557   2.525 -0.4243  0.3285  0.4052
 2578ntf    sn217597   4.501   1.414   2.441 -0.0544  0.2912  0.1408
 2578ntf    nn317598   4.571   1.296   2.517  0.2925  0.6011  0.3005
 2578ntf    sn217599   4.511   1.178   2.601  0.5207  0.0140 -0.3504
 2578ntf    cn117600   4.626   1.040   2.574  0.6066 -0.0518  0.3555
 2578ntf    fn417601   4.519   1.676   2.513 -0.0276  0.4495 -0.3191
 2578ntf    fn417602   4.591   1.539   2.655 -0.3302  0.0990  0.3610
 2578ntf    fn417603   4.697   1.579   2.480 -0.4215 -0.2950  0.0934
 2578ntf    on517604   4.360   1.436   2.463 -0.0546  0.0173  0.4227
 2578ntf    on517605   4.549   1.436   2.307 -0.5970  0.1948 -0.0740
 2578ntf    on517606   4.383   1.125   2.559  0.4101 -0.0496  0.0597
 2578ntf    on517607   4.516   1.202   2.743 -0.6789  0.2715 -0.3362
 2578ntf    fn417608   4.751   1.083   2.584  0.5233  0.2618  0.0495
 2578ntf    fn417609   4.614   0.956   2.676  0.1526  0.5219  0.7863
 2578ntf    fn417610   4.612   0.972   2.462  0.2209 -0.3146  0.5592
 2579ntf    cn117611   5.800   1.982   4.858  0.0618 -0.2478  0.3195
 2579ntf    sn217612   5.797   1.822   4.772  0.0672  0.0868 -0.3071
 2579ntf    nn317613   5.953   1.812   4.761  0.1246  0.0633  0.4712
 2579ntf    sn217614   6.040   1.687   4.721 -0.3240 -0.1379  0.1090
 2579ntf    cn117615   6.067   1.741   4.549 -0.1376  0.0101  0.1842
 2579ntf    fn417616   5.874   1.977   4.968 -0.3680 -0.0139  0.6200
 2579ntf    fn417617   5.856   2.074   4.780 -0.1181  0.1350  0.6348
 2579ntf    fn417618   5.682   2.030   4.892  0.1448  0.0486  0.2012
 2579ntf    on517619   5.734   1.734   4.867 -0.7111  0.4311 -0.4953
 2579ntf    on517620   5.736   1.858   4.646 -0.3818 -0.2738 -0.1953
 2579ntf    on517621   5.971   1.561   4.710  0.0419 -0.3204 -0.1330
 2579ntf    on517622   6.175   1.690   4.772 -0.4808 -0.5806  0.5553
 2579ntf    fn417623   5.957   1.739   4.475  0.1048  0.4154 -0.1927
 2579ntf    fn417624   6.098   1.869   4.541 -0.5997  0.1177  0.0909
 2579ntf    fn417625   6.163   1.677   4.486 -0.1917 -0.3882  0.4958
 2580ntf    cn117626   3.043   4.911   1.931 -0.4944  0.3129 -0.3936
 2580ntf    sn217627   2.900   5.023   1.937 -0.5106  0.2880 -0.3133
 2580ntf    nn317628   2.882   5.042   2.092 -0.3234 -0.0476 -0.2485
 2580ntf    sn217629   2.780   4.988   2.198  0.0694 -0.3765 -0.0351
 2580ntf    cn117630   2.668   5.129   2.220 -0.0087 -0.4765  0.2127
 2580ntf    fn417631   3.026   4.782   1.955  0.3821  0.0755 -0.9817
 2580ntf    fn417632   3.090   4.910   1.807 -0.1960  0.0927 -0.2805
 2580ntf    fn417633   3.142   4.944   2.013 -0.0534 -0.2660 -0.6850
 2580ntf    on517634   2.950   5.143   1.874 -0.2239  0.1190 -0.4092
 2580ntf    on517635   2.801   4.941   1.872 -0.1014 -0.3752 -0.1098
 2580ntf    on517636   2.834   4.972   2.330  0.1532  0.4088  0.0258
 2580ntf    on517637   2.698   4.877   2.154 -0.4625 -0.0939  0.2293
 2580ntf    fn417638   2.573   5.106   2.310 -0.1827  0.2149  0.2135
 2580ntf    fn417639   2.737   5.235   2.259  0.0083 -0.3678 -0.1091
 2580ntf    fn417640   2.606   5.162   2.108 -0.0134  0.2386  0.4199
 2581ntf    cn117641   2.536   6.011   2.295  0.3409 -0.6162 -0.3527
 2581ntf    sn217642   2.528   6.128   2.156  0.6079 -0.1259  0.0435
 2581ntf    nn317643   2.466   6.259   2.218  0.4195 -0.2362  0.0897
 2581ntf    sn217644   2.532   6.396   2.254 -0.1379  0.0480  0.0364
 2581ntf    cn117645   2.374   6.476   2.294 -0.1362  0.0584  0.0223
 2581ntf    fn417646   2.521   5.886   2.254  0.5419 -0.7916  0.1081
 2581ntf    fn417647   2.646   6.017   2.367  0.1066  0.0211 -0.0415
 2581ntf    fn417648   2.437   6.028   2.382  0.7542 -0.6430  0.1255
 2581ntf    on517649   2.664   6.148   2.111  0.5832 -0.0040  0.0223
 2581ntf    on517650   2.439   6.077   2.055  1.0964  0.0734 -0.4961
 2581ntf    on517651   2.583   6.472   2.142 -0.4869  0.4093  0.1211
 2581ntf    on517652   2.591   6.406   2.385  0.7309  0.0536 -0.3404
 2581ntf    fn417653   2.297   6.485   2.187  0.2073  0.0664 -0.2271
 2581ntf    fn417654   2.314   6.407   2.390  0.3668  0.0799  0.3581
 2581ntf    fn417655   2.392   6.600   2.337  0.1089 -0.1380  0.5027
 2582ntf    cn117656   1.744   0.651   0.351  0.3564  0.1202 -0.2091
 2582ntf    sn217657   1.866   0.641   0.485  0.2278  0.0120 -0.0993
 2582ntf    nn317658   1.876   0.794   0.520 -0.0723  0.0495 -0.1692
 2582ntf    sn217659   1.805   0.881   0.629 -0.2920  0.1069 -0.3568
 2582ntf    cn117660   1.934   0.884   0.758 -0.3237 -0.1685 -0.3175
 2582ntf    fn417661   1.647   0.740   0.367  0.0165 -0.2575 -0.1509
 2582ntf    fn417662   1.803   0.685   0.238  0.9219  0.3620  0.1575
 2582ntf    fn417663   1.674   0.539   0.337  0.5216  0.0393 -0.3793
 2582ntf    on517664   1.807   0.553   0.583  0.0413  0.0995 -0.1327
 2582ntf    on517665   1.988   0.595   0.425  0.0952  0.0979 -0.4393
 2582ntf    on517666   1.690   0.827   0.698 -0.0547  0.1044  0.0416
 2582ntf    on517667   1.799   1.018   0.584 -0.5966  0.2174  0.0092
 2582ntf    fn417668   1.965   0.762   0.798 -0.3789 -0.0522  0.0832
 2582ntf    fn417669   2.040   0.948   0.711 -0.4205  0.2032 -0.0405
 2582ntf    fn417670   1.897   0.947   0.869 -0.2002  0.0024 -0.3736
 2583ntf    cn117671   2.672   1.592   4.144  0.3254 -0.3070 -0.1104
 2583ntf    sn217672   2.652   1.415   4.178  0.1876 -0.2226  0.2505
 2583ntf    nn317673   2.653   1.412   4.335 -0.3074 -0.3494  0.2514
 2583ntf    sn217674   2.780   1.422   4.426 -0.0690  0.0749 -0.1237
 2583ntf    cn117675   2.810   1.247   4.468 -0.1782  0.0052 -0.3352
 2583ntf    fn417676   2.562   1.661   4.171  0.3632  0.3446 -1.4895
 2583ntf    fn417677   2.773   1.651   4.206 -0.0547 -0.1591  0.3670
 2583ntf    fn417678   2.697   1.612   4.015  0.3543 -0.2638 -0.0979
 2583ntf    on517679   2.521   1.397   4.122  0.3499  0.3171 -0.3114
 2583ntf    on517680   2.765   1.341   4.127  0.2878 -0.0862  0.2733
 2583ntf    on517681   2.751   1.473   4.558  0.7109 -0.1278  0.1332
 2583ntf    on517682   2.899   1.472   4.361 -0.3516  0.4485 -0.3578
 2583ntf    fn417683   2.703   1.179   4.504  0.5529 -1.1984 -0.3819
 2583ntf    fn417684   2.862   1.172   4.372 -0.3110 -0.1613 -0.2757
 2583ntf    fn417685   2.892   1.241   4.572 -0.4032 -0.7890 -0.2021
 2584ntf    cn117686   5.169   1.042   1.686  0.1014 -0.0114  0.0760
 2584ntf    sn217687   5.076   1.042   1.842  0.1801  0.2162  0.1238
 2584ntf    nn317688   4.957   0.948   1.802  0.4111 -0.1385  0.2598
 2584ntf    sn217689   4.802   0.965   1.821  0.3582  0.0385 -0.3052
 2584ntf    cn117690   4.744   0.997   1.652 -0.2766 -0.4929 -0.1942
 2584ntf    fn417691   5.092   1.060   1.580  0.5205 -0.0179 -0.2332
 2584ntf    fn417692   5.266   1.133   1.688 -0.0477  0.1666 -0.5800
 2584ntf    fn417693   5.228   0.925   1.665 -0.0703 -0.0852  0.0055
 2584ntf    on517694   5.175   0.983   1.929  0.6182  0.0878 -0.4528
 2584ntf    on517695   5.039   1.178   1.870 -0.3769  0.2240 -0.6067
 2584ntf    on517696   4.755   1.081   1.893  0.3390  0.1449 -0.4878
 2584ntf    on517697   4.746   0.841   1.869 -0.2962  0.4208 -0.0737
 2584ntf    fn417698   4.782   1.118   1.614  0.0923 -0.5197  0.0882
 2584ntf    fn417699   4.801   0.918   1.562  0.2620 -0.2087 -0.1095
 2584ntf    fn417700   4.613   0.982   1.646 -0.3190 -0.3088  0.2847
 2585ntf    cn117701   1.855   5.882   2.269  0.0364 -0.1695 -0.2340
 2585ntf    sn217702   1.928   5.773   2.395 -0.1689 -0.0820 -0.0395
 2585ntf    nn317703   2.026   5.696   2.300  0.1611  0.0784  0.1690
 2585ntf    sn217704   2.182   5.702   2.286  0.1500  0.0111  0.0040
 2585ntf    cn117705   2.204   5.540   2.365  0.4595  0.0507  0.0040
 2585ntf    fn417706   1.937   5.963   2.204  0.1394 -0.1933 -0.1347
 2585ntf    fn417707   1.786   5.824   2.172  0.1189 -0.1594 -0.2983
 2585ntf    fn417708   1.770   5.962   2.331  0.0179 -0.5784  0.2785
 2585ntf    on517709   1.976   5.870   2.491 -0.7739  0.1457  0.0371
 2585ntf    on517710   1.819   5.686   2.432  0.0365 -0.4634 -0.3260
 2585ntf    on517711   2.256   5.790   2.373  0.0244  0.2527 -0.1332
 2585ntf    on517712   2.225   5.686   2.149 -0.1049  0.1969 -0.0982
 2585ntf    fn417713   2.118   5.520   2.464  0.0620 -0.0675 -0.3626
 2585ntf    fn417714   2.181   5.436   2.287  0.2147  0.0246  0.1089
 2585ntf    fn417715   2.327   5.521   2.410  0.3533  0.3012  0.4128
 2586ntf    cn117716   5.104   2.826   2.231 -0.3848 -0.5452 -0.3968
 2586ntf    sn217717   5.213   2.681   2.240 -0.1916 -0.4172 -0.6483
 2586ntf    nn317718   5.353   2.738   2.281 -0.2542 -0.3399 -0.5413
 2586ntf    sn217719   5.476   2.778   2.191 -0.0238  0.0425 -0.0620
 2586ntf    cn117720   5.582   2.632   2.216 -0.0902  0.0645  0.3627
 2586ntf    fn417721   4.985   2.805   2.177 -0.6027 -0.3108 -0.0138
 2586ntf    fn417722   5.089   2.867   2.356 -0.1710 -0.3067 -0.4488
 2586ntf    fn417723   5.165   2.923   2.164 -0.1324 -0.6423 -0.3101
 2586ntf    on517724   5.166   2.611   2.357 -0.2699  0.8059  0.0668
 2586ntf    on517725   5.212   2.613   2.113 -0.5686 -0.7886 -0.4477
 2586ntf    on517726   5.551   2.882   2.257 -0.6604  0.1390  0.5294
 2586ntf    on517727   5.452   2.780   2.049  0.3848 -0.1116 -0.1360
 2586ntf    fn417728   5.697   2.647   2.154 -0.1221 -0.6290  0.1269
 2586ntf    fn417729   5.596   2.614   2.346  0.2184 -0.4139  0.2624
 2586ntf    fn417730   5.530   2.529   2.152  0.5270  0.2949 -0.5239
 2587ntf    cn117731   6.424   2.939   4.657 -0.0513  0.0191 -0.1798
 2587ntf    sn217732   6.273   2.839   4.646 -0.1634  0.1401  0.2341
 2587ntf    nn317733   6.252   2.806   4.798  0.5241  0.0747  0.3160
 2587ntf    sn217734   6.136   2.869   4.884 -0.0765 -0.2302 -0.2653
 2587ntf    cn117735   6.146   2.756   5.026  0.1250 -0.1107 -0.1833
 2587ntf    fn417736   6.524   2.862   4.698  0.1094  0.1185 -0.3872
 2587ntf    fn417737   6.450   2.991   4.539  0.1066 -0.2026 -0.2434
 2587ntf    fn417738   6.420   3.039   4.743 -0.0870 -0.2609  0.1496
 2587ntf    on517739   6.173   2.919   4.579 -0.2056  0.0359  0.1721
 2587ntf    on517740   6.313   2.727   4.565 -0.2238  0.2977 -0.0142
 2587ntf    on517741   6.003   2.832   4.843 -0.0809 -0.3906 -0.1083
 2587ntf    on517742   6.174   2.997   4.938 -0.5685 -0.0782 -0.2743
 2587ntf    fn417743   6.264   2.769   5.084  0.2783  0.2213 -0.5633
 2587ntf    fn417744   6.065   2.773   5.129  0.8228  0.2099  0.3233
 2587ntf    fn417745   6.152   2.627   4.996  0.5656 -0.2830  0.6239
 2588ntf    cn117746   1.039   4.656   6.008  0.1852  0.6113 -0.2170
 2588ntf    sn217747   1.164   4.528   5.975 -0.1611  0.1409  0.2713
 2588ntf    nn317748   1.176   4.567   5.823 -0.5206 -0.5905  0.0516
 2588ntf    sn217749   1.308   4.559   5.737 -0.6061 -0.2114 -0.1161
 2588ntf    cn117750   1.242   4.469   5.593  0.1901 -0.0917 -0.5603
 2588ntf    fn417751   0.979   4.653   6.126 -0.2457 -0.0568 -0.4481
 2588ntf    fn417752   1.080   4.782   6.005 -0.1732  0.7371  0.1070
 2588ntf    fn417753   0.937   4.655   5.924 -0.2810  0.0300  0.3490
 2588ntf    on517754   1.281   4.562   6.052  0.2122  0.0966 -0.2646
 2588ntf    on517755   1.097   4.402   5.993 -0.2093  0.1329  0.0404
 2588ntf    on517756   1.408   4.465   5.781 -0.1665  0.5844  0.6130
 2588ntf    on517757   1.346   4.685   5.680 -0.5347 -0.0737  0.2323
 2588ntf    fn417758   1.196   4.348   5.624  0.2504  0.0060 -0.0718
 2588ntf    fn417759   1.136   4.532   5.546 -0.2249 -0.7313 -0.5017
 2588ntf    fn417760   1.323   4.468   5.489  0.2550 -0.7008 -0.5071
 2589ntf    cn117761   3.524   1.669   2.511 -0.5708  0.1960 -0.1331
 2589ntf    sn217762   3.555   1.631   2.687 -0.1513  0.0843 -0.2306
 2589ntf    nn317763   3.440   1.723   2.740  0.1121  0.2281  0.0895
 2589ntf    sn217764   3.389   1.728   2.889  0.0685 -0.2796  0.0930
 2589ntf    cn117765   3.249   1.612   2.891 -0.1361 -0.0376 -0.1554
 2589ntf    fn417766   3.400   1.653   2.466 -0.5435  0.5212 -0.3258
 2589ntf    fn417767   3.561   1.792   2.483 -0.1166  0.0654 -0.1147
 2589ntf    fn417768   3.605   1.598   2.435  0.3426  0.6062  0.4500
 2589ntf    on517769   3.522   1.492   2.702  0.1756  0.0216 -0.0883
 2589ntf    on517770   3.693   1.666   2.709 -0.3280  0.4377  0.3137
 2589ntf    on517771   3.338   1.860   2.916  0.5342 -0.2359  0.7738
 2589ntf    on517772   3.479   1.670   2.985  0.2611  0.0536  0.1130
 2589ntf    fn417773   3.154   1.637   2.801  0.3104  0.0524 -0.6055
 2589ntf    fn417774   3.285   1.490   2.855  0.2301 -0.0680  0.3145
 2589ntf    fn417775   3.187   1.612   3.008 -0.2739 -0.4303 -0.2274
 2590ntf    cn117776   1.038   6.377   6.405  0.1936  0.1711  0.4043
 2590ntf    sn217777   0.904   6.304   6.503  0.0337 -0.0870 -0.0056
 2590ntf    nn317778   0.797   6.415   6.476  0.0176 -0.0316  0.2744
 2590ntf    sn217779   0.700   6.427   6.353  0.1120  0.4989  0.2491
 2590ntf    cn117780   0.557   6.324   6.396  0.8936 -0.7432 -0.0739
 2590ntf    fn417781   1.005   6.429   6.288  0.2276 -0.5725  0.0617
 2590ntf    fn417782   1.088   6.476   6.478 -0.0775  0.3648  0.3292
 2590ntf    fn417783   1.138   6.294   6.379  0.3569  0.3657  0.4055
 2590ntf    on517784   0.888   6.179   6.433 -0.3972 -0.2991  0.4645
 2590ntf    on517785   0.953   6.292   6.639  0.1577  0.0747 -0.0360
 2590ntf    on517786   0.753   6.374   6.229  0.0534 -0.2249  0.5309
 2590ntf    on517787   0.647   6.559   6.331 -0.4786  0.1511 -0.4440
 2590ntf    fn417788   0.598   6.198   6.401 -0.0146 -1.0651 -0.4610
 2590ntf    fn417789   0.506   6.365   6.511  0.0849 -0.3199 -0.5784
 2590ntf    fn417790   0.471   6.336   6.296  0.5801 -0.8322  0.1855
 2591ntf    cn117791   2.355   5.202   0.503 -0.2994  0.0623  0.1025
 2591ntf    sn217792   2.270   5.345   0.575 -0.4004 -0.1023  0.3113
 2591ntf    nn317793   2.140   5.334   0.488  0.0182 -0.0732 -0.3226
 2591ntf    sn217794   2.076   5.425   0.378  0.0569  0.1344 -0.1751
 2591ntf    cn117795   1.980   5.535   0.486  0.3443  0.2329 -0.0206
 2591ntf    fn417796   2.358   5.217   0.372  0.4767 -0.5660  0.0343
 2591ntf    fn417797   2.476   5.191   0.555  0.0052 -0.4339 -0.6917
 2591ntf    fn417798   2.290   5.089   0.529  0.1022 -0.1916  0.0178
 2591ntf    on517799   2.262   5.302   0.713  0.2403 -0.4067  0.2577
 2591ntf    on517800   2.364   5.453   0.553 -0.0566 -0.4640 -0.0149
 2591ntf    on517801   1.978   5.361   0.292 -0.0307 -0.5578  0.4286
 2591ntf    on517802   2.159   5.519   0.307  0.0049  0.1989 -0.1507
 2591ntf    fn417803   1.940   5.641   0.418 -0.8856 -0.3795 -0.2805
 2591ntf    fn417804   1.871   5.476   0.533  0.3001  0.1045 -0.2816
 2591ntf    fn417805   2.038   5.575   0.598  0.0426  0.5092  0.0393
 2592ntf    cn117806   5.296   6.410   0.224  0.4273  0.0139 -0.0785
 2592ntf    sn217807   5.336   6.376   0.050  0.2084 -0.2522 -0.0769
 2592ntf    nn317808   5.228   6.472  -0.011  0.0124 -0.7032 -0.4520
 2592ntf    sn217809   5.075   6.445  -0.032 -0.1067 -0.0800 -0.4248
 2592ntf    cn117810   5.086   6.405  -0.209 -0.2876  0.1990 -0.5006
 2592ntf    fn417811   5.343   6.527   0.263 -0.2608  0.0655  0.5997
 2592ntf    fn417812   5.167   6.424   0.247  0.3733 -0.4563 -0.0954
 2592ntf    fn417813   5.342   6.319   0.308  0.3706  0.0269 -0.0341
 2592ntf    on517814   5.468   6.430   0.032 -0.0267  0.2420 -0.3406
 2592ntf    on517815   5.323   6.234   0.029 -0.7563 -0.2251  0.2782
 2592ntf    on517816   4.998   6.567  -0.033 -0.3654 -0.2221  0.7775
 2592ntf    on517817   5.021   6.327   0.032  0.0080  0.2054  0.2023
 2592ntf    fn417818   4.968   6.381  -0.263 -0.1066 -0.2177 -0.7182
 2592ntf    fn417819   5.128   6.510  -0.277  0.3262  0.0604 -0.3475
 2592ntf    fn417820   5.159   6.299  -0.240  0.6310  0.5843  0.2955
 2593ntf    cn117821   4.246   1.016   0.165 -0.1604 -0.0137  0.4621
 2593ntf    sn217822   4.113   0.911   0.230  0.0430 -0.5769 -0.0227
 2593ntf    nn317823   4.137   0.788   0.135  0.1758 -0.1549 -0.5370
 2593ntf    sn217824   4.032   0.701   0.058 -0.0669 -0.2113 -0.1459
 2593ntf    cn117825   4.129   0.551   0.026  0.1279 -0.1678  0.2374
 2593ntf    fn417826   4.245   1.131   0.230 -0.2914  0.2970 -0.0922
 2593ntf    fn417827   4.367   0.962   0.166 -0.1316  0.0375 -0.0808
 2593ntf    fn417828   4.238   1.058   0.040 -0.4615  0.0210  0.4938
 2593ntf    on517829   4.158   0.895   0.366 -0.7553 -1.0111  0.1987
 2593ntf    on517830   3.994   0.988   0.203  0.3903  0.2062  0.6369
 2593ntf    on517831   4.005   0.745  -0.077  0.3104  0.0314 -0.1447
 2593ntf    on517832   3.921   0.661   0.140 -0.4997 -0.2638 -0.7474
 2593ntf    fn417833   4.051   0.450  -0.011 -0.0033  0.0042  0.0420
 2593ntf    fn417834   4.219   0.563  -0.070  0.1922 -0.0167  0.3154
 2593ntf    fn417835   4.195   0.502   0.130  0.5539  0.4742  0.2771
 2594ntf    cn117836   4.642   4.749   2.209 -0.0269  0.0360  0.4977
 2594ntf    sn217837   4.556   4.641   2.327  0.0202 -0.2439  0.2767
 2594ntf    nn317838   4.459   4.555   2.237  0.1549 -0.2422  0.1289
 2594ntf    sn217839   4.308   4.523   2.262  0.0299  0.2449  0.0172
 2594ntf    cn117840   4.255   4.601   2.107  0.4517  0.1329 -0.1849
 2594ntf    fn417841   4.554   4.836   2.160  0.1124 -0.1733 -0.1344
 2594ntf    fn417842   4.728   4.829   2.270  0.3409  0.1501 -0.1547
 2594ntf    fn417843   4.698   4.693   2.103 -0.3675 -0.1751  0.4278
 2594ntf    on517844   4.668   4.568   2.381  0.0764 -0.0169  0.4700
 2594ntf    on517845   4.486   4.730   2.417 -0.2133  0.0653 -0.2070
 2594ntf    on517846   4.228   4.590   2.362 -0.3360 -0.5412  0.2641
 2594ntf    on517847   4.286   4.383   2.233 -0.2501  0.1947  0.4638
 2594ntf    fn417848   4.324   4.556   2.004  0.0346 -0.4427 -0.2195
 2594ntf    fn417849   4.127   4.574   2.086  0.4157  0.4162 -0.3353
 2594ntf    fn417850   4.259   4.733   2.113  0.0182  0.1550 -0.3261
 2595ntf    cn117851   0.868   2.944   1.889 -0.0226 -0.0132  0.1401
 2595ntf    sn217852   0.731   3.034   1.969 -0.2483  0.0418 -0.3071
 2595ntf    nn317853   0.781   3.032   2.118 -0.1524 -0.1704 -0.3409
 2595ntf    sn217854   0.773   3.143   2.229  0.3813 -0.0668 -0.4033
 2595ntf    cn117855   0.613   3.098   2.303  0.5386 -0.1880 -0.1340
 2595ntf    fn417856   0.855   2.949   1.758 -0.2959  0.4527  0.1815
 2595ntf    fn417857   0.989   2.989   1.919 -0.0446  0.2131 -0.1076
 2595ntf    fn417858   0.860   2.819   1.930  0.1953 -0.1119 -0.1213
 2595ntf    on517859   0.718   3.163   1.907 -0.8269 -0.0401 -0.3669
 2595ntf    on517860   0.617   2.946   1.954 -0.3476  0.0985  0.1083
 2595ntf    on517861   0.747   3.276   2.179  0.6760  0.0398 -0.2793
 2595ntf    on517862   0.864   3.129   2.340 -0.3691  0.1616  0.2479
 2595ntf    fn417863   0.617   2.987   2.374  0.6071 -0.2448 -0.2263
 2595ntf    fn417864   0.566   3.197   2.377  0.9255 -0.1655  0.0809
 2595ntf    fn417865   0.527   3.069   2.207  0.2199  0.1216  0.0558
 2596ntf    cn117866   3.989   6.173   4.822 -0.0909  0.1018  0.0195
 2596ntf    sn217867   4.079   6.324   4.869 -0.2689  0.2742 -0.1889
 2596ntf    nn317868   4.175   6.260   4.975 -0.0151  0.4640 -0.3004
 2596ntf    sn217869   4.330   6.238   4.980 -0.1130 -0.1915 -0.0066
 2596ntf    cn117870   4.356   6.329   5.135  0.2482  0.4980 -0.4661
 2596ntf    fn417871   3.907   6.201   4.721 -0.3372 -0.0079  0.1872
 2596ntf    fn417872   4.081   6.086   4.785  0.1313  0.4836 -0.3328
 2596ntf    fn417873   3.914   6.124   4.919 -0.2208  0.1011 -0.0802
 2596ntf    on517874   4.142   6.370   4.747 -0.2139 -0.2539 -0.3613
 2596ntf    on517875   3.968   6.391   4.933  0.0751  0.0144  0.6951
 2596ntf    on517876   4.412   6.309   4.885  0.1966  0.2093  0.5562
 2596ntf    on517877   4.362   6.101   5.012  0.6654  0.1240  0.5969
 2596ntf    fn417878   4.311   6.453   5.143  0.5366  0.5611  0.2954
 2596ntf    fn417879   4.289   6.271   5.233  0.2051  0.5791 -0.4471
 2596ntf    fn417880   4.484   6.338   5.167  0.1764 -0.0441 -0.0068
 2597ntf    cn117881   4.467   3.213   0.079  0.2167  0.0930 -0.4734
 2597ntf    sn217882   4.395   3.099  -0.043  0.2484 -0.1969 -0.2201
 2597ntf    nn317883   4.383   2.971   0.047  0.2796 -0.0903 -0.0628
 2597ntf    sn217884   4.487   2.857   0.074  0.2620 -0.1398 -0.2030
 2597ntf    cn117885   4.465   2.826   0.252  0.1035  0.1425 -0.1732
 2597ntf    fn417886   4.375   3.260   0.161  0.3310 -0.4298 -0.0404
 2597ntf    fn417887   4.561   3.151   0.148 -0.0665  0.3857  0.1793
 2597ntf    fn417888   4.526   3.319   0.025  0.2227  0.0522 -0.5475
 2597ntf    on517889   4.261   3.148  -0.065  0.2227  0.0471  0.4554
 2597ntf    on517890   4.485   3.088  -0.155  0.3263 -0.2106 -0.1560
 2597ntf    on517891   4.626   2.895   0.066  0.3504 -0.2453  0.7619
 2597ntf    on517892   4.462   2.727   0.017  0.1196 -0.3444  0.3230
 2597ntf    fn417893   4.534   2.723   0.299 -0.0551  0.2034  0.1990
 2597ntf    fn417894   4.500   2.932   0.322  0.1369  0.1364 -0.1806
 2597ntf    fn417895   4.338   2.803   0.281  0.1157  0.3642  0.0530
 2598ntf    cn117896   4.040   1.504   3.704 -0.0170  0.2506  0.4162
 2598ntf    sn217897   4.067   1.580   3.541  0.0330 -0.1109  0.2542
 2598ntf    nn317898   3.979   1.710   3.548  0.3450  0.1237 -0.1201
 2598ntf    sn217899   4.023   1.860   3.555  0.0811  0.2013 -0.0909
 2598ntf    cn117900   3.907   1.927   3.433  0.2097  0.3432 -0.1353
 2598ntf    fn417901   4.089   1.583   3.798 -0.1841  0.2270  0.5229
 2598ntf    fn417902   3.914   1.477   3.732  0.0394 -0.3994  0.0522
 2598ntf    fn417903   4.083   1.381   3.725 -0.0273  0.2181  0.2467
 2598ntf    on517904   4.210   1.600   3.544  0.0348 -0.0807 -0.0162
 2598ntf    on517905   4.004   1.481   3.458  0.0281 -0.5030  0.7202
 2598ntf    on517906   4.156   1.884   3.503  0.1513 -0.4067 -0.2035
 2598ntf    on517907   3.989   1.925   3.679 -0.1875 -0.4329  0.1722
 2598ntf    fn417908   3.898   1.844   3.331  0.2709  0.4678 -0.2433
 2598ntf    fn417909   3.782   1.937   3.475  0.2003  0.1475 -0.1207
 2598ntf    fn417910   3.941   2.045   3.383 -0.0717  0.5072  0.0592
 2599ntf    cn117911   1.854   2.762   5.500  0.2901  0.2366  0.1058
 2599ntf    sn217912   1.811   2.642   5.630  0.0040  0.3704  0.1348
 2599ntf    nn317913   1.713   2.552   5.546 -0.0110  0.0495  0.4973
 2599ntf    sn217914   1.623   2.432   5.592  0.4810 -0.5477 -0.0673
 2599ntf    cn117915   1.464   2.517   5.576  0.6756 -0.1449  0.1320
 2599ntf    fn417916   1.885   2.880   5.550  0.4656  0.0669  0.4002
 2599ntf    fn417917   1.952   2.711   5.427  0.2005 -0.4406  0.4462
 2599ntf    fn417918   1.756   2.783   5.414  0.5115  0.3073 -0.1313
 2599ntf    on517919   1.935   2.576   5.661  0.2634  0.7037 -0.1853
 2599ntf    on517920   1.746   2.723   5.730 -0.5153  0.0921  0.0252
 2599ntf    on517921   1.638   2.389   5.729  0.0142 -0.4153  0.0255
 2599ntf    on517922   1.610   2.331   5.490  0.6071 -0.4142 -0.2156
 2599ntf    fn417923   1.363   2.433   5.563  0.4338  0.1477  0.0987
 2599ntf    fn417924   1.436   2.581   5.689 -0.1693  0.2308 -0.2777
 2599ntf    fn417925   1.459   2.604   5.476 -0.3968 -0.0618  0.2423
 2600ntf    cn117926   2.645   3.419   6.325 -0.7271  0.0055 -0.2350
 2600ntf    sn217927   2.758   3.544   6.256 -0.2856 -0.1228  0.2500
 2600ntf    nn317928   2.700   3.671   6.327  0.3781  0.3047  0.0277
 2600ntf    sn217929   2.633   3.800   6.266  0.0068 -0.0269 -0.2663
 2600ntf    cn117930   2.773   3.908   6.223  0.1790 -0.1760 -0.0878
 2600ntf    fn417931   2.657   3.413   6.457  0.1155 -0.0645 -0.3139
 2600ntf    fn417932   2.517   3.440   6.299 -0.6928  0.2025 -0.2478
 2600ntf    fn417933   2.676   3.300   6.278  0.3095  0.2045 -0.0891
 2600ntf    on517934   2.894   3.507   6.288 -0.0877  0.4148  0.0402
 2600ntf    on517935   2.726   3.542   6.116 -0.4112 -0.5012  0.2809
 2600ntf    on517936   2.555   3.862   6.370  0.6445 -0.0583  0.2368
 2600ntf    on517937   2.569   3.789   6.137  0.5492 -0.2496 -0.5196
 2600ntf    fn417938   2.845   3.943   6.328 -0.6831 -0.0673  0.4810
 2600ntf    fn417939   2.855   3.855   6.134 -0.2991 -0.4162 -0.3947
 2600ntf    fn417940   2.733   4.021   6.167 -0.0741 -0.0644  0.3176
 2601ntf    cn117941   4.239   6.723   4.474 -0.2799  0.2338 -0.1532
 2601ntf    sn217942   4.141   6.659   4.335 -0.4966  0.1291  0.0471
 2601ntf    nn317943   4.203   6.746   4.220  0.2986 -0.0756  0.3102
 2601ntf    sn217944   4.310   6.706   4.112 -0.0860 -0.0655 -0.0760
 2601ntf    cn117945   4.286   6.834   3.984  0.3366 -0.1790 -0.2710
 2601ntf    fn417946   4.367   6.702   4.451 -0.1847 -0.0560  0.6264
 2601ntf    fn417947   4.213   6.851   4.496 -0.2722  0.3415 -0.7627
 2601ntf    fn417948   4.211   6.662   4.588 -0.6043  0.1840 -0.2578
 2601ntf    on517949   4.162   6.516   4.332 -0.3987  0.1409  0.1324
 2601ntf    on517950   4.010   6.702   4.376 -0.0996  0.8297  0.6125
 2601ntf    on517951   4.278   6.585   4.041  0.4626 -0.1428 -0.1970
 2601ntf    on517952   4.449   6.716   4.148 -0.0100  0.4469 -0.4822
 2601ntf    fn417953   4.159   6.849   3.948  0.2383 -1.1682 -0.3744
 2601ntf    fn417954   4.325   6.954   4.023  0.2320 -0.1282 -0.3212
 2601ntf    fn417955   4.362   6.820   3.877 -0.1248  0.5474 -0.7053
 2602ntf    cn117956   4.148   3.190   5.021  0.3678  0.2948 -0.6122
 2602ntf    sn217957   4.286   3.148   5.131  0.0871  0.0275 -0.3622
 2602ntf    nn317958   4.216   3.208   5.258  0.4594  0.2201 -0.2457
 2602ntf    sn217959   4.217   3.153   5.405 -0.0019  0.1499 -0.2648
 2602ntf    cn117960   4.363   3.235   5.475  0.0452 -0.1213 -0.0426
 2602ntf    fn417961   4.103   3.314   5.035 -0.1669  0.0032  0.3494
 2602ntf    fn417962   4.178   3.180   4.892 -0.0959 -0.4007 -0.6702
 2602ntf    fn417963   4.046   3.109   5.042  0.3648  0.5673  0.4693
 2602ntf    on517964   4.296   3.004   5.131  0.7199  0.0674 -0.9930
 2602ntf    on517965   4.391   3.224   5.068  0.2454 -0.2875 -0.4807
 2602ntf    on517966   4.240   3.011   5.416  0.0911  0.1785 -0.0884
 2602ntf    on517967   4.101   3.195   5.480  0.2032 -0.1637  0.2362
 2602ntf    fn417968   4.391   3.177   5.591  0.0037 -0.7238 -0.3312
 2602ntf    fn417969   4.468   3.226   5.396 -0.5072 -0.0877 -0.7834
 2602ntf    fn417970   4.341   3.364   5.495  0.2686 -0.0392 -0.3245
 2603ntf    cn117971   0.002   1.429   5.747 -0.0163 -0.3768  0.3351
 2603ntf    sn217972  -0.156   1.387   5.669 -0.1115  0.0677  0.2852
 2603ntf    nn317973  -0.260   1.484   5.735 -0.7176 -0.0169 -0.5327
 2603ntf    sn217974  -0.340   1.470   5.869  0.1886  0.1606  0.0343
 2603ntf    cn117975  -0.270   1.608   5.965  0.1035  0.2106  0.0246
 2603ntf    fn417976   0.105   1.355   5.709  0.1897 -0.0839  0.3118
 2603ntf    fn417977   0.039   1.553   5.719 -0.1562 -0.2455  0.7233
 2603ntf    fn417978  -0.010   1.426   5.879  0.2583  0.4447  0.3838
 2603ntf    on517979  -0.128   1.416   5.531  0.2344 -0.4180  0.2488
 2603ntf    on517980  -0.174   1.246   5.692  0.1281  0.0443  0.3307
 2603ntf    on517981  -0.298   1.362   5.954  0.0378  0.1176  0.0546
 2603ntf    on517982  -0.481   1.501   5.858  0.1891  0.0725 -0.2170
 2603ntf    fn417983  -0.150   1.588   6.017  0.1476 -0.2327 -0.2405
 2603ntf    fn417984  -0.272   1.726   5.906 -0.3874 -0.0645 -0.5156
 2603ntf    fn417985  -0.337   1.628   6.078 -0.4107 -0.1889 -0.2032
 2604ntf    cn117986   3.962   5.184   0.015  0.0761  0.0135  0.0912
 2604ntf    sn217987   3.923   5.017   0.073  0.2372 -0.0152  0.1191
 2604ntf    nn317988   3.933   5.033   0.229 -0.0388 -0.3157  0.1689
 2604ntf    sn217989   3.829   5.087   0.334  0.0245 -0.3376  0.2435
 2604ntf    cn117990   3.753   4.932   0.389 -0.1311 -0.2827  0.1835
 2604ntf    fn417991   4.044   5.245   0.099 -0.5154 -0.2494  0.8696
 2604ntf    fn417992   4.028   5.182  -0.100  0.0474 -0.1131  0.0772
 2604ntf    fn417993   3.853   5.258   0.013  0.5371  0.7152  0.5558
 2604ntf    on517994   3.786   4.997   0.033  0.4998 -0.1286 -0.7283
 2604ntf    on517995   4.024   4.928   0.022  0.2087  0.1157 -0.1628
 2604ntf    on517996   3.717   5.164   0.286  0.2310  0.1709  0.5693
 2604ntf    on517997   3.898   5.134   0.451  0.0911  0.2240 -0.0139
 2604ntf    fn417998   3.659   4.891   0.305 -0.1670  0.6051 -0.2175
 2604ntf    fn417999   3.835   4.832   0.418  0.0858 -0.2875 -0.4501
 2604ntf    fn418000   3.688   4.957   0.502  0.0544  0.2359  0.1771
 2605ntf    cn118001   4.686   1.460   6.938  0.0541 -0.1608  0.2017
 2605ntf    sn218002   4.863   1.424   6.956  0.0834 -0.0879  0.0571
 2605ntf    nn318003   4.843   1.274   6.998  0.1084 -0.1058  0.0058
 2605ntf    sn218004   4.824   1.232   7.148  0.1859  0.2106  0.1065
 2605ntf    cn118005   4.992   1.197   7.207  0.1014 -0.3500  0.0265
 2605ntf    fn418006   4.682   1.570   6.865  0.8010 -0.8294 -0.8819
 2605ntf    fn418007   4.615   1.378   6.862 -0.2835  0.3261 -0.0155
 2605ntf    fn418008   4.618   1.487   7.048 -0.3742  0.4553 -0.2121
 2605ntf    on518009   4.907   1.434   6.819  0.5327  0.1747  0.2166
 2605ntf    on518010   4.919   1.511   7.056  0.0242  0.0807 -0.0553
 2605ntf    on518011   4.765   1.100   7.154 -0.1857  0.3334 -0.6331
 2605ntf    on518012   4.768   1.324   7.243  0.0350 -0.4003  0.6169
 2605ntf    fn418013   5.010   1.220   7.336 -0.1777  0.3812 -0.0570
 2605ntf    fn418014   5.026   1.071   7.189 -0.2053 -0.4272 -0.0149
 2605ntf    fn418015   5.076   1.263   7.129 -0.5293  0.2994 -0.1130
 2606ntf    cn118016   2.097   2.063   2.484  0.1651 -0.0672  0.2174
 2606ntf    sn218017   2.008   2.127   2.629 -0.2370  0.3570 -0.2112
 2606ntf    nn318018   2.060   2.275   2.636 -0.1936  0.3125  0.4876
 2606ntf    sn218019   2.036   2.393   2.535 -0.2678 -0.1765 -0.0758
 2606ntf    cn118020   1.967   2.494   2.670 -0.4981  0.0476 -0.3611
 2606ntf    fn418021   2.072   1.935   2.464  0.1666  0.0047 -0.2629
 2606ntf    fn418022   2.051   2.125   2.376 -0.3021  0.5908  0.7874
 2606ntf    fn418023   2.229   2.066   2.493  0.2327  0.3613 -0.6948
 2606ntf    on518024   1.867   2.112   2.602 -0.3190 -0.0264  0.4190
 2606ntf    on518025   2.071   2.049   2.732 -0.2595  0.1973 -0.3176
 2606ntf    on518026   1.931   2.379   2.438 -0.1915  0.5430 -0.2632
 2606ntf    on518027   2.158   2.453   2.489 -0.1624 -0.2668  0.0859
 2606ntf    fn418028   1.911   2.607   2.629  0.0827  0.4380 -0.1019
 2606ntf    fn418029   1.872   2.427   2.734 -0.0104  0.0143  0.3366
 2606ntf    fn418030   2.055   2.537   2.759 -0.8760  0.0346  0.0230
 2607ntf    cn118031   4.435   4.008   4.311  0.0033 -0.2915  0.2908
 2607ntf    sn218032   4.295   4.088   4.394 -0.0000 -0.3173  0.3094
 2607ntf    nn318033   4.174   4.013   4.327  0.2340  0.0084 -0.4827
 2607ntf    sn218034   4.057   3.929   4.388  0.1605  0.2886 -0.2354
 2607ntf    cn118035   3.907   4.003   4.316 -0.0347  0.1245 -0.0003
 2607ntf    fn418036   4.557   4.038   4.353 -0.1551  0.3828  0.2826
 2607ntf    fn418037   4.420   3.877   4.308 -0.4742 -0.2416  0.5217
 2607ntf    fn418038   4.443   4.048   4.185 -0.5011  0.3306  0.4522
 2607ntf    on518039   4.323   4.056   4.532 -0.4477 -0.5890  0.3401
 2607ntf    on518040   4.298   4.225   4.349 -0.5730 -0.3040  0.3001
 2607ntf    on518041   4.045   3.945   4.531  0.2965  0.0229 -0.1937
 2607ntf    on518042   4.054   3.798   4.328 -0.7443  0.3241 -0.2852
 2607ntf    fn418043   3.916   4.003   4.184 -0.1540  0.0649 -0.0089
 2607ntf    fn418044   3.797   3.934   4.342  0.0173  0.2947  0.6843
 2607ntf    fn418045   3.886   4.128   4.351 -0.1027  0.2899 -0.6138
 2608ntf    cn118046   2.545   5.111   3.157 -0.0667  0.1690  0.2662
 2608ntf    sn218047   2.538   5.266   3.063 -0.0108 -0.0389 -0.0797
 2608ntf    nn318048   2.397   5.255   2.996 -0.1690 -0.2458  0.2867
 2608ntf    sn218049   2.257   5.295   3.055 -0.2676 -0.5348  0.2551
 2608ntf    cn118050   2.244   5.467   2.997  0.6202 -0.5631 -0.0454
 2608ntf    fn418051   2.447   5.095   3.245 -0.2370  0.0484  0.0540
 2608ntf    fn418052   2.551   5.005   3.078  0.6001 -0.1701  0.7601
 2608ntf    fn418053   2.661   5.117   3.220  0.4822 -0.5006 -0.6668
 2608ntf    on518054   2.554   5.372   3.159 -0.0749  0.2857 -0.4260
 2608ntf    on518055   2.645   5.243   2.969  0.0034 -0.0578 -0.0590
 2608ntf    on518056   2.247   5.310   3.199  0.0368 -0.4259  0.2655
 2608ntf    on518057   2.147   5.223   2.997 -0.3411 -0.0907 -0.1621
 2608ntf    fn418058   2.340   5.545   3.044 -0.0170 -0.0627  0.4498
 2608ntf    fn418059   2.250   5.473   2.865 -0.1461  0.3522 -0.0539
 2608ntf    fn418060   2.129   5.523   3.032  0.7273 -0.3224 -0.0754
 2609ntf    cn118061   2.632   4.878   4.756  0.1183 -0.4618 -0.3016
 2609ntf    sn218062   2.688   4.710   4.716 -0.0817 -0.5147 -0.3605
 2609ntf    nn318063   2.778   4.725   4.588 -0.2926  0.1840 -0.4292
 2609ntf    sn218064   2.930   4.714   4.550 -0.2241  0.3789 -0.2139
 2609ntf    cn118065   2.911   4.596   4.413 -0.0177 -0.0456  0.1222
 2609ntf    fn418066   2.540   4.918   4.670  0.0950 -0.0644 -0.0928
 2609ntf    fn418067   2.569   4.894   4.871 -0.3542  0.2678 -0.6549
 2609ntf    fn418068   2.723   4.974   4.754 -0.3681  0.0367  0.5807
 2609ntf    on518069   2.764   4.663   4.829 -0.5623 -0.8155 -0.1575
 2609ntf    on518070   2.561   4.643   4.701 -0.5040  0.2205 -0.0941
 2609ntf    on518071   3.021   4.656   4.646  0.0059  0.5187 -0.3451
 2609ntf    on518072   2.983   4.835   4.491  0.3544  0.2741  0.0781
 2609ntf    fn418073   2.805   4.520   4.439 -0.3027  0.3151  0.0347
 2609ntf    fn418074   2.884   4.646   4.294  0.7431 -0.5861 -0.2816
 2609ntf    fn418075   3.014   4.515   4.397 -0.0771 -0.1254  0.1377
 2610ntf    cn118076   0.517   0.225   0.075 -0.0623 -0.0153  0.3388
 2610ntf    sn218077   0.527   0.403   0.036 -0.1265 -0.1429 -0.2789
 2610ntf    nn318078   0.381   0.441   0.080  0.1764  0.0657  0.5740
 2610ntf    sn218079   0.272   0.507  -0.013  0.4796  0.1990  0.3081
 2610ntf    cn118080   0.274   0.675   0.057  0.2003  0.3222  0.0235
 2610ntf    fn418081   0.620   0.163   0.021  0.0441  0.4464  0.0013
 2610ntf    fn418082   0.534   0.198   0.203  0.2176 -0.2373  0.2561
 2610ntf    fn418083   0.404   0.167   0.038  0.2462 -0.0642 -0.5532
 2610ntf    on518084   0.635   0.451   0.119 -0.0010 -0.3173 -0.3416
 2610ntf    on518085   0.566   0.404  -0.102 -0.2497 -0.0367 -0.3134
 2610ntf    on518086   0.143   0.447   0.012  0.5678  0.0725  0.4666
 2610ntf    on518087   0.303   0.528  -0.152 -0.1256  0.3508  0.1947
 2610ntf    fn418088   0.203   0.760  -0.014  0.8377  0.3171 -0.6361
 2610ntf    fn418089   0.229   0.674   0.182  0.1987  0.1095  0.0218
 2610ntf    fn418090   0.397   0.723   0.064  0.3500 -0.0171 -0.2014
 2611ntf    cn118091   0.451   6.323   0.842  0.1758 -0.1071  0.2681
 2611ntf    sn218092   0.373   6.392   0.692 -0.0343 -0.1465  0.3587
 2611ntf    nn318093   0.311   6.264   0.626  0.5548  0.2995 -1.1099
 2611ntf    sn218094   0.169   6.241   0.563  0.1375  0.1014 -0.1278
 2611ntf    cn118095   0.079   6.137   0.681  0.0884  0.1416 -0.1298
 2611ntf    fn418096   0.359   6.269   0.920 -0.2363  0.1171 -0.0516
 2611ntf    fn418097   0.548   6.235   0.821  0.2209  0.0498 -0.2095
 2611ntf    fn418098   0.514   6.412   0.916 -0.0062  0.1146  0.1594
 2611ntf    on518099   0.282   6.486   0.752 -0.1089 -0.2285  0.3741
 2611ntf    on518100   0.481   6.446   0.612 -0.0814 -0.5834 -0.0024
 2611ntf    on518101   0.164   6.152   0.450  0.2310 -0.0738  0.0057
 2611ntf    on518102   0.098   6.365   0.544  0.3048  0.1418 -0.4927
 2611ntf    fn418103   0.036   6.209   0.784 -0.0285 -0.0533 -0.0401
 2611ntf    fn418104  -0.031   6.083   0.631 -0.1148  0.3807  0.0607
 2611ntf    fn418105   0.156   6.034   0.713  0.3634  0.2019 -0.5958
 2612ntf    cn118106   2.568   2.172   6.420  0.2059  0.1091 -0.0553
 2612ntf    sn218107   2.600   2.308   6.304  0.5652 -0.0884 -0.1906
 2612ntf    nn318108   2.597   2.433   6.399 -0.3526 -0.4746  0.3061
 2612ntf    sn218109   2.507   2.562   6.403 -0.1595 -0.3369  0.2125
 2612ntf    cn118110   2.636   2.686   6.436 -0.4502  0.0897 -0.2420
 2612ntf    fn418111   2.651   2.068   6.418  0.1433  0.0560  0.1108
 2612ntf    fn418112   2.568   2.215   6.545  0.5633 -0.6255  0.2045
 2612ntf    fn418113   2.452   2.112   6.399 -0.0978  0.4663  0.5581
 2612ntf    on518114   2.724   2.260   6.250  0.8811  0.6090 -0.0931
 2612ntf    on518115   2.490   2.316   6.211  0.7469  0.2664 -0.3738
 2612ntf    on518116   2.418   2.566   6.516  0.0669  0.0712  0.3796
 2612ntf    on518117   2.451   2.607   6.278 -0.7296  0.6359  0.8053
 2612ntf    fn418118   2.586   2.805   6.405 -0.1012  0.2345 -0.2466
 2612ntf    fn418119   2.666   2.687   6.565  0.3074  0.0226 -0.4184
 2612ntf    fn418120   2.749   2.670   6.370  0.0324 -0.2236  0.6382
 2613ntf    cn118121   1.891   2.128   4.120  0.4181 -0.1596 -0.0439
 2613ntf    sn218122   1.852   2.099   4.295 -0.2668 -0.1196 -0.1866
 2613ntf    nn318123   1.737   2.202   4.325  0.3997  0.4733  0.3679
 2613ntf    sn218124   1.592   2.185   4.385  0.2189  0.0208 -0.1893
 2613ntf    cn118125   1.497   2.167   4.231 -0.1571 -0.3300  0.0848
 2613ntf    fn418126   1.783   2.153   4.047  0.2378  0.3615  0.4005
 2613ntf    fn418127   1.954   2.242   4.098 -0.3761  0.3130  0.1006
 2613ntf    fn418128   1.955   2.024   4.069  0.2857 -0.4266  0.3339
 2613ntf    on518129   1.819   1.959   4.305  0.5893 -0.3372 -0.3622
 2613ntf    on518130   1.975   2.141   4.357 -0.4423  0.3090 -0.1186
 2613ntf    on518131   1.526   2.306   4.428 -0.4871 -0.6043  0.4819
 2613ntf    on518132   1.556   2.061   4.448 -0.4383  0.3956  0.1752
 2613ntf    fn418133   1.505   2.277   4.158 -0.0633 -0.0056  0.5770
 2613ntf    fn418134   1.537   2.058   4.167  0.1409 -0.2905  0.2021
 2613ntf    fn418135   1.368   2.151   4.258 -0.2404  0.0739 -0.0635
 2614ntf    cn118136   0.394   1.757   3.838  0.2271  0.2744  0.1166
 2614ntf    sn218137   0.423   1.735   4.016  0.3207 -0.3070  0.0323
 2614ntf    nn318138   0.270   1.756   4.047  0.3477  0.2767 -0.2142
 2614ntf    sn218139   0.205   1.858   4.148 -0.1767  0.1591 -0.4332
 2614ntf    cn118140   0.140   1.983   4.033 -0.0236  0.3056 -0.3604
 2614ntf    fn418141   0.303   1.849   3.810  0.0757  0.0713 -0.0597
 2614ntf    fn418142   0.501   1.780   3.764  0.3957  0.2547  0.3548
 2614ntf    fn418143   0.339   1.649   3.786  0.7516 -0.1804  0.4997
 2614ntf    on518144   0.475   1.601   4.024  0.4642 -0.2555 -0.0404
 2614ntf    on518145   0.510   1.846   4.047  0.1432 -0.2207  0.2290
 2614ntf    on518146   0.292   1.932   4.235 -0.4074 -0.3804  0.2726
 2614ntf    on518147   0.089   1.806   4.217 -0.0018 -0.2101 -0.4152
 2614ntf    fn418148   0.234   2.034   3.954  0.3142 -0.2585 -0.3285
 2614ntf    fn418149   0.041   1.941   3.956 -0.2780 -0.2221  0.2519
 2614ntf    fn418150   0.091   2.079   4.109  0.0054  0.4956 -0.5811
 2615ntf    cn118151   0.322   4.278   3.697 -0.1231  0.0022  0.1344
 2615ntf    sn218152   0.249   4.187   3.837  0.2483 -0.2526  0.1621
 2615ntf    nn318153   0.357   4.231   3.943  0.6962 -0.5689 -0.1590
 2615ntf    sn218154   0.380   4.165   4.083  0.3416 -0.0346  0.1525
 2615ntf    cn118155   0.502   4.286   4.143  0.0437  0.0715  0.5499
 2615ntf    fn418156   0.246   4.271   3.589 -0.1026  0.3488  0.0948
 2615ntf    fn418157   0.333   4.407   3.724 -0.9007  0.0928  0.0457
 2615ntf    fn418158   0.443   4.236   3.664 -0.4148 -0.8395  0.1298
 2615ntf    on518159   0.115   4.239   3.848  0.3290  0.1969 -0.8673
 2615ntf    on518160   0.260   4.053   3.785  1.2107 -0.2862  0.4280
 2615ntf    on518161   0.458   4.045   4.067 -0.2693 -0.4640  0.3344
 2615ntf    on518162   0.277   4.178   4.184  0.6446  0.0944  0.4469
 2615ntf    fn418163   0.452   4.409   4.141  0.1008  0.0911 -0.0695
 2615ntf    fn418164   0.530   4.264   4.270 -0.0317  0.5133  0.6476
 2615ntf    fn418165   0.617   4.299   4.078 -0.0047 -0.2666  0.3954
 2616ntf    cn118166   1.743   0.812   5.962 -0.0452  0.3002 -0.1816
 2616ntf    sn218167   1.726   0.700   6.104 -0.0760  0.2625 -0.2155
 2616ntf    nn318168   1.574   0.662   6.103 -0.0077 -0.0170 -0.1499
 2616ntf    sn218169   1.489   0.537   6.061 -0.0110 -0.0931  0.0819
 2616ntf    cn118170   1.438   0.483   6.227  0.1271 -0.5028 -0.0077
 2616ntf    fn418171   1.866   0.858   5.945 -0.0403  0.2892 -0.1765
 2616ntf    fn418172   1.705   0.767   5.844 -0.1562  0.3333 -0.1592
 2616ntf    fn418173   1.676   0.923   5.990 -0.1123  0.1266  0.3648
 2616ntf    on518174   1.818   0.592   6.075  0.3299  0.5793 -0.1153
 2616ntf    on518175   1.755   0.773   6.224  0.3065 -0.7630  0.3331
 2616ntf    on518176   1.571   0.432   6.005 -0.4544 -0.2407 -0.3011
 2616ntf    on518177   1.365   0.563   5.991  0.2728 -0.4809 -0.5787
 2616ntf    fn418178   1.465   0.563   6.328  0.2065 -0.4062 -0.1056
 2616ntf    fn418179   1.308   0.458   6.239 -0.0558  0.1939 -0.4630
 2616ntf    fn418180   1.494   0.369   6.262  0.0411 -0.4531  0.2928
 2617ntf    cn118181   5.728   1.316   6.382  0.3292  0.3303 -0.2851
 2617ntf    sn218182   5.745   1.362   6.557 -0.0007 -0.3055 -0.0802
 2617ntf    nn318183   5.876   1.447   6.537  0.2757 -0.8916 -0.7783
 2617ntf    sn218184   6.024   1.406   6.572  0.3996 -0.1153 -0.3917
 2617ntf    cn118185   6.030   1.441   6.751 -0.0867 -0.1179 -0.3731
 2617ntf    fn418186   5.744   1.414   6.295  0.0932  0.5829 -0.0425
 2617ntf    fn418187   5.823   1.230   6.350  0.2084  0.0593  0.0862
 2617ntf    fn418188   5.611   1.259   6.356  0.0518  0.6279  0.3084
 2617ntf    on518189   5.628   1.443   6.577  0.2032  0.0613 -0.3479
 2617ntf    on518190   5.749   1.240   6.632 -0.2790 -0.1380  0.2086
 2617ntf    on518191   6.120   1.499   6.518 -0.1191  0.8263  0.2825
 2617ntf    on518192   6.053   1.266   6.562 -0.3204 -0.3080  0.1270
 2617ntf    fn418193   5.923   1.386   6.807  0.4572 -0.8316 -0.0311
 2617ntf    fn418194   6.143   1.393   6.800  0.2435  0.8398 -0.1750
 2617ntf    fn418195   6.029   1.569   6.784  0.2450 -0.2612  0.1894
 2618ntf    cn118196   2.888   5.515   1.994  0.0178 -0.0946 -0.3708
 2618ntf    sn218197   3.033   5.537   2.101 -0.2201 -0.3769  0.0099
 2618ntf    nn318198   3.031   5.693   2.120  0.3318 -0.3299 -0.2875
 2618ntf    sn218199   3.082   5.766   2.249  0.2235 -0.2899 -0.2681
 2618ntf    cn118200   2.928   5.766   2.346  0.3585 -0.2174 -0.0525
 2618ntf    fn418201   2.777   5.523   2.065  0.3118  0.1176  0.0706
 2618ntf    fn418202   2.882   5.601   1.894  0.3207 -0.4676 -0.7164
 2618ntf    fn418203   2.878   5.398   1.932 -0.4034 -0.0288 -0.4323
 2618ntf    on518204   3.013   5.459   2.220 -0.5046  0.3058  0.4139
 2618ntf    on518205   3.143   5.501   2.015  0.0766 -0.4639  0.4204
 2618ntf    on518206   3.115   5.905   2.233  0.0292 -0.2077  0.0254
 2618ntf    on518207   3.168   5.688   2.334  0.2082  0.2124  0.2164
 2618ntf    fn418208   2.938   5.838   2.456  0.0296 -0.1870 -0.0404
 2618ntf    fn418209   2.831   5.822   2.276  0.7905 -0.2518 -0.6803
 2618ntf    fn418210   2.892   5.645   2.386 -0.0348  0.1748  0.8118
 2619ntf    cn118211   2.602   5.506   4.715 -0.7679  0.0478 -0.5760
 2619ntf    sn218212   2.603   5.638   4.589 -0.0361  0.3662 -0.2448
 2619ntf    nn318213   2.730   5.722   4.629 -0.2535  0.7719 -0.4032
 2619ntf    sn218214   2.875   5.706   4.572 -0.1297 -0.1862  0.1560
 2619ntf    cn118215   2.929   5.879   4.593 -0.0930 -0.1811  0.0220
 2619ntf    fn418216   2.712   5.433   4.712 -0.5793  0.3142 -0.2365
 2619ntf    fn418217   2.587   5.557   4.836  0.4588  0.4881 -0.5891
 2619ntf    fn418218   2.509   5.413   4.700 -0.3352 -0.4104 -0.4442
 2619ntf    on518219   2.595   5.580   4.458  0.1008 -0.3816  0.0713
 2619ntf    on518220   2.489   5.720   4.620 -0.1259  0.0246  0.3560
 2619ntf    on518221   2.893   5.682   4.431  0.3306  0.2528  0.1352
 2619ntf    on518222   2.962   5.633   4.661 -0.0852 -0.3547 -0.0262
 2619ntf    fn418223   3.042   5.908   4.531 -0.3180  0.2686 -0.1764
 2619ntf    fn418224   2.835   5.959   4.547  0.0285 -0.1809 -0.2292
 2619ntf    fn418225   2.954   5.912   4.719  0.0810 -0.2001 -0.0078
 2620ntf    cn118226   1.550   2.101   3.317  0.4520 -0.1038  0.1237
 2620ntf    sn218227   1.538   2.197   3.470 -0.0489  0.1078 -0.0457
 2620ntf    nn318228   1.654   2.300   3.444  0.1267 -0.1315 -0.2075
 2620ntf    sn218229   1.656   2.452   3.480 -0.0801 -0.1792  0.0123
 2620ntf    cn118230   1.830   2.481   3.526 -0.1310  0.4908 -0.2003
 2620ntf    fn418231   1.450   2.014   3.306  0.4336 -0.0879  0.1640
 2620ntf    fn418232   1.546   2.185   3.215  0.5303 -0.7175 -0.3960
 2620ntf    fn418233   1.663   2.032   3.321  0.0430 -0.8236 -0.3737
 2620ntf    on518234   1.406   2.255   3.467  0.2540  0.7896 -0.5097
 2620ntf    on518235   1.574   2.106   3.576 -0.3468  0.0622  0.0178
 2620ntf    on518236   1.579   2.483   3.598  0.0220  0.5250 -0.0997
 2620ntf    on518237   1.641   2.539   3.366 -0.0277  0.2724  0.3447
 2620ntf    fn418238   1.913   2.380   3.505 -0.1191  0.4036  0.2571
 2620ntf    fn418239   1.890   2.575   3.454  0.4153  0.3792  0.1015
 2620ntf    fn418240   1.851   2.514   3.652 -0.1245  0.0757 -0.0915
 2621ntf    cn118241   4.598   6.506   1.106  0.1785  0.3588 -0.1112
 2621ntf    sn218242   4.750   6.481   1.010  0.1260 -0.1228 -0.0707
 2621ntf    nn318243   4.696   6.553   0.881  0.5745  0.1523 -0.1085
 2621ntf    sn218244   4.663   6.496   0.739  0.2625 -0.0002  0.0245
 2621ntf    cn118245   4.707   6.638   0.634  0.0011 -0.2132 -0.3775
 2621ntf    fn418246   4.496   6.443   1.050  0.1783 -0.1971  0.4996
 2621ntf    fn418247   4.607   6.465   1.231  0.3516  0.3222 -0.1350
 2621ntf    fn418248   4.556   6.631   1.107 -0.1994  0.2321  0.6964
 2621ntf    on518249   4.858   6.557   1.069  0.2259 -0.0530 -0.3421
 2621ntf    on518250   4.769   6.338   1.013 -0.1482 -0.1568  0.0445
 2621ntf    on518251   4.526   6.465   0.706  0.1719  0.0656  0.3354
 2621ntf    on518252   4.766   6.402   0.704 -0.0807 -0.2415 -0.3480
 2621ntf    fn418253   4.704   6.607   0.506 -0.6081 -0.3569 -0.3304
 2621ntf    fn418254   4.615   6.733   0.641 -0.1773 -0.4197  0.1528
 2621ntf    fn418255   4.822   6.693   0.668 -0.0736 -0.4252  0.2442
 2622ntf    cn118256   6.734   5.891   1.609  0.5006  0.2525 -0.1551
 2622ntf    sn218257   6.654   5.739   1.671  0.0369  0.4257 -0.3209
 2622ntf    nn318258   6.722   5.725   1.812 -0.1464  0.5949 -0.2160
 2622ntf    sn218259   6.686   5.797   1.947  0.0173 -0.0874  0.1979
 2622ntf    cn118260   6.648   5.670   2.070 -0.3381 -0.0219  0.1582
 2622ntf    fn418261   6.707   5.920   1.483 -0.3652  0.1478 -0.0045
 2622ntf    fn418262   6.696   5.999   1.674  0.9726  0.2769  0.0813
 2622ntf    fn418263   6.866   5.891   1.616  0.4778 -0.0440  0.3121
 2622ntf    on518264   6.511   5.759   1.664 -0.0831 -0.0251  0.7310
 2622ntf    on518265   6.701   5.634   1.584 -0.3981  0.6565 -0.8447
 2622ntf    on518266   6.567   5.880   1.941 -0.0625 -0.2314 -0.2402
 2622ntf    on518267   6.804   5.861   1.999  0.2112  0.0958 -0.4540
 2622ntf    fn418268   6.643   5.717   2.194  0.4529  0.4074  0.0295
 2622ntf    fn418269   6.535   5.604   2.047 -0.5941  0.2980  0.4890
 2622ntf    fn418270   6.749   5.584   2.074 -0.4205 -0.1404 -0.2692
 2623ntf    cn118271   1.977   2.929   3.937 -0.2305 -0.7656  0.0621
 2623ntf    sn218272   2.132   3.011   3.984 -0.5853  0.0462 -0.1666
 2623ntf    nn318273   2.081   3.083   4.114 -0.2036 -0.0078  0.0126
 2623ntf    sn218274   2.099   3.057   4.268  0.2268 -0.1999 -0.0675
 2623ntf    cn118275   2.157   3.222   4.318 -0.2363 -0.1720  0.3910
 2623ntf    fn418276   1.890   3.029   3.927  0.4893 -0.1823 -0.4856
 2623ntf    fn418277   1.991   2.870   3.819  0.3444 -0.5029 -0.0036
 2623ntf    fn418278   1.936   2.836   4.022  0.0143 -0.8116  0.1300
 2623ntf    on518279   2.232   2.910   4.005 -0.3860  0.3255  0.2494
 2623ntf    on518280   2.153   3.102   3.874 -0.3285 -0.1006 -0.2392
 2623ntf    on518281   2.211   2.971   4.296 -0.2653 -0.9298 -0.3067
 2623ntf    on518282   1.976   3.027   4.337  0.3943 -0.9647 -0.0903
 2623ntf    fn418283   2.069   3.318   4.298  0.5563  0.4422 -0.2122
 2623ntf    fn418284   2.188   3.228   4.447  0.0979  0.5732  0.2840
 2623ntf    fn418285   2.265   3.271   4.258 -0.3945 -0.3199 -0.0155
 2624ntf    cn118286   1.593   0.548   3.118  0.3945  0.1833 -0.2055
 2624ntf    sn218287   1.664   0.484   2.964  0.1001 -0.2022 -0.1823
 2624ntf    nn318288   1.681   0.336   3.012  0.1954 -0.1989 -0.2060
 2624ntf    sn218289   1.804   0.267   3.083  0.1270  0.0454  0.1564
 2624ntf    cn118290   1.850   0.163   2.940  0.5628  0.4988 -0.0352
 2624ntf    fn418291   1.483   0.482   3.153  0.3613  0.4657  0.2380
 2624ntf    fn418292   1.675   0.545   3.222  0.0353  0.3155  0.0822
 2624ntf    fn418293   1.554   0.674   3.106 -0.1067  0.0711  0.1792
 2624ntf    on518294   1.554   0.492   2.871 -0.1491  0.5287  0.1681
 2624ntf    on518295   1.781   0.563   2.934  0.1871 -0.1903  0.1909
 2624ntf    on518296   1.758   0.178   3.186 -0.4026 -0.3226 -0.3848
 2624ntf    on518297   1.919   0.349   3.107  0.1343  0.0505  0.1048
 2624ntf    fn418298   1.756   0.070   2.938  0.5423  0.5241 -0.3273
 2624ntf    fn418299   1.848   0.225   2.823 -0.1376  0.3519 -0.1061
 2624ntf    fn418300   1.968   0.104   2.948  0.2924  0.0094  0.3852
 2625ntf    cn118301   4.013   4.703   1.606  0.2811  0.0776  0.3419
 2625ntf    sn218302   3.941   4.563   1.514 -0.0470  0.3628  0.1589
 2625ntf    nn318303   4.073   4.493   1.466 -0.1982  0.2556 -0.1034
 2625ntf    sn218304   4.150   4.513   1.331  0.0986 -0.0050  0.0272
 2625ntf    cn118305   4.313   4.443   1.372 -0.0733 -0.4327 -0.0145
 2625ntf    fn418306   4.085   4.787   1.533 -0.3840  0.1172 -0.2890
 2625ntf    fn418307   3.914   4.779   1.651  0.5069  0.1336  0.7357
 2625ntf    fn418308   4.087   4.657   1.704  0.0879 -0.0065  0.4492
 2625ntf    on518309   3.886   4.485   1.621  0.3054  0.1588  0.1932
 2625ntf    on518310   3.851   4.616   1.415 -0.2226  0.4670  0.3741
 2625ntf    on518311   4.173   4.653   1.302  0.4359 -0.0018  0.3026
 2625ntf    on518312   4.107   4.424   1.226 -0.1154  0.2413 -0.0949
 2625ntf    fn418313   4.408   4.471   1.284 -0.0006  0.0009  0.2024
 2625ntf    fn418314   4.357   4.490   1.487 -0.2876  0.1125 -0.1525
 2625ntf    fn418315   4.307   4.313   1.394 -0.1205 -0.4455 -0.1034
 2626ntf    cn118316   0.938   2.621   2.231 -0.0937  0.3870  0.7201
 2626ntf    sn218317   1.002   2.543   2.382  0.1666 -0.3622  0.2275
 2626ntf    nn318318   0.871   2.480   2.442  0.1487 -0.4079  0.1409
 2626ntf    sn218319   0.836   2.328   2.463 -0.1756 -0.3539 -0.0046
 2626ntf    cn118320   0.938   2.279   2.605 -0.0311 -0.3517 -0.1077
 2626ntf    fn418321   0.921   2.751   2.253 -0.2762  0.4244  0.3743
 2626ntf    fn418322   1.024   2.636   2.131 -0.1454 -0.1245  0.5974
 2626ntf    fn418323   0.826   2.572   2.182  0.1680 -0.1014  0.6125
 2626ntf    on518324   1.104   2.457   2.329 -0.0429 -0.3093 -0.2726
 2626ntf    on518325   1.048   2.657   2.458  0.0059 -0.1671  0.0353
 2626ntf    on518326   0.882   2.249   2.351 -0.0706  0.1689 -0.3350
 2626ntf    on518327   0.699   2.312   2.503 -0.3185 -0.3397 -0.4726
 2626ntf    fn418328   0.951   2.382   2.687 -0.1688 -0.2777 -0.1793
 2626ntf    fn418329   0.887   2.173   2.666  0.1126 -0.3617 -0.0049
 2626ntf    fn418330   1.059   2.247   2.561  0.1569  0.5738 -0.2880
 2627ntf    cn118331   1.056   1.635   0.950 -0.0266 -0.0233  0.4543
 2627ntf    sn218332   1.078   1.466   1.013 -0.1802 -0.2723 -0.1568
 2627ntf    nn318333   1.017   1.478   1.157 -0.1724  0.1616 -0.1875
 2627ntf    sn218334   0.882   1.424   1.217  0.1032 -0.6588 -0.2905
 2627ntf    cn118335   0.920   1.247   1.231  0.1711 -0.6143  0.1063
 2627ntf    fn418336   0.933   1.674   0.920 -0.0363  0.1369  0.6984
 2627ntf    fn418337   1.106   1.733   1.025 -0.2138  0.3879  0.0471
 2627ntf    fn418338   1.117   1.648   0.834 -0.2756 -0.0719  0.3179
 2627ntf    on518339   1.011   1.376   0.922  0.1946 -0.2626 -0.4426
 2627ntf    on518340   1.221   1.455   1.026 -0.2325 -0.1974  0.5215
 2627ntf    on518341   0.768   1.421   1.129  0.0863  0.1486 -0.3034
 2627ntf    on518342   0.864   1.469   1.353  0.1392  0.1087 -0.5369
 2627ntf    fn418343   1.034   1.231   1.295  0.1093 -1.2268  0.0714
 2627ntf    fn418344   0.825   1.174   1.289 -0.0767 -0.2120  0.2104
 2627ntf    fn418345   0.931   1.192   1.111  0.3765  0.5373 -0.4076
 2628ntf    cn118346   2.373   6.941   0.531  0.5958  0.1974  0.0161
 2628ntf    sn218347   2.281   6.938   0.688  0.3286  0.0685 -0.1421
 2628ntf    nn318348   2.197   7.069   0.664 -0.3114 -0.3255 -0.0715
 2628ntf    sn218349   2.045   7.088   0.630 -0.2626 -0.3220 -0.2884
 2628ntf    cn118350   2.054   7.207   0.493 -0.0166  0.0240  0.0239
 2628ntf    fn418351   2.426   6.822   0.512 -0.1638 -0.1401 -0.0359
 2628ntf    fn418352   2.295   6.956   0.425  0.3399  0.0829  0.1867
 2628ntf    fn418353   2.464   7.036   0.522  0.4778  0.3037 -0.0745
 2628ntf    on518354   2.209   6.813   0.690  0.4143  0.0177 -0.1951
 2628ntf    on518355   2.385   6.962   0.784  0.2412 -0.4214  0.0788
 2628ntf    on518356   1.981   7.167   0.733 -0.0584 -0.0514 -0.3680
 2628ntf    on518357   1.963   6.980   0.581 -0.2899 -0.4463  0.0266
 2628ntf    fn418358   2.121   7.311   0.540  0.4700 -0.2747 -0.0038
 2628ntf    fn418359   2.133   7.168   0.394 -0.1000  0.1642 -0.0982
 2628ntf    fn418360   1.932   7.243   0.455 -0.1404 -0.5596 -0.1403
 2629ntf    cn118361   4.470   0.513   6.662  0.1229  0.2181 -0.2306
 2629ntf    sn218362   4.404   0.515   6.492 -0.2896  0.2866 -0.0707
 2629ntf    nn318363   4.480   0.388   6.438 -0.4991  0.1036  0.0650
 2629ntf    sn218364   4.418   0.258   6.375  0.3134 -0.1230 -0.2755
 2629ntf    cn118365   4.567   0.178   6.308  0.2348 -0.0756 -0.5075
 2629ntf    fn418366   4.425   0.416   6.740  0.3409  0.0004 -0.3712
 2629ntf    fn418367   4.601   0.493   6.664  0.1555  0.4789  0.1246
 2629ntf    fn418368   4.443   0.626   6.724 -0.2427 -0.3084  0.5876
 2629ntf    on518369   4.263   0.522   6.521 -0.3102  0.1072 -0.1280
 2629ntf    on518370   4.468   0.632   6.438 -0.0879  0.1185 -0.2004
 2629ntf    on518371   4.334   0.280   6.260  0.1158  0.5871 -0.0030
 2629ntf    on518372   4.383   0.154   6.469  0.1912 -0.6572 -0.9054
 2629ntf    fn418373   4.663   0.171   6.399 -0.3983  0.1954  0.1882
 2629ntf    fn418374   4.538   0.059   6.258  0.0663 -0.2689  0.0344
 2629ntf    fn418375   4.621   0.248   6.210 -0.2331 -0.0911 -0.7771
 2630ntf    cn118376   3.458   2.882   4.827 -0.0445 -0.2816  0.3582
 2630ntf    sn218377   3.354   3.012   4.899 -0.4288 -0.2669 -0.2120
 2630ntf    nn318378   3.331   3.111   4.780  0.8843  0.1901 -0.0990
 2630ntf    sn218379   3.223   3.096   4.668  0.6590  0.0377  0.1374
 2630ntf    cn118380   3.084   3.193   4.735  0.1585 -0.4534 -0.1803
 2630ntf    fn418381   3.431   2.854   4.700  0.2495  0.5999  0.0993
 2630ntf    fn418382   3.587   2.911   4.832 -0.0919 -0.1002  0.5229
 2630ntf    fn418383   3.436   2.766   4.888  0.4724 -0.4713  0.1926
 2630ntf    on518384   3.240   2.943   4.954 -0.6384  0.1544 -0.1164
 2630ntf    on518385   3.445   3.070   4.994 -0.0988 -0.5672 -0.3409
 2630ntf    on518386   3.187   2.960   4.638  0.2877  0.0935  0.3138
 2630ntf    on518387   3.261   3.179   4.556 -0.0473  0.2826  0.0723
 2630ntf    fn418388   3.006   3.124   4.817 -0.0649 -0.0900 -0.0882
 2630ntf    fn418389   3.120   3.309   4.788  0.6672 -0.5817 -0.2357
 2630ntf    fn418390   3.008   3.238   4.637 -0.0988 -0.1774  0.1418
 2631ntf    cn118391   6.559   4.296   5.365  0.0100  0.2783 -0.3533
 2631ntf    sn218392   6.532   4.245   5.538  0.0668  0.4100 -0.3045
 2631ntf    nn318393   6.531   4.386   5.605 -0.4039  0.1418  0.2577
 2631ntf    sn218394   6.499   4.421   5.755 -0.0577 -0.1884  0.4085
 2631ntf    cn118395   6.394   4.559   5.702  0.0778 -0.4182 -0.4731
 2631ntf    fn418396   6.507   4.209   5.280 -0.3543  0.3250 -0.1844
 2631ntf    fn418397   6.497   4.410   5.337 -0.3009  0.0765 -0.4999
 2631ntf    fn418398   6.684   4.324   5.335  0.1665  0.1443  0.1735
 2631ntf    on518399   6.402   4.182   5.543  0.3321 -0.1766 -0.5770
 2631ntf    on518400   6.647   4.162   5.563 -0.2256  0.1581  0.1971
 2631ntf    on518401   6.614   4.480   5.819 -0.1136 -0.0601  0.3899
 2631ntf    on518402   6.423   4.326   5.832 -0.5214 -0.0659  0.1019
 2631ntf    fn418403   6.356   4.628   5.809  0.4547  0.2203 -0.7461
 2631ntf    fn418404   6.456   4.644   5.621 -0.6829  0.4042 -0.2084
 2631ntf    fn418405   6.278   4.527   5.646 -0.2785 -0.0026  0.0202
 2632ntf    cn118406   1.349   1.504   1.565 -0.2385 -0.4825 -0.2873
 2632ntf    sn218407   1.404   1.442   1.727 -0.1511  0.4680  0.0543
 2632ntf    nn318408   1.328   1.535   1.828 -0.3149  0.2342  0.1465
 2632ntf    sn218409   1.207   1.484   1.914 -0.1779  0.3183  0.3886
 2632ntf    cn118410   1.190   1.603   2.051 -0.3426  0.5277  0.1863
 2632ntf    fn418411   1.355   1.634   1.544 -0.3831 -0.4675 -0.2396
 2632ntf    fn418412   1.421   1.452   1.467  0.2985 -0.0917 -0.1028
 2632ntf    fn418413   1.221   1.473   1.547 -0.2938 -0.5676  0.2355
 2632ntf    on518414   1.379   1.300   1.722 -0.0319  0.4414  0.2160
 2632ntf    on518415   1.542   1.483   1.720 -0.1860  0.6705  0.5310
 2632ntf    on518416   1.229   1.358   1.981 -0.5899 -0.4021 -0.8080
 2632ntf    on518417   1.081   1.505   1.847 -0.0822 -0.2494  0.0334
 2632ntf    fn418418   1.076   1.588   2.117  0.1225  0.2226  0.9321
 2632ntf    fn418419   1.288   1.591   2.139 -0.1484  0.8481  0.0173
 2632ntf    fn418420   1.189   1.728   2.008 -0.1812  0.4215 -0.1282
 2633ntf    cn118421   0.817   5.527   5.725 -0.1420  0.0941 -0.1621
 2633ntf    sn218422   0.644   5.474   5.747 -0.1174  0.0751 -0.0064
 2633ntf    nn318423   0.660   5.332   5.812 -1.1459  0.1778  0.4901
 2633ntf    sn218424   0.673   5.290   5.963 -0.3217  0.0299  0.3841
 2633ntf    cn118425   0.524   5.185   5.972 -0.2436 -0.1379 -0.2009
 2633ntf    fn418426   0.827   5.643   5.663  0.0402  0.1892  0.0445
 2633ntf    fn418427   0.871   5.543   5.845  0.3259 -0.1602 -0.3369
 2633ntf    fn418428   0.887   5.441   5.654  0.5412  0.3323  0.2179
 2633ntf    on518429   0.583   5.577   5.827 -0.0370  0.3904 -0.3451
 2633ntf    on518430   0.596   5.466   5.611 -1.3009  0.1654  0.3941
 2633ntf    on518431   0.661   5.391   6.065 -0.3065  0.3588  0.0642
 2633ntf    on518432   0.775   5.194   5.994 -0.6167 -0.3303  0.2511
 2633ntf    fn418433   0.533   5.079   5.894  0.1525 -0.5486  0.3995
 2633ntf    fn418434   0.512   5.130   6.091 -0.1884 -0.4870 -0.3563
 2633ntf    fn418435   0.414   5.254   5.950 -0.2678 -0.0887  0.0678
 2634ntf    cn118436   6.708   6.016   5.194 -0.0417  0.1753  0.0126
 2634ntf    sn218437   6.737   6.194   5.221 -0.3930  0.2410 -0.0405
 2634ntf    nn318438   6.635   6.223   5.337 -0.4625 -0.1765  0.0051
 2634ntf    sn218439   6.536   6.344   5.352 -0.2834 -0.0110 -0.1422
 2634ntf    cn118440   6.379   6.292   5.277 -0.2575 -0.2440 -0.0335
 2634ntf    fn418441   6.765   5.986   5.078  0.3614  0.4644  0.1362
 2634ntf    fn418442   6.768   5.944   5.287  0.0856  0.1827 -0.0626
 2634ntf    fn418443   6.581   5.983   5.175  0.0457 -0.1722  0.0249
 2634ntf    on518444   6.872   6.206   5.269 -0.3978  0.3765 -0.0623
 2634ntf    on518445   6.706   6.246   5.090 -0.1692  0.3787 -0.0393
 2634ntf    on518446   6.577   6.465   5.285 -0.4067 -0.0212 -0.2363
 2634ntf    on518447   6.488   6.357   5.487 -0.5352  0.5711 -0.2875
 2634ntf    fn418448   6.322   6.194   5.346 -0.2984 -0.1587  0.0532
 2634ntf    fn418449   6.293   6.392   5.270 -0.1534 -0.1475  0.0830
 2634ntf    fn418450   6.395   6.239   5.157  0.3100 -0.7124  0.2441
 2635ntf    cn118451   4.939   6.312   4.434  0.5081 -0.2365 -0.0653
 2635ntf    sn218452   5.063   6.446   4.442  0.2087  0.0478 -0.1794
 2635ntf    nn318453   5.148   6.399   4.565  0.3808  0.1127 -0.2735
 2635ntf    sn218454   5.120   6.437   4.715  0.3038  0.0684 -0.2757
 2635ntf    cn118455   5.231   6.579   4.743  0.2980  0.0629 -0.2254
 2635ntf    fn418456   4.859   6.330   4.330 -0.1844 -0.3637  0.4395
 2635ntf    fn418457   5.001   6.195   4.437  0.2319 -0.3783  0.1370
 2635ntf    fn418458   4.854   6.319   4.535 -0.2030 -0.3916 -0.6437
 2635ntf    on518459   5.136   6.430   4.319 -0.3936  1.0453 -0.6801
 2635ntf    on518460   4.982   6.565   4.453  0.2184  0.0076  0.3599
 2635ntf    on518461   5.164   6.334   4.806 -0.2040  0.2731  0.2066
 2635ntf    on518462   4.987   6.488   4.736  0.2215 -0.2990  0.0915
 2635ntf    fn418463   5.213   6.680   4.660  0.0374  0.3354  0.1531
 2635ntf    fn418464   5.212   6.636   4.861 -0.0109 -0.2497 -0.1209
 2635ntf    fn418465   5.358   6.544   4.746  0.2344 -0.1264  0.7432
 2636ntf    cn118466   6.615   5.227   2.107  0.1284  0.2387  0.1420
 2636ntf    sn218467   6.633   5.047   2.095  0.1561  0.2246  0.3866
 2636ntf    nn318468   6.485   4.998   2.076  0.0860  0.3832  0.5216
 2636ntf    sn218469   6.366   5.001   2.178 -0.4951  0.2358 -0.1457
 2636ntf    cn118470   6.257   5.098   2.069 -0.4333  0.2855 -0.1644
 2636ntf    fn418471   6.535   5.262   2.206 -0.1968  0.1208 -0.0795
 2636ntf    fn418472   6.734   5.283   2.120  0.0618  0.3871  0.1169
 2636ntf    fn418473   6.565   5.286   1.999  0.7268 -0.0769 -0.3126
 2636ntf    on518474   6.701   5.032   1.969 -0.5601  0.4772 -0.0339
 2636ntf    on518475   6.698   5.004   2.217  0.0979  0.1509  0.3915
 2636ntf    on518476   6.383   5.080   2.297 -0.1137  0.0241 -0.0571
 2636ntf    on518477   6.295   4.877   2.190  0.6287 -0.3907  0.1619
 2636ntf    fn418478   6.297   5.223   2.050  0.1371  0.0976 -0.2092
 2636ntf    fn418479   6.256   5.046   1.948 -0.1942 -0.4199  0.1315
 2636ntf    fn418480   6.133   5.115   2.113 -0.2975  0.4101  0.1710
 2637ntf    cn118481   1.585   5.890   3.111 -0.4237 -0.2219  0.0015
 2637ntf    sn218482   1.417   5.903   3.042 -0.4915 -0.2666  0.1578
 2637ntf    nn318483   1.448   5.968   2.903  0.0142  0.0812  0.4309
 2637ntf    sn218484   1.434   6.117   2.854 -0.0701 -0.1068 -0.1262
 2637ntf    cn118485   1.549   6.111   2.713 -0.3549 -0.0102 -0.3640
 2637ntf    fn418486   1.657   5.999   3.094 -0.5995 -0.0247  0.5061
 2637ntf    fn418487   1.581   5.855   3.238 -0.4389  0.4970  0.2021
 2637ntf    fn418488   1.655   5.795   3.051 -0.2297  0.0805 -0.2492
 2637ntf    on518489   1.387   5.764   3.019 -0.3524 -0.2048 -0.4172
 2637ntf    on518490   1.336   5.982   3.132 -0.1295  0.2928 -0.0041
 2637ntf    on518491   1.497   6.205   2.949  0.3285 -0.1053 -0.3888
 2637ntf    on518492   1.308   6.145   2.791 -0.0005  0.4672 -0.0091
 2637ntf    fn418493   1.575   6.227   2.656 -0.1337  0.2397  0.2304
 2637ntf    fn418494   1.664   6.060   2.754 -0.6797 -0.4533  0.0070
 2637ntf    fn418495   1.499   6.032   2.619  0.3137  0.0955 -0.8193
 2638ntf    cn118496   1.030   5.269   1.965  0.3536  0.2686 -0.1108
 2638ntf    sn218497   0.993   5.188   1.806  0.1387 -0.0535  0.1004
 2638ntf    nn318498   1.109   5.083   1.795  0.1621  0.0058 -0.2402
 2638ntf    sn218499   1.115   4.965   1.691 -0.5150 -0.2466 -0.0024
 2638ntf    cn118500   1.235   5.041   1.577 -0.1267 -0.3569  0.3310
 2638ntf    fn418501   0.985   5.200   2.069 -0.0624  0.2198 -0.3189
 2638ntf    fn418502   1.160   5.281   1.985  0.3768 -0.0907 -0.0312
 2638ntf    fn418503   0.974   5.389   1.973 -0.2150 -0.0021  0.0089
 2638ntf    on518504   0.869   5.122   1.837  0.4144 -0.7154 -0.1855
 2638ntf    on518505   1.002   5.291   1.705 -0.5635 -0.0196  0.0685
 2638ntf    on518506   0.994   4.926   1.624  0.1140 -0.3428 -1.1155
 2638ntf    on518507   1.188   4.853   1.744  0.4293  0.4359  0.1712
 2638ntf    fn418508   1.184   5.121   1.485  0.1172  0.3838  0.8350
 2638ntf    fn418509   1.329   5.114   1.637 -0.5950  0.2289  0.3601
 2638ntf    fn418510   1.283   4.943   1.503 -0.4574 -0.3708  0.1337
 2639ntf    cn118511   3.686   5.564   2.104 -0.3230 -0.3543  0.8132
 2639ntf    sn218512   3.621   5.453   1.977 -0.0495  0.2609  0.1246
 2639ntf    nn318513   3.749   5.388   1.913 -0.1859  0.4832 -0.3777
 2639ntf    sn218514   3.795   5.392   1.763  0.0992  0.1362 -0.3005
 2639ntf    cn118515   3.771   5.220   1.710  0.0249 -0.0216  0.2401
 2639ntf    fn418516   3.778   5.506   2.179 -0.0475 -0.2845  0.5344
 2639ntf    fn418517   3.743   5.671   2.050  0.3920 -0.9626  0.3506
 2639ntf    fn418518   3.594   5.608   2.189 -0.4888  0.0085  0.4491
 2639ntf    on518519   3.551   5.354   2.055 -0.1484 -0.1160 -0.4311
 2639ntf    on518520   3.547   5.542   1.891  0.1516  0.4223  0.1193
 2639ntf    on518521   3.938   5.407   1.754  0.0756  0.4823 -0.1251
 2639ntf    on518522   3.713   5.470   1.673 -0.2710 -0.2474 -0.2975
 2639ntf    fn418523   3.823   5.202   1.589 -0.4872 -0.5540  0.0947
 2639ntf    fn418524   3.821   5.132   1.795 -0.0150 -0.5559 -0.2786
 2639ntf    fn418525   3.646   5.180   1.696  0.1585 -0.2929 -0.2194
 2640ntf    cn118526   1.817   4.473   1.800  0.0005  0.2846 -0.0532
 2640ntf    sn218527   1.758   4.371   1.662 -0.0946 -0.0823  0.2558
 2640ntf    nn318528   1.890   4.321   1.592 -0.0444  0.1208  0.2054
 2640ntf    sn218529   1.969   4.186   1.608 -0.1345  0.0994  0.4864
 2640ntf    cn118530   1.891   4.097   1.470 -0.0242  0.0299  0.4687
 2640ntf    fn418531   1.890   4.396   1.879  0.1648 -0.0211 -0.5002
 2640ntf    fn418532   1.875   4.584   1.759 -0.7463  0.7175  0.0287
 2640ntf    fn418533   1.716   4.521   1.871  0.2098  0.8547 -0.1404
 2640ntf    on518534   1.684   4.265   1.726 -0.0055 -0.5425 -0.3910
 2640ntf    on518535   1.682   4.459   1.577 -0.0357 -0.4080 -0.1408
 2640ntf    on518536   1.944   4.112   1.729  0.2788 -0.3539  0.2979
 2640ntf    on518537   2.103   4.197   1.555 -0.2687  0.3958  0.2023
 2640ntf    fn418538   1.899   4.175   1.364 -0.0706 -0.4257  0.1263
 2640ntf    fn418539   1.954   3.987   1.431 -0.0988  0.2347 -0.2473
 2640ntf    fn418540   1.765   4.062   1.491  0.2260 -0.8800  0.5068
 2641ntf    cn118541   4.146   4.033   2.437  0.2164  0.0569  0.0541
 2641ntf    sn218542   4.173   3.894   2.551 -0.0234 -0.2587 -0.2733
 2641ntf    nn318543   4.330   3.890   2.555 -0.0202 -0.0713 -0.2151
 2641ntf    sn218544   4.430   3.790   2.489  0.0936 -0.0438 -0.0837
 2641ntf    cn118545   4.537   3.750   2.631  0.1451 -0.0249 -0.1170
 2641ntf    fn418546   4.015   4.045   2.418  0.1579 -0.6140  0.0197
 2641ntf    fn418547   4.200   4.146   2.479 -0.1157  0.1985  0.1042
 2641ntf    fn418548   4.205   3.998   2.324  0.0316 -0.1986  0.0354
 2641ntf    on518549   4.114   3.928   2.678 -0.0172  1.1067 -0.6225
 2641ntf    on518550   4.110   3.782   2.484 -0.3186 -0.2164 -0.0696
 2641ntf    on518551   4.517   3.852   2.392 -0.0072  0.1462 -0.0523
 2641ntf    on518552   4.371   3.666   2.445 -0.0389 -0.0262  0.0483
 2641ntf    fn418553   4.627   3.659   2.601  0.5062  0.4762 -0.5828
 2641ntf    fn418554   4.609   3.854   2.670  0.1200  0.2261 -0.7335
 2641ntf    fn418555   4.463   3.707   2.732  0.3853 -0.0054  0.0684
 2642ntf    cn118556   5.744   4.922   1.261  0.3518  0.0433  0.1885
 2642ntf    sn218557   5.701   4.784   1.150  0.0851  0.0396  0.2949
 2642ntf    nn318558   5.623   4.867   1.042  0.3721 -0.1358 -0.0503
 2642ntf    sn218559   5.491   4.847   0.959  0.1302 -0.0773  0.3168
 2642ntf    cn118560   5.545   4.905   0.795  0.2371  0.4510  0.5365
 2642ntf    fn418561   5.854   4.988   1.231  0.0719  0.5386  0.2388
 2642ntf    fn418562   5.645   5.009   1.273 -0.1682 -0.5423  0.1875
 2642ntf    fn418563   5.759   4.885   1.387  0.1507 -0.2366  0.1311
 2642ntf    on518564   5.834   4.743   1.115  0.3307  1.0994 -0.0564
 2642ntf    on518565   5.629   4.695   1.238  0.4392 -0.1985  0.3457
 2642ntf    on518566   5.390   4.948   0.982 -0.0270 -0.0508 -0.4623
 2642ntf    on518567   5.451   4.712   0.929 -0.1068  0.0649 -0.0126
 2642ntf    fn418568   5.581   5.032   0.793 -0.1091  0.5439  0.0774
 2642ntf    fn418569   5.656   4.845   0.755 -0.2480 -0.0095 -0.1345
 2642ntf    fn418570   5.456   4.877   0.702  0.3375  0.2979  0.4856
 2643ntf    cn118571   5.631   6.814   6.637 -0.2537 -0.0155 -0.3150
 2643ntf    sn218572   5.710   6.732   6.495  0.2191  0.0709 -0.1022
 2643ntf    nn318573   5.861   6.754   6.532 -0.0298  0.6346  0.6097
 2643ntf    sn218574   5.950   6.652   6.610 -0.0631 -0.0018 -0.1717
 2643ntf    cn118575   5.999   6.535   6.480  0.1775 -0.1071  0.0101
 2643ntf    fn418576   5.673   6.939   6.643 -0.5416  0.0675  0.0873
 2643ntf    fn418577   5.500   6.823   6.617 -0.1459  0.7328 -0.7060
 2643ntf    fn418578   5.653   6.761   6.757 -0.2432  0.3103 -0.1705
 2643ntf    on518579   5.656   6.599   6.490 -0.6051  0.4241 -0.9908
 2643ntf    on518580   5.682   6.820   6.384  0.5921 -0.4387 -0.5987
 2643ntf    on518581   5.875   6.572   6.704 -0.4506  0.0141 -0.4688
 2643ntf    on518582   6.078   6.706   6.649 -0.4087  0.4273  0.3776
 2643ntf    fn418583   6.040   6.593   6.368 -0.0705 -0.3277 -0.1958
 2643ntf    fn418584   6.096   6.457   6.525  0.0501 -0.1920  0.1411
 2643ntf    fn418585   5.897   6.456   6.448 -0.1535  0.4413 -0.3109
 2644ntf    cn118586   2.318   1.589   4.485  0.4505 -0.2632 -0.0910
 2644ntf    sn218587   2.180   1.471   4.471 -0.1840  0.4839 -0.1554
 2644ntf    nn318588   2.050   1.543   4.523 -0.2589  0.2992 -0.0854
 2644ntf    sn218589   1.987   1.540   4.667  0.0349 -0.1609  0.0319
 2644ntf    cn118590   1.876   1.398   4.641 -0.0184 -0.0377 -0.4232
 2644ntf    fn418591   2.324   1.648   4.604  0.4513  0.0394 -0.2409
 2644ntf    fn418592   2.434   1.526   4.474  0.2910 -0.5883  0.0612
 2644ntf    fn418593   2.329   1.691   4.403 -0.0361  0.0893  0.2729
 2644ntf    on518594   2.174   1.458   4.328  0.0875  0.2487 -0.1453
 2644ntf    on518595   2.227   1.353   4.539 -0.1209  0.6159  0.0341
 2644ntf    on518596   1.897   1.649   4.689 -0.4299 -0.6399  0.5189
 2644ntf    on518597   2.084   1.512   4.770  0.0855  0.2947  0.1066
 2644ntf    fn418598   1.770   1.418   4.564 -0.4265 -0.4727  0.0160
 2644ntf    fn418599   1.943   1.303   4.579  0.4750 -0.0308  0.0909
 2644ntf    fn418600   1.835   1.346   4.755  0.7828  0.9095  0.3157
 2645ntf    cn118601   1.239   3.397   6.166 -0.3514 -0.3834  0.1002
 2645ntf    sn218602   1.104   3.506   6.219  0.1523  0.3348 -0.0871
 2645ntf    nn318603   1.151   3.545   6.364 -0.1445  0.4472 -0.0201
 2645ntf    sn218604   1.058   3.605   6.475 -0.1758 -0.0065  0.2012
 2645ntf    cn118605   1.059   3.778   6.420 -0.0042 -0.0800 -0.0328
 2645ntf    fn418606   1.342   3.460   6.113 -0.2502 -0.4812  0.1784
 2645ntf    fn418607   1.291   3.318   6.259  0.9294  0.0875 -0.1899
 2645ntf    fn418608   1.202   3.316   6.068  0.0005 -0.8492  0.3465
 2645ntf    on518609   1.102   3.615   6.125 -0.1190 -0.1559 -0.6547
 2645ntf    on518610   0.997   3.411   6.221  1.0401 -0.6854 -0.3031
 2645ntf    on518611   1.124   3.610   6.603 -0.0224 -0.4588  0.1426
 2645ntf    on518612   0.920   3.564   6.474  0.0146 -0.6502 -0.3834
 2645ntf    fn418613   1.022   3.860   6.518 -0.0671 -0.3334  0.1580
 2645ntf    fn418614   1.169   3.823   6.363 -0.2949  0.2431 -0.3439
 2645ntf    fn418615   0.970   3.789   6.323 -0.7699  0.6138  0.7176
 2646ntf    cn118616   3.200   6.847   1.696 -0.6550  0.3469 -0.2933
 2646ntf    sn218617   3.209   6.924   1.861 -0.1251 -0.1282 -0.0978
 2646ntf    nn318618   3.095   7.031   1.843 -0.1722 -0.1631 -0.0041
 2646ntf    sn218619   3.022   7.128   1.943 -0.0623 -0.4640  0.3730
 2646ntf    cn118620   2.859   7.048   1.951 -0.2678 -0.0601  0.2457
 2646ntf    fn418621   3.274   6.738   1.689 -0.5936  0.3397  0.3823
 2646ntf    fn418622   3.080   6.826   1.646 -0.6046  0.0623 -0.2941
 2646ntf    fn418623   3.260   6.926   1.608 -0.0263  0.0589 -0.1289
 2646ntf    on518624   3.177   6.814   1.948  0.2107 -0.6471 -0.6170
 2646ntf    on518625   3.343   6.977   1.851  0.0141 -0.4750 -0.1148
 2646ntf    on518626   2.996   7.255   1.880  0.7393 -0.4954 -0.0446
 2646ntf    on518627   3.063   7.127   2.081 -0.3285 -0.2584  0.4542
 2646ntf    fn418628   2.774   7.115   2.027 -0.3554  0.0861  0.0195
 2646ntf    fn418629   2.808   7.043   1.829  0.3325 -0.0566 -0.0108
 2646ntf    fn418630   2.868   6.926   2.001  0.2087 -0.0691  0.1430
 2647ntf    cn118631   0.239   4.632   0.624 -0.3548 -0.0516 -0.0131
 2647ntf    sn218632   0.063   4.646   0.666 -0.4123 -0.4028 -0.1298
 2647ntf    nn318633   0.049   4.505   0.733  0.2340 -0.2055  0.4395
 2647ntf    sn218634   0.024   4.358   0.683 -0.0008  0.0694 -0.2748
 2647ntf    cn118635  -0.158   4.348   0.695  0.0184  0.0529  0.0283
 2647ntf    fn418636   0.258   4.544   0.527  0.1836 -0.1320  0.1637
 2647ntf    fn418637   0.282   4.751   0.587 -0.0912 -0.2073 -0.2151
 2647ntf    fn418638   0.312   4.593   0.728 -0.3293 -0.2066 -0.0886
 2647ntf    on518639   0.057   4.758   0.758  0.1823 -0.4015 -0.0945
 2647ntf    on518640   0.005   4.668   0.536  0.0070  0.2023 -0.2177
 2647ntf    on518641   0.074   4.264   0.781  0.4065  0.5534 -0.0170
 2647ntf    on518642   0.051   4.348   0.542  0.0841  0.0472 -0.2566
 2647ntf    fn418643  -0.211   4.457   0.642 -0.3548  0.1235  0.5433
 2647ntf    fn418644  -0.198   4.241   0.628 -0.1833  0.2144 -0.1092
 2647ntf    fn418645  -0.211   4.342   0.816  0.3734 -0.1918  0.1735
 2648ntf    cn118646   4.241   3.834   6.388  0.1075 -0.1183  0.4135
 2648ntf    sn218647   4.273   3.655   6.383  0.1375 -0.1007 -0.1439
 2648ntf    nn318648   4.156   3.600   6.472  0.2686  0.3640  0.3243
 2648ntf    sn218649   4.124   3.449   6.502  0.1101  0.3784  0.2293
 2648ntf    cn118650   4.013   3.401   6.367 -0.0809  0.0994  0.4839
 2648ntf    fn418651   4.328   3.900   6.314 -0.2919  0.0475  0.0838
 2648ntf    fn418652   4.120   3.868   6.345  0.1355 -0.3680  0.1344
 2648ntf    fn418653   4.259   3.878   6.511 -0.3015  0.3682  0.3027
 2648ntf    on518654   4.257   3.632   6.242 -0.0376  0.1335 -0.1630
 2648ntf    on518655   4.403   3.635   6.444 -0.1980 -0.3947  0.4897
 2648ntf    on518656   4.042   3.432   6.620  0.2783 -0.4434  0.2283
 2648ntf    on518657   4.235   3.359   6.489  0.0106  0.3802 -0.6729
 2648ntf    fn418658   3.912   3.484   6.351  0.3735  0.5150 -0.2759
 2648ntf    fn418659   4.069   3.403   6.247 -0.7130  0.3661  0.1880
 2648ntf    fn418660   3.965   3.278   6.382 -0.0295  0.0086 -0.0525
 2649ntf    cn118661   0.696   6.041   3.315 -0.1349  0.1274 -0.1094
 2649ntf    sn218662   0.548   5.942   3.280 -0.1256  0.0859 -0.0333
 2649ntf    nn318663   0.489   5.923   3.425  0.1271  0.4965  0.1268
 2649ntf    sn218664   0.390   6.006   3.513 -0.3839 -0.0633  0.0846
 2649ntf    cn118665   0.462   5.965   3.675  0.2525  0.2706 -0.1113
 2649ntf    fn418666   0.764   5.994   3.418 -0.2521 -0.4199 -0.2786
 2649ntf    fn418667   0.780   6.043   3.213  0.0475 -0.2214  0.0330
 2649ntf    fn418668   0.652   6.162   3.346  0.1138  0.1815  0.0376
 2649ntf    on518669   0.473   6.019   3.184 -0.1377 -0.3374 -0.3643
 2649ntf    on518670   0.598   5.816   3.232 -0.5954 -0.2366  0.3161
 2649ntf    on518671   0.253   5.961   3.510 -0.3359 -0.1512 -0.9523
 2649ntf    on518672   0.418   6.146   3.497  0.8102 -0.3136 -0.0945
 2649ntf    fn418673   0.593   5.971   3.690  0.2203  0.0157  0.2830
 2649ntf    fn418674   0.415   6.054   3.762 -0.2867 -0.2643  0.1504
 2649ntf    fn418675   0.427   5.847   3.723  0.3654  0.2863  0.0093
 2650ntf    cn118676   5.109   1.703   2.817 -0.3005 -0.2355  0.0416
 2650ntf    sn218677   4.984   1.816   2.885  0.2825  0.1814  0.4309
 2650ntf    nn318678   5.053   1.951   2.844  0.2762 -0.1453 -0.6754
 2650ntf    sn218679   4.986   2.086   2.799  0.1320 -0.1513 -0.4797
 2650ntf    cn118680   5.035   2.087   2.624  0.0507  0.0023 -0.5016
 2650ntf    fn418681   5.068   1.578   2.819 -0.3708 -0.2137 -0.0443
 2650ntf    fn418682   5.150   1.738   2.696 -0.1130  0.8780  0.4117
 2650ntf    fn418683   5.221   1.698   2.888 -0.1522 -0.3601 -0.1973
 2650ntf    on518684   4.870   1.772   2.810  0.9398  0.0886 -0.5287
 2650ntf    on518685   4.991   1.792   3.028  0.0623  0.6519  0.5215
 2650ntf    on518686   5.054   2.201   2.853 -0.4754 -0.1855  0.3891
 2650ntf    on518687   4.844   2.107   2.810  0.2284  0.1058  0.4133
 2650ntf    fn418688   4.951   2.013   2.554  0.3119 -0.5440 -0.2488
 2650ntf    fn418689   5.037   2.210   2.575 -0.0410  0.1026 -0.2528
 2650ntf    fn418690   5.159   2.044   2.605  0.2733  0.2769  0.2920
 2651ntf    cn118691   3.770   0.857   1.028 -0.4760 -0.0804  0.3241
 2651ntf    sn218692   3.735   0.894   0.853 -0.1883 -0.3221  0.2148
 2651ntf    nn318693   3.597   0.822   0.831 -0.1273 -0.4522  0.2526
 2651ntf    sn218694   3.450   0.875   0.846  0.0392  0.1145 -0.0578
 2651ntf    cn118695   3.409   0.854   0.670 -0.2561 -0.0310  0.0284
 2651ntf    fn418696   3.812   0.736   1.060  0.3776  0.2308  0.4048
 2651ntf    fn418697   3.862   0.939   1.077 -0.2293 -0.0288 -0.2084
 2651ntf    fn418698   3.663   0.876   1.102 -0.3612 -0.5519  0.6137
 2651ntf    on518699   3.750   1.037   0.845  0.0020 -0.3396  0.2483
 2651ntf    on518700   3.846   0.829   0.787 -0.5969 -0.5559 -0.2446
 2651ntf    on518701   3.423   1.016   0.863 -0.1880  0.0551  0.0842
 2651ntf    on518702   3.366   0.785   0.921  0.3334 -0.4517 -0.4022
 2651ntf    fn418703   3.502   0.895   0.586 -0.1371  0.4383  0.3851
 2651ntf    fn418704   3.375   0.733   0.629  0.1075 -0.2169  0.2620
 2651ntf    fn418705   3.304   0.926   0.636 -0.3159 -0.2255 -0.2024
 2652ntf    cn118706   3.895   5.373   0.982  0.0251 -0.3582  0.4141
 2652ntf    sn218707   4.060   5.436   1.023 -0.0307  0.2451 -0.2701
 2652ntf    nn318708   4.022   5.563   1.107 -0.1742  0.3685 -0.5224
 2652ntf    sn218709   4.034   5.714   1.065 -0.1770  0.5380  0.0700
 2652ntf    cn118710   3.937   5.800   1.192 -0.2786 -0.1192  0.4423
 2652ntf    fn418711   3.831   5.325   1.087 -0.1834 -0.3794  0.2771
 2652ntf    fn418712   3.826   5.471   0.925  0.0950 -0.6595 -0.1939
 2652ntf    fn418713   3.894   5.278   0.891  0.5724  0.1865 -0.1659
 2652ntf    on518714   4.118   5.332   1.103  0.8430  0.0029 -1.1932
 2652ntf    on518715   4.121   5.457   0.894 -0.4649  0.2603 -0.4730
 2652ntf    on518716   3.950   5.738   0.949 -0.7839 -0.3933  0.3064
 2652ntf    on518717   4.168   5.764   1.076  0.2107 -0.2338 -0.9617
 2652ntf    fn418718   3.918   5.925   1.153  0.4536 -0.0415  0.3290
 2652ntf    fn418719   3.814   5.757   1.215 -0.3310  0.1743  0.7148
 2652ntf    fn418720   3.991   5.807   1.312  0.4063 -0.1870  0.1413
 2653ntf    cn118721   6.361   6.789   4.837 -0.3357  0.0566 -0.3698
 2653ntf    sn218722   6.511   6.725   4.757 -0.2486 -0.2159  0.0067
 2653ntf    nn318723   6.613   6.845   4.758 -0.2819 -0.1847 -0.3319
 2653ntf    sn218724   6.602   6.968   4.661  0.1502  0.2427  0.1514
 2653ntf    cn118725   6.722   6.911   4.537 -0.1911  0.2200 -0.1717
 2653ntf    fn418726   6.316   6.907   4.796 -0.1356  0.2406 -0.0631
 2653ntf    fn418727   6.258   6.707   4.821 -0.4728  0.1245  0.1420
 2653ntf    fn418728   6.384   6.798   4.967  0.3421 -1.0046 -0.4021
 2653ntf    on518729   6.558   6.626   4.850  0.5489  0.0727 -0.0800
 2653ntf    on518730   6.479   6.684   4.623 -0.4571  0.3678 -0.1284
 2653ntf    on518731   6.659   7.084   4.724  0.6372 -0.0654  0.2868
 2653ntf    on518732   6.477   6.989   4.591  0.3771  0.4460 -0.1971
 2653ntf    fn418733   6.696   6.789   4.494  0.5793  0.1501 -0.4696
 2653ntf    fn418734   6.734   6.991   4.431 -0.1385  0.5158  0.0568
 2653ntf    fn418735   6.844   6.895   4.587 -0.6074 -0.2376  0.7158
 2654ntf    cn118736   5.314   3.407   4.446  0.2837  0.0795 -0.0671
 2654ntf    sn218737   5.173   3.350   4.347  0.1313  0.0686  0.1570
 2654ntf    nn318738   5.246   3.271   4.233 -0.3507 -0.5448  0.2612
 2654ntf    sn218739   5.334   3.142   4.244  0.2456 -0.1791 -0.1664
 2654ntf    cn118740   5.249   3.021   4.138  0.3428 -0.1115 -0.3219
 2654ntf    fn418741   5.402   3.312   4.476 -0.0113 -0.1005  0.2384
 2654ntf    fn418742   5.386   3.506   4.396  0.8529 -0.1544  0.2744
 2654ntf    fn418743   5.274   3.452   4.564 -0.3645 -0.1160 -0.2088
 2654ntf    on518744   5.098   3.266   4.438  0.2448  0.1195  0.2990
 2654ntf    on518745   5.118   3.478   4.310 -0.0233  0.0165  0.2027
 2654ntf    on518746   5.336   3.077   4.372  0.4740 -0.0203 -0.0870
 2654ntf    on518747   5.460   3.160   4.176  0.0017  0.2857 -0.5046
 2654ntf    fn418748   5.126   2.998   4.179  0.4971  0.3038  0.3998
 2654ntf    fn418749   5.259   3.065   4.014 -0.3495 -0.2922 -0.4436
 2654ntf    fn418750   5.310   2.903   4.139  0.2584 -0.1513  0.1182
 2655ntf    cn118751   0.558   3.563   0.227 -0.6220 -0.2871  0.2358
 2655ntf    sn218752   0.611   3.728   0.170 -0.4677 -0.5871 -0.5035
 2655ntf    nn318753   0.472   3.791   0.132 -0.2679 -0.1058 -0.4348
 2655ntf    sn218754   0.373   3.865   0.229 -0.1065  0.0109 -0.3586
 2655ntf    cn118755   0.396   4.040   0.186 -0.2097  0.1806  0.2698
 2655ntf    fn418756   0.468   3.564   0.324 -0.6592  0.0428  0.2005
 2655ntf    fn418757   0.520   3.489   0.124 -0.0345  0.4626 -0.5434
 2655ntf    fn418758   0.665   3.504   0.276  0.0645  0.3741 -0.4400
 2655ntf    on518759   0.672   3.780   0.290  0.0984 -0.4074 -0.8654
 2655ntf    on518760   0.705   3.709   0.063  0.3586  0.6190 -0.0061
 2655ntf    on518761   0.406   3.853   0.369  0.6294 -0.1278 -0.5400
 2655ntf    on518762   0.235   3.840   0.196 -0.1952 -0.3263  0.2501
 2655ntf    fn418763   0.348   4.067   0.066  0.4598  0.4840  0.0664
 2655ntf    fn418764   0.313   4.116   0.256 -0.2022  0.6747 -0.2531
 2655ntf    fn418765   0.519   4.086   0.200  0.0415 -0.4266  0.1038
 2656ntf    cn118766   2.391   6.822   6.444 -0.1303 -0.1128  0.1664
 2656ntf    sn218767   2.326   6.653   6.428 -0.0744 -0.1335  0.1613
 2656ntf    nn318768   2.292   6.630   6.579 -0.3026  0.6394  0.2341
 2656ntf    sn218769   2.386   6.625   6.705  0.1612  0.1041 -0.1287
 2656ntf    cn118770   2.328   6.470   6.781 -0.1603  0.1103 -0.3613
 2656ntf    fn418771   2.324   6.895   6.532  0.4640  0.1432  0.4058
 2656ntf    fn418772   2.516   6.820   6.486  0.0032  0.1565 -0.2111
 2656ntf    fn418773   2.392   6.882   6.326  0.3196  0.7931  0.6238
 2656ntf    on518774   2.207   6.664   6.346  0.2995 -0.3490 -0.4202
 2656ntf    on518775   2.432   6.568   6.379 -0.0140  0.4059 -0.6733
 2656ntf    on518776   2.354   6.715   6.812 -0.5255  0.1589 -0.3739
 2656ntf    on518777   2.526   6.598   6.683 -0.0010 -0.6491 -0.2746
 2656ntf    fn418778   2.373   6.366   6.713 -0.3196 -0.3176  0.1801
 2656ntf    fn418779   2.378   6.455   6.902  0.5636 -0.6841 -0.7552
 2656ntf    fn418780   2.198   6.458   6.803 -0.0578 -0.1001  0.1302
 2657ntf    cn118781   3.157   0.573   2.252  0.5414 -0.1161 -0.0498
 2657ntf    sn218782   3.058   0.724   2.267  0.1166 -0.3835 -0.1577
 2657ntf    nn318783   2.930   0.665   2.336 -0.1088  0.7306  0.3977
 2657ntf    sn218784   2.872   0.657   2.482 -0.2039 -0.3098  0.3075
 2657ntf    cn118785   2.696   0.687   2.449 -0.2695 -0.2480  0.7071
 2657ntf    fn418786   3.191   0.521   2.369 -0.1725 -0.0651  0.1792
 2657ntf    fn418787   3.098   0.478   2.181  0.7745 -0.0818 -0.2888
 2657ntf    fn418788   3.272   0.597   2.190  0.1883  0.4527 -0.4891
 2657ntf    on518789   3.147   0.801   2.349 -0.5978  0.3313 -0.0384
 2657ntf    on518790   3.040   0.759   2.128 -0.5304 -0.1905 -0.0322
 2657ntf    on518791   2.917   0.771   2.558  0.4132 -0.6123  0.4021
 2657ntf    on518792   2.880   0.527   2.545 -0.0132 -0.5722 -0.2470
 2657ntf    fn418793   2.670   0.804   2.394 -0.5011 -0.5428  0.1844
 2657ntf    fn418794   2.653   0.591   2.369 -0.4198  0.1939  0.2567
 2657ntf    fn418795   2.619   0.674   2.556 -0.5789 -0.0871  0.5052
 2658ntf    cn118796   0.957   5.984   5.560 -0.2448 -0.5251 -0.3473
 2658ntf    sn218797   0.996   6.079   5.410  0.0088 -0.0535  0.0165
 2658ntf    nn318798   1.097   6.180   5.476  0.4449  0.1083 -0.8824
 2658ntf    sn218799   1.107   6.336   5.460 -0.0003  0.2555  0.1965
 2658ntf    cn118800   1.004   6.388   5.600 -0.2519 -0.0874  0.1415
 2658ntf    fn418801   0.902   6.060   5.653  0.0461 -0.2473 -0.3996
 2658ntf    fn418802   0.865   5.891   5.540 -1.0339  0.2515 -0.4217
 2658ntf    fn418803   1.063   5.922   5.607 -0.1031  0.2947  0.4362
 2658ntf    on518804   1.065   5.985   5.325 -0.1263 -0.2083  0.0782
 2658ntf    on518805   0.866   6.126   5.370 -0.1507 -0.5890 -0.0905
 2658ntf    on518806   1.044   6.381   5.338 -0.5805 -0.0979  0.3592
 2658ntf    on518807   1.242   6.382   5.481  0.3021 -0.1427 -0.7957
 2658ntf    fn418808   0.885   6.332   5.591 -0.3193  0.0915 -0.0911
 2658ntf    fn418809   1.070   6.355   5.711 -0.0746 -0.3111 -0.0302
 2658ntf    fn418810   0.993   6.520   5.602 -0.3068 -0.0724 -0.9682
 2659ntf    cn118811   6.696   0.671   3.358  0.0066 -0.0820  0.0996
 2659ntf    sn218812   6.681   0.849   3.325  0.0351 -0.0502  0.2544
 2659ntf    nn318813   6.806   0.899   3.405  0.0768 -0.1885  0.2758
 2659ntf    sn218814   6.814   0.977   3.541  0.0376 -0.1677  0.2663
 2659ntf    cn118815   6.920   1.119   3.500  0.0814 -0.2097  0.2351
 2659ntf    fn418816   6.581   0.613   3.328 -0.0524  0.4650 -0.7535
 2659ntf    fn418817   6.797   0.625   3.287 -0.0014 -0.1231  0.1154
 2659ntf    fn418818   6.720   0.658   3.488  0.6594  0.1614  0.0074
 2659ntf    on518819   6.703   0.855   3.182 -0.8444 -1.0703  0.0628
 2659ntf    on518820   6.548   0.883   3.371 -0.1909 -0.2205 -0.2639
 2659ntf    on518821   6.895   0.911   3.641  0.2360 -0.1026  0.1469
 2659ntf    on518822   6.689   1.034   3.585  0.2662  0.5604 -0.0092
 2659ntf    fn418823   7.037   1.074   3.458  0.0939 -0.0061  0.0503
 2659ntf    fn418824   6.868   1.188   3.400  0.2200 -0.5042 -0.0431
 2659ntf    fn418825   6.936   1.202   3.601 -0.4648  0.0790  0.0929
 2660ntf    cn118826   1.981   4.597   2.185  0.1088  0.1547 -0.5080
 2660ntf    sn218827   1.986   4.753   2.278 -0.0015 -0.0843 -0.0969
 2660ntf    nn318828   2.132   4.795   2.239 -0.0144  0.2905  0.2516
 2660ntf    sn218829   2.180   4.915   2.150 -0.0240 -0.0008 -0.1447
 2660ntf    cn118830   2.221   5.026   2.288  0.0969  0.2164 -0.3545
 2660ntf    fn418831   1.864   4.536   2.194  0.1031  0.2650  0.2728
 2660ntf    fn418832   2.010   4.617   2.057  0.0601  0.3320 -0.4912
 2660ntf    fn418833   2.072   4.513   2.232  0.2103  0.5432 -0.0061
 2660ntf    on518834   1.878   4.836   2.229  0.0097 -0.4088 -0.6771
 2660ntf    on518835   1.986   4.713   2.416  0.2722 -0.8673 -0.3198
 2660ntf    on518836   2.072   4.976   2.076  0.3416 -0.5432 -1.1579
 2660ntf    on518837   2.300   4.884   2.076 -0.1432 -0.1544 -0.2752
 2660ntf    fn418838   2.112   5.086   2.333 -0.0139  0.1278 -0.5018
 2660ntf    fn418839   2.266   4.963   2.395  0.0966  0.5091 -0.1809
 2660ntf    fn418840   2.308   5.119   2.253 -0.0098  0.3825 -0.1756
 2661ntf    cn118841   0.973   0.833   4.179  0.1320 -0.1079  0.2094
 2661ntf    sn218842   0.963   0.654   4.205  0.4258 -0.1180  0.2629
 2661ntf    nn318843   0.809   0.641   4.235  0.3458  0.2555  0.0136
 2661ntf    sn218844   0.694   0.633   4.129 -0.0031  0.0404  0.4077
 2661ntf    cn118845   0.689   0.457   4.082 -0.2469  0.1994 -0.1792
 2661ntf    fn418846   1.081   0.874   4.113  0.0949 -0.4928 -0.0955
 2661ntf    fn418847   0.862   0.883   4.128  0.2869  0.2299  0.2000
 2661ntf    fn418848   0.976   0.896   4.295 -0.2846 -0.4963  0.4309
 2661ntf    on518849   1.026   0.604   4.085 -0.1853  0.6581 -0.3947
 2661ntf    on518850   1.029   0.642   4.333  0.8892  0.2287  0.0573
 2661ntf    on518851   0.729   0.690   4.001 -0.0045  0.0052  0.3913
 2661ntf    on518852   0.561   0.663   4.176 -0.0285  0.3640  0.1325
 2661ntf    fn418853   0.805   0.421   4.030 -0.0485  0.7161 -0.0973
 2661ntf    fn418854   0.670   0.384   4.191  0.0476  0.2693 -0.0784
 2661ntf    fn418855   0.585   0.431   4.004  0.0262 -0.5029 -0.3194
 2662ntf    cn118856   1.641   2.268   0.759 -0.0101 -0.1614 -0.1344
 2662ntf    sn218857   1.790   2.373   0.757 -0.1404  0.0229 -0.1781
 2662ntf    nn318858   1.826   2.372   0.605  0.0770  0.2210 -0.1278
 2662ntf    sn218859   1.762   2.462   0.493 -0.1133  0.0445 -0.1620
 2662ntf    cn118860   1.861   2.614   0.506  0.1348 -0.1668  0.4393
 2662ntf    fn418861   1.585   2.270   0.879  0.5346  0.3463  0.1146
 2662ntf    fn418862   1.552   2.330   0.683  0.4083  0.7214  0.0843
 2662ntf    fn418863   1.654   2.144   0.715  0.4239 -0.0215 -0.4028
 2662ntf    on518864   1.757   2.506   0.802 -0.2794  0.2898 -1.0531
 2662ntf    on518865   1.884   2.298   0.836 -0.4356 -0.3330 -0.1622
 2662ntf    on518866   1.628   2.508   0.516 -0.0924 -0.3742  0.8491
 2662ntf    on518867   1.793   2.416   0.360  0.2215  0.0458 -0.0862
 2662ntf    fn418868   1.850   2.693   0.401  0.4662 -0.3348  0.2760
 2662ntf    fn418869   1.814   2.688   0.606 -0.1298  0.2074  0.0386
 2662ntf    fn418870   1.990   2.599   0.535  0.2228  0.0905  0.1801
 2663ntf    cn118871   6.000   2.778   6.884  0.5829  0.2433  0.3419
 2663ntf    sn218872   6.152   2.733   6.973  0.4254  0.0123  0.4960
 2663ntf    nn318873   6.189   2.600   6.899 -0.4085  0.0194  0.0543
 2663ntf    sn218874   6.276   2.577   6.770 -0.0720  0.0271  0.2800
 2663ntf    cn118875   6.216   2.414   6.718 -0.3514  0.2610 -0.1387
 2663ntf    fn418876   5.947   2.887   6.937  0.1340  0.0368  0.3268
 2663ntf    fn418877   6.018   2.807   6.757 -0.5581 -0.1888  0.0649
 2663ntf    fn418878   5.906   2.685   6.894  0.2437  0.5539  0.1018
 2663ntf    on518879   6.242   2.844   6.951  0.0726  0.1133 -0.4896
 2663ntf    on518880   6.110   2.710   7.109  0.0296  0.2758  0.4227
 2663ntf    on518881   6.413   2.554   6.809  0.1009  0.3104 -0.1496
 2663ntf    on518882   6.245   2.655   6.653 -0.1836 -0.1345  0.2027
 2663ntf    fn418883   6.227   2.324   6.815  0.1450  0.7090  0.2292
 2663ntf    fn418884   6.090   2.414   6.677 -0.1413  0.0488 -0.7807
 2663ntf    fn418885   6.291   2.362   6.623  0.0462  0.3482  0.1252
 2664ntf    cn118886   2.596   2.050   1.102  0.3134  0.0553  0.1166
 2664ntf    sn218887   2.682   1.896   1.147 -0.0501 -0.2529 -0.2424
 2664ntf    nn318888   2.815   1.957   1.204  0.0683 -0.9597  0.2479
 2664ntf    sn218889   2.895   1.908   1.330  0.1679  0.3546  0.7220
 2664ntf    cn118890   3.061   1.948   1.267  0.0242 -0.0432  0.0749
 2664ntf    fn418891   2.544   2.109   1.209  0.2262  0.6988 -0.2762
 2664ntf    fn418892   2.681   2.138   1.050  0.0733  0.1032 -0.1949
 2664ntf    fn418893   2.496   2.027   1.019  0.5291 -0.3751 -0.0244
 2664ntf    on518894   2.592   1.837   1.243  0.3749 -0.2436  0.1632
 2664ntf    on518895   2.684   1.826   1.021  0.7362 -0.3272 -0.1903
 2664ntf    on518896   2.900   1.764   1.345 -0.4578  0.2994  0.4541
 2664ntf    on518897   2.884   1.989   1.448 -0.1497  0.1136  0.8574
 2664ntf    fn418898   3.090   1.889   1.152 -0.1812 -0.6305  0.3208
 2664ntf    fn418899   3.075   2.079   1.256 -0.1703 -0.0303 -0.0158
 2664ntf    fn418900   3.155   1.914   1.354  0.1803 -0.0324 -0.0909
 2665ntf    cn118901   2.565   1.996   0.322  0.0878  0.2479  0.2369
 2665ntf    sn218902   2.640   2.116   0.208 -0.2596  0.1678 -0.0760
 2665ntf    nn318903   2.782   2.124   0.275 -0.2076 -0.4103 -0.1085
 2665ntf    sn218904   2.925   2.078   0.229 -0.0745 -0.0825 -0.0304
 2665ntf    cn118905   2.964   2.204   0.104 -0.2611 -0.0085 -0.0151
 2665ntf    fn418906   2.453   1.951   0.270  0.3541  0.3043 -0.3899
 2665ntf    fn418907   2.647   1.892   0.331 -0.2383 -0.0895 -0.6203
 2665ntf    fn418908   2.539   2.038   0.445 -0.3582 -0.4674  0.3950
 2665ntf    on518909   2.633   2.053   0.078  0.3314  0.2417 -0.1472
 2665ntf    on518910   2.554   2.231   0.216  0.0747  0.4235 -0.1540
 2665ntf    on518911   2.941   1.949   0.165  0.0580 -0.0556 -0.0507
 2665ntf    on518912   3.014   2.116   0.336 -0.2096  0.1607 -0.0030
 2665ntf    fn418913   2.941   2.326   0.151 -0.3126  0.0522 -0.1972
 2665ntf    fn418914   3.088   2.189   0.059 -0.3247 -0.0249 -0.1836
 2665ntf    fn418915   2.897   2.185  -0.008 -0.4280 -0.0284  0.0871
 2666ntf    cn118916   6.051   1.236   2.858  0.0498 -0.0983 -0.4496
 2666ntf    sn218917   5.959   1.341   2.743 -0.1573 -0.0105 -0.2052
 2666ntf    nn318918   5.835   1.375   2.833 -0.0352  0.3853 -0.1872
 2666ntf    sn218919   5.840   1.487   2.943 -0.6757  0.0073  0.2273
 2666ntf    cn118920   5.773   1.627   2.848 -0.3179 -0.1734 -0.2902
 2666ntf    fn418921   5.990   1.123   2.890  0.1058  0.1068  0.4247
 2666ntf    fn418922   6.172   1.197   2.819  0.1718 -0.4021  0.2001
 2666ntf    fn418923   6.063   1.295   2.976  0.8671 -0.0443 -0.5546
 2666ntf    on518924   6.045   1.450   2.703  0.4402 -0.1416  0.6940
 2666ntf    on518925   5.918   1.251   2.638 -0.3233 -0.3188  0.1235
 2666ntf    on518926   5.969   1.535   2.984 -0.3388 -0.5217 -0.2107
 2666ntf    on518927   5.742   1.471   3.048 -0.5456  0.0294  0.3522
 2666ntf    fn418928   5.754   1.722   2.938 -0.5001  0.3092 -0.8369
 2666ntf    fn418929   5.842   1.672   2.744  0.4156  0.2636  0.3721
 2666ntf    fn418930   5.652   1.598   2.803 -0.4493  0.0544 -0.0849
 2667ntf    cn118931   2.951   4.517   0.646 -0.2394  0.1491 -0.3407
 2667ntf    sn218932   2.842   4.436   0.525 -0.1192 -0.3773 -0.0979
 2667ntf    nn318933   2.917   4.477   0.393 -0.4837 -0.0635 -0.2085
 2667ntf    sn218934   2.990   4.378   0.296 -0.0490 -0.0272  0.0775
 2667ntf    cn118935   3.121   4.491   0.241  0.1042 -0.3380 -0.2015
 2667ntf    fn418936   2.947   4.648   0.626 -0.4688  0.2164  0.1485
 2667ntf    fn418937   2.914   4.509   0.772  0.1643 -0.0337 -0.2308
 2667ntf    fn418938   3.079   4.481   0.646 -0.2011  0.2825  0.0153
 2667ntf    on518939   2.838   4.296   0.559 -0.4847 -0.3967 -0.2187
 2667ntf    on518940   2.721   4.513   0.531  0.1475  0.0457 -0.1014
 2667ntf    on518941   2.932   4.351   0.167  0.0910  0.5927 -0.1155
 2667ntf    on518942   3.055   4.273   0.370  0.0846 -0.0996 -0.1395
 2667ntf    fn418943   3.070   4.578   0.154  0.0657 -0.0366  0.1184
 2667ntf    fn418944   3.183   4.560   0.336  0.0249 -0.1345 -0.2960
 2667ntf    fn418945   3.213   4.422   0.176  0.3613  0.1194 -0.3258
 2668ntf    cn118946   2.351   2.195   3.955  0.3694  0.2847 -0.0649
 2668ntf    sn218947   2.385   2.304   3.813  0.0999 -0.0817 -0.4143
 2668ntf    nn318948   2.542   2.306   3.808  0.1283 -0.4699  0.1441
 2668ntf    sn218949   2.644   2.393   3.890 -0.2027 -0.1474  0.2159
 2668ntf    cn118950   2.667   2.544   3.791  0.6210 -0.3380  0.1136
 2668ntf    fn418951   2.426   2.246   4.051 -0.0765 -0.0845  0.4855
 2668ntf    fn418952   2.226   2.182   3.996  0.4642 -0.2820  0.0459
 2668ntf    fn418953   2.387   2.070   3.936 -0.3974  0.0593 -0.0862
 2668ntf    on518954   2.330   2.221   3.709 -0.6724 -0.5318  0.3379
 2668ntf    on518955   2.320   2.431   3.835 -0.2286 -0.3499  0.1839
 2668ntf    on518956   2.777   2.340   3.878 -0.3874 -0.6324  0.3018
 2668ntf    on518957   2.601   2.445   4.018  0.3109  0.3466  0.1934
 2668ntf    fn418958   2.762   2.625   3.836 -0.0334  0.1736  0.5951
 2668ntf    fn418959   2.684   2.515   3.663 -0.5014  0.2051 -0.1682
 2668ntf    fn418960   2.561   2.622   3.801  0.5356 -0.4240 -0.1145
 2669ntf    cn118961   5.997   2.155   5.188 -0.0703 -0.1742  0.0248
 2669ntf    sn218962   6.130   2.036   5.222  0.0221  0.1015  0.6591
 2669ntf    nn318963   6.052   1.936   5.313 -0.4464 -0.1004  0.0436
 2669ntf    sn218964   6.064   1.901   5.466  0.1819 -0.0538  0.0066
 2669ntf    cn118965   5.896   1.851   5.514  0.0593  0.4610  0.1200
 2669ntf    fn418966   6.037   2.229   5.086 -0.1928  0.5440  0.4845
 2669ntf    fn418967   5.883   2.100   5.152 -0.1167 -0.1160  0.0798
 2669ntf    fn418968   5.983   2.236   5.292  0.0202  0.0377 -0.1262
 2669ntf    on518969   6.157   1.978   5.092 -0.7042  0.2950  0.4178
 2669ntf    on518970   6.236   2.111   5.286 -0.4234  0.3134  1.1506
 2669ntf    on518971   6.082   2.011   5.558 -0.1130  0.5354 -0.6299
 2669ntf    on518972   6.130   1.776   5.493 -0.0268 -0.1381  0.1285
 2669ntf    fn418973   5.879   1.837   5.644  0.4794  0.8908  0.2254
 2669ntf    fn418974   5.801   1.932   5.468 -0.6133 -0.5736 -0.3319
 2669ntf    fn418975   5.864   1.735   5.460 -0.1180  0.3613  0.4338
 2670ntf    cn118976   6.362   1.766   2.487  0.0828  0.2305  0.1057
 2670ntf    sn218977   6.522   1.852   2.489  0.1864  0.0370  0.1995
 2670ntf    nn318978   6.472   1.988   2.428 -0.1791 -0.2506 -0.1420
 2670ntf    sn218979   6.519   2.079   2.309 -0.1112  0.0930  0.1456
 2670ntf    cn118980   6.483   2.242   2.380  0.1891  0.0867  0.3130
 2670ntf    fn418981   6.313   1.755   2.365  0.2865  0.3846  0.0088
 2670ntf    fn418982   6.373   1.641   2.530  0.2352  0.2681  0.1778
 2670ntf    fn418983   6.270   1.819   2.566  0.5349  0.0981  0.7290
 2670ntf    on518984   6.549   1.854   2.631  0.3884  0.5009  0.1587
 2670ntf    on518985   6.614   1.772   2.411 -0.2905 -0.0259 -0.3018
 2670ntf    on518986   6.425   2.071   2.200  0.2541  0.6306 -0.2115
 2670ntf    on518987   6.661   2.081   2.285 -0.1588  0.0592 -0.1505
 2670ntf    fn418988   6.487   2.336   2.287  0.0462  0.4056  0.6262
 2670ntf    fn418989   6.365   2.247   2.441  0.0731  0.8934  0.0331
 2670ntf    fn418990   6.566   2.267   2.480  0.7305  0.7079 -0.2811
 2671ntf    cn118991   6.165   5.376   4.825 -0.3935  0.4342  0.3392
 2671ntf    sn218992   6.031   5.481   4.760 -0.5686 -0.1559 -0.2635
 2671ntf    nn318993   6.118   5.589   4.689 -0.2171 -0.1216  0.2129
 2671ntf    sn218994   6.133   5.626   4.537 -0.0529 -0.2017  0.2087
 2671ntf    cn118995   6.293   5.712   4.540 -0.1018 -0.1182  0.4212
 2671ntf    fn418996   6.255   5.341   4.735 -0.4888  0.2807  0.3022
 2671ntf    fn418997   6.236   5.430   4.922  0.6109 -0.0574 -0.1060
 2671ntf    fn418998   6.121   5.261   4.875 -0.1697  0.1710 -0.0647
 2671ntf    on518999   5.952   5.398   4.671 -0.4730 -0.0625 -0.4343
 2671ntf    on519000   5.974   5.534   4.881 -0.0218  0.4364 -0.2638
 2671ntf    on519001   6.039   5.721   4.482 -0.1900 -0.1084  0.6011
 2671ntf    on519002   6.162   5.514   4.452  0.5155 -0.1617  0.3471
 2671ntf    fn419003   6.337   5.740   4.418 -0.1668 -0.1723  0.3855
 2671ntf    fn419004   6.284   5.826   4.607  0.1554 -0.0353  0.3188
 2671ntf    fn419005   6.382   5.634   4.599  0.6151  0.5530  0.2420
 2672ntf    cn119006   3.721   5.519   5.229  0.0290  0.0342 -0.2966
 2672ntf    sn219007   3.679   5.396   5.102  0.1312 -0.3095 -0.0027
 2672ntf    nn319008   3.692   5.265   5.186 -0.3709 -0.1995  0.2495
 2672ntf    sn219009   3.585   5.150   5.190 -0.2748 -0.3032 -0.1103
 2672ntf    cn119010   3.680   4.997   5.173  0.1154 -0.0406 -0.2955
 2672ntf    fn419011   3.627   5.530   5.322 -0.2485 -0.3441 -0.5299
 2672ntf    fn419012   3.832   5.492   5.296 -0.0760 -0.1412 -0.1909
 2672ntf    fn419013   3.742   5.640   5.181  0.2885  0.1246  0.0396
 2672ntf    on519014   3.550   5.446   5.060  0.0341 -0.2017  0.4261
 2672ntf    on519015   3.790   5.400   5.009  0.5999  0.0166  0.5620
 2672ntf    on519016   3.500   5.149   5.073  0.2476  0.3523 -0.5027
 2672ntf    on519017   3.529   5.126   5.321 -0.0226  0.1418  0.0819
 2672ntf    fn419018   3.777   4.985   5.262 -0.2353 -0.0003  0.0936
 2672ntf    fn419019   3.600   4.894   5.192  0.1472 -0.0644 -0.2857
 2672ntf    fn419020   3.732   4.993   5.051  0.4841  0.3173 -0.1531
 2673ntf    cn119021   2.291   0.222   0.029 -0.2496 -0.3855 -0.0490
 2673ntf    sn219022   2.166   0.343  -0.025 -0.0295 -0.3119 -0.3981
 2673ntf    nn319023   2.257   0.416  -0.130  0.3611 -0.2110  0.0081
 2673ntf    sn219024   2.231   0.416  -0.285 -0.5054 -0.2761  0.1467
 2673ntf    cn119025   2.391   0.357  -0.348 -0.0907  0.7330  0.2414
 2673ntf    fn419026   2.389   0.271   0.103 -0.2989 -0.1239 -0.1551
 2673ntf    fn419027   2.240   0.129   0.108 -0.3618 -0.1176  0.1957
 2673ntf    fn419028   2.355   0.165  -0.072  0.0719 -0.0704 -0.0225
 2673ntf    on519029   2.045   0.272  -0.059 -0.1215  0.0082 -0.7505
 2673ntf    on519030   2.155   0.425   0.093  0.6808 -0.1594 -0.4325
 2673ntf    on519031   2.221   0.549  -0.338 -0.2163 -0.0002  0.7788
 2673ntf    on519032   2.135   0.320  -0.335 -0.6599 -0.3256  0.5377
 2673ntf    fn419033   2.406   0.228  -0.322  0.3327  0.7071 -0.0968
 2673ntf    fn419034   2.404   0.361  -0.480  0.0201 -0.2585  0.2155
 2673ntf    fn419035   2.498   0.415  -0.295  0.2381  0.3555  0.0046
 2674ntf    cn119036   2.769   5.260   6.583  0.2701  0.2091 -0.2300
 2674ntf    sn219037   2.704   5.233   6.751 -0.0181 -0.2310 -0.4115
 2674ntf    nn319038   2.836   5.234   6.836 -0.4075  0.3399  0.2015
 2674ntf    sn219039   2.909   5.352   6.909  0.3530  0.0639 -0.0993
 2674ntf    cn119040   2.855   5.324   7.080 -0.2930  0.3151 -0.2557
 2674ntf    fn419041   2.853   5.362   6.584  0.1246  0.3312  0.5362
 2674ntf    fn419042   2.838   5.160   6.531 -0.3953 -0.2608 -0.2140
 2674ntf    fn419043   2.674   5.276   6.492 -0.2922 -0.6335  0.1980
 2674ntf    on519044   2.616   5.342   6.789  0.7459  0.1544  0.2683
 2674ntf    on519045   2.644   5.103   6.737 -0.7903  0.1247 -0.5169
 2674ntf    on519046   2.864   5.488   6.887  0.9797  0.3235  0.2147
 2674ntf    on519047   3.050   5.332   6.928  0.3585  0.2154  0.0286
 2674ntf    fn419048   2.733   5.373   7.094 -0.5112 -0.3486  0.2312
 2674ntf    fn419049   2.855   5.197   7.114  0.0873  0.3825  0.0028
 2674ntf    fn419050   2.930   5.391   7.167  0.2818  0.0980 -0.5775
 2675ntf    cn119051   4.739   0.004   5.091 -0.1212 -0.3263  0.5061
 2675ntf    sn219052   4.881  -0.002   4.976 -0.3740  0.1791  0.1620
 2675ntf    nn319053   4.992  -0.039   5.080  0.2397 -0.1168 -0.5917
 2675ntf    sn219054   5.069   0.062   5.173 -0.4938 -0.1672  0.0816
 2675ntf    cn119055   5.081  -0.025   5.332  0.1315 -0.0421  0.1023
 2675ntf    fn419056   4.633   0.014   5.012  0.0835 -0.3457  0.2262
 2675ntf    fn419057   4.725  -0.105   5.163  0.2868 -0.3962  0.4840
 2675ntf    fn419058   4.736   0.111   5.169 -0.3467  0.0201  0.0314
 2675ntf    on519059   4.861  -0.116   4.890 -0.8364  0.5181 -0.1867
 2675ntf    on519060   4.894   0.127   4.913  0.4039  0.0345  0.0240
 2675ntf    on519061   5.000   0.182   5.215 -0.1765 -0.2249  0.7776
 2675ntf    on519062   5.207   0.080   5.138 -0.3822  0.0201  0.6078
 2675ntf    fn419063   4.971  -0.085   5.373  0.0026  0.3190  0.2974
 2675ntf    fn419064   5.177  -0.116   5.337 -0.2693 -0.4879 -0.2615
 2675ntf    fn419065   5.111   0.053   5.435  0.2383  0.5892 -0.3983
 2676ntf    cn119066   1.602   4.362   6.815 -0.2424  0.1517 -0.1681
 2676ntf    sn219067   1.654   4.473   6.681  0.1624  0.1375 -0.0258
 2676ntf    nn319068   1.524   4.552   6.643  0.1606  0.1765  0.0609
 2676ntf    sn219069   1.460   4.611   6.512  0.1195 -0.0474 -0.0206
 2676ntf    cn119070   1.470   4.790   6.545  0.0554 -0.1103  0.3507
 2676ntf    fn419071   1.551   4.425   6.919  0.6088 -0.3973  0.6071
 2676ntf    fn419072   1.503   4.285   6.774  0.1028 -0.1898 -0.3773
 2676ntf    fn419073   1.707   4.289   6.851 -0.3823  0.3799  0.7219
 2676ntf    on519074   1.757   4.547   6.749  0.1279  0.3934 -0.2495
 2676ntf    on519075   1.688   4.386   6.572  0.0440  0.3441 -0.2278
 2676ntf    on519076   1.318   4.588   6.500  0.0826  0.1711 -0.0124
 2676ntf    on519077   1.545   4.591   6.398 -0.2366 -0.2643 -0.2485
 2676ntf    fn419078   1.508   4.849   6.433 -0.2055 -0.2542  0.1856
 2676ntf    fn419079   1.355   4.842   6.584  0.1446  0.4297 -0.0980
 2676ntf    fn419080   1.559   4.827   6.635  0.1729 -0.2648  0.2995
 2677ntf    cn119081   3.811   3.158   3.935  0.1072  0.1523 -0.1354
 2677ntf    sn219082   3.760   3.303   4.032  0.3501  0.0435  0.1527
 2677ntf    nn319083   3.842   3.274   4.163  0.2142 -0.1827  0.1895
 2677ntf    sn219084   3.798   3.262   4.313  0.0072 -0.1455  0.1323
 2677ntf    cn119085   3.740   3.091   4.330  0.1225 -0.2002 -0.0219
 2677ntf    fn419086   3.867   3.189   3.819 -0.1658  0.1705 -0.2659
 2677ntf    fn419087   3.896   3.078   3.997 -0.0646 -0.1028 -0.2259
 2677ntf    fn419088   3.710   3.076   3.907  0.0898  0.0354  0.2653
 2677ntf    on519089   3.801   3.411   3.946 -0.1959  0.0879 -0.0587
 2677ntf    on519090   3.617   3.287   4.049  0.3619  0.3620  0.5825
 2677ntf    on519091   3.683   3.342   4.348 -0.2198 -0.3351 -0.1771
 2677ntf    on519092   3.912   3.282   4.400  0.3131 -0.3179 -0.2267
 2677ntf    fn419093   3.842   3.008   4.343  0.1906 -0.1486 -0.2240
 2677ntf    fn419094   3.662   3.063   4.433  0.0732 -0.1721 -0.0521
 2677ntf    fn419095   3.667   3.051   4.228  0.0087 -0.1363  0.0344
 2678ntf    cn119096   1.149   1.926   2.685 -0.1332 -0.3247 -0.0424
 2678ntf    sn219097   1.238   1.793   2.772  0.0937 -0.0067  0.2157
 2678ntf    nn319098   1.274   1.700   2.650 -0.4710  0.0068  0.0323
 2678ntf    sn219099   1.340   1.558   2.647  0.0673  0.2573 -0.1330
 2678ntf    cn119100   1.237   1.465   2.530 -0.0821 -0.1765  0.3407
 2678ntf    fn419101   1.217   1.968   2.579  0.2899 -0.8402  0.0237
 2678ntf    fn419102   1.031   1.883   2.643 -0.5200  0.0521  0.6337
 2678ntf    fn419103   1.139   2.038   2.755 -0.5655  0.0047 -0.6250
 2678ntf    on519104   1.357   1.860   2.818  0.0978  0.3876 -0.3519
 2678ntf    on519105   1.149   1.730   2.867  0.1513 -0.2081  0.1364
 2678ntf    on519106   1.328   1.483   2.770  0.4737 -0.1191 -0.3206
 2678ntf    on519107   1.468   1.551   2.582 -0.0931  0.9034 -0.5296
 2678ntf    fn419108   1.112   1.446   2.570 -0.2166 -0.1649 -0.0742
 2678ntf    fn419109   1.222   1.526   2.414  0.6363 -0.5988  0.0193
 2678ntf    fn419110   1.275   1.342   2.498  0.3639  0.1520 -0.4199
 2679ntf    cn119111   2.480   3.212   0.388  0.2503 -0.9918  0.0011
 2679ntf    sn219112   2.356   3.184   0.258  0.1203  0.1659 -0.1314
 2679ntf    nn319113   2.444   3.217   0.132  0.1685  0.1835 -0.0936
 2679ntf    sn219114   2.448   3.364   0.080 -0.1510  0.2959  0.1936
 2679ntf    cn119115   2.517   3.326  -0.084  0.0812  0.1748  0.3186
 2679ntf    fn419116   2.514   3.339   0.401 -0.3232 -0.7968 -0.3670
 2679ntf    fn419117   2.434   3.176   0.507  0.1157 -1.3417 -0.1547
 2679ntf    fn419118   2.594   3.150   0.364  0.3665 -0.5657 -0.5559
 2679ntf    on519119   2.319   3.045   0.270 -0.0463  0.2522  0.3637
 2679ntf    on519120   2.256   3.281   0.294 -0.1172 -0.1236 -0.0082
 2679ntf    on519121   2.555   3.442   0.139  0.3463 -0.0234 -0.2735
 2679ntf    on519122   2.325   3.431   0.044 -0.4061 -0.4492 -0.3420
 2679ntf    fn419123   2.529   3.439  -0.152 -0.1947  0.5983  0.9678
 2679ntf    fn419124   2.637   3.270  -0.085 -0.1638 -0.3524 -0.0676
 2679ntf    fn419125   2.444   3.241  -0.155  0.5143  0.2856 -0.2632
 2680ntf    cn119126   1.560   4.773   0.675  0.1833  0.2654 -0.0372
 2680ntf    sn219127   1.645   4.696   0.534 -0.2130 -0.1956 -0.0253
 2680ntf    nn319128   1.636   4.543   0.567 -0.4778 -0.1706  0.0220
 2680ntf    sn219129   1.732   4.457   0.657 -0.5589 -0.0711  0.2026
 2680ntf    cn119130   1.860   4.415   0.536 -0.4417  0.0324  0.2909
 2680ntf    fn419131   1.527   4.900   0.657  0.0814  0.1738 -0.4995
 2680ntf    fn419132   1.450   4.710   0.711  0.2389  0.2188  0.0530
 2680ntf    fn419133   1.637   4.776   0.783 -0.0044 -0.1712  0.1108
 2680ntf    on519134   1.568   4.728   0.417  0.5565 -0.1580 -0.5318
 2680ntf    on519135   1.775   4.759   0.541 -0.4643  0.3713 -0.3595
 2680ntf    on519136   1.682   4.324   0.683  0.6504 -0.4116  0.8768
 2680ntf    on519137   1.799   4.525   0.765  0.6885 -0.1324 -0.5133
 2680ntf    fn419138   1.957   4.342   0.589 -0.1401 -0.0469 -0.3565
 2680ntf    fn419139   1.804   4.358   0.431  0.2836  0.0909 -0.1416
 2680ntf    fn419140   1.920   4.524   0.491 -0.8850  0.0849 -0.1844
 2681ntf    cn119141   6.601   1.366   1.536  0.1460  0.3263 -0.1679
 2681ntf    sn219142   6.571   1.405   1.711  0.0273  0.1436 -0.1476
 2681ntf    nn319143   6.487   1.537   1.713  0.0177  0.1398 -0.3088
 2681ntf    sn219144   6.332   1.564   1.717 -0.0377 -0.1913 -0.1790
 2681ntf    cn119145   6.304   1.672   1.574 -0.0297  0.2324  0.1370
 2681ntf    fn419146   6.653   1.472   1.477 -0.1833  0.0019 -1.0555
 2681ntf    fn419147   6.685   1.265   1.520 -0.3586 -0.1604  0.2239
 2681ntf    fn419148   6.489   1.347   1.468  0.2502  0.2502 -0.3165
 2681ntf    on519149   6.512   1.286   1.768  0.8142  0.0208  0.4235
 2681ntf    on519150   6.702   1.434   1.764  0.1365  0.4370 -0.5786
 2681ntf    on519151   6.294   1.648   1.828 -0.4049 -0.1131 -0.3629
 2681ntf    on519152   6.254   1.446   1.688 -0.0240 -0.3688  0.4888
 2681ntf    fn419153   6.353   1.609   1.469  0.0687 -0.0603  0.3590
 2681ntf    fn419154   6.176   1.683   1.541 -0.0262 -0.1955 -0.0278
 2681ntf    fn419155   6.360   1.791   1.588  0.0673  0.2257 -0.1901
 2682ntf    cn119156   2.876   4.056   4.477  0.4691  0.2572  0.0614
 2682ntf    sn219157   2.790   4.030   4.635  0.2725  0.2713 -0.0426
 2682ntf    nn319158   2.926   4.003   4.709  0.3245 -0.0312 -0.2497
 2682ntf    sn219159   2.998   4.096   4.813  0.1437 -0.2390  0.0631
 2682ntf    cn119160   3.075   3.971   4.920  0.0818 -0.5402 -0.2426
 2682ntf    fn419161   2.801   4.132   4.398 -0.0542  0.2533  0.5439
 2682ntf    fn419162   2.991   4.121   4.490  0.3434  0.4992 -0.0272
 2682ntf    fn419163   2.912   3.946   4.414 -0.0794  0.1041  0.0108
 2682ntf    on519164   2.720   4.151   4.673  0.2159  0.2469 -0.0685
 2682ntf    on519165   2.705   3.915   4.624  0.0537  0.3798  0.4817
 2682ntf    on519166   2.914   4.171   4.904 -0.0140 -0.1685 -0.1386
 2682ntf    on519167   3.113   4.158   4.754  0.1916  0.1474  0.5476
 2682ntf    fn419168   2.986   3.915   5.001 -0.0736 -0.6805 -0.5108
 2682ntf    fn419169   3.136   3.874   4.854  0.1156 -0.5078 -0.2590
 2682ntf    fn419170   3.164   4.014   5.008 -0.3634  0.2568 -0.1709
 2683ntf    cn119171   0.083   0.464   6.465 -0.0044  0.1203  0.5238
 2683ntf    sn219172   0.239   0.426   6.379 -0.0729 -0.4237  0.6310
 2683ntf    nn319173   0.326   0.551   6.416  0.6293 -0.5338 -0.6091
 2683ntf    sn219174   0.386   0.663   6.323  0.0738 -0.0185 -0.3496
 2683ntf    cn119175   0.254   0.789   6.327  0.0747 -0.0276 -0.0381
 2683ntf    fn419176   0.036   0.584   6.436  0.6292  0.3311  0.3395
 2683ntf    fn419177  -0.017   0.382   6.438  0.1296  0.1949 -0.2133
 2683ntf    fn419178   0.104   0.460   6.596  0.0021 -0.2705  0.5123
 2683ntf    on519179   0.289   0.308   6.444  0.1848 -0.3796  0.5157
 2683ntf    on519180   0.202   0.419   6.239  0.6161 -0.6591  0.4590
 2683ntf    on519181   0.406   0.634   6.183  0.2959 -0.7952 -0.1578
 2683ntf    on519182   0.488   0.735   6.394  0.1737  0.0407 -0.5533
 2683ntf    fn419183   0.280   0.899   6.258 -0.1901 -0.3129 -0.5927
 2683ntf    fn419184   0.145   0.733   6.279  0.0545  0.4394 -0.5372
 2683ntf    fn419185   0.224   0.833   6.448 -0.5867 -0.3562 -0.0824
 2684ntf    cn119186   2.707   6.388   5.548  0.1723 -0.3595 -0.2588
 2684ntf    sn219187   2.746   6.564   5.571  0.3002 -0.4262  0.0409
 2684ntf    nn319188   2.668   6.598   5.703  0.6404 -0.1328  0.1666
 2684ntf    sn219189   2.710   6.643   5.848  0.0910 -0.0470  0.3022
 2684ntf    cn119190   2.678   6.822   5.841  0.0584 -0.0591  0.1345
 2684ntf    fn419191   2.793   6.328   5.466  0.7218 -0.0924  0.1141
 2684ntf    fn419192   2.720   6.318   5.660  0.6069  0.2434  0.0738
 2684ntf    fn419193   2.585   6.383   5.497  0.2038 -0.0098 -0.3658
 2684ntf    on519194   2.890   6.568   5.571  0.2999 -0.2189  0.6610
 2684ntf    on519195   2.684   6.624   5.455  0.9947  0.1501 -0.0374
 2684ntf    on519196   2.853   6.639   5.865  0.1567 -0.0643 -0.2403
 2684ntf    on519197   2.630   6.588   5.955 -0.5646 -0.6669 -0.4923
 2684ntf    fn419198   2.644   6.879   5.955 -0.0840  0.2025 -0.0379
 2684ntf    fn419199   2.785   6.882   5.791 -0.0584  0.1315  0.1150
 2684ntf    fn419200   2.579   6.853   5.759 -0.0175 -0.1962  0.1736
 2685ntf    cn119201   3.691   5.653   5.587  0.2321 -0.0809 -0.0275
 2685ntf    sn219202   3.645   5.780   5.710  0.3700  0.0321 -0.0920
 2685ntf    nn319203   3.783   5.771   5.784  0.3257  0.0798 -0.0047
 2685ntf    sn219204   3.823   5.702   5.920  0.0411 -0.3888 -0.1550
 2685ntf    cn119205   3.976   5.621   5.865  0.2998 -0.0852  0.1166
 2685ntf    fn419206   3.587   5.597   5.529  0.0831  0.2278 -0.0579
 2685ntf    fn419207   3.776   5.698   5.496  0.2703  0.2560  0.1691
 2685ntf    fn419208   3.752   5.555   5.652  0.2202  0.2206  0.4491
 2685ntf    on519209   3.626   5.898   5.629 -0.1918  0.0597  0.0754
 2685ntf    on519210   3.530   5.724   5.777 -0.0207 -0.3191 -1.0255
 2685ntf    on519211   3.730   5.602   5.965 -0.1571 -0.0973  0.0852
 2685ntf    on519212   3.867   5.798   6.019  0.2052 -0.0708 -0.5309
 2685ntf    fn419213   4.029   5.543   5.959  0.0332 -0.2321  0.1452
 2685ntf    fn419214   3.973   5.544   5.758 -0.2753  0.6072 -0.3653
 2685ntf    fn419215   4.081   5.699   5.844  0.0369  0.1937 -0.1491
 2686ntf    cn119216   5.457   0.814   2.882  0.1279  0.0410  0.0357
 2686ntf    sn219217   5.307   0.732   2.821  0.0717  0.2720 -0.1381
 2686ntf    nn319218   5.208   0.797   2.924 -0.1789 -0.3146 -0.0037
 2686ntf    sn219219   5.125   0.930   2.911  0.0301 -0.1874 -0.0320
 2686ntf    cn119220   4.959   0.862   2.941 -0.0603 -0.0887 -0.2993
 2686ntf    fn419221   5.561   0.787   2.805  0.0556  0.7219 -0.3013
 2686ntf    fn419222   5.446   0.945   2.872  0.1838  0.0356 -0.0936
 2686ntf    fn419223   5.491   0.783   3.006  0.2223  0.1599  0.0397
 2686ntf    on519224   5.288   0.777   2.686  0.2650 -0.2743 -0.3511
 2686ntf    on519225   5.323   0.590   2.843  0.7511  0.3702  0.0140
 2686ntf    on519226   5.123   1.003   2.787 -0.4917 -0.0215  0.0715
 2686ntf    on519227   5.143   1.006   3.032  0.4690 -0.2383 -0.0614
 2686ntf    fn419228   4.931   0.854   3.070 -0.5549  0.0685 -0.3967
 2686ntf    fn419229   4.868   0.944   2.892 -0.3542 -0.2042  0.0473
 2686ntf    fn419230   4.947   0.741   2.888 -0.1578 -0.2192  0.0198
 2687ntf    cn119231   5.016   0.520   5.695 -0.2211  0.3754  0.0607
 2687ntf    sn219232   5.089   0.686   5.694  0.2475  0.1710 -0.2467
 2687ntf    nn319233   4.969   0.770   5.751 -0.1469 -0.4669 -0.1329
 2687ntf    sn219234   4.873   0.878   5.691  0.0240 -0.1988  0.0721
 2687ntf    cn119235   4.724   0.777   5.663  0.2673 -0.7939  0.8787
 2687ntf    fn419236   5.109   0.437   5.649 -0.1392  0.3748  0.2264
 2687ntf    fn419237   4.979   0.477   5.815 -0.5989 -0.2763 -0.2829
 2687ntf    fn419238   4.913   0.504   5.614 -0.1734 -0.1782  0.1033
 2687ntf    on519239   5.188   0.676   5.797  0.0850  0.5890 -0.0478
 2687ntf    on519240   5.137   0.711   5.560  0.2637  0.1013 -0.2533
 2687ntf    on519241   4.914   0.924   5.561 -0.5275 -0.2027 -0.1071
 2687ntf    on519242   4.833   0.976   5.789 -0.5214 -0.2130 -0.1305
 2687ntf    fn419243   4.737   0.685   5.569 -0.4310 -0.3830  0.3659
 2687ntf    fn419244   4.678   0.711   5.768 -0.4379 -0.4990  0.7618
 2687ntf    fn419245   4.619   0.844   5.617  0.7131 -0.5097  0.2471
 2688ntf    cn119246   3.543   2.829   0.629 -0.3533 -0.3720  0.0486
 2688ntf    sn219247   3.694   2.730   0.654 -0.2163 -0.0852  0.3599
 2688ntf    nn319248   3.804   2.839   0.682 -0.0842 -0.0602 -0.2398
 2688ntf    sn219249   3.938   2.819   0.762 -0.1042 -0.2595 -0.2543
 2688ntf    cn119250   4.058   2.853   0.630 -0.1740  0.1862 -0.2048
 2688ntf    fn419251   3.452   2.768   0.555 -0.4163  0.2295 -0.3696
 2688ntf    fn419252   3.489   2.873   0.741 -0.3114 -0.3366  0.0548
 2688ntf    fn419253   3.565   2.943   0.566 -0.5749 -0.4613 -0.1890
 2688ntf    on519254   3.651   2.650   0.766 -0.2558 -0.3304  0.1689
 2688ntf    on519255   3.722   2.663   0.529  0.4282  0.0141  0.4450
 2688ntf    on519256   3.972   2.691   0.820  0.1370 -0.0795  0.0063
 2688ntf    on519257   3.970   2.930   0.848  0.4004 -0.3982 -0.2595
 2688ntf    fn419258   4.172   2.890   0.685 -0.3030  0.0244  0.1746
 2688ntf    fn419259   4.087   2.752   0.550 -0.2469  0.3300 -0.4147
 2688ntf    fn419260   4.013   2.954   0.557 -0.6809  0.0887 -0.0352
 2689ntf    cn119261   6.907   6.343   6.877 -0.0559  0.2621 -0.0603
 2689ntf    sn219262   6.743   6.420   6.897 -0.2675 -0.2042  0.0236
 2689ntf    nn319263   6.777   6.573   6.908  0.4726 -0.3889  0.4005
 2689ntf    sn219264   6.812   6.649   7.041 -0.1792  0.0900  0.3058
 2689ntf    cn119265   6.689   6.782   7.032 -0.0132  0.2021 -0.3703
 2689ntf    fn419266   6.906   6.234   6.802  0.2851  0.2019  0.0219
 2689ntf    fn419267   6.988   6.432   6.823 -0.2105  0.6475  0.3366
 2689ntf    fn419268   6.965   6.314   6.992  0.0714  0.1784 -0.1458
 2689ntf    on519269   6.686   6.399   6.767  0.9931 -0.2070 -0.5408
 2689ntf    on519270   6.674   6.354   7.005 -0.4408  0.1444  0.1285
 2689ntf    on519271   6.937   6.719   7.028 -0.1202 -0.0826 -0.0681
 2689ntf    on519272   6.788   6.588   7.170  0.3950  0.2213  0.4791
 2689ntf    fn419273   6.710   6.861   6.928  0.0269  0.7168  0.0269
 2689ntf    fn419274   6.568   6.731   7.016  0.1665 -0.3552 -0.0096
 2689ntf    fn419275   6.675   6.858   7.140  0.3607 -0.2721  0.0169
 2690ntf    cn119276   5.087   4.915   0.241 -0.2107  0.1246 -0.0480
 2690ntf    sn219277   5.229   4.864   0.139 -0.1905  0.1457 -0.0300
 2690ntf    nn319278   5.275   4.741   0.225 -0.1449  0.4137  0.3273
 2690ntf    sn219279   5.416   4.712   0.288  0.0273 -0.0667 -0.2770
 2690ntf    cn119280   5.382   4.757   0.461 -0.1849  0.1321 -0.3704
 2690ntf    fn419281   4.989   4.827   0.244 -0.1759  0.0449 -0.8539
 2690ntf    fn419282   5.119   4.931   0.368 -0.4652  0.1965  0.0068
 2690ntf    fn419283   5.031   5.028   0.200  0.2513  0.2195 -0.4390
 2690ntf    on519284   5.164   4.829   0.015  0.0852  0.1390 -0.1720
 2690ntf    on519285   5.312   4.981   0.148  0.1315 -0.0979  0.1563
 2690ntf    on519286   5.525   4.800   0.253 -0.2945  0.3823 -0.1488
 2690ntf    on519287   5.455   4.575   0.311 -0.1886  0.0102  0.5561
 2690ntf    fn419288   5.298   4.678   0.524  0.0518  0.1577 -0.0248
 2690ntf    fn419289   5.496   4.751   0.529 -0.3992 -0.4575 -0.0593
 2690ntf    fn419290   5.327   4.877   0.468 -0.0447  0.1752  0.0096
 2691ntf    cn119291   1.525   2.051   0.420  0.3803 -0.0345  0.3164
 2691ntf    sn219292   1.516   1.881   0.483  0.0395 -0.0630  0.1933
 2691ntf    nn319293   1.536   1.902   0.637  0.4922  1.0575 -0.0158
 2691ntf    sn219294   1.429   1.920   0.751  0.2401  0.0162 -0.0808
 2691ntf    cn119295   1.371   1.749   0.770 -0.4895  0.2515 -0.1806
 2691ntf    fn419296   1.432   2.124   0.480  0.2114  0.2069 -0.2406
 2691ntf    fn419297   1.642   2.108   0.442  0.4257  0.2104 -0.5336
 2691ntf    fn419298   1.497   2.073   0.293 -0.2366 -0.0856  0.4379
 2691ntf    on519299   1.390   1.828   0.434  0.1564 -0.2892  0.1328
 2691ntf    on519300   1.631   1.822   0.420  0.2408  0.0971  0.4098
 2691ntf    on519301   1.310   1.990   0.709  0.0240 -0.2700  0.0549
 2691ntf    on519302   1.494   1.951   0.876  1.2102 -0.7852 -0.3699
 2691ntf    fn419303   1.324   1.727   0.892  0.1350  0.0813  0.0338
 2691ntf    fn419304   1.277   1.720   0.681 -0.2675 -0.5263 -0.1658
 2691ntf    fn419305   1.468   1.662   0.747  0.1962  0.7936  0.6138
 2692ntf    cn119306   0.312   3.084   0.141 -0.4337  0.6002  0.1630
 2692ntf    sn219307   0.213   3.033  -0.002 -0.0241 -0.0498  0.1117
 2692ntf    nn319308   0.115   3.153  -0.024 -0.2432 -0.1122  0.7326
 2692ntf    sn219309   0.129   3.280  -0.115  0.0963 -0.5513  0.1641
 2692ntf    cn119310   0.040   3.221  -0.262 -0.1076  0.0545  0.0394
 2692ntf    fn419311   0.237   3.156   0.223 -0.4435  0.1173  0.5855
 2692ntf    fn419312   0.358   2.975   0.199 -0.2891  0.3601 -0.4042
 2692ntf    fn419313   0.420   3.152   0.106 -0.1670  0.1275  0.0625
 2692ntf    on519314   0.311   3.004  -0.105  0.7828  0.4978  0.7101
 2692ntf    on519315   0.145   2.918   0.051 -0.4766 -0.1923 -0.7613
 2692ntf    on519316   0.260   3.319  -0.162 -0.0272 -0.4240 -0.0800
 2692ntf    on519317   0.036   3.380  -0.068 -0.2285 -0.5986 -0.3758
 2692ntf    fn419318   0.106   3.130  -0.333 -0.2331  0.2592 -0.3428
 2692ntf    fn419319  -0.078   3.167  -0.241 -0.0872  0.1436  0.3892
 2692ntf    fn419320   0.023   3.321  -0.347 -0.4249  0.4431  0.5570
 2693ntf    cn119321   3.698   4.277   4.001  0.3037  0.1730 -0.1851
 2693ntf    sn219322   3.628   4.388   3.875  0.3502  0.1329 -0.2458
 2693ntf    nn319323   3.645   4.313   3.738  0.1158 -0.0592 -0.1706
 2693ntf    sn219324   3.769   4.320   3.642  0.1970 -0.1935 -0.0764
 2693ntf    cn119325   3.732   4.474   3.552 -0.3324  0.1062  0.6459
 2693ntf    fn419326   3.722   4.335   4.117 -0.4400  0.3410 -0.1066
 2693ntf    fn419327   3.620   4.172   4.024  0.1787  0.3298  0.1155
 2693ntf    fn419328   3.811   4.221   3.961  0.0716 -0.6362  0.2797
 2693ntf    on519329   3.490   4.386   3.917  0.5853  0.1194  0.5290
 2693ntf    on519330   3.696   4.513   3.898  0.2556  0.1403 -0.0096
 2693ntf    on519331   3.772   4.226   3.533  0.2560 -0.1976 -0.0711
 2693ntf    on519332   3.897   4.334   3.708  0.0571 -0.4028  0.2402
 2693ntf    fn419333   3.704   4.574   3.635  0.1071  0.3796  0.4718
 2693ntf    fn419334   3.836   4.511   3.479 -0.9253  0.2747 -0.1148
 2693ntf    fn419335   3.627   4.457   3.474 -0.1575  0.2320  0.3833
 2694ntf    cn119336   4.577   3.271   6.027  0.1080  0.1640 -0.2336
 2694ntf    sn219337   4.683   3.124   6.012 -0.0345  0.0218  0.1465
 2694ntf    nn319338   4.804   3.165   6.103  0.0558 -0.1201  0.0927
 2694ntf    sn219339   4.877   3.064   6.198  0.3097  0.0831  0.1152
 2694ntf    cn119340   5.002   2.991   6.088 -0.1870 -0.3906 -0.1378
 2694ntf    fn419341   4.638   3.388   6.034  0.5438 -0.0900  0.3242
 2694ntf    fn419342   4.487   3.283   5.931 -0.4013 -0.1406  0.2021
 2694ntf    fn419343   4.504   3.257   6.136  0.1165  0.1238 -0.2324
 2694ntf    on519344   4.595   3.013   6.039  0.5732 -0.1944  1.3002
 2694ntf    on519345   4.724   3.137   5.874 -0.3540 -0.3635  0.0137
 2694ntf    on519346   4.797   2.957   6.253  0.3882  0.2586  0.5782
 2694ntf    on519347   4.963   3.125   6.297 -0.4532  0.5219  0.5082
 2694ntf    fn419348   5.096   3.078   6.056 -0.3398 -0.3080 -0.3589
 2694ntf    fn419349   5.063   2.895   6.156  0.2169 -0.1544 -0.1609
 2694ntf    fn419350   4.954   2.945   5.974 -0.5445 -0.8661  0.2009
 2695ntf    cn119351   0.009   4.316   5.574 -0.1464 -0.0483  0.4271
 2695ntf    sn219352   0.159   4.348   5.477 -0.1138  0.0066  0.4951
 2695ntf    nn319353   0.254   4.235   5.528 -0.0874  0.0808  0.6109
 2695ntf    sn219354   0.394   4.261   5.594  0.1874  0.1510  0.0059
 2695ntf    cn119355   0.480   4.330   5.450  0.1610  0.0307 -0.0679
 2695ntf    fn419356  -0.034   4.192   5.560 -0.2367 -0.0119  0.3881
 2695ntf    fn419357   0.018   4.343   5.704  0.1768 -0.5403  0.5105
 2695ntf    fn419358  -0.090   4.391   5.529 -0.2366 -0.1780  0.4080
 2695ntf    on519359   0.108   4.329   5.343 -0.4225  0.4311  0.5499
 2695ntf    on519360   0.198   4.484   5.507  0.1691 -0.0485  0.3862
 2695ntf    on519361   0.473   4.144   5.624  0.0155 -0.2230 -0.9527
 2695ntf    on519362   0.397   4.367   5.692 -0.0423  0.5094 -0.3683
 2695ntf    fn419363   0.609   4.300   5.455  0.1345 -0.0762 -0.0308
 2695ntf    fn419364   0.432   4.278   5.338 -0.1519 -0.1424  0.1451
 2695ntf    fn419365   0.467   4.461   5.436 -0.1151 -0.0188 -0.2919
 2696ntf    cn119366   3.518   6.666   1.870 -0.0081  0.3440 -0.4169
 2696ntf    sn219367   3.642   6.540   1.912 -0.3825  0.1524  0.1327
 2696ntf    nn319368   3.556   6.447   2.004 -0.3240  0.2802  0.3179
 2696ntf    sn219369   3.508   6.299   1.980  0.1345  0.1360  0.2775
 2696ntf    cn119370   3.631   6.196   2.064  0.0651 -0.0144  0.1949
 2696ntf    fn419371   3.403   6.609   1.838 -0.2877  0.9272 -0.4624
 2696ntf    fn419372   3.498   6.757   1.965  0.4376  0.1872 -0.1719
 2696ntf    fn419373   3.561   6.738   1.768  0.3314  0.0336 -0.4925
 2696ntf    on519374   3.685   6.480   1.789 -0.3726  0.2266  0.0998
 2696ntf    on519375   3.742   6.606   1.993  0.1401 -0.4039 -0.0517
 2696ntf    on519376   3.525   6.241   1.849  0.5046  0.2658  0.2667
 2696ntf    on519377   3.388   6.262   2.052 -0.0351 -0.5067 -0.3256
 2696ntf    fn419378   3.607   6.066   2.066 -0.0834  0.0035 -0.3682
 2696ntf    fn419379   3.746   6.211   2.001 -0.1387 -0.3614 -0.2612
 2696ntf    fn419380   3.645   6.237   2.189 -0.0147 -0.2123  0.2691
 2697ntf    cn119381   1.833   3.800   6.822  0.4574 -0.1766 -0.1749
 2697ntf    sn219382   1.759   3.725   6.674  0.2401  0.1746 -0.2449
 2697ntf    nn319383   1.608   3.767   6.675  0.1646 -0.1069  0.0537
 2697ntf    sn219384   1.539   3.895   6.617  0.4670  0.0146 -0.0423
 2697ntf    cn119385   1.491   3.828   6.454 -0.6768 -0.1294  0.3419
 2697ntf    fn419386   1.808   3.735   6.935  0.3299  0.4061  0.1346
 2697ntf    fn419387   1.965   3.789   6.818  0.4484 -0.2062 -0.4030
 2697ntf    fn419388   1.794   3.925   6.843  0.0581 -0.3786  0.3204
 2697ntf    on519389   1.833   3.780   6.562  0.7011  0.8065  0.3564
 2697ntf    on519390   1.767   3.584   6.703 -0.2128  0.3035  0.5364
 2697ntf    on519391   1.625   4.008   6.593 -0.1340  0.4107 -0.3641
 2697ntf    on519392   1.410   3.919   6.677  0.5242  0.2226 -0.0036
 2697ntf    fn419393   1.408   3.725   6.457 -0.5724 -0.2230 -0.0176
 2697ntf    fn419394   1.441   3.923   6.377  0.1725 -0.1791 -0.2797
 2697ntf    fn419395   1.597   3.785   6.387 -0.4970  0.4675  0.2391
 2698ntf    cn119396   5.629   0.643   4.993  0.2482 -0.1027  0.4416
 2698ntf    sn219397   5.734   0.589   5.131  0.4056 -0.1488  0.3039
 2698ntf    nn319398   5.818   0.484   5.050 -0.3665 -0.2045 -0.4408
 2698ntf    sn219399   5.816   0.328   5.068 -0.0005 -0.1549  0.0487
 2698ntf    cn119400   5.985   0.281   5.019  0.0808 -0.1657  0.3343
 2698ntf    fn419401   5.692   0.655   4.877  0.2278 -0.1067  0.4301
 2698ntf    fn419402   5.533   0.558   4.960  0.2190  0.0119  0.2331
 2698ntf    fn419403   5.578   0.761   5.023 -0.0016  0.0555 -0.5607
 2698ntf    on519404   5.810   0.707   5.163  0.6348 -0.0361 -0.6211
 2698ntf    on519405   5.636   0.532   5.220  0.2991 -0.1853  0.1634
 2698ntf    on519406   5.738   0.261   4.967  0.4487 -0.4396 -0.1111
 2698ntf    on519407   5.802   0.285   5.205  0.4503  0.5166  0.3124
 2698ntf    fn419408   6.005   0.150   5.025 -0.8490 -0.3284  0.0591
 2698ntf    fn419409   6.016   0.311   4.894  0.2891  0.1320  0.4580
 2698ntf    fn419410   6.074   0.338   5.098  0.2710 -0.1218  0.0892
 2699ntf    cn119411   2.599   1.902   6.058  0.2449 -0.1918  0.0417
 2699ntf    sn219412   2.432   1.856   6.005  0.1327 -0.0127  0.2370
 2699ntf    nn319413   2.397   1.971   5.904  0.4624 -0.1967 -0.0888
 2699ntf    sn219414   2.385   1.964   5.748 -0.5794  0.0290 -0.0266
 2699ntf    cn119415   2.213   1.918   5.710 -0.5840 -0.2397  0.3139
 2699ntf    fn419416   2.607   2.022   6.114 -0.0819 -0.1748  0.0539
 2699ntf    fn419417   2.645   1.809   6.141  0.7643  0.3209  0.3385
 2699ntf    fn419418   2.679   1.913   5.953 -0.3576  0.1716 -0.3867
 2699ntf    on519419   2.437   1.723   5.949  0.2439 -0.0028  0.2232
 2699ntf    on519420   2.364   1.871   6.131  0.0650 -0.6742  0.2837
 2699ntf    on519421   2.469   1.866   5.683 -0.2412  0.4120 -0.1665
 2699ntf    on519422   2.400   2.098   5.696 -0.1478  0.0744  0.2077
 2699ntf    fn419423   2.193   1.906   5.580  0.4233 -0.0554  0.1296
 2699ntf    fn419424   2.185   1.795   5.750 -0.2397 -0.3157  0.3262
 2699ntf    fn419425   2.118   2.004   5.743 -0.1014  0.5193 -0.2180
 2700ntf    cn119426   0.707   5.008   5.140 -0.0989  0.1808  0.0742
 2700ntf    sn219427   0.779   4.841   5.135 -0.1969  0.1455 -0.1565
 2700ntf    nn319428   0.677   4.769   5.230 -0.4483  0.2305 -0.3577
 2700ntf    sn219429   0.665   4.780   5.387 -0.0682  0.1992 -0.3233
 2700ntf    cn119430   0.773   4.643   5.436 -0.2527  0.2448  0.2072
 2700ntf    fn419431   0.581   5.008   5.101 -0.1826  0.3024  0.3465
 2700ntf    fn419432   0.722   5.076   5.252  0.2688  0.2117  0.0079
 2700ntf    fn419433   0.767   5.081   5.048  0.3847 -0.0581  0.1937
 2700ntf    on519434   0.756   4.805   4.997 -0.4441  0.3426 -0.1676
 2700ntf    on519435   0.912   4.854   5.187 -0.2437  0.8170 -0.1973
 2700ntf    on519436   0.533   4.738   5.428  0.2471 -0.3476  0.1275
 2700ntf    on519437   0.713   4.901   5.448  0.2211 -0.2727  0.3924
 2700ntf    fn419438   0.796   4.650   5.566 -0.0032  0.0740  0.1720
 2700ntf    fn419439   0.726   4.523   5.407 -0.1203  0.2963 -0.2145
 2700ntf    fn419440   0.894   4.656   5.385 -0.1102  0.2420  0.5374
   6.96043   6.96043   6.96043
