Converted from moscito
 3240
    1SOL     ow    1   2.157   2.248   6.931 -0.9026 -0.0843 -0.4472
    1SOL     hw    2   2.142   2.170   6.984 -2.1762  1.7921  2.1877
    1SOL     hw    3   2.252   2.248   6.916 -0.1248  0.0685  3.3719
    1SOL     vw    4   2.168   2.238   6.936 -0.9679  0.1836  0.4041
    2SOL     ow    5   1.757   0.098   2.093 -0.0732  0.1151  0.2919
    2SOL     hw    6   1.701   0.065   2.163  1.2410 -2.1903  0.3731
    2SOL     hw    7   1.842   0.112   2.135  0.9930 -2.1561 -0.9051
    2SOL     vw    8   1.761   0.095   2.108  0.2409 -0.4887  0.1447
    3SOL     ow    9   0.965   1.385   4.358 -0.4913  0.6732 -0.1840
    3SOL     hw   10   0.891   1.367   4.416  0.1865  0.8418  0.7581
    3SOL     hw   11   0.964   1.312   4.296  0.6865 -1.3799  2.0212
    3SOL     vw   12   0.955   1.373   4.358 -0.2465  0.4246  0.2313
    4SOL     ow   13   0.666   1.059   0.693  0.4771 -0.1414 -0.7293
    4SOL     hw   14   0.594   0.999   0.713 -1.5469  1.5693 -2.4721
    4SOL     hw   15   0.696   1.089   0.779 -2.0053  0.3063  0.0551
    4SOL     vw   16   0.660   1.055   0.707 -0.1175  0.1433 -0.8557
    5SOL     ow   17   2.019   1.820   1.139 -0.0046 -0.2741  0.0401
    5SOL     hw   18   2.107   1.857   1.139  0.5132 -1.3345  2.3517
    5SOL     hw   19   1.971   1.870   1.205 -1.0786  0.1009 -0.9823
    5SOL     vw   20   2.024   1.831   1.148 -0.0781 -0.3646  0.2102
    6SOL     ow   21   2.250   2.203   2.597  0.5619  0.0012  0.9562
    6SOL     hw   22   2.336   2.180   2.562 -0.2916  0.4567 -1.6345
    6SOL     hw   23   2.205   2.119   2.608 -0.2435 -0.0969 -2.2146
    6SOL     vw   24   2.255   2.189   2.594  0.3431  0.0483  0.1960
    7SOL     ow   25   0.372   2.186   2.711  0.6356  0.7473 -0.0941
    7SOL     hw   26   0.419   2.151   2.635  1.7995 -0.4109  1.1142
    7SOL     hw   27   0.440   2.220   2.768 -0.3405  3.1919 -0.2824
    7SOL     vw   28   0.387   2.186   2.709  0.6604  0.9170  0.0403
    8SOL     ow   29   2.514   2.316   3.214  0.4897  0.3995  0.1863
    8SOL     hw   30   2.584   2.353   3.269 -0.3930  0.8425  1.0452
    8SOL     hw   31   2.540   2.225   3.202  0.5750  0.2156  1.5888
    8SOL     vw   32   2.527   2.309   3.220  0.3844  0.4338  0.4846
    9SOL     ow   33   0.571   1.778   6.660  0.2263 -0.0466  0.2216
    9SOL     hw   34   0.489   1.740   6.629  1.6254 -1.5578 -1.8929
    9SOL     hw   35   0.560   1.787   6.754 -2.3325 -0.2005  0.0030
    9SOL     vw   36   0.558   1.774   6.668  0.0733 -0.2663 -0.0863
   10SOL     ow   37   1.926   0.361   6.198  0.4411  0.2118  0.2276
   10SOL     hw   38   1.863   0.297   6.163 -0.3728  1.1057 -0.0012
   10SOL     hw   39   2.010   0.316   6.194  0.2854 -0.0039 -2.2162
   10SOL     vw   40   1.929   0.346   6.193  0.3131  0.3013 -0.1252
   11SOL     ow   41   0.110   2.468   0.522  0.5535  0.0949 -0.3863
   11SOL     hw   42   0.064   2.414   0.458  1.2744 -0.8810 -0.0932
   11SOL     hw   43   0.132   2.548   0.474  1.3870 -0.7597 -1.4858
   11SOL     vw   44   0.107   2.472   0.507  0.7586 -0.1466 -0.4927
   12SOL     ow   45   2.481   0.785   0.125  0.6555 -0.2042 -0.4123
   12SOL     hw   46   2.570   0.755   0.143  1.2481  1.6950  0.0789
   12SOL     hw   47   2.492   0.861   0.068 -0.6951 -0.3196 -0.8652
   12SOL     vw   48   2.494   0.791   0.120  0.5554  0.0312 -0.4073
   13SOL     ow   49   1.466   1.761   1.533 -0.8684  0.3323 -0.8546
   13SOL     hw   50   1.432   1.811   1.608 -2.3327 -0.2064 -1.1190
   13SOL     hw   51   1.389   1.718   1.496 -0.2186  0.7212 -2.7883
   13SOL     vw   52   1.451   1.762   1.538 -0.9759  0.3126 -1.1446
   14SOL     ow   53   0.621   0.730   2.239 -0.0152  0.3976  0.8590
   14SOL     hw   54   0.600   0.637   2.227  0.1362  0.6422 -2.0812
   14SOL     hw   55   0.717   0.733   2.234 -0.1050  0.9173 -1.7767
   14SOL     vw   56   0.631   0.718   2.237 -0.0071  0.4984  0.1234
   15SOL     ow   57   1.311   0.041   5.150 -0.7482  0.0380 -0.3771
   15SOL     hw   58   1.255   0.119   5.153  1.0104  1.3336  0.5318
   15SOL     hw   59   1.282  -0.012   5.223 -0.9086  0.6226 -0.0093
   15SOL     vw   60   1.300   0.044   5.160 -0.5373  0.2861 -0.2089
   16SOL     ow   61   1.430   0.337   1.716  0.9918  0.0723  0.4038
   16SOL     hw   62   1.350   0.295   1.682  1.7367 -1.7878  0.8069
   16SOL     hw   63   1.463   0.275   1.780  2.5050  1.0518  0.6050
   16SOL     vw   64   1.424   0.323   1.720  1.2897 -0.0439  0.4835
   17SOL     ow   65   2.090   0.222   1.925 -0.7900  0.0895  0.0232
   17SOL     hw   66   2.050   0.225   2.012 -0.3292  2.9375  0.2156
   17SOL     hw   67   2.178   0.187   1.940 -0.5548  0.9736  0.7948
   17SOL     vw   68   2.096   0.217   1.939 -0.6983  0.5819  0.1503
   18SOL     ow   69   0.816   0.210   6.132 -0.1939  1.1471 -0.1251
   18SOL     hw   70   0.841   0.215   6.224  1.1185  2.6397 -0.5296
   18SOL     hw   71   0.842   0.294   6.094 -4.0982  2.1406 -1.0923
   18SOL     vw   72   0.823   0.221   6.139 -0.5358  1.4751 -0.3061
   19SOL     ow   73   0.370   2.315   5.132 -0.4090  0.3699  0.1590
   19SOL     hw   74   0.435   2.385   5.120 -0.3147  0.5893  1.7234
   19SOL     hw   75   0.307   2.352   5.193 -0.2114 -1.0064  1.2305
   19SOL     vw   76   0.370   2.329   5.138 -0.3705  0.2172  0.5066
   20SOL     ow   77   2.265   0.432   6.226  0.4971  0.7181 -0.2975
   20SOL     hw   78   2.314   0.460   6.303 -0.2160  1.4265 -0.0879
   20SOL     hw   79   2.240   0.341   6.245 -0.2897  1.1102  0.6386
   20SOL     vw   80   2.268   0.423   6.238  0.2992  0.8633 -0.1464
   21SOL     ow   81   0.013   0.137   5.445 -1.3129  0.2318 -0.1701
   21SOL     hw   82   0.068   0.172   5.516  1.5669 -1.8508 -1.1747
   21SOL     hw   83   0.044   0.181   5.366 -1.8698 -0.1458 -0.6068
   21SOL     vw   84   0.025   0.147   5.444 -1.0064 -0.0928 -0.3603
   22SOL     ow   85   1.409   0.139   6.241  0.7115 -0.2578 -0.3652
   22SOL     hw   86   1.386   0.067   6.182 -2.2278  1.5646 -1.6808
   22SOL     hw   87   1.443   0.207   6.183 -3.2939  2.0088 -0.4791
   22SOL     vw   88   1.410   0.139   6.225 -0.2047  0.2817 -0.5538
   23SOL     ow   89   2.483   1.934   1.911  0.1058  0.2028  0.0512
   23SOL     hw   90   2.534   2.015   1.922 -1.9357  1.7972 -1.4995
   23SOL     hw   91   2.450   1.937   1.821  0.8380 -2.9602 -0.4504
   23SOL     vw   92   2.485   1.945   1.901 -0.0669 -0.0041 -0.2195
   24SOL     ow   93   1.242   0.528   1.765  0.2155 -0.0314 -0.1585
   24SOL     hw   94   1.260   0.597   1.701  0.2259 -0.6498 -0.8283
   24SOL     hw   95   1.316   0.468   1.756  0.4026  0.0629  0.6921
   24SOL     vw   96   1.254   0.529   1.755  0.2415 -0.1006 -0.1347
   25SOL     ow   97   1.384   0.488   0.449  0.3501  0.0924  0.3648
   25SOL     hw   98   1.395   0.444   0.534 -0.8719  0.3613  0.6831
   25SOL     hw   99   1.453   0.554   0.448 -0.3618  0.9072  1.7120
   25SOL     vw  100   1.394   0.491   0.460  0.0950  0.2354  0.5846
   26SOL     ow  101   1.582   0.138   6.457  0.2134 -0.4182  0.2627
   26SOL     hw  102   1.508   0.129   6.398 -0.3080 -2.2010  1.1109
   26SOL     hw  103   1.659   0.126   6.401 -0.2474 -1.4918 -0.1704
   26SOL     vw  104   1.582   0.135   6.442  0.0838 -0.7951  0.3173
   27SOL     ow  105   1.751   0.375   5.139  0.0457 -0.3589 -0.6722
   27SOL     hw  106   1.659   0.354   5.122 -1.2325  4.5355 -1.2066
   27SOL     hw  107   1.786   0.398   5.054  1.6025 -1.3838 -0.3399
   27SOL     vw  108   1.743   0.375   5.126  0.0824  0.1517 -0.6990
   28SOL     ow  109   1.265   2.493   1.805 -0.6156  0.6247  0.5913
   28SOL     hw  110   1.283   2.407   1.844 -0.6664  0.8223  1.0507
   28SOL     hw  111   1.267   2.477   1.710 -2.0532 -0.1901  0.6596
   28SOL     vw  112   1.267   2.479   1.797 -0.8120  0.5432  0.6609
   29SOL     ow  113   2.412   1.451   6.479  0.3029  0.0553  0.1699
   29SOL     hw  114   2.464   1.519   6.522  0.4995 -0.5344  0.8903
   29SOL     hw  115   2.322   1.485   6.481  0.5967  0.9501 -0.8277
   29SOL     vw  116   2.407   1.465   6.485  0.3675  0.0955  0.1333
   30SOL     ow  117   1.957   1.943   4.040  0.2379 -0.2635  0.4502
   30SOL     hw  118   1.868   1.929   4.071 -0.5155 -0.1099 -1.5486
   30SOL     hw  119   1.961   1.901   3.955  1.8390  0.4196  0.1353
   30SOL     vw  120   1.946   1.936   4.033  0.3498 -0.1531  0.1450
   31SOL     ow  121   1.999   2.222   4.854  0.1699 -0.2276  0.0745
   31SOL     hw  122   2.027   2.172   4.777 -0.2010 -1.1338  0.5155
   31SOL     hw  123   1.992   2.157   4.924  0.1656  0.5264  0.7946
   31SOL     vw  124   2.002   2.207   4.853  0.1204 -0.2477  0.2277
   32SOL     ow  125   1.531   2.444   5.775  0.9161  0.4344 -0.4332
   32SOL     hw  126   1.621   2.425   5.750  0.4316  0.3530 -2.2874
   32SOL     hw  127   1.489   2.358   5.782  0.7733  0.4977 -0.4978
   32SOL     vw  128   1.537   2.430   5.772  0.8333  0.4320 -0.6864
   33SOL     ow  129   0.178   1.957   4.759 -0.0411  0.0323 -0.0823
   33SOL     hw  130   0.244   1.917   4.704  2.8794  1.7162  1.9088
   33SOL     hw  131   0.097   1.912   4.737  1.7407 -2.1835 -2.6531
   33SOL     vw  132   0.176   1.946   4.749  0.5793 -0.0379 -0.1588
   34SOL     ow  133   2.322   0.823   2.985 -0.4663 -0.2198  0.8008
   34SOL     hw  134   2.234   0.855   2.966 -0.2217 -0.6459 -1.2958
   34SOL     hw  135   2.309   0.751   3.047 -1.6652 -0.6945  0.0308
   34SOL     vw  136   2.309   0.818   2.991 -0.5924 -0.3386  0.4226
   35SOL     ow  137   2.302   2.198   3.357  0.3521 -0.8661 -0.3763
   35SOL     hw  138   2.306   2.107   3.330  0.3833 -0.8743 -0.3444
   35SOL     hw  139   2.355   2.245   3.292  1.8576 -1.1098  0.6210
   35SOL     vw  140   2.310   2.192   3.345  0.5549 -0.8994 -0.2404
   36SOL     ow  141   2.118   2.169   4.133 -0.5886 -0.0851 -0.5352
   36SOL     hw  142   2.052   2.229   4.099  0.1969  0.5416 -0.9902
   36SOL     hw  143   2.196   2.223   4.145 -0.0895 -0.8550 -0.2255
   36SOL     vw  144   2.119   2.184   4.130 -0.4191 -0.1038 -0.5541
   37SOL     ow  145   1.167   0.805   2.265 -0.9944  0.0040  0.3629
   37SOL     hw  146   1.203   0.846   2.344  1.2527  1.5658 -1.3513
   37SOL     hw  147   1.244   0.786   2.211 -2.2950 -2.9406 -0.6492
   37SOL     vw  148   1.182   0.808   2.268 -0.8696 -0.1785  0.0031
   38SOL     ow  149   0.660   1.025   6.701  0.6157 -0.1692 -0.6720
   38SOL     hw  150   0.726   0.957   6.688  1.2521  0.7079 -2.3626
   38SOL     hw  151   0.580   0.977   6.719  1.1476 -1.3592 -1.3326
   38SOL     vw  152   0.658   1.010   6.702  0.7699 -0.2105 -0.9820
   39SOL     ow  153   0.751   0.915   1.081  0.3013  0.3039  0.0698
   39SOL     hw  154   0.797   0.853   1.024  0.0546  0.8953 -0.7823
   39SOL     hw  155   0.671   0.869   1.106  0.6746 -0.1749  0.4005
   39SOL     vw  156   0.747   0.901   1.077  0.3180  0.3187  0.0010
   40SOL     ow  157   1.498   2.300   5.144 -0.1105  0.4243 -1.1180
   40SOL     hw  158   1.437   2.226   5.139  1.5335 -1.3768  2.0636
   40SOL     hw  159   1.454   2.363   5.202  0.4229 -0.3140  0.1417
   40SOL     vw  160   1.484   2.298   5.151  0.1768  0.0892 -0.5322
   41SOL     ow  161   0.724   1.754   1.912  0.2428  0.4490  0.1944
   41SOL     hw  162   0.736   1.837   1.865  1.3651 -0.5052 -1.2981
   41SOL     hw  163   0.807   1.740   1.958  0.2008 -0.0121  0.1379
   41SOL     vw  164   0.737   1.763   1.912  0.3853  0.2623 -0.0100
   42SOL     ow  165   1.719   0.511   0.162 -0.1815  0.7776 -0.0996
   42SOL     hw  166   1.788   0.574   0.184 -1.2024  1.1203  2.5890
   42SOL     hw  167   1.722   0.447   0.233 -1.8519  0.1400 -0.5651
   42SOL     vw  168   1.729   0.511   0.174 -0.5366  0.7387  0.1937
   43SOL     ow  169   0.497   2.134   0.426 -0.6486 -0.4661  0.0141
   43SOL     hw  170   0.439   2.210   0.419 -1.5416 -1.1127  0.2280
   43SOL     hw  171   0.494   2.109   0.518 -0.3420 -0.7454 -0.0495
   43SOL     vw  172   0.489   2.141   0.437 -0.7260 -0.5883  0.0339
   44SOL     ow  173   0.521   1.537   1.865 -0.2630 -0.5400 -0.4970
   44SOL     hw  174   0.439   1.562   1.821 -0.1982  1.6784  0.4962
   44SOL     hw  175   0.510   1.444   1.885 -2.5957 -0.2910 -0.3081
   44SOL     vw  176   0.509   1.528   1.862 -0.5623 -0.2145 -0.3411
   45SOL     ow  177   2.014   0.171   2.177 -0.2602  0.0319  0.6431
   45SOL     hw  178   2.038   0.235   2.244  3.1860  1.8669 -1.9880
   45SOL     hw  179   2.077   0.100   2.188 -1.9985 -1.4671  1.4926
   45SOL     vw  180   2.026   0.170   2.187 -0.0349  0.0762  0.4079
   46SOL     ow  181   1.009   0.034   5.927 -0.7972 -0.4090  0.1157
   46SOL     hw  182   1.086  -0.021   5.914  0.3578  1.3536 -0.8356
   46SOL     hw  183   0.979   0.055   5.839 -0.6466  1.2276  0.4230
   46SOL     vw  184   1.015   0.029   5.914 -0.6250  0.0395  0.0308
   47SOL     ow  185   1.595   2.420   3.063  0.0243  0.2203  0.0214
   47SOL     hw  186   1.591   2.362   3.138 -2.0802 -0.1935 -0.3660
   47SOL     hw  187   1.604   2.508   3.101 -2.3044  0.1490  0.8629
   47SOL     vw  188   1.596   2.424   3.078 -0.5606  0.1563  0.0812
   48SOL     ow  189   2.011   0.392   2.306 -0.9126  0.2747 -0.5976
   48SOL     hw  190   1.921   0.406   2.335 -0.9662 -2.5074  0.8967
   48SOL     hw  191   2.065   0.436   2.371 -1.1783 -1.5687  0.9767
   48SOL     vw  192   2.006   0.399   2.318 -0.9547 -0.3356 -0.1928
   49SOL     ow  193   1.612   1.125   6.119 -0.2021  0.3824  0.6425
   49SOL     hw  194   1.573   1.145   6.205  0.5660 -0.6912  1.2595
   49SOL     hw  195   1.648   1.037   6.129 -1.8723 -0.6446 -1.4026
   49SOL     vw  196   1.611   1.116   6.132 -0.3212  0.1053  0.4542
   50SOL     ow  197   0.425   1.196   0.627 -0.0988 -0.0415 -0.0924
   50SOL     hw  198   0.503   1.150   0.656 -0.0901  0.4723  0.7245
   50SOL     hw  199   0.352   1.144   0.660 -0.0896  0.1791  0.2876
   50SOL     vw  200   0.425   1.183   0.635 -0.0964  0.0554  0.0656
   51SOL     ow  201   1.747   0.613   6.527  0.1991  0.6304  0.1213
   51SOL     hw  202   1.777   0.617   6.436 -0.2353 -0.6953 -0.0892
   51SOL     hw  203   1.711   0.525   6.537 -0.5624  1.0601  1.3296
   51SOL     vw  204   1.746   0.602   6.516  0.0413  0.5122  0.2527
   52SOL     ow  205   0.406   2.318   2.236 -0.1752 -0.4479 -0.2441
   52SOL     hw  206   0.333   2.372   2.204 -1.8040 -2.6476 -0.4242
   52SOL     hw  207   0.369   2.267   2.307  1.8134 -0.0824  1.1283
   52SOL     vw  208   0.391   2.319   2.241 -0.1277 -0.6899 -0.0867
   53SOL     ow  209   0.402   2.090   5.264  0.0939  0.4651  0.2738
   53SOL     hw  210   0.383   2.175   5.225 -0.6446  1.5055  2.6953
   53SOL     hw  211   0.322   2.068   5.312  0.2239 -1.6879 -0.4041
   53SOL     vw  212   0.389   2.098   5.265  0.0137  0.3184  0.5038
   54SOL     ow  213   1.685   2.418   6.107 -0.2526  0.4686  0.0292
   54SOL     hw  214   1.646   2.441   6.023  2.2092  0.9855 -1.0671
   54SOL     hw  215   1.613   2.380   6.158 -2.1549  1.5231 -1.7352
   54SOL     vw  216   1.671   2.416   6.103 -0.1788  0.6759 -0.3483
   55SOL     ow  217   2.028   2.389   1.538  0.3267  0.3717  0.5732
   55SOL     hw  218   2.010   2.447   1.612  1.6043 -0.8121  1.8734
   55SOL     hw  219   2.083   2.320   1.574  0.9553 -0.2891 -1.4845
   55SOL     vw  220   2.033   2.388   1.552  0.5782  0.1283  0.4732
   56SOL     ow  221   1.877   0.111   6.374 -0.4734 -0.1506  0.0967
   56SOL     hw  222   1.888   0.106   6.469 -0.2832  1.6072  0.2063
   56SOL     hw  223   1.939   0.180   6.347 -0.0617 -1.0567 -1.3913
   56SOL     vw  224   1.887   0.119   6.383 -0.3940 -0.0383 -0.0851
   57SOL     ow  225   0.287   0.876   5.045  0.6767 -0.2798 -0.6197
   57SOL     hw  226   0.234   0.801   5.071  0.6404  0.0195  0.2218
   57SOL     hw  227   0.364   0.871   5.102 -0.0794  1.2126  0.6213
   57SOL     vw  228   0.290   0.866   5.056  0.5722 -0.0434 -0.3450
   58SOL     ow  229   1.813   1.658   1.217  0.0462 -0.0775  0.1520
   58SOL     hw  230   1.766   1.726   1.266  1.7131  0.9226  0.4396
   58SOL     hw  231   1.764   1.578   1.234 -2.3517  1.1129 -0.6717
   58SOL     vw  232   1.800   1.656   1.225 -0.0503  0.2115  0.0812
   59SOL     ow  233   1.576   0.608   5.485 -0.0219 -0.2282 -0.1871
   59SOL     hw  234   1.537   0.586   5.570  2.3634 -1.8326  0.5739
   59SOL     hw  235   1.667   0.579   5.492  1.1527  2.5273 -2.1567
   59SOL     vw  236   1.583   0.602   5.497  0.4478 -0.0763 -0.3467
   60SOL     ow  237   0.861   1.802   5.853 -0.4129  0.7021 -0.5799
   60SOL     hw  238   0.840   1.710   5.840  3.0769  0.0765 -3.4886
   60SOL     hw  239   0.843   1.818   5.945  0.1441 -3.3147  0.4176
   60SOL     vw  240   0.856   1.792   5.863  0.1210  0.0896 -0.8318
   61SOL     ow  241   1.426   1.634   3.246  0.1099 -0.0453 -0.0021
   61SOL     hw  242   1.489   1.561   3.247 -0.3179 -0.4236 -0.3701
   61SOL     hw  243   1.387   1.631   3.159 -1.2194 -0.4917  0.5906
   61SOL     vw  244   1.429   1.624   3.234 -0.1219 -0.1541  0.0275
   62SOL     ow  245   0.967   0.931   1.236  0.0520 -0.6612  0.4699
   62SOL     hw  246   1.037   0.986   1.201 -0.4100  0.2455  0.9262
   62SOL     hw  247   0.902   0.929   1.166  1.3015 -3.1204 -0.7701
   62SOL     vw  248   0.967   0.938   1.222  0.1559 -0.8660  0.3666
   63SOL     ow  249   1.530   0.032   2.763  0.3148 -0.0844  0.3715
   63SOL     hw  250   1.441   0.062   2.783 -0.2178  0.1900 -2.0715
   63SOL     hw  251   1.528   0.011   2.670  2.8605  0.0433  0.2124
   63SOL     vw  252   1.518   0.034   2.753  0.5804 -0.0313  0.0281
   64SOL     ow  253   0.421   0.672   2.469  0.0409  0.8484 -0.4348
   64SOL     hw  254   0.419   0.672   2.565  2.2302 -1.5477 -0.2877
   64SOL     hw  255   0.369   0.596   2.444  1.9717 -0.3578 -0.9508
   64SOL     vw  256   0.414   0.662   2.478  0.5845  0.3731 -0.4834
   65SOL     ow  257   1.964   1.719   4.738 -0.5077 -0.0243 -0.3329
   65SOL     hw  258   1.906   1.768   4.679 -0.1910 -0.5325 -1.0960
   65SOL     hw  259   1.923   1.727   4.824 -2.0222 -0.7832 -0.9255
   65SOL     vw  260   1.951   1.726   4.741 -0.6658 -0.1915 -0.5116
   66SOL     ow  261   1.996   0.923   6.947  0.0220  0.0487 -0.1329
   66SOL     hw  262   2.002   1.006   6.993  0.8598  0.7295 -1.4071
   66SOL     hw  263   1.939   0.940   6.873 -0.4771 -0.7444  0.0552
   66SOL     vw  264   1.990   0.936   6.943  0.0666  0.0339 -0.2761
   67SOL     ow  265   0.729   2.167   2.374 -0.1258 -0.4489 -0.6527
   67SOL     hw  266   0.675   2.180   2.296 -1.4387 -1.8453 -0.0274
   67SOL     hw  267   0.669   2.130   2.439  1.7705 -2.9940 -0.2135
   67SOL     vw  268   0.714   2.164   2.372 -0.0489 -0.9689 -0.5122
   68SOL     ow  269   2.127   0.188   6.274  0.3139 -0.2610  0.2161
   68SOL     hw  270   2.117   0.108   6.222 -0.6532  0.5078 -0.8513
   68SOL     hw  271   2.146   0.157   6.362  2.7239 -1.6149 -0.6790
   68SOL     vw  272   2.128   0.173   6.279  0.5044 -0.3382 -0.0429
   69SOL     ow  273   1.763   1.861   4.583 -0.0152  0.0018 -0.2481
   69SOL     hw  274   1.691   1.844   4.644  0.1230 -2.2811 -0.6326
   69SOL     hw  275   1.731   1.828   4.499  0.8271  0.6183 -0.8259
   69SOL     vw  276   1.749   1.855   4.579  0.1142 -0.2181 -0.3750
   70SOL     ow  277   0.398   0.228   3.984  0.1019  0.4437  0.1933
   70SOL     hw  278   0.420   0.278   3.905 -2.9647 -0.6130 -1.5281
   70SOL     hw  279   0.302   0.227   3.985  0.0209 -2.6307  1.8997
   70SOL     vw  280   0.388   0.234   3.973 -0.3134 -0.1013  0.1913
   71SOL     ow  281   1.328   2.051   5.509 -0.0007 -0.4136  0.3152
   71SOL     hw  282   1.394   2.010   5.454  1.1527  0.6118  0.8991
   71SOL     hw  283   1.247   2.046   5.457  0.9634  0.1516 -1.2951
   71SOL     vw  284   1.326   2.045   5.495  0.2787 -0.2040  0.1798
   72SOL     ow  285   1.714   2.312   2.774  0.1529 -0.0144  0.7179
   72SOL     hw  286   1.752   2.226   2.759 -1.5888 -0.7822  0.5020
   72SOL     hw  287   1.779   2.373   2.740 -0.2444 -1.3882 -2.8779
   72SOL     vw  288   1.728   2.309   2.768 -0.1293 -0.2970  0.2149
   73SOL     ow  289   1.499   1.473   5.673 -0.4088  0.5146  0.4582
   73SOL     hw  290   1.412   1.435   5.684 -0.9133  1.0508 -1.3254
   73SOL     hw  291   1.486   1.542   5.609  1.6585 -0.5922 -1.2441
   73SOL     vw  292   1.486   1.477   5.666 -0.2026  0.4393 -0.0017
   74SOL     ow  293   0.120   2.364   2.727  0.0781  0.3457  0.2546
   74SOL     hw  294   0.186   2.295   2.721  1.8442  1.7416  2.1086
   74SOL     hw  295   0.169   2.445   2.712 -1.2344  1.4403  1.5772
   74SOL     vw  296   0.135   2.366   2.724  0.1379  0.6744  0.6737
   75SOL     ow  297   1.262   2.223   2.648  0.0099 -0.0818 -0.7271
   75SOL     hw  298   1.331   2.162   2.624  0.4816 -0.1153  0.6738
   75SOL     hw  299   1.187   2.168   2.670  0.0250 -0.1022 -0.7273
   75SOL     vw  300   1.261   2.208   2.648  0.0742 -0.0888 -0.5422
   76SOL     ow  301   2.245   1.031   1.770  0.1112 -0.4052 -0.1488
   76SOL     hw  302   2.232   0.973   1.845 -1.1617  0.2440  0.1711
   76SOL     hw  303   2.337   1.020   1.747  0.7882  0.0037  2.0612
   76SOL     vw  304   2.256   1.022   1.777  0.0325 -0.2656  0.1850
   77SOL     ow  305   0.142   0.811   6.099 -0.3154 -0.4940  0.0556
   77SOL     hw  306   0.228   0.771   6.091 -0.0936 -0.8650  3.0050
   77SOL     hw  307   0.127   0.856   6.016  2.9577  0.0773 -0.3326
   77SOL     vw  308   0.151   0.812   6.087  0.1457 -0.4676  0.3936
   78SOL     ow  309   1.390   0.955   3.923  0.1687 -0.4521 -0.1778
   78SOL     hw  310   1.308   0.926   3.883 -0.5690 -0.0754  1.0232
   78SOL     hw  311   1.419   0.879   3.974  0.8774 -0.7788 -1.0436
   78SOL     vw  312   1.383   0.941   3.925  0.1648 -0.4455 -0.1336
   79SOL     ow  313   0.680   0.384   1.246  0.1363  0.7067  0.0880
   79SOL     hw  314   0.744   0.425   1.188 -1.4987  0.1280 -2.2719
   79SOL     hw  315   0.635   0.457   1.289  1.7883  1.1277  1.2003
   79SOL     vw  316   0.682   0.399   1.244  0.1386  0.6859 -0.0767
   80SOL     ow  317   2.152   2.464   2.101 -0.4510  0.3841 -0.8181
   80SOL     hw  318   2.077   2.421   2.059  0.1570  0.7352 -2.3124
   80SOL     hw  319   2.228   2.414   2.073 -0.1016  0.0191  0.7088
   80SOL     vw  320   2.152   2.452   2.092 -0.3247  0.3822 -0.8138
   81SOL     ow  321   0.858   1.448   3.199 -0.0149 -0.5678 -0.0447
   81SOL     hw  322   0.767   1.478   3.197  0.2000  0.3160  1.2952
   81SOL     hw  323   0.889   1.457   3.109 -1.5945 -2.0757 -0.7740
   81SOL     vw  324   0.850   1.453   3.187 -0.1949 -0.6502  0.0359
   82SOL     ow  325   1.946   0.688   0.136 -0.1470 -0.4966 -0.1602
   82SOL     hw  326   2.026   0.700   0.187  0.1342 -1.5298 -0.3330
   82SOL     hw  327   1.934   0.771   0.090 -0.2643  0.3779  1.3698
   82SOL     vw  328   1.955   0.701   0.137 -0.1253 -0.5176  0.0188
   83SOL     ow  329   1.041   1.838   6.439  0.2860  0.0457  1.1968
   83SOL     hw  330   1.084   1.876   6.515  2.5279  1.2077 -0.5332
   83SOL     hw  331   1.098   1.765   6.413  0.1506  0.3328  0.0355
   83SOL     vw  332   1.054   1.833   6.445  0.5639  0.2370  0.8154
   84SOL     ow  333   1.254   2.161   6.392 -0.6327  0.2766 -0.2836
   84SOL     hw  334   1.191   2.160   6.464 -1.8982  3.7065 -1.1361
   84SOL     hw  335   1.222   2.094   6.332 -2.4164  0.6831  0.1591
   84SOL     vw  336   1.242   2.152   6.394 -1.0350  0.7828 -0.3376
   85SOL     ow  337   1.015   0.391   1.269 -0.7008 -0.0734 -0.7048
   85SOL     hw  338   1.012   0.418   1.177 -0.4317  2.1761 -0.1257
   85SOL     hw  339   1.096   0.341   1.276 -0.9407 -0.6578 -1.7508
   85SOL     vw  340   1.025   0.388   1.257 -0.6969  0.1463 -0.7665
   86SOL     ow  341   0.137   1.663   0.203 -0.0402  0.0298  0.3168
   86SOL     hw  342   0.075   1.594   0.182  0.7413 -0.4991 -0.3371
   86SOL     hw  343   0.222   1.626   0.181  0.3570  1.3618 -0.5596
   86SOL     vw  344   0.140   1.649   0.197  0.1153  0.1358  0.1149
   87SOL     ow  345   1.717   2.188   5.237  0.2066  0.2093  0.1062
   87SOL     hw  346   1.647   2.219   5.179  1.5484  2.5022 -0.4227
   87SOL     hw  347   1.678   2.114   5.284 -2.7488  1.6400  0.1632
   87SOL     vw  348   1.702   2.183   5.236 -0.0063  0.7006  0.0439
   88SOL     ow  349   1.567   0.225   4.828 -0.3731  0.1208  0.5189
   88SOL     hw  350   1.528   0.218   4.741 -0.2328 -1.8560  0.5554
   88SOL     hw  351   1.661   0.218   4.813 -0.3892 -1.1371  0.8543
   88SOL     vw  352   1.574   0.223   4.814 -0.3567 -0.3059  0.5679
   89SOL     ow  353   2.139   1.344   0.599  0.1143 -0.6875  0.2610
   89SOL     hw  354   2.051   1.326   0.565 -0.3365 -0.9408  1.4904
   89SOL     hw  355   2.138   1.306   0.687  0.8536  0.8643  0.9756
   89SOL     vw  356   2.127   1.337   0.606  0.1523 -0.5162  0.5175
   90SOL     ow  357   0.402   0.654   2.740  0.0801 -0.2838 -0.1925
   90SOL     hw  358   0.487   0.697   2.734 -0.0430 -0.1473 -1.2214
   90SOL     hw  359   0.398   0.620   2.829  1.0888 -0.0415 -0.0436
   90SOL     vw  360   0.412   0.655   2.751  0.1970 -0.2338 -0.3086
   91SOL     ow  361   1.253   1.557   3.024  0.1232  0.3147 -0.4340
   91SOL     hw  362   1.206   1.475   3.012  0.1119  0.2992 -0.2784
   91SOL     hw  363   1.306   1.566   2.945  1.8326 -0.9394  0.4930
   91SOL     vw  364   1.254   1.548   3.012  0.3472  0.1472 -0.2912
   92SOL     ow  365   1.135   2.459   2.755 -0.6329 -0.3778  0.2719
   92SOL     hw  366   1.085   2.417   2.824  0.2735 -1.3085  0.3963
   92SOL     hw  367   1.198   2.392   2.727  0.3398  0.6373 -0.0709
   92SOL     vw  368   1.137   2.444   2.760 -0.3849 -0.3667  0.2432
   93SOL     ow  369   1.932   0.646   4.590  0.1681 -0.0272  0.0576
   93SOL     hw  370   1.957   0.729   4.549 -0.2334  0.6021  1.0483
   93SOL     hw  371   1.841   0.633   4.564  1.1283 -1.9028 -2.8703
   93SOL     vw  372   1.924   0.655   4.581  0.2418 -0.1916 -0.1979
   94SOL     ow  373   1.640   0.631   6.902 -0.1105  0.3214  0.5725
   94SOL     hw  374   1.611   0.570   6.834  0.5362 -0.1962  0.7514
   94SOL     hw  375   1.681   0.575   6.968  1.3178  1.0268  0.3205
   94SOL     vw  376   1.642   0.615   6.902  0.1633  0.3462  0.5629
   95SOL     ow  377   1.573   0.657   0.315 -0.0570  0.0279 -0.0747
   95SOL     hw  378   1.637   0.591   0.288 -0.8117 -0.6205 -0.3476
   95SOL     hw  379   1.562   0.713   0.239 -1.6753 -1.3884 -0.9545
   95SOL     vw  380   1.580   0.656   0.302 -0.3700 -0.2445 -0.2268
   96SOL     ow  381   0.964   0.145   4.680  0.3016  0.3376  0.6442
   96SOL     hw  382   0.979   0.239   4.687 -1.2460  0.5931  0.7893
   96SOL     hw  383   0.947   0.117   4.770  1.4603 -0.2364  0.7092
   96SOL     vw  384   0.964   0.154   4.692  0.2503  0.2956  0.6721
   97SOL     ow  385   1.309   0.648   6.094  0.0597 -0.3540 -0.6080
   97SOL     hw  386   1.261   0.716   6.048  0.5668 -0.7229 -1.7242
   97SOL     hw  387   1.247   0.576   6.103 -0.5834  0.3675  0.8864
   97SOL     vw  388   1.295   0.647   6.089  0.0418 -0.3075 -0.5581
   98SOL     ow  389   0.542   0.299   2.851 -0.0353  0.2570 -0.0327
   98SOL     hw  390   0.514   0.315   2.761  1.1724  0.7592 -0.3409
   98SOL     hw  391   0.461   0.301   2.903 -0.7382 -0.0275 -1.0937
   98SOL     vw  392   0.528   0.301   2.846  0.0313  0.2857 -0.2135
   99SOL     ow  393   1.409   1.799   0.435 -0.1835 -0.0696 -0.1743
   99SOL     hw  394   1.423   1.767   0.346  0.0159  1.2141 -0.6318
   99SOL     hw  395   1.463   1.878   0.441 -0.1387 -0.1722  1.1120
   99SOL     vw  396   1.418   1.805   0.424 -0.1513  0.0863 -0.0649
  100SOL     ow  397   2.314   1.086   4.105  0.4766 -0.2570  0.1472
  100SOL     hw  398   2.406   1.065   4.085  0.2836 -0.8983 -0.0828
  100SOL     hw  399   2.269   1.078   4.020  0.7016  2.9897 -0.4260
  100SOL     vw  400   2.320   1.082   4.091  0.4809  0.0868  0.0410
  101SOL     ow  401   2.047   2.424   5.477 -0.6000  0.1234  0.5016
  101SOL     hw  402   1.979   2.481   5.441  0.6373  0.4614 -1.5088
  101SOL     hw  403   2.098   2.482   5.534 -0.6130  0.4944  0.1461
  101SOL     vw  404   2.045   2.439   5.480 -0.4385  0.2170  0.1895
  102SOL     ow  405   2.080   2.399   1.242  0.1838 -0.2198 -0.0542
  102SOL     hw  406   2.110   2.312   1.267  0.5159  0.3003  1.4321
  102SOL     hw  407   2.082   2.398   1.146  1.5042 -1.3985 -0.0439
  102SOL     vw  408   2.085   2.388   1.232  0.4017 -0.3066  0.1432
  103SOL     ow  409   2.129   1.747   1.959 -0.1626 -0.0353 -0.2743
  103SOL     hw  410   2.203   1.718   1.906 -0.0329  2.1902 -1.4465
  103SOL     hw  411   2.096   1.825   1.914 -1.1825  0.9373  1.9753
  103SOL     vw  412   2.134   1.753   1.946 -0.2800  0.3867 -0.1321
  104SOL     ow  413   0.740   2.026   1.763 -0.0702  0.0216  0.3950
  104SOL     hw  414   0.655   2.062   1.738  0.6869  0.8687 -1.1112
  104SOL     hw  415   0.765   2.075   1.841 -0.6705  0.2062  0.4788
  104SOL     vw  416   0.732   2.037   1.770 -0.0495  0.1578  0.2073
  105SOL     ow  417   2.041   0.862   2.873  0.6410  0.5498 -0.2104
  105SOL     hw  418   1.964   0.917   2.887 -0.6782 -1.3437  0.4355
  105SOL     hw  419   2.010   0.773   2.888  2.8680 -0.3330 -0.4048
  105SOL     vw  420   2.027   0.857   2.877  0.7608  0.1835 -0.1507
  106SOL     ow  421   1.609   1.929   4.828 -0.3540 -0.2195  0.0643
  106SOL     hw  422   1.621   2.020   4.801 -0.3547 -1.1143 -3.3116
  106SOL     hw  423   1.520   1.926   4.864 -0.2907  1.1027  0.3797
  106SOL     vw  424   1.599   1.941   4.829 -0.3457 -0.1631 -0.3395
  107SOL     ow  425   2.203   0.649   0.237  0.6989 -1.0712  0.1292
  107SOL     hw  426   2.243   0.686   0.316  1.2061 -1.1611 -0.0848
  107SOL     hw  427   2.130   0.596   0.270  0.9666 -1.1854  0.5471
  107SOL     vw  428   2.199   0.647   0.252  0.8012 -1.0982  0.1561
  108SOL     ow  429   1.478   0.698   6.344  0.3491  0.1202 -0.4716
  108SOL     hw  430   1.529   0.779   6.337 -2.0871  1.8841  0.5753
  108SOL     hw  431   1.429   0.693   6.262  0.3640 -0.1964 -0.4617
  108SOL     vw  432   1.478   0.708   6.332  0.0296  0.3112 -0.3324
  109SOL     ow  433   2.056   2.400   2.454 -1.0695  0.3832  0.5321
  109SOL     hw  434   2.049   2.389   2.360 -0.3194  1.4539  0.3254
  109SOL     hw  435   2.047   2.312   2.490 -3.0189  0.1402 -0.4105
  109SOL     vw  436   2.054   2.387   2.447 -1.2277  0.4923  0.3804
  110SOL     ow  437   2.179   0.509   2.663 -0.1959 -0.0181 -0.4949
  110SOL     hw  438   2.158   0.602   2.656 -0.1472 -0.0216 -0.7047
  110SOL     hw  439   2.094   0.466   2.667 -0.3420  0.2589  3.3687
  110SOL     vw  440   2.165   0.516   2.662 -0.2089  0.0180 -0.0128
  111SOL     ow  441   2.373   2.078   4.400 -0.3893  0.6819  0.0860
  111SOL     hw  442   2.458   2.069   4.358  0.1313 -0.6821  1.3061
  111SOL     hw  443   2.362   1.996   4.449 -2.6848  0.5503 -0.5151
  111SOL     vw  444   2.383   2.066   4.401 -0.6235  0.4846  0.1678
  112SOL     ow  445   1.984   2.384   0.089  0.4736 -0.4901 -0.6107
  112SOL     hw  446   2.051   2.355   0.027  1.7022  1.1581 -0.1198
  112SOL     hw  447   2.026   2.375   0.175 -0.8070 -1.6811 -0.0728
  112SOL     vw  448   1.999   2.379   0.092  0.4666 -0.4297 -0.4750
  113SOL     ow  449   1.257   0.190   1.533  0.2497  0.6072 -0.1452
  113SOL     hw  450   1.271   0.202   1.439  2.4504  0.2202  0.0756
  113SOL     hw  451   1.238   0.096   1.542  2.2650  0.1705 -0.0337
  113SOL     vw  452   1.256   0.179   1.522  0.8060  0.4985 -0.1013
  114SOL     ow  453   1.504   2.413   1.540  0.1068  0.4126 -0.3227
  114SOL     hw  454   1.573   2.441   1.599  1.0071 -2.6969  0.3162
  114SOL     hw  455   1.464   2.338   1.584  0.7240 -1.9736 -3.4759
  114SOL     vw  456   1.508   2.407   1.553  0.3071 -0.3126 -0.6544
  115SOL     ow  457   2.245   2.481   3.578  0.2021  0.2979 -0.8148
  115SOL     hw  458   2.183   2.507   3.646  0.5462  1.9755 -1.0911
  115SOL     hw  459   2.317   2.440   3.626 -0.7152 -0.9070 -0.4218
  115SOL     vw  460   2.246   2.479   3.593  0.1265  0.3604 -0.7993
  116SOL     ow  461   2.212   0.089   5.120 -0.0313  0.3316 -0.1188
  116SOL     hw  462   2.291   0.130   5.085 -0.9867  2.1633 -0.2376
  116SOL     hw  463   2.160   0.161   5.153 -1.1822 -0.9474  0.9923
  116SOL     vw  464   2.216   0.104   5.119 -0.3091  0.4045  0.0122
  117SOL     ow  465   1.049   1.694   3.382 -1.0266  0.2676 -0.1618
  117SOL     hw  466   1.064   1.781   3.420  2.8723  0.6550 -2.0422
  117SOL     hw  467   1.110   1.637   3.429  0.9192 -0.0644 -2.8710
  117SOL     vw  468   1.059   1.698   3.393 -0.2554  0.2749 -0.7674
  118SOL     ow  469   1.732   1.819   1.454 -0.2120 -0.1230  0.0973
  118SOL     hw  470   1.787   1.808   1.531 -0.0430 -0.9496 -0.1229
  118SOL     hw  471   1.643   1.820   1.488 -0.0861  1.1360  0.4478
  118SOL     vw  472   1.727   1.817   1.469 -0.1732 -0.0659  0.1144
  119SOL     ow  473   2.098   2.052   1.872  0.2211  0.7985  0.4119
  119SOL     hw  474   2.152   2.089   1.801  2.1565  1.0461  1.9441
  119SOL     hw  475   2.008   2.078   1.849  0.9217  1.9148 -1.3042
  119SOL     vw  476   2.093   2.060   1.859  0.5687  0.9786  0.3876
  120SOL     ow  477   0.708   1.528   2.132 -0.0615 -0.2344  0.8839
  120SOL     hw  478   0.678   1.546   2.221  0.2568 -0.4674  1.0351
  120SOL     hw  479   0.763   1.451   2.139  1.5545  0.8614  0.7929
  120SOL     vw  480   0.711   1.520   2.145  0.1937 -0.1206  0.8920
  121SOL     ow  481   1.885   1.312   0.513 -0.0791 -0.0723  0.3279
  121SOL     hw  482   1.819   1.267   0.565 -0.5874  1.2165  0.8317
  121SOL     hw  483   1.857   1.299   0.422 -0.5295 -0.2755  0.4940
  121SOL     vw  484   1.873   1.304   0.508 -0.2056  0.0709  0.4163
  122SOL     ow  485   1.988   0.044   5.987  0.0101  0.4407 -0.4721
  122SOL     hw  486   1.954  -0.040   6.015  1.3660 -0.7657 -2.2107
  122SOL     hw  487   1.916   0.105   6.000 -1.5078 -1.2619 -0.5561
  122SOL     vw  488   1.974   0.041   5.993 -0.0113  0.0569 -0.7124
  123SOL     ow  489   1.934   0.034   1.749 -0.0926 -0.1499 -0.0785
  123SOL     hw  490   1.982   0.103   1.795  0.7096 -0.5001 -0.3671
  123SOL     hw  491   1.903  -0.024   1.819  0.4951 -0.2847  0.0767
  123SOL     vw  492   1.936   0.035   1.764  0.0907 -0.2139 -0.0961
  124SOL     ow  493   1.607   0.607   5.174  0.8092  0.3092  0.3714
  124SOL     hw  494   1.682   0.548   5.164  1.4277  1.2382 -0.6191
  124SOL     hw  495   1.559   0.599   5.092  0.4568  0.5993  0.5489
  124SOL     vw  496   1.610   0.598   5.162  0.8442  0.4701  0.2644
  125SOL     ow  497   0.091   1.847   1.137  1.1421 -0.5895 -0.3877
  125SOL     hw  498   0.099   1.755   1.164 -0.1271 -0.7625 -0.5661
  125SOL     hw  499   0.034   1.887   1.203 -0.3527 -0.5423 -1.6530
  125SOL     vw  500   0.085   1.840   1.149  0.7774 -0.6061 -0.5782
  126SOL     ow  501   2.444   1.032   0.300 -0.3562 -0.6188  0.2179
  126SOL     hw  502   2.458   1.013   0.208  3.4546 -0.7090  0.6435
  126SOL     hw  503   2.407   0.952   0.336 -1.8667 -0.5898 -1.1781
  126SOL     vw  504   2.441   1.019   0.293 -0.0527 -0.6268  0.0899
  127SOL     ow  505   1.563   0.078   5.308  0.1467  0.3803 -0.4193
  127SOL     hw  506   1.535   0.054   5.220 -0.3470  0.1437 -0.2042
  127SOL     hw  507   1.527   0.009   5.364  3.3616 -1.4609 -0.3901
  127SOL     vw  508   1.555   0.066   5.304  0.5057  0.1062 -0.3870
  128SOL     ow  509   2.258   1.929   4.188 -0.0990  0.4075  0.4592
  128SOL     hw  510   2.337   1.972   4.222  0.7191 -1.6636  1.3286
  128SOL     hw  511   2.277   1.835   4.195 -2.3852 -0.1355  0.0379
  128SOL     vw  512   2.271   1.922   4.193 -0.2927  0.0625  0.5183
  129SOL     ow  513   0.583   2.010   5.915 -0.5033 -0.5899 -0.0593
  129SOL     hw  514   0.642   1.969   5.979 -0.8971 -0.3561  0.4634
  129SOL     hw  515   0.498   1.969   5.932 -0.6720 -0.3166 -0.2427
  129SOL     vw  516   0.579   1.999   5.926 -0.5775 -0.5231 -0.0143
  130SOL     ow  517   1.643   2.148   3.767  0.3375  0.2573  0.6673
  130SOL     hw  518   1.559   2.193   3.765  0.2052 -0.0023  0.1217
  130SOL     hw  519   1.648   2.108   3.854 -0.2332  0.0378  0.6026
  130SOL     vw  520   1.633   2.148   3.778  0.2448  0.1941  0.5867
  131SOL     ow  521   0.188   2.066   1.004 -0.3129  0.0358 -0.3787
  131SOL     hw  522   0.156   1.991   1.053 -1.5685  0.3959 -0.6097
  131SOL     hw  523   0.173   2.141   1.061 -2.1820  0.5149 -1.4077
  131SOL     vw  524   0.182   2.066   1.018 -0.7252  0.1464 -0.5450
  132SOL     ow  525   1.207   1.575   3.538 -0.3198  0.1126 -0.5458
  132SOL     hw  526   1.288   1.624   3.525  0.7654 -1.6435 -0.7019
  132SOL     hw  527   1.153   1.633   3.592  0.9960  1.3625 -0.4980
  132SOL     vw  528   1.211   1.589   3.544 -0.0030  0.0458 -0.5602
  133SOL     ow  529   0.073   0.368   4.907  0.5825  0.3553  0.4351
  133SOL     hw  530   0.155   0.330   4.939 -0.0423  0.4149  2.1968
  133SOL     hw  531   0.081   0.364   4.812  1.3729 -2.3773  0.5363
  133SOL     vw  532   0.085   0.362   4.899  0.6043  0.0026  0.6809
  134SOL     ow  533   0.246   1.155   3.077  0.2540 -0.5330  0.0530
  134SOL     hw  534   0.310   1.226   3.087 -1.2202  1.3919 -2.5890
  134SOL     hw  535   0.280   1.084   3.130  4.6183  0.3050 -1.2079
  134SOL     vw  536   0.259   1.155   3.085  0.6353 -0.1684 -0.4618
  135SOL     ow  537   1.161   0.411   6.110  0.4277 -0.0872  0.3053
  135SOL     hw  538   1.185   0.366   6.030 -0.5552  2.1489 -1.3502
  135SOL     hw  539   1.171   0.345   6.179 -0.4418 -2.6356 -1.8399
  135SOL     vw  540   1.165   0.396   6.109  0.1833 -0.1284 -0.1960
  136SOL     ow  541   2.338   2.436   5.339  0.2794 -0.4223  0.0953
  136SOL     hw  542   2.369   2.514   5.384  0.2452 -0.4982  0.2528
  136SOL     hw  543   2.304   2.468   5.255 -1.9039  0.0802  1.0957
  136SOL     vw  544   2.337   2.451   5.334 -0.0131 -0.3661  0.2482
  137SOL     ow  545   1.175   0.321   3.039 -0.8118 -0.2188 -0.3746
  137SOL     hw  546   1.169   0.415   3.027  1.3645 -0.2038 -1.7934
  137SOL     hw  547   1.136   0.305   3.125  1.0470  2.3027  1.0735
  137SOL     vw  548   1.169   0.331   3.049 -0.2794  0.1159 -0.3707
  138SOL     ow  549   1.642   0.483   4.872  0.0153 -0.7082  0.3738
  138SOL     hw  550   1.563   0.532   4.896 -0.2521 -0.4454 -0.9729
  138SOL     hw  551   1.610   0.394   4.855  0.3774 -1.1874  2.0293
  138SOL     vw  552   1.627   0.478   4.873  0.0278 -0.7368  0.4146
  139SOL     ow  553   0.640   2.134   5.364  1.1644 -0.2723  0.2028
  139SOL     hw  554   0.685   2.206   5.321  0.7310 -1.1779 -1.8510
  139SOL     hw  555   0.553   2.131   5.324  0.9338 -1.4922  0.7257
  139SOL     vw  556   0.635   2.143   5.353  1.0768 -0.5527  0.0007
  140SOL     ow  557   0.426   1.603   0.699 -0.2383 -0.4085  0.9409
  140SOL     hw  558   0.388   1.549   0.630 -0.3850 -0.3577  0.9824
  140SOL     hw  559   0.352   1.628   0.754 -0.1388 -0.3487  1.0482
  140SOL     vw  560   0.411   1.599   0.697 -0.2445 -0.3939  0.9606
  141SOL     ow  561   1.251   2.135   5.758  0.2632  0.2930 -0.9235
  141SOL     hw  562   1.287   2.099   5.677 -0.2143 -0.1181 -0.9597
  141SOL     hw  563   1.175   2.080   5.777  0.7189  0.0130  0.1243
  141SOL     vw  564   1.245   2.123   5.750  0.2604  0.2018 -0.7901
  142SOL     ow  565   2.379   1.286   4.350 -1.0382 -0.5713 -0.4623
  142SOL     hw  566   2.459   1.319   4.310 -0.0457  0.0503  1.8815
  142SOL     hw  567   2.399   1.281   4.443 -3.4162 -1.3578  0.0704
  142SOL     vw  568   2.392   1.290   4.357 -1.2211 -0.5931 -0.0827
  143SOL     ow  569   0.509   0.051   3.759 -0.8611  0.7589 -1.1498
  143SOL     hw  570   0.540  -0.026   3.712 -1.5051  1.1331 -2.2210
  143SOL     hw  571   0.587   0.103   3.776 -0.0414 -1.1361  1.6133
  143SOL     vw  572   0.523   0.048   3.755 -0.8380  0.5583 -0.9265
  144SOL     ow  573   0.695   1.441   3.677  0.1797 -0.2283 -0.0962
  144SOL     hw  574   0.741   1.392   3.609  0.9835 -0.5644  0.6663
  144SOL     hw  575   0.757   1.442   3.751 -1.7572 -2.4752  1.7365
  144SOL     vw  576   0.710   1.434   3.678  0.0302 -0.5691  0.2462
  145SOL     ow  577   0.303   0.581   4.815  0.3333 -0.2464  0.1308
  145SOL     hw  578   0.234   0.529   4.856  0.1589  0.1036  0.2863
  145SOL     hw  579   0.384   0.546   4.854  0.2931 -1.0099 -0.4433
  145SOL     vw  580   0.305   0.569   4.826  0.3050 -0.3009  0.0756
  146SOL     ow  581   1.306   1.694   6.170 -0.1608 -0.4971  0.3320
  146SOL     hw  582   1.276   1.659   6.254  0.6675  1.9389  1.7538
  146SOL     hw  583   1.398   1.715   6.185 -0.5560  2.1131 -0.3434
  146SOL     vw  584   1.314   1.692   6.183 -0.1037  0.1686  0.4306
  147SOL     ow  585   2.390   0.330   2.539  0.0491  0.1253  0.3264
  147SOL     hw  586   2.470   0.292   2.503 -0.2521  0.0467 -0.2647
  147SOL     hw  587   2.320   0.270   2.513 -0.8607  2.3213 -2.9440
  147SOL     vw  588   2.391   0.317   2.531 -0.1106  0.4046 -0.1829
  148SOL     ow  589   2.406   1.705   2.122 -0.1658 -0.0474  0.3887
  148SOL     hw  590   2.439   1.636   2.180  1.8879 -1.0347 -1.7745
  148SOL     hw  591   2.403   1.664   2.035 -3.5155  1.2372 -0.2469
  148SOL     vw  592   2.410   1.691   2.118 -0.3368 -0.0082  0.0193
  149SOL     ow  593   0.781   1.585   3.455 -0.1418  0.2465 -0.0064
  149SOL     hw  594   0.777   1.678   3.433 -2.1767  0.3142  0.4530
  149SOL     hw  595   0.794   1.584   3.550 -2.1892  0.1347  0.3121
  149SOL     vw  596   0.783   1.597   3.465 -0.6804  0.2407  0.0961
  150SOL     ow  597   0.395   0.917   0.782 -0.0877 -0.4847  0.1489
  150SOL     hw  598   0.305   0.896   0.805 -0.1513  0.4389  0.8130
  150SOL     hw  599   0.431   0.959   0.860  0.5077  0.3415 -0.5398
  150SOL     vw  600   0.388   0.920   0.795 -0.0175 -0.2538  0.1457
  151SOL     ow  601   0.943   0.116   5.690  0.5124  0.0368  1.0860
  151SOL     hw  602   0.926   0.190   5.633 -0.4638  1.1172  2.7033
  151SOL     hw  603   0.922   0.039   5.637  0.8439  0.9228 -0.3876
  151SOL     vw  604   0.938   0.115   5.676  0.4274  0.2962  1.1051
  152SOL     ow  605   1.630   0.356   2.111 -0.2511  0.3441  0.4512
  152SOL     hw  606   1.648   0.450   2.108  0.3800  0.3519  2.6440
  152SOL     hw  607   1.554   0.348   2.168 -0.6972 -0.4637 -0.2322
  152SOL     vw  608   1.622   0.368   2.118 -0.2267  0.2385  0.6503
  153SOL     ow  609   0.326   2.306   0.606  0.2720 -0.0655 -0.0083
  153SOL     hw  610   0.259   2.357   0.560  0.9981  1.8373  0.9538
  153SOL     hw  611   0.278   2.232   0.644 -1.0987  0.6820 -0.2165
  153SOL     vw  612   0.310   2.303   0.605  0.1869  0.2842  0.0912
  154SOL     ow  613   0.813   0.515   1.054 -0.2869 -0.2541  0.0324
  154SOL     hw  614   0.895   0.530   1.006  1.6705 -1.4385  2.6862
  154SOL     hw  615   0.745   0.551   0.998  2.0015  0.4856 -2.5028
  154SOL     vw  616   0.815   0.522   1.040  0.2733 -0.3128  0.0480
  155SOL     ow  617   1.005   0.634   3.993 -0.2917 -0.5746 -0.4295
  155SOL     hw  618   0.938   0.578   4.032 -0.0318 -1.2566 -0.9423
  155SOL     hw  619   1.086   0.586   4.006  0.4475  1.0968  1.9104
  155SOL     vw  620   1.007   0.620   4.000 -0.1599 -0.4441 -0.1885
  156SOL     ow  621   1.814   2.244   1.344 -0.1246  0.7396 -0.3133
  156SOL     hw  622   1.723   2.259   1.318  0.3954  2.4781 -1.3308
  156SOL     hw  623   1.831   2.152   1.322 -1.6221  0.3942 -0.0902
  156SOL     vw  624   1.805   2.234   1.338 -0.2535  0.9235 -0.4181
  157SOL     ow  625   1.284   0.638   6.914 -0.4243 -0.2779  0.4112
  157SOL     hw  626   1.218   0.580   6.876  0.2903 -0.0504 -1.2373
  157SOL     hw  627   1.242   0.724   6.913  0.1554  0.0228 -1.4317
  157SOL     vw  628   1.270   0.642   6.909 -0.2536 -0.2082 -0.0496
  158SOL     ow  629   0.960   1.162   2.222 -0.1556  0.3310  0.8056
  158SOL     hw  630   0.938   1.255   2.230  0.3352  0.6654 -1.1340
  158SOL     hw  631   1.054   1.162   2.204 -0.0179 -0.6051  1.4569
  158SOL     vw  632   0.970   1.174   2.221 -0.0727  0.2516  0.6356
  159SOL     ow  633   1.341   1.917   0.696  0.1169  0.0425 -0.2035
  159SOL     hw  634   1.312   2.004   0.667  1.5742  1.0680  1.2794
  159SOL     hw  635   1.351   1.925   0.790 -0.6773 -2.0668  0.1109
  159SOL     vw  636   1.339   1.930   0.704  0.2043 -0.1005  0.0336
  160SOL     ow  637   0.558   1.459   3.196 -0.4885 -0.3833  0.6006
  160SOL     hw  638   0.514   1.530   3.149 -4.3630 -0.9207  3.0503
  160SOL     hw  639   0.545   1.382   3.142  2.8094  0.3125 -1.5303
  160SOL     vw  640   0.551   1.458   3.182 -0.5645 -0.3625  0.6429
  161SOL     ow  641   0.903   0.198   6.404  0.7930 -0.4820  0.1612
  161SOL     hw  642   0.923   0.283   6.442 -0.2239  0.3314 -1.0371
  161SOL     hw  643   0.872   0.145   6.477 -0.8318  0.9458  0.5590
  161SOL     vw  644   0.902   0.202   6.418  0.4444 -0.1863  0.0556
  162SOL     ow  645   2.177   0.700   6.071 -0.5421 -0.1018 -0.1766
  162SOL     hw  646   2.155   0.734   5.985 -0.7503  0.9856  0.2885
  162SOL     hw  647   2.143   0.765   6.132 -0.1515 -0.7132  0.7189
  162SOL     vw  648   2.170   0.713   6.068 -0.5182 -0.0390  0.0031
  163SOL     ow  649   0.155   1.016   0.489  0.2525  0.7333  0.2544
  163SOL     hw  650   0.150   0.921   0.492  3.5789  0.3293 -1.8759
  163SOL     hw  651   0.096   1.042   0.418  1.5850 -0.1119 -1.2131
  163SOL     vw  652   0.147   1.007   0.480  0.8672  0.5685 -0.2203
  164SOL     ow  653   0.487   1.489   3.485 -0.3622  0.6596 -0.6636
  164SOL     hw  654   0.524   1.489   3.396  2.1095 -0.9871  0.2559
  164SOL     hw  655   0.557   1.452   3.540 -2.1449  0.7809  1.8427
  164SOL     vw  656   0.501   1.485   3.480 -0.2713  0.4582 -0.2116
  165SOL     ow  657   1.003   1.973   6.206 -0.6792 -0.3650  0.1534
  165SOL     hw  658   1.044   1.928   6.133  0.8988  1.0486  0.0951
  165SOL     hw  659   1.023   1.919   6.282 -0.9831 -1.0428 -0.2417
  165SOL     vw  660   1.011   1.960   6.207 -0.5111 -0.2679  0.0937
  166SOL     ow  661   0.135   2.027   2.759  0.6062  0.3573  0.9982
  166SOL     hw  662   0.226   2.047   2.738  0.0533  1.5941 -0.4089
  166SOL     hw  663   0.137   1.937   2.793  2.0468 -0.5985 -1.3663
  166SOL     vw  664   0.148   2.018   2.761  0.7233  0.3943  0.5007
  167SOL     ow  665   1.221   0.320   2.655 -0.1798 -0.4920  0.2348
  167SOL     hw  666   1.279   0.396   2.653 -0.7927  0.0185  1.0529
  167SOL     hw  667   1.201   0.302   2.563 -0.1670  0.4537  0.0344
  167SOL     vw  668   1.226   0.328   2.643 -0.2590 -0.2999  0.3163
  168SOL     ow  669   1.557   1.292   5.884  0.1578  0.2623 -0.2793
  168SOL     hw  670   1.626   1.237   5.848 -0.4274 -0.9560  0.3721
  168SOL     hw  671   1.524   1.343   5.810 -0.5972 -1.7124 -1.3661
  168SOL     vw  672   1.562   1.292   5.869 -0.0190 -0.1590 -0.3366
  169SOL     ow  673   1.921   0.348   5.399  0.4701  0.4139 -0.4994
  169SOL     hw  674   1.997   0.406   5.405 -1.2894  2.8497 -0.2336
  169SOL     hw  675   1.879   0.374   5.317 -0.8669  0.1817  0.0942
  169SOL     vw  676   1.925   0.359   5.389  0.0616  0.7047 -0.3860
  170SOL     ow  677   1.123   1.836   6.021  0.0987  0.1750  0.1306
  170SOL     hw  678   1.145   1.859   5.931  0.4918  2.7951  0.8046
  170SOL     hw  679   1.193   1.778   6.050 -0.4218 -1.2974 -1.4279
  170SOL     vw  680   1.135   1.831   6.013  0.0820  0.3263  0.0141
  171SOL     ow  681   1.509   0.774   0.080  0.2329  0.1837  0.1517
  171SOL     hw  682   1.436   0.829   0.051 -0.7164 -1.2223 -0.2077
  171SOL     hw  683   1.529   0.718   0.005  1.8573  0.6796  0.1657
  171SOL     vw  684   1.502   0.774   0.066  0.3219  0.0636  0.1061
  172SOL     ow  685   2.214   0.355   4.929 -0.2029 -0.2275  0.0758
  172SOL     hw  686   2.132   0.390   4.896 -0.5455 -0.7517  0.3551
  172SOL     hw  687   2.269   0.431   4.946  0.3425  0.0772 -2.5727
  172SOL     vw  688   2.210   0.369   4.927 -0.1761 -0.2565 -0.2367
  173SOL     ow  689   1.284   0.499   6.461 -0.0521 -0.3047  0.1457
  173SOL     hw  690   1.239   0.415   6.457  0.2128 -0.4318 -0.2631
  173SOL     hw  691   1.222   0.561   6.423  1.2460 -0.9898 -3.4718
  173SOL     vw  692   1.270   0.496   6.456  0.1541 -0.4119 -0.3855
  174SOL     ow  693   1.625   2.434   4.897  0.2512  0.3220  0.1686
  174SOL     hw  694   1.666   2.404   4.978  1.3363  1.2174 -0.0138
  174SOL     hw  695   1.532   2.438   4.917  0.0494 -2.6617  0.3345
  174SOL     vw  696   1.618   2.430   4.910  0.3678  0.0465  0.1664
  175SOL     ow  697   0.769   0.593   0.740  0.0555  0.0801 -0.2556
  175SOL     hw  698   0.735   0.509   0.769 -3.4063  1.2220 -0.6005
  175SOL     hw  699   0.761   0.590   0.645  2.1786  0.0133 -0.4950
  175SOL     vw  700   0.764   0.581   0.731 -0.1211  0.2220 -0.3327
  176SOL     ow  701   0.114   1.633   0.679 -0.3328 -0.3070  0.3999
  176SOL     hw  702   0.181   1.579   0.635 -0.4116  0.7919 -1.1738
  176SOL     hw  703   0.164   1.695   0.732  0.1004  1.6775 -2.1310
  176SOL     vw  704   0.129   1.634   0.680 -0.2860  0.0998 -0.1416
  177SOL     ow  705   1.255   0.715   0.326 -0.3777 -0.3696  0.2678
  177SOL     hw  706   1.246   0.752   0.414 -0.7298 -0.6607  0.3572
  177SOL     hw  707   1.291   0.786   0.273 -0.3436 -0.1352  0.6045
  177SOL     vw  708   1.259   0.729   0.331 -0.4196 -0.3771  0.3240
  178SOL     ow  709   1.683   1.773   3.307 -0.0236  0.5436  0.1802
  178SOL     hw  710   1.712   1.686   3.280  0.8923  0.9215 -0.0872
  178SOL     hw  711   1.744   1.798   3.376 -0.5280  0.8131  0.5318
  178SOL     vw  712   1.695   1.765   3.313  0.0307  0.6289  0.1913
  179SOL     ow  713   1.948   0.527   4.157  0.0549  0.0785  0.3854
  179SOL     hw  714   1.912   0.615   4.147  0.8003  0.3466 -0.0304
  179SOL     hw  715   1.871   0.471   4.166 -0.5287  0.5151 -1.4518
  179SOL     vw  716   1.933   0.531   4.157  0.0762  0.1715  0.0882
  180SOL     ow  717   0.779   0.039   4.436 -0.6124  0.2118  0.2811
  180SOL     hw  718   0.773   0.033   4.340 -0.6836 -2.2039  0.3586
  180SOL     hw  719   0.716  -0.027   4.467  1.7339 -1.4106  1.8789
  180SOL     vw  720   0.770   0.029   4.427 -0.3122 -0.3209  0.5023
  181SOL     ow  721   2.529   2.377   5.038  0.5308 -0.2618 -0.1198
  181SOL     hw  722   2.545   2.389   5.132 -3.0610 -0.7700  0.7242
  181SOL     hw  723   2.585   2.304   5.013 -0.3417 -1.9404  2.3850
  181SOL     vw  724   2.538   2.369   5.047 -0.0583 -0.5503  0.3219
  182SOL     ow  725   0.883   1.404   0.824 -1.0114  0.0391 -0.6031
  182SOL     hw  726   0.840   1.345   0.886 -1.0523  0.5708 -0.1165
  182SOL     hw  727   0.972   1.412   0.857 -1.6949  2.3580  0.9227
  182SOL     vw  728   0.889   1.397   0.837 -1.1070  0.4151 -0.3376
  183SOL     ow  729   0.763   1.987   6.498  1.2570 -0.0127 -0.8248
  183SOL     hw  730   0.721   2.062   6.540 -1.5083  0.0805 -3.4112
  183SOL     hw  731   0.856   2.005   6.504  0.7397  3.1298 -0.4453
  183SOL     vw  732   0.769   1.999   6.505  0.8239  0.4143 -1.1158
  184SOL     ow  733   0.860   2.187   5.533 -0.6636 -0.8084 -0.4102
  184SOL     hw  734   0.846   2.259   5.471 -0.8558 -0.8348 -0.3972
  184SOL     hw  735   0.817   2.215   5.613 -1.5682 -1.3457 -0.6934
  184SOL     vw  736   0.853   2.200   5.535 -0.8083 -0.8827 -0.4458
  185SOL     ow  737   2.114   2.138   4.596  0.3316  0.0680  0.3135
  185SOL     hw  738   2.182   2.187   4.549 -0.6086  0.8531 -0.2779
  185SOL     hw  739   2.032   2.173   4.561 -0.3944 -2.3469 -0.5724
  185SOL     vw  740   2.112   2.149   4.585  0.1117 -0.1471  0.1190
  186SOL     ow  741   1.829   0.703   4.901  0.4874 -0.6608  0.1195
  186SOL     hw  742   1.773   0.636   4.862  1.0757 -0.2193 -1.5507
  186SOL     hw  743   1.812   0.782   4.850 -0.4558  0.6092  2.2682
  186SOL     vw  744   1.819   0.705   4.889  0.4406 -0.4350  0.1826
  187SOL     ow  745   0.382   1.505   0.145  0.0094  0.1003 -0.0915
  187SOL     hw  746   0.422   1.431   0.191  0.5252 -0.3189 -1.1883
  187SOL     hw  747   0.388   1.482   0.053 -1.1064  0.8825 -0.3775
  187SOL     vw  748   0.388   1.492   0.139 -0.0698  0.1482 -0.2740
  188SOL     ow  749   0.290   2.451   3.923 -0.3832 -0.1339 -0.6762
  188SOL     hw  750   0.287   2.436   3.828 -3.9943 -2.4470 -0.4037
  188SOL     hw  751   0.198   2.466   3.947  0.6532  2.5337  2.2493
  188SOL     vw  752   0.277   2.451   3.914 -0.7229 -0.0873 -0.2542
  189SOL     ow  753   2.259   1.454   0.303 -0.4942 -0.2868  0.0079
  189SOL     hw  754   2.267   1.389   0.233  0.2959 -1.5891  1.2455
  189SOL     hw  755   2.250   1.537   0.257  1.7338 -0.8791 -1.6883
  189SOL     vw  756   2.259   1.456   0.287 -0.0960 -0.5369 -0.0526
  190SOL     ow  757   0.550   2.487   4.091 -0.1714  0.7440 -0.1264
  190SOL     hw  758   0.524   2.514   4.180 -2.3594  0.9593 -0.7773
  190SOL     hw  759   0.638   2.452   4.102  0.1672  2.0314  1.9022
  190SOL     vw  760   0.558   2.486   4.104 -0.4154  0.9422  0.0553
  191SOL     ow  761   1.778   2.510   5.654 -0.1855  0.9785  0.1361
  191SOL     hw  762   1.830   2.583   5.619  1.2236 -0.1027 -0.0974
  191SOL     hw  763   1.789   2.440   5.591  1.1745 -0.5245  1.9310
  191SOL     vw  764   1.786   2.511   5.641  0.1798  0.6375  0.3421
  192SOL     ow  765   1.162   1.772   3.137 -0.2584 -0.5327  0.2673
  192SOL     hw  766   1.152   1.755   3.231  0.7821 -1.5510  0.2165
  192SOL     hw  767   1.186   1.687   3.100  0.9460  0.1907 -0.6674
  192SOL     vw  768   1.164   1.758   3.145  0.0377 -0.5715  0.1374
  193SOL     ow  769   0.389   1.764   0.272 -0.3257 -0.1948 -0.2236
  193SOL     hw  770   0.437   1.691   0.235 -1.2052 -0.2913 -1.2346
  193SOL     hw  771   0.449   1.804   0.335  0.8763 -0.5895 -1.0983
  193SOL     vw  772   0.403   1.760   0.276 -0.2831 -0.2596 -0.4724
  194SOL     ow  773   1.592   1.983   0.529 -0.1083  0.2033 -0.0899
  194SOL     hw  774   1.573   1.972   0.622 -0.3718  0.4539 -0.1124
  194SOL     hw  775   1.682   1.954   0.519  0.1769  0.9147  0.3853
  194SOL     vw  776   1.601   1.977   0.540 -0.1054  0.3303 -0.0302
  195SOL     ow  777   1.285   2.443   6.061 -0.5439 -0.3161  0.2092
  195SOL     hw  778   1.259   2.401   5.979  0.6077  0.1768 -0.4371
  195SOL     hw  779   1.333   2.375   6.109 -0.4758 -0.3538  0.0884
  195SOL     vw  780   1.288   2.429   6.056 -0.3830 -0.2562  0.1082
  196SOL     ow  781   2.339   1.494   5.912  0.3282  0.2778  0.4865
  196SOL     hw  782   2.379   1.569   5.869  0.7921  0.2565  0.8622
  196SOL     hw  783   2.356   1.420   5.854 -1.6669  0.7307 -0.7666
  196SOL     vw  784   2.346   1.494   5.899  0.1264  0.3347  0.3707
  197SOL     ow  785   2.357   1.540   0.583 -0.7811  0.3389 -0.2662
  197SOL     hw  786   2.344   1.631   0.556  0.9084  0.4233 -0.8902
  197SOL     hw  787   2.444   1.538   0.622 -0.6648 -1.0609 -0.5353
  197SOL     vw  788   2.366   1.552   0.584 -0.5428  0.1653 -0.3840
  198SOL     ow  789   1.822   0.597   5.463  0.0849  0.0432 -0.2591
  198SOL     hw  790   1.875   0.647   5.525 -0.9224  1.3544 -0.4203
  198SOL     hw  791   1.852   0.506   5.474  1.8598  0.6452  0.1315
  198SOL     vw  792   1.833   0.591   5.473  0.1862  0.2956 -0.2286
  199SOL     ow  793   1.451   2.115   5.949  0.2995 -0.4860  0.5376
  199SOL     hw  794   1.386   2.120   5.878  0.2814 -1.4260  0.4804
  199SOL     hw  795   1.532   2.092   5.904  0.2659 -1.1853  0.8357
  199SOL     vw  796   1.453   2.113   5.933  0.2927 -0.7023  0.5693
  200SOL     ow  797   2.364   0.515  -0.007  0.2192 -0.2103  0.3736
  200SOL     hw  798   2.460   0.506  -0.013  0.2680 -0.3185  1.2299
  200SOL     hw  799   2.332   0.426   0.003  0.0782 -0.1277  0.6849
  200SOL     vw  800   2.373   0.502  -0.007  0.2069 -0.2137  0.5276
  201SOL     ow  801   0.010   2.425   0.283 -0.1521 -0.2279  0.1457
  201SOL     hw  802   0.095   2.412   0.242  0.5928 -1.9912  2.0331
  201SOL     hw  803  -0.037   2.343   0.267 -1.6256  0.8159 -1.0814
  201SOL     vw  804   0.015   2.413   0.276 -0.2482 -0.3227  0.2328
  202SOL     ow  805   1.571   1.097   3.669  0.1048  0.2754  0.2909
  202SOL     hw  806   1.514   1.066   3.599 -0.7175 -0.7973  1.3886
  202SOL     hw  807   1.633   1.025   3.683 -0.6785 -0.1949  1.6359
  202SOL     vw  808   1.572   1.083   3.662 -0.1070  0.0718  0.6132
  203SOL     ow  809   1.263   1.468   4.267 -0.3429 -0.0912 -0.4223
  203SOL     hw  810   1.330   1.532   4.291 -1.9709  0.9199  1.8406
  203SOL     hw  811   1.222   1.505   4.189  2.0185 -1.0518 -2.2529
  203SOL     vw  812   1.266   1.481   4.260 -0.2462 -0.0846 -0.3655
  204SOL     ow  813   2.455   2.497   2.983 -0.4585  0.0995  0.4078
  204SOL     hw  814   2.468   2.456   3.068 -1.0423  0.0966  0.4956
  204SOL     hw  815   2.363   2.523   2.982 -0.5231 -0.1330 -0.3200
  204SOL     vw  816   2.445   2.495   2.994 -0.5440  0.0684  0.3233
  205SOL     ow  817   1.051   1.268   0.619 -0.3180 -0.0740 -0.2973
  205SOL     hw  818   1.092   1.236   0.700 -0.9837 -2.1697 -0.7248
  205SOL     hw  819   0.970   1.310   0.649  0.4890  1.1144  0.2776
  205SOL     vw  820   1.046   1.269   0.634 -0.2993 -0.1938 -0.2779
  206SOL     ow  821   0.092   1.274   6.368 -0.1038  0.4490 -0.2008
  206SOL     hw  822   0.147   1.353   6.363  2.3206 -1.0550  0.8949
  206SOL     hw  823   0.019   1.299   6.424  2.2237  1.1538  2.7585
  206SOL     vw  824   0.090   1.288   6.375  0.5232  0.3436  0.3343
  207SOL     ow  825   0.896   0.432   6.035  0.5364 -0.3235  0.1770
  207SOL     hw  826   0.968   0.469   6.085 -0.4561  0.9660  0.7310
  207SOL     hw  827   0.880   0.495   5.965  1.0285 -1.4393 -0.9728
  207SOL     vw  828   0.903   0.445   6.032  0.4704 -0.3006  0.0987
  208SOL     ow  829   1.053   2.382   5.533 -0.5764 -0.1605 -0.1952
  208SOL     hw  830   1.104   2.407   5.456 -1.5811  1.4037 -0.4087
  208SOL     hw  831   1.033   2.290   5.519  0.4275 -0.2625 -1.1256
  208SOL     vw  832   1.057   2.373   5.521 -0.5765  0.0324 -0.3462
  209SOL     ow  833   2.112   1.318   4.230 -0.1836 -0.3913  0.4400
  209SOL     hw  834   2.033   1.306   4.284  1.1817  1.3587  3.0430
  209SOL     hw  835   2.115   1.412   4.214  0.0171 -0.7513 -1.9505
  209SOL     vw  836   2.102   1.329   4.235  0.0230 -0.2078  0.4680
  210SOL     ow  837   1.781   0.590   6.261  0.5595 -0.6188 -0.5088
  210SOL     hw  838   1.696   0.564   6.227 -0.2817 -0.3288  1.2813
  210SOL     hw  839   1.835   0.511   6.253 -0.2104 -1.1388 -0.6091
  210SOL     vw  840   1.777   0.576   6.256  0.3470 -0.6492 -0.2859
  211SOL     ow  841   1.843   2.220   3.599 -0.0395  0.1656  0.3382
  211SOL     hw  842   1.781   2.175   3.656 -0.2187 -0.5057 -0.3687
  211SOL     hw  843   1.902   2.151   3.569  1.4746  0.8906  1.5009
  211SOL     vw  844   1.843   2.205   3.602  0.1366  0.1729  0.3983
  212SOL     ow  845   1.459   2.272   6.174 -0.0527  0.1354 -0.0394
  212SOL     hw  846   1.458   2.192   6.122 -0.2052 -0.3588  0.7101
  212SOL     hw  847   1.399   2.254   6.246  2.0677 -0.1743  1.7465
  212SOL     vw  848   1.451   2.259   6.177  0.2069  0.0294  0.2949
  213SOL     ow  849   0.486   2.017   1.679  0.2267 -0.5808  0.3609
  213SOL     hw  850   0.472   1.923   1.668 -1.7695 -0.1343 -1.5735
  213SOL     hw  851   0.431   2.042   1.753  0.9401 -0.9210  1.0307
  213SOL     vw  852   0.477   2.008   1.687  0.0575 -0.5666  0.1940
  214SOL     ow  853   1.071   0.521   0.277  0.0485  0.5918  0.9309
  214SOL     hw  854   1.000   0.457   0.273  0.7759 -0.1905 -2.2626
  214SOL     hw  855   1.029   0.605   0.263 -0.5823  0.5654  2.4445
  214SOL     vw  856   1.056   0.523   0.275  0.0612  0.4851  0.7093
  215SOL     ow  857   1.290   0.265   1.261  0.7097  0.1832  0.3752
  215SOL     hw  858   1.368   0.316   1.239  0.2037  0.4106 -0.9790
  215SOL     hw  859   1.265   0.222   1.180 -0.8931  0.5460  0.6450
  215SOL     vw  860   1.297   0.266   1.248  0.4315  0.2611  0.2320
  216SOL     ow  861   2.085   0.111   4.221  0.4831 -0.6106  0.2016
  216SOL     hw  862   2.040   0.032   4.192 -2.3133  1.0584 -0.4855
  216SOL     hw  863   2.172   0.105   4.182 -0.6710 -1.9611 -2.4727
  216SOL     vw  864   2.091   0.100   4.212 -0.0380 -0.5686 -0.2420
  217SOL     ow  865   0.154   2.420   5.316  0.0058 -0.2479  0.4251
  217SOL     hw  866   0.117   2.483   5.378 -0.8201  1.2674 -1.4743
  217SOL     hw  867   0.169   2.341   5.367  0.9553  1.4123  2.9086
  217SOL     vw  868   0.151   2.418   5.331  0.0221  0.1711  0.5021
  218SOL     ow  869   2.302   0.093   4.562 -0.3347  0.4475 -0.8778
  218SOL     hw  870   2.387   0.116   4.523 -0.1154 -0.9417 -1.2749
  218SOL     hw  871   2.237   0.133   4.505  0.0451  0.9846 -0.9337
  218SOL     vw  872   2.305   0.101   4.550 -0.2556  0.3351 -0.9377
  219SOL     ow  873   1.220   0.949   5.607  0.4804 -0.6295  0.6147
  219SOL     hw  874   1.163   0.901   5.666 -0.0017  0.7402  1.3042
  219SOL     hw  875   1.269   1.009   5.664  0.4172  0.3159 -0.3015
  219SOL     vw  876   1.219   0.950   5.622  0.4085 -0.3240  0.5848
  220SOL     ow  877   2.270   0.827   1.941 -0.0403  0.8307  0.5675
  220SOL     hw  878   2.250   0.734   1.936 -0.1606  0.9151 -1.4012
  220SOL     hw  879   2.339   0.834   2.007 -0.1845 -0.6205  0.8857
  220SOL     vw  880   2.277   0.816   1.949 -0.0753  0.6504  0.3497
  221SOL     ow  881   0.846   2.060   1.470  0.6818 -0.5431  0.9013
  221SOL     hw  882   0.815   2.031   1.384 -0.4193 -0.2957  1.1990
  221SOL     hw  883   0.811   2.149   1.479  1.6248 -0.1899  1.1950
  221SOL     vw  884   0.837   2.068   1.460  0.6609 -0.4638  0.9794
  222SOL     ow  885   1.841   0.054   1.375  0.1461 -0.2335  0.4409
  222SOL     hw  886   1.910   0.109   1.414  0.8749 -1.6028  1.1375
  222SOL     hw  887   1.762   0.108   1.381  0.7290  0.5518  1.5880
  222SOL     vw  888   1.840   0.069   1.381  0.3192 -0.3106  0.6841
  223SOL     ow  889   2.062   0.907   6.191 -0.3566 -0.2213  0.1004
  223SOL     hw  890   2.062   0.976   6.256  1.7323 -0.4530  0.4373
  223SOL     hw  891   1.994   0.932   6.129 -0.8784  1.1666  1.1832
  223SOL     vw  892   2.053   0.919   6.191 -0.1500 -0.0688  0.2878
  224SOL     ow  893   0.008   1.048   3.129 -0.5696  0.6962 -0.2723
  224SOL     hw  894   0.068   1.116   3.098 -2.5159  2.6715  0.0729
  224SOL     hw  895   0.042   1.024   3.215 -0.1716  1.6740 -0.1430
  224SOL     vw  896   0.021   1.054   3.136 -0.7739  1.0858 -0.2098
  225SOL     ow  897   0.809   0.297   1.474  0.5220  0.0275  0.5212
  225SOL     hw  898   0.771   0.226   1.526 -1.0544  0.9367  0.6927
  225SOL     hw  899   0.756   0.298   1.394  0.8274  0.7086  0.3230
  225SOL     vw  900   0.797   0.288   1.470  0.3543  0.2373  0.5177
  226SOL     ow  901   1.834   2.144   4.560 -0.0931 -0.0498  0.4459
  226SOL     hw  902   1.798   2.190   4.636  1.0050  1.2903  0.1983
  226SOL     hw  903   1.798   2.056   4.566 -0.5078  0.2035  2.1920
  226SOL     vw  904   1.825   2.139   4.571 -0.0030  0.1606  0.6435
  227SOL     ow  905   1.151   2.418   1.590  0.5173  0.1795 -0.1235
  227SOL     hw  906   1.089   2.433   1.518  1.3739 -3.6710 -1.8939
  227SOL     hw  907   1.095   2.395   1.664 -0.2952 -0.6626 -0.9649
  227SOL     vw  908   1.135   2.417   1.590  0.5231 -0.4398 -0.4681
  228SOL     ow  909   1.865   0.228   4.733  0.4708 -0.5373 -0.1043
  228SOL     hw  910   1.922   0.284   4.786  0.8254 -2.1246  1.2595
  228SOL     hw  911   1.923   0.191   4.667  0.8957 -1.5936  0.8402
  228SOL     vw  912   1.880   0.231   4.731  0.5736 -0.8861  0.2003
  229SOL     ow  913   1.019   2.248   2.919  0.2455  0.2358  0.7265
  229SOL     hw  914   1.096   2.198   2.945 -1.1675 -1.7048  1.4494
  229SOL     hw  915   0.962   2.246   2.996 -1.0283  0.5869 -0.1722
  229SOL     vw  916   1.021   2.241   2.933 -0.1090  0.0260  0.7033
  230SOL     ow  917   1.374   1.088   5.419 -0.4855  0.9318 -0.3920
  230SOL     hw  918   1.422   1.137   5.485 -0.6698  0.4361  0.1129
  230SOL     hw  919   1.310   1.037   5.468  0.7011 -0.9829 -0.7514
  230SOL     vw  920   1.372   1.088   5.434 -0.3533  0.6138 -0.3729
  231SOL     ow  921   2.359   1.707   4.342  0.5034  1.0355 -0.2198
  231SOL     hw  922   2.448   1.676   4.355  0.3587  0.3044 -0.8812
  231SOL     hw  923   2.316   1.694   4.427  1.0016  1.3146  0.0755
  231SOL     vw  924   2.365   1.701   4.355  0.5500  0.9758 -0.2677
  232SOL     ow  925   2.041   0.506   0.370  0.8275  0.1051  0.5725
  232SOL     hw  926   2.039   0.535   0.461  0.2639  2.6085 -0.1360
  232SOL     hw  927   2.085   0.421   0.372  1.7522  0.5569  3.0339
  232SOL     vw  928   2.046   0.499   0.382  0.8750  0.4950  0.8038
  233SOL     ow  929   2.464   2.187   2.881 -0.8143 -0.0251  0.7425
  233SOL     hw  930   2.499   2.125   2.818 -1.6213  1.7028 -1.5668
  233SOL     hw  931   2.443   2.135   2.958  0.4172 -2.2142 -0.3282
  233SOL     vw  932   2.466   2.172   2.883 -0.7582 -0.0859  0.2967
  234SOL     ow  933   2.346   1.360   1.996 -0.8121 -0.3892 -0.1413
  234SOL     hw  934   2.313   1.407   2.072  0.5272  2.5287 -1.1947
  234SOL     hw  935   2.407   1.295   2.031  0.8376  1.8111  1.3028
  234SOL     vw  936   2.350   1.358   2.010 -0.4177  0.2861 -0.0898
  235SOL     ow  937   2.430   1.557   6.183  0.3237  0.0904 -0.2891
  235SOL     hw  938   2.418   1.520   6.271 -1.9525  0.6537 -0.3028
  235SOL     hw  939   2.484   1.635   6.197 -0.3222  0.3826  0.6806
  235SOL     vw  940   2.436   1.563   6.196 -0.0618  0.2033 -0.1628
  236SOL     ow  941   0.517   2.510   0.758  0.4097 -0.4806 -0.5025
  236SOL     hw  942   0.495   2.591   0.804 -1.4867 -0.7008 -0.9128
  236SOL     hw  943   0.578   2.536   0.689 -0.4899  0.6849 -0.8926
  236SOL     vw  944   0.522   2.524   0.755  0.0408 -0.3558 -0.6081
  237SOL     ow  945   1.803   0.415   1.658  0.6516  0.4145  0.0049
  237SOL     hw  946   1.791   0.510   1.657  0.0740  0.3701  1.1436
  237SOL     hw  947   1.742   0.383   1.591  1.2076  0.8669 -0.7340
  237SOL     vw  948   1.793   0.423   1.649  0.6487  0.4683  0.0576
  238SOL     ow  949   1.196   1.605   6.396  0.5490  0.3695 -0.8286
  238SOL     hw  950   1.238   1.562   6.471 -1.4160 -0.7288 -0.2858
  238SOL     hw  951   1.152   1.534   6.349 -1.9646  1.5888 -0.4726
  238SOL     vw  952   1.196   1.590   6.400 -0.0420  0.3855 -0.7100
  239SOL     ow  953   1.449   2.138   0.365  0.7322 -0.0475 -0.1837
  239SOL     hw  954   1.360   2.106   0.371 -0.0780  2.1835  1.3319
  239SOL     hw  955   1.498   2.085   0.428  0.3186 -0.8184 -0.5084
  239SOL     vw  956   1.444   2.127   0.374  0.5708  0.1452 -0.0266
  240SOL     ow  957   2.202   1.726   6.097  0.7806  0.5900 -0.0107
  240SOL     hw  958   2.255   1.796   6.059  1.9953  0.8389  2.0189
  240SOL     hw  959   2.153   1.768   6.167  1.7903 -0.6164  1.4697
  240SOL     vw  960   2.203   1.741   6.101  1.0741  0.4637  0.4523
  241SOL     ow  961   0.129   2.119   5.429  0.0313  0.4599 -0.0983
  241SOL     hw  962   0.151   2.133   5.521  0.5477  1.0046 -0.2987
  241SOL     hw  963   0.033   2.117   5.427  0.0014 -1.9506  0.7951
  241SOL     vw  964   0.119   2.121   5.441  0.0955  0.2137 -0.0069
  242SOL     ow  965   2.387   1.631   1.868 -0.0349  0.2209  0.4582
  242SOL     hw  966   2.393   1.544   1.906  1.6575  0.0835 -0.0632
  242SOL     hw  967   2.452   1.632   1.798 -2.5991  0.6626 -2.1204
  242SOL     vw  968   2.396   1.620   1.864 -0.1498  0.2611  0.0492
  243SOL     ow  969   0.365   0.852   4.809  0.2464  0.1137  0.6783
  243SOL     hw  970   0.332   0.767   4.782  2.2661 -0.6213  0.3190
  243SOL     hw  971   0.338   0.861   4.901 -2.0297  0.2077  0.0430
  243SOL     vw  972   0.357   0.842   4.818  0.2126  0.0291  0.5469
  244SOL     ow  973   1.791   0.185   6.060 -0.1636 -0.1746 -0.8059
  244SOL     hw  974   1.747   0.116   6.110  0.0354 -1.4120 -2.2767
  244SOL     hw  975   1.721   0.238   6.024 -0.3133  0.6360  0.6066
  244SOL     vw  976   1.776   0.183   6.062 -0.1571 -0.2309 -0.8137
  245SOL     ow  977   0.515   2.178   5.598  0.0508 -0.1650 -1.0382
  245SOL     hw  978   0.560   2.161   5.515  1.3022 -0.9116 -0.2309
  245SOL     hw  979   0.450   2.244   5.576 -0.1389 -0.8712 -2.7720
  245SOL     vw  980   0.512   2.184   5.584  0.1909 -0.3567 -1.1609
  246SOL     ow  981   1.399   2.325   4.680  0.1843  0.1875 -0.2947
  246SOL     hw  982   1.440   2.337   4.594 -0.2919  0.3101 -0.5077
  246SOL     hw  983   1.326   2.266   4.664 -0.3119  0.7390 -0.0993
  246SOL     vw  984   1.395   2.319   4.667  0.0560  0.2763 -0.2971
  247SOL     ow  985   1.438   0.191   5.768  0.5044  0.3689  0.0812
  247SOL     hw  986   1.353   0.188   5.813 -0.2159  0.1811 -1.2336
  247SOL     hw  987   1.466   0.100   5.763  0.9286  0.4582  0.7653
  247SOL     vw  988   1.430   0.178   5.773  0.4653  0.3559 -0.0021
  248SOL     ow  989   1.106   1.835   5.713 -0.6326  0.5497  0.6063
  248SOL     hw  990   1.149   1.780   5.647  0.0017  3.1583 -1.2887
  248SOL     hw  991   1.013   1.828   5.692 -0.4826  0.8715 -0.2113
  248SOL     vw  992   1.099   1.827   5.702 -0.5291  0.9364  0.2484
  249SOL     ow  993   1.339   0.084   3.177  0.1851  0.1634  0.5776
  249SOL     hw  994   1.405   0.071   3.245  1.4927 -1.0904 -0.8412
  249SOL     hw  995   1.272   0.018   3.197  0.0664  0.4598  1.1930
  249SOL     vw  996   1.339   0.074   3.189  0.3419  0.0371  0.4716
  250SOL     ow  997   1.033   2.286   2.502  0.6666  0.6239  0.7139
  250SOL     hw  998   0.988   2.358   2.546 -0.9913 -1.2163  2.2261
  250SOL     hw  999   1.125   2.314   2.497  0.4651  1.9818  3.1665
  250SOL     vw 1000   1.040   2.299   2.507  0.4213  0.5602  1.2369
  251SOL     ow 1001   1.239   2.388   5.341 -0.2430  0.7553 -0.3083
  251SOL     hw 1002   1.217   2.302   5.305 -0.5080  0.7657 -0.1755
  251SOL     hw 1003   1.306   2.370   5.407 -0.6876  0.5855  0.1029
  251SOL     vw 1004   1.245   2.374   5.345 -0.3365  0.7343 -0.2365
  252SOL     ow 1005   0.049   1.429   0.099  0.5160  0.4449  0.4607
  252SOL     hw 1006   0.109   1.402   0.029  0.0071 -1.8629  0.8217
  252SOL     hw 1007  -0.038   1.410   0.064  0.2690 -1.1724  1.8219
  252SOL     vw 1008   0.045   1.423   0.085  0.4163 -0.0729  0.6879
  253SOL     ow 1009   1.219   2.388   5.778 -0.1343 -0.4726  0.4125
  253SOL     hw 1010   1.211   2.296   5.751 -2.3561 -0.0146 -0.6579
  253SOL     hw 1011   1.204   2.438   5.699 -0.0167  0.8572  1.2035
  253SOL     vw 1012   1.216   2.382   5.764 -0.4119 -0.2367  0.3757
  254SOL     ow 1013   2.242   0.126   4.823  0.4040  0.8989 -0.3799
  254SOL     hw 1014   2.242   0.134   4.727  0.3413 -0.2643 -0.4930
  254SOL     hw 1015   2.235   0.216   4.854  1.2722  1.3719 -1.4640
  254SOL     vw 1016   2.241   0.139   4.814  0.5103  0.8078 -0.5379
  255SOL     ow 1017   2.509   2.102   2.475  0.1092 -0.2615 -0.2948
  255SOL     hw 1018   2.570   2.176   2.467 -0.5771  0.6783  2.0276
  255SOL     hw 1019   2.551   2.044   2.538 -2.1785  1.5207  3.2290
  255SOL     vw 1020   2.523   2.104   2.483 -0.2831  0.0975  0.4766
  256SOL     ow 1021   2.072   0.238   5.816  0.5438  0.0654 -0.5819
  256SOL     hw 1022   2.038   0.162   5.864 -0.4828  1.4463  0.9891
  256SOL     hw 1023   1.998   0.268   5.763  0.4028  0.9725  0.1163
  256SOL     vw 1024   2.058   0.232   5.815  0.3898  0.3673 -0.2823
  257SOL     ow 1025   1.574   2.327   1.278  0.0478  0.2535 -0.0728
  257SOL     hw 1026   1.530   2.283   1.350  0.6728  2.1639  1.5593
  257SOL     hw 1027   1.546   2.418   1.284  1.9838  0.9506 -0.7183
  257SOL     vw 1028   1.565   2.333   1.288  0.3857  0.5977  0.0573
  258SOL     ow 1029   0.923   2.079   5.903 -0.1159  0.4600 -0.1107
  258SOL     hw 1030   0.936   1.999   5.852 -0.6785  1.0462 -1.2262
  258SOL     hw 1031   0.965   2.061   5.987 -0.3402 -1.0514 -0.2832
  258SOL     vw 1032   0.930   2.066   5.907 -0.2197  0.3377 -0.2806
  259SOL     ow 1033   2.262   1.996   2.077  0.3097 -0.9660 -0.2897
  259SOL     hw 1034   2.210   2.011   1.998  3.5329  0.0779 -2.4234
  259SOL     hw 1035   2.251   2.075   2.129  0.3356 -0.4449 -1.0682
  259SOL     vw 1036   2.254   2.008   2.073  0.7385 -0.7595 -0.6739
  260SOL     ow 1037   1.609   0.297   1.523  0.2242  0.1203 -0.4047
  260SOL     hw 1038   1.564   0.236   1.464 -2.1732 -0.7129  2.0594
  260SOL     hw 1039   1.539   0.334   1.577  2.2076  1.0333  1.7266
  260SOL     vw 1040   1.593   0.294   1.522  0.1695  0.1309  0.2016
  261SOL     ow 1041   1.354   0.522   0.140 -0.3629  0.0705  0.2740
  261SOL     hw 1042   1.432   0.568   0.171 -1.4706  0.8647  2.0532
  261SOL     hw 1043   1.337   0.559   0.054  0.5748  0.7204  0.3548
  261SOL     vw 1044   1.362   0.533   0.133 -0.3853  0.2610  0.5194
  262SOL     ow 1045   2.073   1.051   5.267  0.0137 -0.3509  0.9219
  262SOL     hw 1046   2.098   1.043   5.359 -0.4123 -0.5028  1.0289
  262SOL     hw 1047   2.054   1.144   5.257  1.5642 -0.0416  0.5791
  262SOL     vw 1048   2.074   1.062   5.278  0.1621 -0.3302  0.8910
  263SOL     ow 1049   0.268   1.823   0.826  0.2961 -0.1361  0.4718
  263SOL     hw 1050   0.256   1.917   0.834  1.1577  0.3290 -2.5600
  263SOL     hw 1051   0.316   1.798   0.905  1.5471  2.2801  0.5563
  263SOL     vw 1052   0.273   1.832   0.838  0.5749  0.2440  0.0829
  264SOL     ow 1053   0.836   1.157   0.469 -0.5888 -0.2845  0.1989
  264SOL     hw 1054   0.903   1.169   0.536  0.2004  1.4922 -0.8376
  264SOL     hw 1055   0.754   1.147   0.518  0.2611 -1.3276  1.4534
  264SOL     vw 1056   0.834   1.158   0.484 -0.3725 -0.1878  0.2277
  265SOL     ow 1057   0.289   2.136   1.846  0.2201 -0.3978  0.3160
  265SOL     hw 1058   0.303   2.169   1.757 -0.1306 -2.9511 -0.7816
  265SOL     hw 1059   0.219   2.191   1.881 -0.7369 -0.3123 -1.5954
  265SOL     vw 1060   0.282   2.148   1.839  0.0475 -0.7234 -0.0809
  266SOL     ow 1061   2.106   1.434   6.104 -0.4082  0.7833  0.4061
  266SOL     hw 1062   2.029   1.463   6.152 -0.6590 -0.1291  0.5757
  266SOL     hw 1063   2.073   1.414   6.016 -0.3727  0.4110  0.4734
  266SOL     vw 1064   2.091   1.435   6.098 -0.4367  0.6137  0.4375
  267SOL     ow 1065   1.182   0.255   6.331 -0.3582  0.6058  0.4250
  267SOL     hw 1066   1.134   0.173   6.344 -0.9068  1.0642  1.3622
  267SOL     hw 1067   1.273   0.227   6.317  0.2965 -0.0844  4.6711
  267SOL     vw 1068   1.188   0.240   6.331 -0.3442  0.5753  1.1089
  268SOL     ow 1069   0.717   1.953   5.644 -0.2795  0.0200 -0.2393
  268SOL     hw 1070   0.766   1.871   5.656 -1.9200 -1.2263 -1.5953
  268SOL     hw 1071   0.767   2.001   5.577  2.4759  1.7345  2.7525
  268SOL     vw 1072   0.730   1.948   5.637 -0.1324  0.0818 -0.0238
  269SOL     ow 1073   1.477   0.299   3.082  0.0529  0.1265  0.3671
  269SOL     hw 1074   1.538   0.338   3.020 -0.6089  0.2702 -0.2110
  269SOL     hw 1075   1.444   0.373   3.134  0.6125  0.0053  0.9017
  269SOL     vw 1076   1.481   0.314   3.081  0.0395  0.1295  0.3613
  270SOL     ow 1077   0.334   1.923   5.845 -0.2728  0.1466  0.4367
  270SOL     hw 1078   0.276   1.851   5.872 -1.6897  0.2937 -1.9811
  270SOL     hw 1079   0.288   2.002   5.874 -0.5932  0.2111 -0.2420
  270SOL     vw 1080   0.320   1.924   5.853 -0.5020  0.1745  0.0279
  271SOL     ow 1081   0.854   1.830   0.590 -0.6827 -0.5534  0.4041
  271SOL     hw 1082   0.871   1.878   0.671 -0.7393 -1.9682  1.2791
  271SOL     hw 1083   0.805   1.752   0.617 -1.0939 -0.8366 -1.0464
  271SOL     vw 1084   0.850   1.826   0.604 -0.7445 -0.7774  0.3282
  272SOL     ow 1085   2.437   0.231   5.077 -0.0599  0.3346 -0.3641
  272SOL     hw 1086   2.410   0.291   5.147 -2.4911 -0.0540 -0.8572
  272SOL     hw 1087   2.485   0.286   5.016 -1.4103  1.6197 -0.3376
  272SOL     vw 1088   2.440   0.246   5.078 -0.5587  0.4529 -0.4256
  273SOL     ow 1089   2.182   1.893   4.695  0.7513 -0.1970 -0.1323
  273SOL     hw 1090   2.102   1.848   4.721  0.3108  0.2731 -0.6487
  273SOL     hw 1091   2.152   1.975   4.656  1.4926  0.0633 -0.1663
  273SOL     vw 1092   2.168   1.898   4.693  0.7911 -0.1007 -0.2048
  274SOL     ow 1093   1.811   1.345   6.062  0.2810 -0.1028  0.0787
  274SOL     hw 1094   1.895   1.299   6.063  0.2074 -0.5347 -3.1323
  274SOL     hw 1095   1.835   1.437   6.053  0.4210 -0.2245 -0.8340
  274SOL     vw 1096   1.825   1.351   6.061  0.2897 -0.1759 -0.4656
  275SOL     ow 1097   2.159   0.637   6.756 -0.1941  0.5212 -0.4530
  275SOL     hw 1098   2.184   0.681   6.675 -0.0321 -0.8489 -1.1802
  275SOL     hw 1099   2.064   0.648   6.761 -0.4048 -0.5892 -1.5942
  275SOL     vw 1100   2.150   0.644   6.746 -0.2006  0.1940 -0.6995
  276SOL     ow 1101   0.471   2.009   1.991  0.3372  0.0378 -0.8767
  276SOL     hw 1102   0.409   2.072   1.953  0.4421  1.8367  1.6687
  276SOL     hw 1103   0.519   2.060   2.056  0.7570 -2.5883  0.9925
  276SOL     vw 1104   0.469   2.024   1.994  0.4064 -0.0713 -0.2943
  277SOL     ow 1105   1.872   0.082   5.362 -0.7833  0.0155  0.3896
  277SOL     hw 1106   1.777   0.094   5.369 -0.7013  1.3714 -0.4945
  277SOL     hw 1107   1.908   0.170   5.367  0.8461 -0.6220  5.1542
  277SOL     vw 1108   1.864   0.095   5.363 -0.5575  0.1103  0.9017
  278SOL     ow 1109   1.109   0.885   3.877 -0.2839 -0.2060 -0.3259
  278SOL     hw 1110   1.050   0.883   3.802  0.9527  0.5538 -1.3596
  278SOL     hw 1111   1.065   0.831   3.943 -1.7959 -0.2248 -1.2798
  278SOL     vw 1112   1.095   0.878   3.876 -0.3203 -0.1082 -0.5882
  279SOL     ow 1113   0.297   0.933   0.088 -0.3409  0.0066 -0.3565
  279SOL     hw 1114   0.353   0.916   0.164  1.3014  1.9060 -1.0500
  279SOL     hw 1115   0.283   0.847   0.049  2.3467 -0.5660 -0.2726
  279SOL     vw 1116   0.302   0.919   0.093  0.2304  0.1817 -0.4369
  280SOL     ow 1117   0.268   1.140   0.275 -1.0178  0.4165 -0.2566
  280SOL     hw 1118   0.233   1.093   0.351 -1.5074 -0.1416 -0.8186
  280SOL     hw 1119   0.268   1.076   0.205 -0.2587  0.8406 -0.6522
  280SOL     vw 1120   0.263   1.125   0.276 -0.9822  0.3989 -0.3829
  281SOL     ow 1121   1.727   2.318   5.476  0.5208 -0.1260  0.8990
  281SOL     hw 1122   1.705   2.285   5.389  0.4799  1.0968  0.4340
  281SOL     hw 1123   1.780   2.248   5.515  1.4230 -0.2521 -0.4927
  281SOL     vw 1124   1.731   2.304   5.470  0.6345  0.0186  0.6540
  282SOL     ow 1125   1.074   2.480   4.435 -0.4427  0.1325 -0.2032
  282SOL     hw 1126   1.147   2.465   4.495 -1.0316  2.3715  1.1952
  282SOL     hw 1127   1.113   2.472   4.348  1.2623  0.3225  0.4965
  282SOL     vw 1128   1.089   2.477   4.431 -0.2955  0.4531  0.0737
  283SOL     ow 1129   2.010   2.318   3.435  0.3092  0.6962 -0.9104
  283SOL     hw 1130   1.995   2.251   3.368  0.2233  1.2315 -1.4339
  283SOL     hw 1131   1.942   2.303   3.500  0.5626 -0.0048 -0.7970
  283SOL     vw 1132   1.999   2.307   3.434  0.3312  0.6744 -0.9646
  284SOL     ow 1133   2.152   1.496   2.154  1.1038  0.8421 -0.3956
  284SOL     hw 1134   2.095   1.422   2.174 -0.3108  2.2386  1.1078
  284SOL     hw 1135   2.108   1.540   2.080  0.5898  1.4895  0.2718
  284SOL     vw 1136   2.138   1.492   2.147  0.8494  1.1118 -0.1093
  285SOL     ow 1137   1.384   1.803   3.481  0.5039 -0.1527  0.0632
  285SOL     hw 1138   1.448   1.793   3.552 -0.4543  0.1596  0.9903
  285SOL     hw 1139   1.349   1.891   3.493 -1.1693 -0.8378  0.4973
  285SOL     vw 1140   1.388   1.813   3.492  0.1568 -0.2020  0.2429
  286SOL     ow 1141   1.210   1.441   0.466  0.3212 -0.0527  0.6881
  286SOL     hw 1142   1.143   1.378   0.492 -1.0810  0.6539 -0.9927
  286SOL     hw 1143   1.191   1.459   0.373  1.6785  1.5952  0.6843
  286SOL     vw 1144   1.199   1.435   0.457  0.3152  0.2580  0.4659
  287SOL     ow 1145   1.126   0.528   6.720 -0.3933 -0.2185 -0.6153
  287SOL     hw 1146   1.145   0.518   6.627  0.8714  1.0398 -0.5322
  287SOL     hw 1147   1.044   0.577   6.722 -0.6661 -0.6456 -1.0585
  287SOL     vw 1148   1.118   0.533   6.708 -0.2624 -0.1088 -0.6628
  288SOL     ow 1149   2.015   1.971   4.358  0.4511 -0.1553  0.2237
  288SOL     hw 1150   2.047   1.888   4.395 -0.1731 -1.1369 -1.3730
  288SOL     hw 1151   1.966   2.011   4.430 -0.9622 -2.1303  0.4375
  288SOL     vw 1152   2.013   1.966   4.373  0.1823 -0.5454  0.0415
  289SOL     ow 1153   0.175   2.098   0.717  0.0167 -0.2109 -0.2181
  289SOL     hw 1154   0.097   2.134   0.759  1.6541  1.2310  1.8363
  289SOL     hw 1155   0.142   2.032   0.656 -2.7147 -0.4598  1.3742
  289SOL     vw 1156   0.160   2.094   0.714 -0.1276 -0.0535  0.2630
  290SOL     ow 1157   0.265   1.425   0.560 -0.1481 -0.1142  0.3294
  290SOL     hw 1158   0.223   1.381   0.486  0.1952 -0.7294  0.4934
  290SOL     hw 1159   0.324   1.359   0.597  0.1908  0.4087  0.7331
  290SOL     vw 1160   0.267   1.410   0.555 -0.0581 -0.1264  0.4043
  291SOL     ow 1161   0.803   1.146   0.905 -0.0462 -0.1328 -0.3711
  291SOL     hw 1162   0.899   1.153   0.901  0.0153 -0.8002 -0.2390
  291SOL     hw 1163   0.787   1.070   0.961 -0.6275 -1.0751 -1.7571
  291SOL     vw 1164   0.814   1.137   0.912 -0.1148 -0.3452 -0.5365
  292SOL     ow 1165   2.300   2.432   2.744 -0.5060 -0.7693  0.1687
  292SOL     hw 1166   2.269   2.361   2.687 -1.6559  1.2443 -1.8896
  292SOL     hw 1167   2.235   2.502   2.733  1.0103  0.9484  1.4348
  292SOL     vw 1168   2.287   2.432   2.735 -0.4576 -0.2769  0.0643
  293SOL     ow 1169   1.829   1.870   4.945 -0.1270  0.7867  1.2117
  293SOL     hw 1170   1.811   1.816   5.022  1.1023 -1.0588  0.2677
  293SOL     hw 1171   1.745   1.876   4.900 -0.5790  0.8456  2.0306
  293SOL     vw 1172   1.815   1.864   4.950 -0.0244  0.5510  1.1952
  294SOL     ow 1173   1.621   2.202   4.762  0.0828  0.3346  0.2626
  294SOL     hw 1174   1.674   2.277   4.790 -0.2297 -0.0924  2.1169
  294SOL     hw 1175   1.535   2.239   4.743  0.3860  0.6831 -0.4497
  294SOL     vw 1176   1.617   2.216   4.763  0.0816  0.3244  0.4129
  295SOL     ow 1177   1.181   1.352   5.630 -0.2893 -0.2594 -0.0340
  295SOL     hw 1178   1.174   1.306   5.546 -0.9799  0.8519 -0.6175
  295SOL     hw 1179   1.137   1.294   5.693 -0.8423 -0.5595 -0.6845
  295SOL     vw 1180   1.174   1.339   5.627 -0.4534 -0.1523 -0.1969
  296SOL     ow 1181   1.477   2.397   5.478  0.2362  0.3108  0.5152
  296SOL     hw 1182   1.451   2.431   5.564 -2.6406  0.1527 -0.1774
  296SOL     hw 1183   1.559   2.352   5.493  2.4046  4.2838  2.2443
  296SOL     vw 1184   1.484   2.396   5.491  0.1428  0.8142  0.6521
  297SOL     ow 1185   1.772   2.371   6.370 -0.1381 -0.5768 -0.5054
  297SOL     hw 1186   1.783   2.367   6.275 -0.3602  0.9821 -0.6351
  297SOL     hw 1187   1.816   2.453   6.395  0.5452 -1.3329  0.8407
  297SOL     vw 1188   1.779   2.381   6.361 -0.0773 -0.4708 -0.3450
  298SOL     ow 1189   1.024   1.156   5.799  0.0283 -0.4046 -0.1380
  298SOL     hw 1190   0.980   1.216   5.859  0.3725  0.3528 -0.6211
  298SOL     hw 1191   0.969   1.156   5.721  2.3113  3.0886 -2.0774
  298SOL     vw 1192   1.011   1.164   5.796  0.3749  0.1562 -0.4578
  299SOL     ow 1193   2.256   2.229   5.554  0.4024 -0.3049  0.3228
  299SOL     hw 1194   2.317   2.269   5.616  0.2029  0.3528  0.1004
  299SOL     hw 1195   2.308   2.162   5.509  0.9629  0.2489  0.1306
  299SOL     vw 1196   2.271   2.225   5.556  0.4499 -0.1451  0.2680
  300SOL     ow 1197   2.062   1.772   2.229 -0.4745 -0.2579  0.3838
  300SOL     hw 1198   2.092   1.785   2.139  0.9818  1.9507  1.1038
  300SOL     hw 1199   1.980   1.822   2.234  0.8239  1.9976  0.9002
  300SOL     vw 1200   2.055   1.781   2.218 -0.1111  0.3311  0.5469
  301SOL     ow 1201   1.500   0.114   1.369 -0.0818  0.1109 -0.7566
  301SOL     hw 1202   1.469   0.035   1.412  1.3626 -0.7211 -1.1834
  301SOL     hw 1203   1.422   0.149   1.324 -0.6166 -1.3888 -1.0478
  301SOL     vw 1204   1.486   0.108   1.368  0.0381 -0.1967 -0.8512
  302SOL     ow 1205   1.439   1.951   3.229 -0.1224  0.2786  0.0220
  302SOL     hw 1206   1.509   1.997   3.182 -0.1450  1.3960  1.0106
  302SOL     hw 1207   1.396   2.019   3.281 -2.4148 -0.2575 -1.0622
  302SOL     vw 1208   1.443   1.966   3.230 -0.4278  0.3554  0.0093
  303SOL     ow 1209   0.982   0.867   2.013  0.4600  0.1402  0.3907
  303SOL     hw 1210   1.073   0.889   1.994 -0.0249  0.5289 -1.6391
  303SOL     hw 1211   0.962   0.794   1.956 -0.0916 -0.9656  1.9295
  303SOL     vw 1212   0.991   0.861   2.003  0.3232  0.0455  0.3260
  304SOL     ow 1213   1.976   2.312   6.687  0.5450 -0.3936 -0.3343
  304SOL     hw 1214   1.978   2.407   6.690  1.2435 -0.4141  2.2932
  304SOL     hw 1215   2.047   2.284   6.746  0.7221 -2.5568 -1.4445
  304SOL     vw 1216   1.986   2.321   6.695  0.6605 -0.6818 -0.1342
  305SOL     ow 1217   2.203   0.077   5.644 -0.0416  0.0062 -0.3669
  305SOL     hw 1218   2.157   0.117   5.718 -0.2156 -0.6160 -0.1302
  305SOL     hw 1219   2.291   0.058   5.676 -0.3732 -1.0605 -0.0194
  305SOL     vw 1220   2.208   0.079   5.658 -0.1084 -0.2167 -0.2899
  306SOL     ow 1221   2.211   0.709   1.644 -0.2088  0.3097 -0.5844
  306SOL     hw 1222   2.179   0.784   1.693 -0.2225  0.5123 -0.9008
  306SOL     hw 1223   2.306   0.711   1.657 -0.4312 -2.1580  3.0763
  306SOL     vw 1224   2.220   0.719   1.652 -0.2398  0.0109 -0.1432
  307SOL     ow 1225   1.064   0.350   6.943  0.0034 -0.4260  0.2842
  307SOL     hw 1226   1.076   0.380   6.853 -0.3754  2.7884  1.2022
  307SOL     hw 1227   0.970   0.337   6.952 -0.2307  1.4235  0.7850
  307SOL     vw 1228   1.054   0.352   6.933 -0.0775  0.2421  0.4714
  308SOL     ow 1229   1.167   0.555   3.696 -0.0484 -0.1111 -1.0073
  308SOL     hw 1230   1.131   0.626   3.748 -0.9614  1.8689 -4.0865
  308SOL     hw 1231   1.262   0.565   3.706 -0.1720  1.1810 -0.8943
  308SOL     vw 1232   1.175   0.566   3.704 -0.1852  0.3207 -1.3987
  309SOL     ow 1233   1.308   1.096   5.796 -0.4824 -0.2710 -0.0072
  309SOL     hw 1234   1.353   1.146   5.864  0.8870 -2.6680  0.9697
  309SOL     hw 1235   1.220   1.082   5.830  0.1485 -1.3320  1.2783
  309SOL     vw 1236   1.302   1.101   5.809 -0.2185 -0.7272  0.2916
  310SOL     ow 1237   1.004   1.931   1.747 -0.1057 -0.7036  0.1941
  310SOL     hw 1238   1.089   1.974   1.738 -1.6219  2.3731 -0.7936
  310SOL     hw 1239   1.022   1.854   1.801  3.0981  0.3904  0.9130
  310SOL     vw 1240   1.018   1.927   1.753  0.1169 -0.1532  0.1587
  311SOL     ow 1241   0.198   1.850   0.514 -0.5933  0.2897  0.3611
  311SOL     hw 1242   0.287   1.856   0.548 -0.8764  2.8711  0.8678
  311SOL     hw 1243   0.151   1.796   0.578 -0.2172  1.9665  2.1303
  311SOL     vw 1244   0.203   1.844   0.527 -0.5810  0.8515  0.6613
  312SOL     ow 1245   2.534   1.484   2.260  0.4795  0.0579 -0.6695
  312SOL     hw 1246   2.603   1.549   2.272  1.1987 -1.1513  3.4938
  312SOL     hw 1247   2.580   1.401   2.246 -0.1216 -0.4317  0.0854
  312SOL     vw 1248   2.549   1.481   2.260  0.4952 -0.1661 -0.0206
  313SOL     ow 1249   0.755   1.701   6.361  0.4298 -0.5578 -0.0145
  313SOL     hw 1250   0.674   1.665   6.326  0.7762 -0.4583 -0.9271
  313SOL     hw 1251   0.800   1.624   6.398 -0.1383 -0.5871  0.6429
  313SOL     vw 1252   0.751   1.686   6.362  0.4005 -0.5485 -0.0482
  314SOL     ow 1253   0.603   2.210   2.104  0.0956 -0.6355  0.2327
  314SOL     hw 1254   0.657   2.257   2.041 -2.4298 -0.4110 -1.9061
  314SOL     hw 1255   0.546   2.278   2.141  0.5203 -1.0405  1.7097
  314SOL     vw 1256   0.603   2.225   2.101 -0.1816 -0.6593  0.1453
  315SOL     ow 1257   1.584   0.404   6.530 -0.3730 -0.7771  0.3944
  315SOL     hw 1258   1.576   0.386   6.624  1.2604 -0.8023  0.5495
  315SOL     hw 1259   1.563   0.320   6.489  0.9724 -1.3600  0.8464
  315SOL     vw 1260   1.580   0.390   6.537  0.0200 -0.8573  0.4745
  316SOL     ow 1261   2.083   0.211   4.468 -0.1798  0.2179 -0.4191
  316SOL     hw 1262   2.070   0.159   4.388 -1.5763  1.1841 -0.8703
  316SOL     hw 1263   2.047   0.297   4.446  0.3209  0.8020  0.9417
  316SOL     vw 1264   2.076   0.216   4.454 -0.2980  0.4224 -0.2990
  317SOL     ow 1265   1.904   1.997   1.307  0.7648  0.0223  0.8689
  317SOL     hw 1266   1.960   1.968   1.379  1.2556  0.1420  0.5457
  317SOL     hw 1267   1.821   1.952   1.321  1.6379 -1.9360  0.1301
  317SOL     vw 1268   1.901   1.987   1.318  0.9448 -0.2202  0.7288
  318SOL     ow 1269   1.320   0.157   2.840  0.0182 -0.1468  0.1156
  318SOL     hw 1270   1.269   0.081   2.813  1.2434 -0.3871 -1.6558
  318SOL     hw 1271   1.303   0.223   2.772 -0.8826  1.1518  1.5173
  318SOL     vw 1272   1.311   0.156   2.827  0.0610 -0.0072  0.0668
  319SOL     ow 1273   2.480   2.408   0.834  0.0503  0.1018  0.3919
  319SOL     hw 1274   2.479   2.461   0.754  1.1719  2.0605  1.5650
  319SOL     hw 1275   2.475   2.473   0.905  1.1914 -1.3814  1.9264
  319SOL     vw 1276   2.480   2.424   0.833  0.3488  0.1645  0.7491
  320SOL     ow 1277   0.930   0.419   2.359  0.2134 -0.0635 -0.0171
  320SOL     hw 1278   0.865   0.369   2.309  2.0112 -0.1611 -2.3997
  320SOL     hw 1279   1.010   0.367   2.354  1.1649  1.2769  0.6261
  320SOL     vw 1280   0.932   0.406   2.352  0.5761  0.1005 -0.2465
  321SOL     ow 1281   2.225   0.790   6.961  0.0451 -0.4177  0.0340
  321SOL     hw 1282   2.153   0.852   6.961  2.4971  2.7066 -0.6990
  321SOL     hw 1283   2.219   0.745   6.876  1.0783  2.7307 -1.8872
  321SOL     vw 1284   2.215   0.792   6.950  0.5050  0.4099 -0.3159
  322SOL     ow 1285   0.550   0.056   6.166 -0.3256 -0.1656 -0.6843
  322SOL     hw 1286   0.513  -0.029   6.191 -0.8338 -0.4583 -2.3182
  322SOL     hw 1287   0.513   0.117   6.229  0.1475 -1.1434  0.6067
  322SOL     vw 1288   0.540   0.053   6.178 -0.3303 -0.3332 -0.7298
  323SOL     ow 1289   1.546   0.139   1.897 -0.5494 -0.0130 -0.0526
  323SOL     hw 1290   1.579   0.087   1.824  0.3273  3.8177 -2.6978
  323SOL     hw 1291   1.457   0.107   1.911 -0.9908 -0.5367 -3.2993
  323SOL     vw 1292   1.539   0.128   1.890 -0.4920  0.4233 -0.8299
  324SOL     ow 1293   2.061   2.229   5.278  0.1727 -0.2998  0.3874
  324SOL     hw 1294   2.051   2.170   5.203 -0.1112 -0.3181  0.4393
  324SOL     hw 1295   1.972   2.249   5.306  0.0135  3.2487 -2.0144
  324SOL     vw 1296   2.048   2.224   5.272  0.1142  0.1661  0.0772
  325SOL     ow 1297   2.265   0.378   5.934  0.0364 -0.1363  0.0496
  325SOL     hw 1298   2.345   0.328   5.916  0.0189  0.0061 -0.4305
  325SOL     hw 1299   2.196   0.330   5.887 -0.7210 -1.9755  2.8053
  325SOL     vw 1300   2.266   0.365   5.925 -0.0659 -0.3602  0.3498
  326SOL     ow 1301   2.382   1.247   0.433 -0.6245  0.3727  0.1020
  326SOL     hw 1302   2.474   1.271   0.420 -0.4322 -0.7101 -0.5896
  326SOL     hw 1303   2.375   1.158   0.400 -1.2191 -0.7602  2.9980
  326SOL     vw 1304   2.393   1.239   0.427 -0.6776  0.0803  0.3929
  327SOL     ow 1305   2.456   0.584   6.066 -0.5621  0.0308  0.2662
  327SOL     hw 1306   2.524   0.639   6.106  0.9650  0.6128 -2.8616
  327SOL     hw 1307   2.480   0.495   6.090  0.4614  0.3370  0.4268
  327SOL     vw 1308   2.469   0.579   6.075 -0.2254  0.1480 -0.1252
  328SOL     ow 1309   2.299   2.344   4.921 -0.1450 -0.0106  0.1737
  328SOL     hw 1310   2.387   2.358   4.955  0.3807  0.0815 -1.1389
  328SOL     hw 1311   2.278   2.253   4.944  1.2608 -0.8049 -1.4867
  328SOL     vw 1312   2.307   2.334   4.928  0.1098 -0.1032 -0.2186
  329SOL     ow 1313   1.770   2.160   6.618  0.3140 -1.4231  0.0771
  329SOL     hw 1314   1.807   2.107   6.547  1.2030 -0.7490  0.0183
  329SOL     hw 1315   1.843   2.215   6.647 -0.7192  0.1814 -0.2659
  329SOL     vw 1316   1.785   2.160   6.612  0.2950 -1.1224  0.0243
  330SOL     ow 1317   1.439   2.283   2.860  0.2219  0.0776 -0.3209
  330SOL     hw 1318   1.426   2.215   2.926 -0.1797 -0.6524 -1.1366
  330SOL     hw 1319   1.398   2.248   2.781  0.0765  1.2390 -0.7768
  330SOL     vw 1320   1.432   2.270   2.859  0.1497  0.1345 -0.4888
  331SOL     ow 1321   1.466   0.843   5.305  0.3096 -0.4075  0.5493
  331SOL     hw 1322   1.490   0.879   5.220 -0.6656 -1.7771 -0.3581
  331SOL     hw 1323   1.430   0.917   5.354  0.6185  0.3351 -0.3205
  331SOL     vw 1324   1.465   0.857   5.300  0.2217 -0.4902  0.3147
  332SOL     ow 1325   0.109   0.376   4.646 -0.1918  0.4200 -0.0771
  332SOL     hw 1326   0.040   0.430   4.609 -0.6657  0.7841  1.2817
  332SOL     hw 1327   0.188   0.430   4.641 -0.7661  1.4812  1.7575
  332SOL     vw 1328   0.110   0.390   4.640 -0.3301  0.6080  0.3440
  333SOL     ow 1329   0.655   0.078   3.011 -0.1268 -0.0049  0.5644
  333SOL     hw 1330   0.565   0.047   2.998  0.0749 -0.1044 -0.6824
  333SOL     hw 1331   0.683   0.038   3.093 -1.0261 -0.4282  0.6680
  333SOL     vw 1332   0.647   0.069   3.020 -0.2188 -0.0739  0.4135
  334SOL     ow 1333   0.630   1.570   1.573 -0.4103 -0.3260  0.3512
  334SOL     hw 1334   0.536   1.568   1.557 -0.1330 -0.2194 -1.5075
  334SOL     hw 1335   0.641   1.527   1.658 -2.1550  0.0184  0.7829
  334SOL     vw 1336   0.619   1.564   1.582 -0.6039 -0.2664  0.1630
  335SOL     ow 1337   1.507   0.256   5.083  0.2269  1.0904 -0.7243
  335SOL     hw 1338   1.441   0.201   5.125 -0.6128  3.5704  1.4720
  335SOL     hw 1339   1.496   0.239   4.989 -1.2434 -1.0007 -0.2433
  335SOL     vw 1340   1.497   0.246   5.076 -0.0778  1.1417 -0.3712
  336SOL     ow 1341   0.527   1.256   1.306  0.1621 -0.2092  0.2388
  336SOL     hw 1342   0.456   1.193   1.294  0.6547 -0.6255 -0.6267
  336SOL     hw 1343   0.490   1.339   1.277 -0.9620  0.2459  2.7474
  336SOL     vw 1344   0.513   1.259   1.300  0.0788 -0.2041  0.4557
  337SOL     ow 1345   1.551   0.503   5.735  0.5453 -0.3952  0.4282
  337SOL     hw 1346   1.465   0.509   5.776  0.1355 -2.7538  0.0642
  337SOL     hw 1347   1.557   0.412   5.705  1.9043  0.4888 -2.3223
  337SOL     vw 1348   1.540   0.492   5.736  0.6706 -0.5897  0.0172
  338SOL     ow 1349   1.218   0.239   5.907 -1.1054 -0.7489  1.1533
  338SOL     hw 1350   1.151   0.183   5.945 -2.1540  0.5241  1.2625
  338SOL     hw 1351   1.173   0.285   5.836  0.3623 -1.8092 -0.5575
  338SOL     vw 1352   1.204   0.238   5.903 -1.0502 -0.7208  0.9418
  339SOL     ow 1353   0.373   2.226   4.704  0.1507 -0.0441 -0.4941
  339SOL     hw 1354   0.354   2.315   4.733 -3.6735 -1.8080  3.5183
  339SOL     hw 1355   0.446   2.198   4.759 -2.5586 -1.0639  2.9765
  339SOL     vw 1356   0.380   2.234   4.715 -0.7113 -0.4114  0.4933
  340SOL     ow 1357   2.229   0.409   1.512 -0.6358 -0.3247  1.0182
  340SOL     hw 1358   2.281   0.414   1.432 -1.9801 -0.2910  0.1100
  340SOL     hw 1359   2.230   0.316   1.535 -2.1081 -0.7250 -0.3637
  340SOL     vw 1360   2.236   0.398   1.505 -1.0073 -0.3731  0.7161
  341SOL     ow 1361   1.868   0.716   6.742  0.6724 -0.0948 -0.2543
  341SOL     hw 1362   1.827   0.695   6.826 -1.2379  3.1721 -0.2272
  341SOL     hw 1363   1.807   0.682   6.676  0.8068 -0.2566 -0.2966
  341SOL     vw 1364   1.855   0.709   6.744  0.4381  0.3149 -0.2563
  342SOL     ow 1365   1.800   0.303   4.163  0.5637 -0.0440 -0.5074
  342SOL     hw 1366   1.872   0.306   4.100  1.0697 -1.6298 -0.0614
  342SOL     hw 1367   1.797   0.211   4.190 -1.7823 -0.0847 -0.6930
  342SOL     vw 1368   1.809   0.291   4.158  0.3209 -0.2586 -0.4730
  343SOL     ow 1369   2.003  -0.017   4.899  0.2462 -0.1440  0.2642
  343SOL     hw 1370   1.916   0.018   4.921  0.6135 -0.0402  1.6436
  343SOL     hw 1371   1.989  -0.112   4.895 -0.0062 -0.1029  0.1319
  343SOL     vw 1372   1.989  -0.025   4.901  0.2614 -0.1249  0.4292
  344SOL     ow 1373   1.864   0.315   5.666  0.4056 -0.7578 -0.7326
  344SOL     hw 1374   1.779   0.269   5.666  0.0098 -0.1444 -2.5801
  344SOL     hw 1375   1.883   0.327   5.573  1.6093  0.7966 -0.3141
  344SOL     vw 1376   1.855   0.310   5.653  0.5122 -0.4718 -0.9210
  345SOL     ow 1377   1.174   1.615   5.566  0.5260 -0.4880 -0.1200
  345SOL     hw 1378   1.234   1.587   5.497  2.2865  0.0419  1.1235
  345SOL     hw 1379   1.168   1.539   5.624 -0.5309 -0.7542 -0.5627
  345SOL     vw 1380   1.181   1.601   5.565  0.6188 -0.4532 -0.0145
  346SOL     ow 1381   1.862   0.116   5.097  0.8538 -0.7383 -0.3238
  346SOL     hw 1382   1.800   0.189   5.101 -0.2226 -1.5487 -1.4353
  346SOL     hw 1383   1.866   0.083   5.186  1.8584  1.0330  0.3555
  346SOL     vw 1384   1.855   0.122   5.109  0.8443 -0.6115 -0.3812
  347SOL     ow 1385   0.860   0.839   0.808  0.4138  0.9317  0.0175
  347SOL     hw 1386   0.834   0.750   0.784  0.8481  0.9785 -0.6590
  347SOL     hw 1387   0.812   0.896   0.748 -2.3040  1.4193  2.3918
  347SOL     vw 1388   0.850   0.835   0.797  0.1125  1.0022  0.2415
  348SOL     ow 1389   0.867   0.921   2.298 -0.5307  0.3313  0.3068
  348SOL     hw 1390   0.909   1.007   2.289 -0.2719  0.1176 -0.5480
  348SOL     hw 1391   0.847   0.915   2.392 -0.6817  1.3841  0.3623
  348SOL     vw 1392   0.870   0.932   2.309 -0.5164  0.4421  0.2012
  349SOL     ow 1393   1.138   1.901   6.710  0.0795  0.0024 -0.3000
  349SOL     hw 1394   1.154   1.986   6.752  2.2181  0.1056 -1.2391
  349SOL     hw 1395   1.183   1.838   6.766  0.4083 -0.2268 -0.8256
  349SOL     vw 1396   1.146   1.904   6.723  0.4050 -0.0142 -0.4933
  350SOL     ow 1397   2.315   0.817   0.425  0.3384  0.2022 -0.1667
  350SOL     hw 1398   2.226   0.820   0.460  0.3198  0.4927 -0.2358
  350SOL     hw 1399   2.372   0.825   0.502  0.3001  3.0021 -0.3475
  350SOL     vw 1400   2.311   0.818   0.440  0.3309  0.6099 -0.1997
  351SOL     ow 1401   1.426   0.094   4.533 -0.0758  0.3053 -0.5422
  351SOL     hw 1402   1.430   0.085   4.438 -0.0919  0.8045 -0.5922
  351SOL     hw 1403   1.405   0.186   4.548  0.2480  0.3053 -0.0467
  351SOL     vw 1404   1.424   0.105   4.523 -0.0353  0.3712 -0.4835
  352SOL     ow 1405   1.922   0.666   5.213 -0.3873 -0.2827 -0.5327
  352SOL     hw 1406   1.876   0.663   5.297 -0.3614 -2.1448 -0.5384
  352SOL     hw 1407   2.014   0.671   5.236 -0.3830 -0.7456 -0.4406
  352SOL     vw 1408   1.928   0.666   5.227 -0.3833 -0.5894 -0.5214
  353SOL     ow 1409   0.873   2.414   4.161  0.6281  0.8633  0.2028
  353SOL     hw 1410   0.929   2.344   4.195  0.4064  0.9620  0.7749
  353SOL     hw 1411   0.828   2.374   4.087 -0.2702  0.0758  1.1462
  353SOL     vw 1412   0.874   2.399   4.156  0.4804  0.7725  0.4027
  354SOL     ow 1413   0.840   1.698   6.654  0.0746  0.0313  0.6216
  354SOL     hw 1414   0.779   1.641   6.701 -0.2301 -1.6054 -1.5871
  354SOL     hw 1415   0.927   1.664   6.678 -0.1213 -2.3570 -1.6547
  354SOL     vw 1416   0.844   1.686   6.664  0.0086 -0.4997  0.0300
  355SOL     ow 1417   0.194   2.182   4.961 -0.3898  1.2152 -0.0822
  355SOL     hw 1418   0.255   2.245   5.000 -1.5595  3.2846 -1.4297
  355SOL     hw 1419   0.205   2.103   5.013  1.5055  2.3617  1.3865
  355SOL     vw 1420   0.204   2.180   4.973 -0.2941  1.6396 -0.0660
  356SOL     ow 1421   1.877   1.621   0.945  0.6582  0.3601  0.5669
  356SOL     hw 1422   1.899   1.608   0.853 -1.8298 -1.8207  0.1502
  356SOL     hw 1423   1.830   1.704   0.947  1.2923  0.7424  0.0054
  356SOL     vw 1424   1.873   1.630   0.933  0.4136  0.1228  0.4379
  357SOL     ow 1425   1.883   2.405   1.968 -0.1920 -0.2680  0.3254
  357SOL     hw 1426   1.820   2.369   1.906  1.0680 -0.2158 -1.0415
  357SOL     hw 1427   1.834   2.473   2.016 -1.3595 -0.7492 -0.1532
  357SOL     vw 1428   1.868   2.409   1.966 -0.1798 -0.3246  0.0820
  358SOL     ow 1429   1.576   0.534   6.066 -0.1205  0.0883 -0.6856
  358SOL     hw 1430   1.494   0.573   6.038  0.0660 -1.0425 -3.0357
  358SOL     hw 1431   1.637   0.549   5.993  1.2078 -0.7132  0.2039
  358SOL     vw 1432   1.573   0.541   6.053  0.0793 -0.1667 -0.8783
  359SOL     ow 1433   1.916   0.065   6.632 -0.0093  0.2893 -0.3310
  359SOL     hw 1434   2.002   0.104   6.650 -0.4307  3.0961 -3.3867
  359SOL     hw 1435   1.858   0.105   6.696  0.6967 -0.5672  0.8738
  359SOL     vw 1436   1.920   0.076   6.643  0.0283  0.5466 -0.5753
  360SOL     ow 1437   0.431   1.753   2.052 -0.2957  0.9016  0.6807
  360SOL     hw 1438   0.441   1.847   2.036 -0.7566  0.6970 -1.1485
  360SOL     hw 1439   0.383   1.748   2.134 -2.0184  2.3746 -0.1489
  360SOL     vw 1440   0.426   1.765   2.060 -0.5838  1.0689  0.3300
  361SOL     ow 1441   2.131   1.597   4.274 -0.1407  0.5956 -0.0589
  361SOL     hw 1442   2.221   1.628   4.271 -0.7707  2.4679 -1.3452
  361SOL     hw 1443   2.098   1.626   4.359  0.3701  0.1161  0.3137
  361SOL     vw 1444   2.139   1.605   4.285 -0.1564  0.7794 -0.1795
  362SOL     ow 1445   0.086   0.950   6.309  0.8818  0.2097 -0.2349
  362SOL     hw 1446   0.136   0.914   6.382  0.5867  1.9937  0.8998
  362SOL     hw 1447   0.105   0.891   6.236  1.0503 -1.7328  1.2880
  362SOL     vw 1448   0.095   0.937   6.309  0.8651  0.1887  0.1156
  363SOL     ow 1449   1.600   2.419   6.618 -0.6922 -0.1861  0.1548
  363SOL     hw 1450   1.584   2.494   6.560 -1.9195 -2.1866 -2.2338
  363SOL     hw 1451   1.512   2.386   6.639 -0.1903 -0.6279  1.7022
  363SOL     vw 1452   1.586   2.425   6.613 -0.7880 -0.5083  0.0436
  364SOL     ow 1453   1.458   0.661   6.685  0.7031 -0.2068 -0.0929
  364SOL     hw 1454   1.438   0.752   6.661 -1.0377 -0.2003  1.2005
  364SOL     hw 1455   1.403   0.643   6.761  2.3596 -1.7956  0.8169
  364SOL     vw 1456   1.448   0.671   6.692  0.6920 -0.4155  0.1976
  365SOL     ow 1457   0.540   2.040   0.141 -0.5598 -0.2858 -0.3833
  365SOL     hw 1458   0.481   2.089   0.083 -0.3100 -0.2876 -0.6404
  365SOL     hw 1459   0.490   1.961   0.163  0.3349 -1.6656 -2.8283
  365SOL     vw 1460   0.525   2.036   0.136 -0.4088 -0.4680 -0.7398
  366SOL     ow 1461   2.155   1.674   4.533  0.8255  0.2159 -0.3264
  366SOL     hw 1462   2.094   1.635   4.596  0.0846  0.6666 -0.7568
  366SOL     hw 1463   2.204   1.738   4.585  2.1381 -1.3251  0.4155
  366SOL     vw 1464   2.153   1.678   4.548  0.9009  0.0720 -0.2854
  367SOL     ow 1465   2.056   0.480   1.771  0.2877 -0.5295 -0.1400
  367SOL     hw 1466   2.114   0.477   1.847 -0.9287 -3.5077  0.8166
  367SOL     hw 1467   1.971   0.507   1.807 -0.4506 -2.5421 -0.2251
  367SOL     vw 1468   2.052   0.483   1.786  0.0297 -1.1879 -0.0250
  368SOL     ow 1469   0.649   1.205   1.571 -0.3240 -0.1764 -0.3806
  368SOL     hw 1470   0.691   1.175   1.651 -1.0845  1.1937  0.5711
  368SOL     hw 1471   0.556   1.209   1.592 -0.4391  1.1387 -0.9860
  368SOL     vw 1472   0.642   1.202   1.584 -0.4395  0.1777 -0.3349
  369SOL     ow 1473   2.429   1.316   5.731 -0.6725  0.2209 -0.4504
  369SOL     hw 1474   2.518   1.291   5.707 -0.4224 -0.4874  1.0637
  369SOL     hw 1475   2.373   1.250   5.690 -0.5031  0.6141 -1.3273
  369SOL     vw 1476   2.433   1.304   5.722 -0.6171  0.1794 -0.3664
  370SOL     ow 1477   1.549   0.362   6.803 -0.3792 -0.1656 -0.4065
  370SOL     hw 1478   1.606   0.291   6.834  1.7256  2.4852  2.4337
  370SOL     hw 1479   1.476   0.363   6.864 -0.1609  0.3417 -0.1437
  370SOL     vw 1480   1.547   0.353   6.815 -0.0727  0.2510  0.0029
  371SOL     ow 1481   1.745   0.393   4.560  0.5530  0.2140 -0.4287
  371SOL     hw 1482   1.777   0.335   4.629  0.2365  0.2573 -0.2451
  371SOL     hw 1483   1.823   0.413   4.507  0.7694  0.0788 -0.1615
  371SOL     vw 1484   1.760   0.388   4.562  0.5398  0.2019 -0.3693
  372SOL     ow 1485   0.750   2.226   5.799  0.5287  0.0744 -0.6930
  372SOL     hw 1486   0.810   2.176   5.854 -0.3830 -1.1415 -0.7608
  372SOL     hw 1487   0.747   2.313   5.838  1.1267 -0.3060  0.2236
  372SOL     vw 1488   0.758   2.231   5.811  0.4873 -0.1364 -0.5810
  373SOL     ow 1489   1.036   0.012   1.339 -1.1418  0.3378  0.1684
  373SOL     hw 1490   1.069  -0.009   1.251 -0.5539  1.9109 -0.0148
  373SOL     hw 1491   0.980   0.089   1.326 -2.7906 -0.6785  0.8853
  373SOL     vw 1492   1.033   0.019   1.325 -1.2819  0.4112  0.2388
  374SOL     ow 1493   1.128   1.729   0.587  0.0214 -0.0377 -0.3475
  374SOL     hw 1494   1.050   1.781   0.571 -0.3531 -0.0017  1.4341
  374SOL     hw 1495   1.109   1.644   0.548 -0.7938  0.0553 -0.1634
  374SOL     vw 1496   1.115   1.725   0.580 -0.1355 -0.0207 -0.0881
  375SOL     ow 1497   0.453   1.835   0.574  0.5981  0.4942  0.1419
  375SOL     hw 1498   0.469   1.755   0.625 -0.1986  0.5664  0.5284
  375SOL     hw 1499   0.498   1.904   0.623 -1.0215  0.7444  1.3746
  375SOL     vw 1500   0.461   1.834   0.587  0.2793  0.5368  0.3555
  376SOL     ow 1501   0.317   1.393   3.734  0.0154 -0.1412 -0.5700
  376SOL     hw 1502   0.383   1.392   3.803  0.3332 -1.0450 -0.8686
  376SOL     hw 1503   0.236   1.366   3.779  0.3186 -1.1952 -0.6202
  376SOL     vw 1504   0.315   1.389   3.749  0.0973 -0.3995 -0.6158
  377SOL     ow 1505   1.516   2.167   6.491 -0.1218  0.5635  0.9910
  377SOL     hw 1506   1.525   2.072   6.491 -0.8424  0.4642 -0.6248
  377SOL     hw 1507   1.424   2.183   6.470  0.6112  1.5719 -1.9591
  377SOL     vw 1508   1.505   2.157   6.488 -0.1201  0.6834  0.3886
  378SOL     ow 1509   2.210   2.362   4.440 -0.5499 -0.1658  0.0402
  378SOL     hw 1510   2.263   2.337   4.364 -1.9718  1.1570 -1.4638
  378SOL     hw 1511   2.248   2.445   4.470 -3.1401  2.2429 -2.6990
  378SOL     vw 1512   2.222   2.370   4.434 -1.0791  0.3265 -0.5195
  379SOL     ow 1513   0.712   1.633   0.702 -0.6122 -0.2320 -0.0096
  379SOL     hw 1514   0.761   1.580   0.765 -0.9949 -0.9174 -0.2776
  379SOL     hw 1515   0.622   1.629   0.732 -0.6829  0.0416 -0.1847
  379SOL     vw 1516   0.707   1.625   0.714 -0.6720 -0.2863 -0.0680
  380SOL     ow 1517   2.443   1.876   4.770 -0.0114 -0.5412 -0.5454
  380SOL     hw 1518   2.351   1.901   4.763  0.6368  2.3894  0.0164
  380SOL     hw 1519   2.445   1.811   4.839 -1.6133 -0.3298 -0.2617
  380SOL     vw 1520   2.432   1.871   4.778 -0.1372 -0.1267 -0.4339
  381SOL     ow 1521   2.290   0.153   1.555  1.2649 -0.3162 -0.3425
  381SOL     hw 1522   2.251   0.144   1.467 -0.2873 -0.4679  0.3300
  381SOL     hw 1523   2.271   0.070   1.598 -1.3190  1.0386  1.3710
  381SOL     vw 1524   2.282   0.141   1.549  0.7193 -0.1574 -0.0278
  382SOL     ow 1525   1.959   0.464   4.421 -0.2008  0.2381 -0.3870
  382SOL     hw 1526   1.950   0.543   4.474  1.1576  1.3665 -1.7513
  382SOL     hw 1527   1.951   0.494   4.330  1.2260 -1.0302 -0.9853
  382SOL     vw 1528   1.957   0.478   4.416  0.1667  0.2197 -0.6461
  383SOL     ow 1529   0.253   2.466   0.865  0.6575  0.2324  0.2192
  383SOL     hw 1530   0.158   2.456   0.855  0.6247  1.8464 -1.9544
  383SOL     hw 1531   0.266   2.484   0.958 -1.0499 -1.0033  0.7360
  383SOL     vw 1532   0.242   2.467   0.876  0.4279  0.2823  0.0006
  384SOL     ow 1533   0.809   0.336   3.090  0.2846  0.6676  0.0358
  384SOL     hw 1534   0.841   0.408   3.035  1.1990  1.5719  1.6791
  384SOL     hw 1535   0.824   0.366   3.180  0.5674 -1.5389  0.7692
  384SOL     vw 1536   0.815   0.350   3.095  0.4425  0.4958  0.3494
  385SOL     ow 1537   1.998   0.612   1.491 -0.1010 -0.4708  0.1053
  385SOL     hw 1538   1.961   0.580   1.409 -0.0870  0.2278 -0.1823
  385SOL     hw 1539   2.004   0.707   1.479 -1.0009 -0.2385  1.2832
  385SOL     vw 1540   1.994   0.621   1.478 -0.2179 -0.3479  0.2228
  386SOL     ow 1541   1.992   0.492   4.805 -0.7248 -0.6183  0.4087
  386SOL     hw 1542   1.945   0.564   4.846  1.7141  1.2624  0.1523
  386SOL     hw 1543   1.985   0.509   4.711  0.9363  0.1146  0.3762
  386SOL     vw 1544   1.985   0.504   4.798 -0.1838 -0.2735  0.3705
  387SOL     ow 1545   1.080   0.001   6.333 -0.4089 -0.5154  0.1356
  387SOL     hw 1546   1.006   0.006   6.272 -0.5543 -4.6170 -0.2662
  387SOL     hw 1547   1.041  -0.025   6.416  0.4948 -3.7392 -0.3208
  387SOL     vw 1548   1.065  -0.001   6.336 -0.3088 -1.4819  0.0222
  388SOL     ow 1549   0.929   0.634   2.191  0.2033 -0.3388 -0.6510
  388SOL     hw 1550   0.928   0.582   2.271 -0.5513  0.8995  0.1758
  388SOL     hw 1551   0.941   0.570   2.121  1.2563 -1.4105  0.4575
  388SOL     vw 1552   0.931   0.618   2.192  0.2427 -0.3169 -0.3957
  389SOL     ow 1553   1.355   0.543   5.319 -0.7255  0.2974 -0.6926
  389SOL     hw 1554   1.279   0.540   5.261 -0.7769 -2.4213 -0.5879
  389SOL     hw 1555   1.317   0.551   5.407 -0.8677 -0.2569 -0.7007
  389SOL     vw 1556   1.340   0.544   5.323 -0.7511 -0.1344 -0.6800
  390SOL     ow 1557   0.953   1.642   0.330 -0.5508  0.1766 -0.0543
  390SOL     hw 1558   0.874   1.601   0.295  0.5782 -1.4639 -0.8500
  390SOL     hw 1559   1.025   1.600   0.282  0.8450  1.0666  1.1614
  390SOL     vw 1560   0.952   1.631   0.319 -0.2177  0.0776  0.0011
  391SOL     ow 1561   2.510   1.956   2.244  0.0965  0.2626  0.1805
  391SOL     hw 1562   2.571   1.898   2.290  0.7328  1.1240  0.4530
  391SOL     hw 1563   2.490   2.024   2.308 -0.4421  0.4827 -0.2176
  391SOL     vw 1564   2.515   1.957   2.259  0.1093  0.4053  0.1640
  392SOL     ow 1565   1.837   0.293   1.883  0.4578 -0.0179  0.3153
  392SOL     hw 1566   1.931   0.293   1.902  0.7427 -0.7057 -0.9549
  392SOL     hw 1567   1.828   0.351   1.807 -0.2006  0.3120  0.6364
  392SOL     vw 1568   1.848   0.301   1.876  0.4085 -0.0651  0.1901
  393SOL     ow 1569   0.730   1.946   6.127  0.5509 -1.0374 -0.5850
  393SOL     hw 1570   0.759   1.856   6.138  1.2248 -0.7221  0.4120
  393SOL     hw 1571   0.789   1.997   6.183 -2.2990 -0.4232  2.1536
  393SOL     vw 1572   0.741   1.941   6.136  0.2638 -0.9148 -0.0925
  394SOL     ow 1573   1.007   1.396   3.476 -0.2170 -0.1889  0.2462
  394SOL     hw 1574   1.087   1.413   3.527 -1.1121  2.2203  0.9655
  394SOL     hw 1575   0.949   1.350   3.537  0.4057 -1.5074 -0.1256
  394SOL     vw 1576   1.010   1.392   3.491 -0.2530 -0.0450  0.2919
  395SOL     ow 1577   0.793   2.013   0.353 -0.0089 -0.3804  0.3723
  395SOL     hw 1578   0.866   2.015   0.291 -0.5750 -0.7015 -0.3225
  395SOL     hw 1579   0.832   1.982   0.435  0.7417  0.0133  0.1707
  395SOL     vw 1580   0.808   2.009   0.355  0.0154 -0.3709  0.2540
  396SOL     ow 1581   2.216   2.175   2.311 -0.0776  0.2360  0.2517
  396SOL     hw 1582   2.231   2.249   2.370  2.3574 -1.3987  1.8334
  396SOL     hw 1583   2.174   2.109   2.366  1.7241 -1.1151  0.0881
  396SOL     vw 1584   2.212   2.176   2.326  0.4815 -0.1581  0.4387
  397SOL     ow 1585   1.706   2.318   0.177 -0.2075 -0.2748  0.1340
  397SOL     hw 1586   1.689   2.238   0.128  0.1998 -1.2974  1.6035
  397SOL     hw 1587   1.793   2.346   0.148  0.2553 -1.1631  0.6610
  397SOL     vw 1588   1.715   2.311   0.167 -0.0929 -0.5268  0.3975
  398SOL     ow 1589   0.424   2.208   0.895  0.0600 -0.1249 -0.2072
  398SOL     hw 1590   0.343   2.171   0.929 -0.7243  1.7299  0.0527
  398SOL     hw 1591   0.486   2.203   0.968 -0.2298 -0.3162  0.0236
  398SOL     vw 1592   0.422   2.203   0.909 -0.0817  0.0944 -0.1425
  399SOL     ow 1593   1.664   0.052   1.671 -0.7658 -0.2615  0.1869
  399SOL     hw 1594   1.759   0.042   1.682 -0.7012 -2.4226 -1.5638
  399SOL     hw 1595   1.654   0.128   1.614  0.1290 -1.3111 -1.4605
  399SOL     vw 1596   1.675   0.061   1.665 -0.6393 -0.6851 -0.2614
  400SOL     ow 1597   0.898   0.591   1.431  0.3036  0.3375 -0.2344
  400SOL     hw 1598   0.875   0.634   1.349 -2.2164  0.0365  0.2062
  400SOL     hw 1599   0.947   0.656   1.481  1.3950  0.7032 -1.7239
  400SOL     vw 1600   0.901   0.605   1.427  0.1151  0.3460 -0.3728
  401SOL     ow 1601   1.929   2.085   5.069  0.3175  0.0551 -0.0921
  401SOL     hw 1602   1.904   2.000   5.034  1.3530 -0.4896  0.4494
  401SOL     hw 1603   1.851   2.117   5.113  0.6680 -1.8758  2.0979
  401SOL     vw 1604   1.916   2.078   5.070  0.5003 -0.2716  0.2682
  402SOL     ow 1605   0.292   1.062   4.558  0.1374  0.9712 -0.1960
  402SOL     hw 1606   0.328   1.150   4.549  0.3199  0.7035 -3.1738
  402SOL     hw 1607   0.353   1.006   4.510  0.1632 -0.8661  1.8485
  402SOL     vw 1608   0.304   1.066   4.550  0.1649  0.6934 -0.3192
  403SOL     ow 1609   2.045   0.897   5.043 -0.0752 -0.0500  0.1564
  403SOL     hw 1610   2.061   0.967   5.107 -2.2568 -0.2852  1.0677
  403SOL     hw 1611   2.120   0.901   4.984  0.4060  2.3548  0.8009
  403SOL     vw 1612   2.057   0.907   5.044 -0.2996  0.2363  0.3617
  404SOL     ow 1613   1.544   1.436   6.153  0.1566  0.5459 -0.0380
  404SOL     hw 1614   1.523   1.409   6.242  0.6192  1.7674  0.4730
  404SOL     hw 1615   1.583   1.523   6.164 -2.2044  1.8960 -1.6542
  404SOL     vw 1616   1.546   1.444   6.166 -0.0939  0.8852 -0.1838
  405SOL     ow 1617   1.377   1.598   0.665  0.3485  0.1221  0.5158
  405SOL     hw 1618   1.390   1.571   0.756  0.5913 -2.6380 -0.2428
  405SOL     hw 1619   1.356   1.517   0.619  1.3960  1.2345 -2.1155
  405SOL     vw 1620   1.376   1.584   0.671  0.5187 -0.0952  0.0685
  406SOL     ow 1621   0.783   1.090   1.351  0.3713  0.3146 -0.5078
  406SOL     hw 1622   0.863   1.054   1.313  1.4595  0.1737  1.7690
  406SOL     hw 1623   0.722   1.016   1.354  1.4991 -0.6097  1.2119
  406SOL     vw 1624   0.785   1.076   1.346  0.6636  0.1740  0.0195
  407SOL     ow 1625   2.484   0.093   3.247 -0.3031  0.4658 -0.5897
  407SOL     hw 1626   2.487   0.189   3.244  1.0997  0.4230 -2.4935
  407SOL     hw 1627   2.568   0.067   3.285 -0.3135 -0.0098 -0.8790
  407SOL     vw 1628   2.496   0.102   3.251 -0.1194  0.3974 -0.8790
  408SOL     ow 1629   1.382   0.261   6.993  0.2690  0.4228 -0.4582
  408SOL     hw 1630   1.403   0.343   7.038  0.3947  0.5539 -0.7597
  408SOL     hw 1631   1.292   0.243   7.019  0.2858  0.5860 -0.2826
  408SOL     vw 1632   1.373   0.270   7.003  0.2878  0.4617 -0.4745
  409SOL     ow 1633   2.230  -0.038   3.259  0.5745 -0.4505  0.0885
  409SOL     hw 1634   2.167   0.021   3.301  0.8841 -0.6456  0.8302
  409SOL     hw 1635   2.308   0.016   3.246  0.2868 -0.2193 -0.7970
  409SOL     vw 1636   2.232  -0.023   3.263  0.5772 -0.4457  0.0696
  410SOL     ow 1637   1.435   0.384   4.584  0.2202 -0.1558 -0.2182
  410SOL     hw 1638   1.366   0.438   4.546 -1.7737 -2.2192  0.2761
  410SOL     hw 1639   1.513   0.405   4.532 -1.4974 -0.1039 -2.9631
  410SOL     vw 1640   1.437   0.394   4.572 -0.2695 -0.4212 -0.5152
  411SOL     ow 1641   0.532   2.073   0.697  0.2304 -0.3492  0.4510
  411SOL     hw 1642   0.620   2.106   0.718  0.5143 -0.9423  0.2091
  411SOL     hw 1643   0.476   2.112   0.764  0.1220  2.5525 -1.1774
  411SOL     vw 1644   0.536   2.082   0.709  0.2536 -0.0447  0.2042
  412SOL     ow 1645   1.944   1.543   2.380 -0.3899  1.3000  0.5119
  412SOL     hw 1646   1.921   1.477   2.446 -0.1261  0.5835 -0.0954
  412SOL     hw 1647   1.863   1.555   2.330  0.1772 -0.3778 -0.9033
  412SOL     vw 1648   1.930   1.536   2.382 -0.2803  0.9841  0.2450
  413SOL     ow 1649   0.206   2.011   0.232  0.4781 -0.1778  0.4988
  413SOL     hw 1650   0.130   2.042   0.282 -0.4842 -0.8926 -0.4617
  413SOL     hw 1651   0.197   2.054   0.147  2.3249  1.3476  1.0175
  413SOL     vw 1652   0.195   2.021   0.227  0.5948 -0.0708  0.4405
  414SOL     ow 1653   0.846   1.797   1.508 -0.1710 -0.0735  0.3195
  414SOL     hw 1654   0.819   1.811   1.418  0.9116 -0.4658 -0.0759
  414SOL     hw 1655   0.777   1.742   1.546 -1.4081  1.3086  0.1964
  414SOL     vw 1656   0.833   1.792   1.501 -0.1914  0.0572  0.2510
  415SOL     ow 1657   0.706   0.600   0.482  0.4221  0.1972 -0.2660
  415SOL     hw 1658   0.723   0.573   0.391 -2.9560 -0.6584 -0.7664
  415SOL     hw 1659   0.621   0.561   0.503  0.2545  1.8920  2.6724
  415SOL     vw 1660   0.697   0.591   0.473 -0.0457  0.3079  0.0557
  416SOL     ow 1661   0.709   1.862   5.250  0.1836 -0.1831  0.4815
  416SOL     hw 1662   0.802   1.877   5.233 -0.2569 -0.1277 -2.5280
  416SOL     hw 1663   0.675   1.948   5.273  0.6035  0.1181 -0.0042
  416SOL     vw 1664   0.717   1.875   5.251  0.1809 -0.1361  0.0205
  417SOL     ow 1665   1.519   0.399   1.195  0.5867 -1.0173 -0.1594
  417SOL     hw 1666   1.548   0.326   1.140  1.7755 -0.3795 -0.4240
  417SOL     hw 1667   1.570   0.474   1.164  0.4724 -0.3987  1.0689
  417SOL     vw 1668   1.530   0.399   1.184  0.7285 -0.8515 -0.0322
  418SOL     ow 1669   1.944   1.534   0.706 -0.0815 -0.0441  0.3367
  418SOL     hw 1670   1.865   1.536   0.652 -0.2144  2.9478  0.4775
  418SOL     hw 1671   2.005   1.478   0.658 -0.9414  0.7831 -1.8125
  418SOL     vw 1672   1.942   1.527   0.693 -0.2126  0.4598  0.0717
  419SOL     ow 1673   1.086   0.404   1.581 -0.0917 -0.9060  0.2520
  419SOL     hw 1674   1.101   0.439   1.669  1.5691  1.7062 -0.9203
  419SOL     hw 1675   1.149   0.333   1.572 -0.6350 -1.5415  1.3180
  419SOL     vw 1676   1.097   0.400   1.591  0.0558 -0.6452  0.2380
  420SOL     ow 1677   2.211   0.114   2.512 -0.1797 -0.3807 -0.0590
  420SOL     hw 1678   2.211   0.020   2.496  0.5674 -0.2457 -0.9093
  420SOL     hw 1679   2.136   0.128   2.570 -2.2318 -1.0612 -2.4140
  420SOL     vw 1680   2.201   0.104   2.518 -0.3518 -0.4527 -0.4820
  421SOL     ow 1681   1.767   0.360   0.366  0.1535  0.0206 -0.5935
  421SOL     hw 1682   1.744   0.366   0.459  0.6150  0.3593 -0.5005
  421SOL     hw 1683   1.862   0.353   0.365  0.1355 -0.1628 -1.0356
  421SOL     vw 1684   1.776   0.360   0.378  0.2120  0.0411 -0.6395
  422SOL     ow 1685   1.506   0.277   6.054 -0.3461 -0.0162 -0.1672
  422SOL     hw 1686   1.456   0.264   5.973  2.8908 -0.8413 -2.2474
  422SOL     hw 1687   1.506   0.372   6.067 -2.6484  0.0014  0.1690
  422SOL     vw 1688   1.500   0.288   6.045 -0.2228 -0.1227 -0.3974
  423SOL     ow 1689   0.133   1.361   0.334  0.2279  0.2257  0.8019
  423SOL     hw 1690   0.097   1.404   0.256  2.0486  3.3595  1.5276
  423SOL     hw 1691   0.177   1.283   0.300  1.0585  1.5560 -1.3775
  423SOL     vw 1692   0.134   1.356   0.319  0.5777  0.8148  0.6101
  424SOL     ow 1693   1.733   0.913   5.087  0.1945  0.7643 -0.1156
  424SOL     hw 1694   1.749   0.978   5.156 -0.2969 -1.5677  2.3655
  424SOL     hw 1695   1.642   0.928   5.062 -0.2733  0.3519  1.2576
  424SOL     vw 1696   1.723   0.924   5.093  0.0679  0.4022  0.3929
  425SOL     ow 1697   2.043   1.150   1.549  0.2895  0.0075 -0.1280
  425SOL     hw 1698   2.001   1.171   1.466 -1.2653  0.1231  0.6409
  425SOL     hw 1699   1.986   1.084   1.589  1.5467 -0.7961  0.4131
  425SOL     vw 1700   2.030   1.144   1.544  0.2503 -0.0833  0.0448
  426SOL     ow 1701   0.756   2.456   5.977  0.1003  0.4473 -0.5856
  426SOL     hw 1702   0.845   2.487   5.957  0.2182  0.1869 -0.4702
  426SOL     hw 1703   0.765   2.412   6.062  0.2992 -1.4455 -1.5301
  426SOL     vw 1704   0.769   2.454   5.986  0.1421  0.1633 -0.6948
  427SOL     ow 1705   0.863   1.724   6.116 -0.4648  0.4105  0.6164
  427SOL     hw 1706   0.835   1.697   6.204 -0.4377 -2.9609 -0.2769
  427SOL     hw 1707   0.957   1.741   6.126 -0.5582  0.5504  1.3496
  427SOL     vw 1708   0.872   1.722   6.129 -0.4736 -0.0159  0.5953
  428SOL     ow 1709   1.609   0.276   5.590  0.8620 -0.1568  0.0443
  428SOL     hw 1710   1.565   0.290   5.506  0.5105  0.1845  0.2782
  428SOL     hw 1711   1.538   0.249   5.649  1.1380 -0.5727  0.1833
  428SOL     vw 1712   1.594   0.274   5.587  0.8520 -0.1666  0.0937
  429SOL     ow 1713   2.138   1.310   1.825 -0.8216 -0.6340 -0.0483
  429SOL     hw 1714   2.213   1.330   1.882  0.7258  1.6062 -2.5977
  429SOL     hw 1715   2.062   1.313   1.883  0.4441  3.1285  1.7498
  429SOL     vw 1716   2.138   1.313   1.840 -0.4503  0.1580 -0.1475
  430SOL     ow 1717   2.197   0.122   1.312 -0.1614 -0.0442 -0.7136
  430SOL     hw 1718   2.174   0.191   1.250 -0.3760 -0.0882 -0.6848
  430SOL     hw 1719   2.166   0.041   1.271 -2.4734  0.1567  0.4890
  430SOL     vw 1720   2.190   0.120   1.298 -0.4948 -0.0235 -0.5512
  431SOL     ow 1721   2.303   1.187   5.529 -0.4033  0.2608  0.0449
  431SOL     hw 1722   2.377   1.154   5.478 -0.9385 -0.9304  0.0048
  431SOL     hw 1723   2.291   1.276   5.498 -0.3291 -0.2312 -1.5058
  431SOL     vw 1724   2.311   1.194   5.518 -0.4642  0.0387 -0.1647
  432SOL     ow 1725   0.662   0.202   5.857 -0.2361  0.3361 -0.2813
  432SOL     hw 1726   0.699   0.158   5.781  0.5141  0.8897 -0.2507
  432SOL     hw 1727   0.638   0.289   5.825 -0.5095  0.3546 -0.0341
  432SOL     vw 1728   0.663   0.208   5.843 -0.1732  0.4115 -0.2446
  433poe    c31 1729   0.868   1.142   4.189  0.0357  0.3013 -0.3382
  433poe     o2 1730   1.001   1.155   4.235  0.0757 -0.4569 -0.2351
  433poe    c23 1731   1.074   1.039   4.202 -0.0177 -0.6924  0.3732
  433poe    c23 1732   1.140   1.012   4.338  0.3251 -0.0318  0.3387
  433poe     o2 1733   1.218   1.125   4.370  0.4696 -0.0400  0.0165
  433poe    c23 1734   1.253   1.122   4.506 -0.7655  0.5937  0.3650
  433poe    c23 1735   1.322   1.243   4.572  0.7599 -0.0059 -0.0945
  433poe     o2 1736   1.248   1.361   4.547 -0.0248 -0.5115 -0.1883
  433poe    c23 1737   1.249   1.452   4.655 -0.1144 -0.6142 -0.0999
  433poe    c23 1738   1.120   1.536   4.655  0.2132 -0.1007  0.5193
  433poe     o2 1739   1.091   1.564   4.520  0.4289  0.1850  0.5318
  433poe    c31 1740   0.983   1.655   4.512  0.0493 -0.2971  0.1611
  434poe    c31 1741   0.033   0.999   5.368  0.5628  0.1225  0.4604
  434poe     o2 1742  -0.015   1.130   5.354  0.1148 -0.1441 -0.5915
  434poe    c23 1743  -0.026   1.184   5.224  0.0420  0.3004 -0.4044
  434poe    c23 1744  -0.120   1.305   5.213 -0.2280  0.1610  0.3315
  434poe     o2 1745  -0.259   1.281   5.215 -0.2147  0.1070  1.0728
  434poe    c23 1746  -0.332   1.401   5.230 -0.1582  0.2793  0.0540
  434poe    c23 1747  -0.479   1.394   5.184 -0.0888 -0.6854 -0.0478
  434poe     o2 1748  -0.561   1.308   5.260  0.2011 -0.6528  0.3005
  434poe    c23 1749  -0.698   1.322   5.232  0.3865  0.0684 -0.2929
  434poe    c23 1750  -0.779   1.238   5.333 -0.0291  0.4726 -0.2883
  434poe     o2 1751  -0.786   1.100   5.309  0.2022  0.2953  0.6432
  434poe    c31 1752  -0.780   1.021   5.426  0.9943 -0.6337 -0.0104
  435poe    c31 1753   2.352   0.371   2.952  0.6502 -0.9736 -0.1809
  435poe     o2 1754   2.437   0.420   2.851 -0.1393  0.6795 -0.0767
  435poe    c23 1755   2.502   0.538   2.894  0.3387  0.3670  0.0685
  435poe    c23 1756   2.564   0.595   2.765  0.1204 -0.0912 -0.2424
  435poe     o2 1757   2.470   0.602   2.659  0.2077 -0.1312 -0.3224
  435poe    c23 1758   2.511   0.694   2.561 -0.0439  0.2187 -0.1010
  435poe    c23 1759   2.426   0.689   2.433  0.1710  0.1400 -0.2425
  435poe     o2 1760   2.287   0.702   2.458  0.1015  0.4777 -0.7711
  435poe    c23 1761   2.241   0.828   2.502 -0.6273 -0.1181  0.2273
  435poe    c23 1762   2.089   0.818   2.523 -0.7120  0.1425 -0.2484
  435poe     o2 1763   2.049   0.710   2.605  0.2887  0.1520  0.2725
  435poe    c31 1764   1.908   0.708   2.593  0.3589  0.0793 -0.6943
  436poe    c31 1765   1.022   1.409   6.133  0.4424 -0.6763  0.3411
  436poe     o2 1766   1.030   1.414   6.274  0.0859  0.1879  0.3347
  436poe    c23 1767   0.986   1.298   6.340 -0.1180  0.0989  0.0443
  436poe    c23 1768   0.834   1.299   6.363 -0.2289  0.1799 -0.6741
  436poe     o2 1769   0.780   1.373   6.470  0.3646  0.1979 -0.3809
  436poe    c23 1770   0.779   1.300   6.591 -0.2223  0.1974 -0.3815
  436poe    c23 1771   0.693   1.365   6.701  0.2836 -0.6645  0.5349
  436poe     o2 1772   0.766   1.471   6.759 -0.6833  0.2310  0.1426
  436poe    c23 1773   0.729   1.468   6.895  0.5025 -0.0561  0.4722
  436poe    c23 1774   0.776   1.589   6.979  0.7457 -0.0401  0.3131
  436poe     o2 1775   0.751   1.710   6.912 -0.3606 -0.1590  0.4928
  436poe    c31 1776   0.747   1.825   6.995 -0.8261  0.6750 -0.6561
  437poe    c31 1777   0.582   0.615   3.032  0.2076 -1.0767 -0.8251
  437poe     o2 1778   0.452   0.566   3.009 -0.2794 -0.1211 -0.1959
  437poe    c23 1779   0.394   0.518   3.129  0.5236  0.5644  0.4743
  437poe    c23 1780   0.284   0.415   3.098  0.2391  0.9258  0.2848
  437poe     o2 1781   0.331   0.312   3.014 -0.3017  0.5490  0.4380
  437poe    c23 1782   0.246   0.200   3.017  0.0412  0.2598 -0.3858
  437poe    c23 1783   0.288   0.081   2.928  0.5134 -0.1772  0.4103
  437poe     o2 1784   0.397   0.001   2.968  0.5724 -0.5802 -0.5344
  437poe    c23 1785   0.353  -0.128   3.004 -0.1537 -0.0382  0.5690
  437poe    c23 1786   0.467  -0.221   3.048  0.4888  0.3433 -0.2732
  437poe     o2 1787   0.529  -0.282   2.937 -0.3741  0.0813 -0.6176
  437poe    c31 1788   0.661  -0.326   2.963 -0.2484  0.7045 -0.1981
  438poe    c31 1789   0.195   0.870   2.925 -0.3309 -0.9937 -0.1551
  438poe     o2 1790   0.071   0.919   2.879  0.1557  0.6147  0.1778
  438poe    c23 1791   0.088   1.015   2.778  0.3620  0.2410 -0.1461
  438poe    c23 1792  -0.051   1.061   2.728  0.3835  0.4772  0.0081
  438poe     o2 1793  -0.117   1.085   2.850 -0.0476 -0.4302 -0.0365
  438poe    c23 1794  -0.245   1.141   2.828  0.2748  0.3132 -0.0673
  438poe    c23 1795  -0.300   1.186   2.965 -0.5083  0.0276 -0.2845
  438poe     o2 1796  -0.292   1.091   3.068  0.2846  0.3951 -0.0016
  438poe    c23 1797  -0.320   1.134   3.199  0.2768 -0.8317  0.4143
  438poe    c23 1798  -0.463   1.098   3.241 -0.2690  0.8064  0.0332
  438poe     o2 1799  -0.496   1.086   3.377  0.6405 -0.6498  0.1473
  438poe    c31 1800  -0.634   1.089   3.405  0.6317  0.2764  0.0211
  439poe    c31 1801   1.730   0.139   6.926 -0.6527  0.8407  0.5186
  439poe     o2 1802   1.799   0.211   6.827 -0.2316  0.2683  0.3893
  439poe    c23 1803   1.874   0.321   6.876  0.0328  0.4030 -0.3034
  439poe    c23 1804   1.984   0.363   6.776  0.4816  0.1705  0.0909
  439poe     o2 1805   2.075   0.256   6.757 -0.2323 -0.3512 -0.4646
  439poe    c23 1806   2.171   0.305   6.666 -0.5800  0.6070 -0.3347
  439poe    c23 1807   2.262   0.191   6.618 -0.1829  0.6855  0.2211
  439poe     o2 1808   2.201   0.095   6.535  0.2439  0.3527  0.2833
  439poe    c23 1809   2.299   0.008   6.484 -0.0864 -0.0543  0.3414
  439poe    c23 1810   2.249  -0.120   6.413 -0.8829  0.6058 -0.3166
  439poe     o2 1811   2.168  -0.092   6.301 -0.6692  0.2598 -0.5581
  439poe    c31 1812   2.091  -0.205   6.264 -0.0899 -0.2282 -0.3042
  440poe    c31 1813   2.354   1.290   1.523  0.6463  0.4151  0.0855
  440poe     o2 1814   2.373   1.236   1.651 -0.0932  0.3606  0.1753
  440poe    c23 1815   2.506   1.234   1.698  0.1812 -0.0128 -0.6036
  440poe    c23 1816   2.579   1.103   1.662  0.3367 -0.2505  0.5352
  440poe     o2 1817   2.504   0.991   1.704 -0.0716 -0.0757  0.2701
  440poe    c23 1818   2.553   0.879   1.634  0.2932  0.1772  0.1161
  440poe    c23 1819   2.563   0.745   1.710  0.2536  0.0630 -0.0806
  440poe     o2 1820   2.449   0.663   1.724  0.4002 -0.0804  0.2882
  440poe    c23 1821   2.489   0.579   1.830  0.1161 -0.4494  0.1034
  440poe    c23 1822   2.381   0.471   1.848 -0.1213 -0.2937 -0.3600
  440poe     o2 1823   2.269   0.511   1.924  0.2795  0.2530 -0.0523
  440poe    c31 1824   2.286   0.510   2.064  0.0316  0.3814 -0.0218
  441poe    c31 1825   0.397   1.131   6.187 -0.3088 -0.6308  0.1614
  441poe     o2 1826   0.260   1.150   6.162 -0.1774 -0.8911 -0.7942
  441poe    c23 1827   0.234   1.164   6.024  0.1002 -0.2792 -0.7873
  441poe    c23 1828   0.103   1.241   5.997  0.2804  0.3593  0.1210
  441poe     o2 1829   0.017   1.192   6.098  0.2164 -0.0254 -0.1172
  441poe    c23 1830  -0.121   1.217   6.085  0.1447 -0.4449 -0.1664
  441poe    c23 1831  -0.209   1.148   6.190  0.3718  0.0109  0.3302
  441poe     o2 1832  -0.207   1.217   6.312  0.0026  0.0976  0.2882
  441poe    c23 1833  -0.268   1.138   6.412 -0.2089  0.3467  0.3571
  441poe    c23 1834  -0.419   1.163   6.434 -0.1768 -0.1433  1.1489
  441poe     o2 1835  -0.496   1.091   6.340  0.3223  0.0482  0.5872
  441poe    c31 1836  -0.631   1.128   6.355  0.1056 -0.4111 -0.1865
  442poe    c31 1837   2.174   1.886   2.767 -0.8079  0.2407  0.6103
  442poe     o2 1838   2.142   1.975   2.663  0.1829  0.2289  0.2815
  442poe    c23 1839   2.016   1.937   2.612  0.4515 -0.1827 -0.0831
  442poe    c23 1840   1.925   2.025   2.524  0.2691 -0.0921  0.1938
  442poe     o2 1841   1.975   2.058   2.396  0.1071 -0.0446  0.1425
  442poe    c23 1842   1.884   2.105   2.299  0.5039  0.0483 -0.1840
  442poe    c23 1843   1.777   1.999   2.267  0.3663  0.3671 -0.7925
  442poe     o2 1844   1.833   1.892   2.195  0.1322  0.0996 -0.5748
  442poe    c23 1845   1.740   1.801   2.140 -0.2173 -0.1746  0.4399
  442poe    c23 1846   1.646   1.703   2.212 -0.6259 -0.0372  0.1031
  442poe     o2 1847   1.701   1.601   2.293 -0.5818  0.3343  0.5415
  442poe    c31 1848   1.599   1.536   2.366 -0.6473 -0.0110  0.1454
  443poe    c31 1849   1.956   0.960   0.451 -0.1143 -0.0750 -0.5249
  443poe     o2 1850   2.026   0.849   0.503 -0.0048  0.1308 -0.2329
  443poe    c23 1851   1.929   0.791   0.586  0.6165 -0.1224  0.3234
  443poe    c23 1852   1.982   0.692   0.692  0.5024  0.0411  0.5354
  443poe     o2 1853   2.030   0.571   0.637  0.1498  0.0605  0.1716
  443poe    c23 1854   2.075   0.477   0.732 -0.5735 -0.0246  0.4304
  443poe    c23 1855   2.167   0.359   0.694 -0.2599  0.1610  0.6135
  443poe     o2 1856   2.102   0.255   0.625  0.2183  0.4239 -0.2357
  443poe    c23 1857   2.193   0.176   0.551  0.0000  0.2916 -0.3652
  443poe    c23 1858   2.102   0.112   0.445  0.1520 -0.1623 -0.2239
  443poe     o2 1859   2.051   0.208   0.355  0.0132 -0.0579 -0.0315
  443poe    c31 1860   2.021   0.162   0.226  0.3103  0.8796 -0.4430
  444poe    c31 1861   0.839   2.293   6.292 -0.8278 -0.3027  0.5128
  444poe     o2 1862   0.724   2.338   6.224 -0.0502  0.1671 -0.5161
  444poe    c23 1863   0.627   2.236   6.228  0.2427 -0.0806  0.6640
  444poe    c23 1864   0.497   2.256   6.149  0.4419  0.1076  0.3835
  444poe     o2 1865   0.397   2.338   6.206 -0.4194 -0.2108 -0.6428
  444poe    c23 1866   0.344   2.293   6.328  0.2901  0.6085 -0.0213
  444poe    c23 1867   0.217   2.376   6.356  0.2034  0.2629  0.6566
  444poe     o2 1868   0.251   2.512   6.369  0.5897  0.2472 -0.0849
  444poe    c23 1869   0.296   2.558   6.495 -0.4231  0.2649  0.2816
  444poe    c23 1870   0.440   2.608   6.474 -0.4686  0.3954  0.2779
  444poe     o2 1871   0.445   2.733   6.410 -0.1361  0.4334  0.3753
  444poe    c31 1872   0.567   2.803   6.427  0.1883 -0.0239 -0.0355
  445poe    c31 1873   1.440   0.621   2.227 -0.4679 -0.1724 -0.8502
  445poe     o2 1874   1.400   0.728   2.144 -0.2584  0.4010 -0.2245
  445poe    c23 1875   1.344   0.695   2.019  0.6128  0.6279 -0.6800
  445poe    c23 1876   1.328   0.822   1.933 -0.2135  0.7748 -0.3161
  445poe     o2 1877   1.225   0.910   1.973 -0.4523  0.1805  0.4014
  445poe    c23 1878   1.244   1.047   1.945  0.7422 -0.0539  0.0375
  445poe    c23 1879   1.316   1.129   2.054 -0.0954  0.5917  0.1116
  445poe     o2 1880   1.257   1.113   2.181 -0.3733 -0.1307 -0.1031
  445poe    c23 1881   1.331   1.160   2.291  0.1057 -0.7125 -0.1669
  445poe    c23 1882   1.245   1.154   2.419  0.3487 -0.1900  0.0239
  445poe     o2 1883   1.211   1.023   2.456  0.2103 -0.1897 -0.0998
  445poe    c31 1884   1.108   1.007   2.550 -0.2669 -0.1000 -0.6001
  446poe    c31 1885   0.342   0.301   0.939  0.3735  0.6504  0.2468
  446poe     o2 1886   0.445   0.205   0.927  0.0841  0.2932  0.6287
  446poe    c23 1887   0.497   0.183   1.056  0.0743 -0.8163  0.4516
  446poe    c23 1888   0.504   0.036   1.101  0.3719 -0.7445  0.6439
  446poe     o2 1889   0.377  -0.025   1.105  0.1361 -0.3060  0.0665
  446poe    c23 1890   0.378  -0.138   1.190 -0.4680  0.2455  0.8189
  446poe    c23 1891   0.238  -0.180   1.239 -0.3813 -0.5611  0.3845
  446poe     o2 1892   0.149  -0.223   1.138  0.0130 -0.2131 -0.1178
  446poe    c23 1893   0.010  -0.198   1.150  0.0842  0.2458 -0.2165
  446poe    c23 1894  -0.025  -0.049   1.163  0.2427  0.2481  0.2023
  446poe     o2 1895   0.020   0.031   1.055 -0.1637 -0.0732 -0.2086
  446poe    c31 1896   0.012   0.168   1.085  0.6886 -0.0957  0.1394
  447poe    c31 1897   1.421   0.595   1.477  0.1722 -0.3070  0.1967
  447poe     o2 1898   1.316   0.656   1.548  0.3508  0.2829 -0.0364
  447poe    c23 1899   1.243   0.740   1.462 -0.1715  0.3577  0.4743
  447poe    c23 1900   1.140   0.836   1.525 -0.5487  0.8244 -0.8319
  447poe     o2 1901   1.037   0.769   1.594  0.7418 -0.0700  0.2773
  447poe    c23 1902   0.940   0.852   1.653  0.6356  0.1470 -0.1988
  447poe    c23 1903   0.813   0.781   1.703  0.3773  0.8956  0.2241
  447poe     o2 1904   0.832   0.738   1.835 -0.2677 -0.2744 -0.0506
  447poe    c23 1905   0.732   0.651   1.883 -0.1218  0.0783  0.9148
  447poe    c23 1906   0.773   0.502   1.880  0.2496  0.1847  0.5864
  447poe     o2 1907   0.891   0.491   1.956  0.2519  0.2198  0.5882
  447poe    c31 1908   0.939   0.359   1.935 -0.5140 -0.1207  0.9479
  448poe    c31 1909   1.204   1.616   1.677  0.0733  0.2497 -0.2808
  448poe     o2 1910   1.263   1.494   1.637 -0.6145 -0.2302  0.1474
  448poe    c23 1911   1.354   1.445   1.733  0.1461  0.4778 -0.1967
  448poe    c23 1912   1.429   1.319   1.685 -0.0231  0.4067 -0.2762
  448poe     o2 1913   1.332   1.219   1.663  0.0763  0.3126 -0.2867
  448poe    c23 1914   1.385   1.103   1.604 -0.1470 -0.0452  0.2125
  448poe    c23 1915   1.433   1.117   1.458 -0.3903 -0.3391  0.1027
  448poe     o2 1916   1.553   1.190   1.465  0.2539 -1.3150 -0.5189
  448poe    c23 1917   1.585   1.223   1.332  0.5957 -0.3464 -0.2050
  448poe    c23 1918   1.723   1.288   1.311  0.7689 -0.7496 -0.3162
  448poe     o2 1919   1.740   1.427   1.328  0.2919 -0.7373  0.0727
  448poe    c31 1920   1.733   1.459   1.465 -0.0791 -0.0087 -0.1117
  449poe    c31 1921   0.899   0.144   2.775  0.0379 -0.2187  0.3856
  449poe     o2 1922   0.850   0.263   2.832 -0.3912  0.0604 -0.5380
  449poe    c23 1923   0.919   0.367   2.766  0.0978 -0.1377 -0.3406
  449poe    c23 1924   0.888   0.507   2.822  0.4609 -0.2429  0.1418
  449poe     o2 1925   0.904   0.519   2.961 -0.7693 -0.2474  0.2990
  449poe    c23 1926   0.982   0.626   3.012  0.1405 -0.6590 -0.1975
  449poe    c23 1927   1.124   0.656   2.963  0.0718  0.0799  0.0541
  449poe     o2 1928   1.231   0.578   3.011 -0.1199 -0.3319 -0.1890
  449poe    c23 1929   1.355   0.617   2.956 -0.0879 -0.7084 -0.3911
  449poe    c23 1930   1.407   0.559   2.823  0.1877 -0.0970 -0.5559
  449poe     o2 1931   1.332   0.578   2.706 -0.6566 -0.4847 -0.0882
  449poe    c31 1932   1.423   0.619   2.607  0.2481 -0.3121  0.8017
  450poe    c31 1933   1.183   0.983   6.838  0.5139 -0.2784 -0.0670
  450poe     o2 1934   1.183   0.887   6.941 -0.6817 -0.1961  0.0346
  450poe    c23 1935   1.131   0.922   7.067 -0.0217 -0.4832  0.3939
  450poe    c23 1936   1.200   1.024   7.160 -0.3701  0.0060  0.1214
  450poe     o2 1937   1.309   0.963   7.225 -0.6274 -0.7514 -0.1419
  450poe    c23 1938   1.404   1.055   7.277 -0.8031 -0.5774 -0.1277
  450poe    c23 1939   1.496   0.985   7.379 -0.8374 -0.9268 -0.3336
  450poe     o2 1940   1.430   0.964   7.502 -0.3782 -0.9033 -0.0811
  450poe    c23 1941   1.491   0.864   7.579  0.3832  0.0887  0.6218
  450poe    c23 1942   1.383   0.812   7.675 -0.3779  0.9441  0.2400
  450poe     o2 1943   1.261   0.772   7.617  0.1647 -0.8067  0.2352
  450poe    c31 1944   1.157   0.822   7.699  0.4112  0.5114 -0.2277
  451poe    c31 1945   1.970   0.254   3.441  0.1832  0.2314 -0.3062
  451poe     o2 1946   1.939   0.164   3.545 -0.0884  0.0858 -0.5136
  451poe    c23 1947   2.000   0.193   3.668 -0.0625 -0.2550 -0.4445
  451poe    c23 1948   1.957   0.110   3.791  0.1648  0.5397  0.1809
  451poe     o2 1949   2.043   0.005   3.827 -0.2950 -0.0287 -0.3438
  451poe    c23 1950   1.965  -0.110   3.847  0.0260 -0.1534  0.2268
  451poe    c23 1951   1.862  -0.114   3.962  0.3371  0.6637  0.5322
  451poe     o2 1952   1.939  -0.126   4.080  0.8590 -0.2703  0.1028
  451poe    c23 1953   1.850  -0.170   4.181  0.4937 -0.1635 -0.1726
  451poe    c23 1954   1.860  -0.108   4.322 -0.3255 -0.4078 -0.0042
  451poe     o2 1955   1.818   0.026   4.320 -0.0741 -0.3338 -0.4466
  451poe    c31 1956   1.781   0.077   4.446 -0.4809 -0.4220 -0.5295
  452poe    c31 1957   0.776   1.495   1.229  0.1532 -0.1353  0.4359
  452poe     o2 1958   0.829   1.401   1.320  0.4082 -0.3851  0.0321
  452poe    c23 1959   0.935   1.456   1.396  0.1574 -0.0032  0.1092
  452poe    c23 1960   1.009   1.355   1.486 -0.2074 -0.6324 -0.2867
  452poe     o2 1961   0.928   1.347   1.601 -0.1300  0.2980 -0.1573
  452poe    c23 1962   0.980   1.234   1.668 -0.6743 -0.1325 -0.4546
  452poe    c23 1963   0.915   1.223   1.807  0.3050 -0.7325 -0.0349
  452poe     o2 1964   0.785   1.169   1.790  0.0389 -0.0955 -0.0427
  452poe    c23 1965   0.735   1.178   1.921  0.0949  0.3805 -0.0495
  452poe    c23 1966   0.581   1.174   1.933  0.0981  0.1837 -0.0701
  452poe     o2 1967   0.507   1.287   1.896 -0.8349 -0.3713  0.0690
  452poe    c31 1968   0.376   1.244   1.865 -0.4029 -1.1229 -0.7370
  453poe    c31 1969   0.013   0.845   5.772  0.3320 -0.5503  0.2588
  453poe     o2 1970   0.136   0.860   5.838  0.5159  0.2235 -0.2478
  453poe    c23 1971   0.223   0.784   5.757  0.2708 -0.1856 -0.1327
  453poe    c23 1972   0.369   0.794   5.807  0.2813 -0.0473 -0.1906
  453poe     o2 1973   0.365   0.779   5.947 -0.1436 -0.1619 -0.2114
  453poe    c23 1974   0.494   0.789   6.004 -0.2277 -0.7741  0.1012
  453poe    c23 1975   0.496   0.734   6.147  0.1182 -0.4098  0.2406
  453poe     o2 1976   0.393   0.801   6.216  0.3292  0.5963 -0.4080
  453poe    c23 1977   0.389   0.743   6.345  0.7108  0.3965 -0.4856
  453poe    c23 1978   0.392   0.844   6.461 -0.0643 -0.0907 -0.0354
  453poe     o2 1979   0.287   0.939   6.462  0.2210  0.2319 -0.2100
  453poe    c31 1980   0.322   1.064   6.516  0.9381  0.0477 -0.2418
  454poe    c31 1981   1.294   1.992   1.018  0.0391 -0.2428 -0.1168
  454poe     o2 1982   1.385   1.974   0.912  0.4508 -0.3828  0.2569
  454poe    c23 1983   1.506   2.030   0.958  0.4363  0.4682 -0.6976
  454poe    c23 1984   1.625   1.940   0.995  0.3376  0.5470 -0.1758
  454poe     o2 1985   1.720   1.910   0.894  0.4459 -0.4536  0.2064
  454poe    c23 1986   1.785   2.026   0.847  0.2534 -0.3616  0.1634
  454poe    c23 1987   1.901   1.984   0.756 -0.1533 -0.5516 -0.2669
  454poe     o2 1988   1.864   1.974   0.620  0.0487  0.7960 -0.4338
  454poe    c23 1989   1.941   1.876   0.553 -0.9483 -0.3514  0.0607
  454poe    c23 1990   1.898   1.871   0.405 -0.1611  0.0845 -0.1853
  454poe     o2 1991   1.775   1.804   0.392  0.0647 -0.4526  0.3734
  454poe    c31 1992   1.737   1.788   0.257  0.5191  0.7555  0.0863
  455poe    c31 1993   1.844   1.346   0.175  0.0349  0.0185 -0.0257
  455poe     o2 1994   1.766   1.309   0.286 -0.0433 -0.1913 -0.1493
  455poe    c23 1995   1.646   1.382   0.296  0.0346 -0.1239  0.3096
  455poe    c23 1996   1.560   1.337   0.416 -0.2452  0.2997  0.2725
  455poe     o2 1997   1.630   1.336   0.539  0.0527 -0.1773  0.1014
  455poe    c23 1998   1.568   1.274   0.650  0.0797 -0.4213 -0.0183
  455poe    c23 1999   1.667   1.273   0.767 -0.7312 -0.1441  0.6808
  455poe     o2 2000   1.776   1.185   0.753 -0.1274  0.6186  0.5083
  455poe    c23 2001   1.867   1.192   0.861  0.3356 -0.0438  0.1658
  455poe    c23 2002   1.995   1.107   0.863  0.2111 -0.2331  0.1268
  455poe     o2 2003   2.099   1.146   0.777 -0.1198 -0.0967 -0.2099
  455poe    c31 2004   2.197   1.050   0.745 -0.4810 -0.3453 -0.5862
  456poe    c31 2005   1.431   1.052   5.064 -0.1027 -0.2466  0.1191
  456poe     o2 2006   1.468   0.918   5.043  0.8381  0.0600 -0.2215
  456poe    c23 2007   1.379   0.866   4.947  0.4509  0.4219 -0.0559
  456poe    c23 2008   1.414   0.726   4.893  0.7378  0.0129  1.1588
  456poe     o2 2009   1.423   0.617   4.981  0.3794 -0.5025  0.5615
  456poe    c23 2010   1.328   0.513   4.968 -0.4264  0.2513  0.3053
  456poe    c23 2011   1.176   0.537   4.973 -0.4962 -0.0225 -0.3856
  456poe     o2 2012   1.143   0.562   5.107 -0.1153  0.1740 -0.3261
  456poe    c23 2013   1.014   0.615   5.125  0.1163  0.7941 -0.4718
  456poe    c23 2014   0.988   0.735   5.218  0.3332  0.1175  0.4842
  456poe     o2 2015   1.052   0.841   5.150 -0.7230  0.0955 -0.5882
  456poe    c31 2016   1.017   0.965   5.206 -0.0524  0.2610 -0.5303
  457poe    c31 2017   2.130   2.424   0.854  0.2211  0.1644  0.1180
  457poe     o2 2018   2.164   2.349   0.968 -0.1245 -0.2575 -0.0540
  457poe    c23 2019   2.135   2.212   0.952 -0.4646 -0.1208 -0.6481
  457poe    c23 2020   2.248   2.109   0.933 -0.4164 -0.1818 -0.0686
  457poe     o2 2021   2.217   1.979   0.975 -0.0912  0.1542  1.2443
  457poe    c23 2022   2.329   1.898   0.947 -0.2605  0.1657  0.5252
  457poe    c23 2023   2.293   1.755   0.902  0.4797 -0.1596  0.9432
  457poe     o2 2024   2.236   1.686   1.012 -0.8940 -0.4515  0.0754
  457poe    c23 2025   2.283   1.554   1.023 -1.0062 -0.5404 -0.4962
  457poe    c23 2026   2.235   1.506   1.161  0.1425 -0.1478  0.0434
  457poe     o2 2027   2.095   1.493   1.170  0.1289 -0.3081 -0.3813
  457poe    c31 2028   2.048   1.367   1.129  0.1266 -0.4071 -0.0801
  458poe    c31 2029   0.653   1.898   3.434 -0.3300 -0.2187  0.4739
  458poe     o2 2030   0.767   1.854   3.364 -0.2273 -0.4843  0.8084
  458poe    c23 2031   0.746   1.912   3.237  0.2253 -0.7512  0.6097
  458poe    c23 2032   0.840   1.868   3.123 -0.0588 -0.2339  0.1704
  458poe     o2 2033   0.810   1.737   3.082 -0.2717  0.0878 -0.7278
  458poe    c23 2034   0.864   1.727   2.952 -0.8712 -0.2852 -0.9502
  458poe    c23 2035   0.844   1.588   2.889 -0.4267 -0.7321 -0.1300
  458poe     o2 2036   0.917   1.478   2.939 -0.1354 -0.2527  0.5188
  458poe    c23 2037   0.925   1.368   2.851  0.3852  0.3927 -0.2567
  458poe    c23 2038   1.025   1.275   2.922  0.2711  0.6637  0.2626
  458poe     o2 2039   1.158   1.310   2.887  0.3633  0.1131  0.0481
  458poe    c31 2040   1.262   1.227   2.934 -0.0742 -0.3214  0.2651
  459poe    c31 2041   0.417   0.707   4.010 -0.5332  0.2259 -0.0499
  459poe     o2 2042   0.402   0.628   4.126  0.1950 -0.0863 -0.1606
  459poe    c23 2043   0.338   0.503   4.110 -0.4224  0.1271  0.5662
  459poe    c23 2044   0.290   0.431   4.237 -0.7285 -0.4788  0.1147
  459poe     o2 2045   0.384   0.399   4.338 -0.1195 -0.0992 -0.3201
  459poe    c23 2046   0.463   0.284   4.320 -0.1238 -0.1668  0.0833
  459poe    c23 2047   0.397   0.155   4.373  0.4508 -0.5946 -0.2348
  459poe     o2 2048   0.462   0.033   4.345  0.6980 -0.4703 -0.2017
  459poe    c23 2049   0.403  -0.075   4.413  0.0719 -0.1363 -0.2088
  459poe    c23 2050   0.468  -0.212   4.392 -0.2735 -0.3337 -0.0017
  459poe     o2 2051   0.595  -0.227   4.453 -0.3498  0.3252  0.3218
  459poe    c31 2052   0.645  -0.353   4.416 -0.1633  0.4322  0.2045
  460poe    c31 2053   1.999   0.345   1.097 -0.0247 -0.2902 -0.4125
  460poe     o2 2054   2.137   0.335   1.123  0.0273 -0.0277 -0.5960
  460poe    c23 2055   2.186   0.468   1.116 -0.2523  0.0685 -0.7522
  460poe    c23 2056   2.337   0.482   1.140 -0.2786 -0.2863 -0.3641
  460poe     o2 2057   2.363   0.487   1.279 -0.6949  0.7272 -0.3142
  460poe    c23 2058   2.468   0.567   1.329 -0.1505 -0.1693 -0.0071
  460poe    c23 2059   2.610   0.523   1.286  0.0536 -0.0043  0.4993
  460poe     o2 2060   2.618   0.396   1.347 -0.1020 -0.1867  0.1429
  460poe    c23 2061   2.753   0.357   1.356 -0.0195  0.1361  0.3380
  460poe    c23 2062   2.784   0.284   1.488 -0.7295 -0.1318  0.3605
  460poe     o2 2063   2.800   0.385   1.584  0.0392 -0.0578  0.1580
  460poe    c31 2064   2.834   0.328   1.709 -0.3653 -0.6542 -0.0060
  461poe    c31 2065   1.712   2.044   6.954  0.0630  0.1975  0.0864
  461poe     o2 2066   1.620   2.130   7.017  0.2068  0.0725  0.4745
  461poe    c23 2067   1.490   2.113   6.966  0.5095 -0.3113 -0.1788
  461poe    c23 2068   1.404   2.238   6.992  0.0358 -0.7502  0.4036
  461poe     o2 2069   1.380   2.253   7.130 -0.7422 -0.0823  0.1996
  461poe    c23 2070   1.282   2.353   7.151 -0.6014  0.0586  0.1856
  461poe    c23 2071   1.357   2.484   7.180 -0.2336 -0.0943 -0.0602
  461poe     o2 2072   1.450   2.453   7.282 -0.0700  0.5465 -0.0065
  461poe    c23 2073   1.515   2.567   7.333  0.5382  0.0118  0.4295
  461poe    c23 2074   1.559   2.517   7.472  0.5622 -0.2670  0.3224
  461poe     o2 2075   1.625   2.397   7.437  0.2017 -0.2006 -0.6248
  461poe    c31 2076   1.706   2.353   7.544 -0.2884  0.3306 -0.0180
  462poe    c31 2077   0.524   1.283   4.054  0.6939  0.2290 -0.4303
  462poe     o2 2078   0.467   1.397   3.993  0.1302  0.4735  0.5368
  462poe    c23 2079   0.506   1.519   4.053  0.8029  0.1339  0.7982
  462poe    c23 2080   0.516   1.638   3.956  0.0241 -0.3346  0.1262
  462poe     o2 2081   0.384   1.661   3.914 -0.0996  0.2315  0.7972
  462poe    c23 2082   0.382   1.760   3.814  0.1062 -0.1867  0.3736
  462poe    c23 2083   0.259   1.753   3.721  0.0328 -0.4440  0.4908
  462poe     o2 2084   0.263   1.673   3.605  0.4273  0.0268  0.1744
  462poe    c23 2085   0.135   1.677   3.546  0.2499 -0.1913  0.5369
  462poe    c23 2086   0.130   1.611   3.407 -0.1370 -0.3576  0.6275
  462poe     o2 2087   0.203   1.490   3.417 -0.2104 -0.4675 -0.1215
  462poe    c31 2088   0.207   1.403   3.306 -0.7511 -0.5520 -0.0785
  463poe    c31 2089   2.529   2.326   3.715  0.6769 -0.0227  0.6691
  463poe     o2 2090   2.389   2.331   3.717  0.6588  0.0645 -0.1821
  463poe    c23 2091   2.334   2.239   3.809  0.3252  0.0476 -0.3938
  463poe    c23 2092   2.309   2.093   3.765  0.0878  0.1085 -0.4590
  463poe     o2 2093   2.209   2.102   3.666  0.4034 -0.0902 -0.8017
  463poe    c23 2094   2.179   1.971   3.623  0.2101 -0.3740  0.1692
  463poe    c23 2095   2.029   1.958   3.592  0.2573 -0.0645 -0.1926
  463poe     o2 2096   1.969   2.030   3.487 -0.4975  0.2600  0.4491
  463poe    c23 2097   1.996   1.962   3.366  0.0513  0.3789  0.5050
  463poe    c23 2098   1.935   2.025   3.239 -0.1172 -0.2831  0.2556
  463poe     o2 2099   1.988   2.156   3.241 -0.2369 -0.2244 -0.2316
  463poe    c31 2100   1.975   2.215   3.114 -0.0111  0.1895 -0.0632
  464poe    c31 2101   0.734   2.402   2.654 -0.5830 -0.5814 -0.1131
  464poe     o2 2102   0.838   2.429   2.562 -0.4214  0.3772  0.3337
  464poe    c23 2103   0.764   2.472   2.450 -0.1626 -0.0339  0.0042
  464poe    c23 2104   0.842   2.486   2.318  0.2747  0.1419  0.2779
  464poe     o2 2105   0.903   2.360   2.297 -0.1220  0.0638 -0.4548
  464poe    c23 2106   0.996   2.367   2.191  0.1675  0.3765 -0.1833
  464poe    c23 2107   1.022   2.228   2.130 -0.1037  0.2751 -0.0712
  464poe     o2 2108   1.051   2.147   2.242 -0.3481  0.0152 -0.1941
  464poe    c23 2109   1.039   2.009   2.217 -0.3905  0.0437 -0.3278
  464poe    c23 2110   1.051   1.963   2.363  0.1350 -0.1039 -0.4155
  464poe     o2 2111   0.956   2.024   2.449 -0.3555 -0.1608 -0.9136
  464poe    c31 2112   0.950   1.965   2.577  0.3979  0.6361 -0.5012
  465poe    c31 2113   1.866   1.541   1.906  0.1991  0.4500 -0.9094
  465poe     o2 2114   1.918   1.418   1.952 -0.7130 -0.0880 -1.2792
  465poe    c23 2115   1.835   1.375   2.058  0.1634  0.2051 -0.4597
  465poe    c23 2116   1.910   1.256   2.120  0.4140  0.3520 -0.4769
  465poe     o2 2117   2.012   1.307   2.203 -0.0596  0.1342  0.2472
  465poe    c23 2118   2.067   1.203   2.281 -0.3128  0.0699  0.3420
  465poe    c23 2119   2.201   1.248   2.342 -0.0381 -0.4105  0.1064
  465poe     o2 2120   2.167   1.351   2.433  0.4069  0.0005 -0.1920
  465poe    c23 2121   2.284   1.388   2.503  0.1978  0.3381 -0.0190
  465poe    c23 2122   2.286   1.538   2.537 -0.2893  0.3382  0.0194
  465poe     o2 2123   2.264   1.614   2.420  0.2960 -0.4589 -0.6212
  465poe    c31 2124   2.319   1.741   2.449 -0.3066 -0.3222 -0.0497
  466poe    c31 2125   1.568   0.727   4.501  0.1230  0.1307 -0.8998
  466poe     o2 2126   1.698   0.713   4.447  0.2116 -0.3567 -0.5775
  466poe    c23 2127   1.734   0.824   4.368 -0.0145 -0.2595 -0.5449
  466poe    c23 2128   1.874   0.813   4.305  0.2211 -0.7173  0.0519
  466poe     o2 2129   1.985   0.853   4.382 -0.0471  0.0105  0.0709
  466poe    c23 2130   2.103   0.882   4.312  0.1268 -0.4916  0.1488
  466poe    c23 2131   2.228   0.933   4.388  0.4658  0.0152 -0.7285
  466poe     o2 2132   2.223   1.069   4.425 -0.5000 -0.1891 -0.0546
  466poe    c23 2133   2.184   1.087   4.559  0.2899 -0.0292  0.1572
  466poe    c23 2134   2.226   1.222   4.621  0.4790 -0.0491  0.0740
  466poe     o2 2135   2.364   1.226   4.650  0.4683 -0.1833  0.1412
  466poe    c31 2136   2.393   1.356   4.696 -0.4038  0.0319  0.0936
  467poe    c31 2137   0.635   1.483   0.391 -0.3246  0.5258 -0.0633
  467poe     o2 2138   0.570   1.404   0.294  0.0726 -0.0339  0.1185
  467poe    c23 2139   0.650   1.294   0.256 -0.0973 -0.2873  0.4894
  467poe    c23 2140   0.570   1.198   0.165 -0.0557 -0.0465  0.1965
  467poe     o2 2141   0.539   1.258   0.041  0.4138  0.1656  0.1790
  467poe    c23 2142   0.431   1.197  -0.026  0.1542  0.3822  0.3983
  467poe    c23 2143   0.389   1.292  -0.140  0.1402  0.2710  0.3111
  467poe     o2 2144   0.353   1.421  -0.096 -0.2796  0.2228  0.1158
  467poe    c23 2145   0.328   1.507  -0.205  0.0478 -0.1148 -0.2296
  467poe    c23 2146   0.275   1.648  -0.175 -0.0879 -0.2943  0.3900
  467poe     o2 2147   0.368   1.743  -0.128 -0.0493 -0.0957 -0.0842
  467poe    c31 2148   0.320   1.872  -0.096 -0.1150 -0.0968 -0.1782
  468poe    c31 2149   2.100   1.178   3.835 -0.2243  0.2402 -0.2383
  468poe     o2 2150   2.163   1.074   3.907  0.0811  0.5504 -0.0548
  468poe    c23 2151   2.134   0.951   3.844 -0.0417  0.4778  0.1418
  468poe    c23 2152   2.232   0.838   3.881 -0.6831 -0.2225 -0.2795
  468poe     o2 2153   2.241   0.788   4.012  0.8017  0.0959 -0.2494
  468poe    c23 2154   2.277   0.655   4.043 -0.3735 -0.0872  0.4051
  468poe    c23 2155   2.240   0.601   4.182 -0.4480 -0.1641  0.3553
  468poe     o2 2156   2.328   0.649   4.281 -0.7191  0.3365  0.3550
  468poe    c23 2157   2.422   0.552   4.321 -0.2505  0.6685  0.0735
  468poe    c23 2158   2.377   0.441   4.418  0.0149  0.2040 -0.3325
  468poe     o2 2159   2.409   0.470   4.552 -0.5125 -0.0798 -0.1442
  468poe    c31 2160   2.316   0.547   4.625  0.0275  0.4471 -0.0070
  469poe    c31 2161   0.049   0.330   5.774 -0.4775 -0.0853 -0.1620
  469poe     o2 2162   0.003   0.308   5.905  0.2569 -0.2724  0.0708
  469poe    c23 2163   0.104   0.231   5.967  0.2439 -0.3999 -0.0654
  469poe    c23 2164   0.080   0.242   6.119  0.1713  0.3725 -0.1269
  469poe     o2 2165   0.073   0.367   6.184  0.0603  0.0093  0.5647
  469poe    c23 2166   0.101   0.349   6.321 -0.3152 -0.0599  0.6346
  469poe    c23 2167   0.097   0.478   6.405 -0.4495 -0.3139  1.0261
  469poe     o2 2168  -0.026   0.545   6.386 -0.0370  0.1038 -0.2969
  469poe    c23 2169  -0.040   0.665   6.458 -0.0911  0.0284 -0.1817
  469poe    c23 2170  -0.176   0.731   6.432 -0.3037 -0.4613 -0.3119
  469poe     o2 2171  -0.280   0.653   6.487  0.0079 -0.0217  0.9130
  469poe    c31 2172  -0.409   0.702   6.456 -0.0291  0.1557  1.3345
  470poe    c31 2173   0.371   1.588   5.278  0.1208  0.6397 -0.3163
  470poe     o2 2174   0.494   1.567   5.211  0.2644 -0.0681  0.1662
  470poe    c23 2175   0.483   1.557   5.071 -0.1666 -0.1313  0.2027
  470poe    c23 2176   0.616   1.563   4.994 -0.4428  0.0496 -0.2623
  470poe     o2 2177   0.696   1.659   5.060  0.0518 -0.4037 -0.1965
  470poe    c23 2178   0.825   1.681   5.009 -0.1048  0.2449 -0.3230
  470poe    c23 2179   0.920   1.600   5.099 -0.1234  0.6163  0.0325
  470poe     o2 2180   0.870   1.607   5.231 -0.5952 -0.3248 -0.0920
  470poe    c23 2181   0.905   1.508   5.325  0.0731 -0.1737 -0.1771
  470poe    c23 2182   0.821   1.539   5.450 -0.2680 -0.9796 -0.2058
  470poe     o2 2183   0.699   1.602   5.416 -0.1743 -0.5464  0.2535
  470poe    c31 2184   0.609   1.625   5.522 -0.4044 -0.8076  0.1131
  471poe    c31 2185   0.455   0.964   5.324 -0.0659  0.0632 -0.2019
  471poe     o2 2186   0.494   0.905   5.202 -0.0191 -0.3187 -0.0036
  471poe    c23 2187   0.631   0.935   5.195 -0.1124  0.1037 -0.0451
  471poe    c23 2188   0.699   0.884   5.066 -0.1759 -0.1196  0.0100
  471poe     o2 2189   0.698   0.746   5.039 -0.1107 -0.1165 -0.0097
  471poe    c23 2190   0.695   0.696   4.907 -0.1596  0.3512 -0.1863
  471poe    c23 2191   0.677   0.543   4.897 -0.3026  0.3943 -0.5966
  471poe     o2 2192   0.556   0.477   4.926  0.2550 -0.2150  0.3872
  471poe    c23 2193   0.536   0.454   5.064 -0.2858 -0.1812  0.3167
  471poe    c23 2194   0.389   0.449   5.109 -0.5220  0.8260 -0.3323
  471poe     o2 2195   0.311   0.352   5.044  0.6278 -0.3996  0.0825
  471poe    c31 2196   0.296   0.243   5.134  0.9257 -0.7244 -0.2606
  472poe    c31 2197  -0.020   2.206   4.636 -0.6444  0.5110  0.0226
  472poe     o2 2198   0.100   2.262   4.685 -0.4079 -0.1300  0.1924
  472poe    c23 2199   0.087   2.402   4.690 -0.1235 -0.1166  0.6049
  472poe    c23 2200   0.175   2.489   4.781  0.1346  0.1376  0.1208
  472poe     o2 2201   0.311   2.462   4.759 -0.0486 -0.7100  0.0004
  472poe    c23 2202   0.392   2.556   4.826  0.5113 -0.7629 -0.5852
  472poe    c23 2203   0.544   2.535   4.824  0.5878 -0.2106 -0.5586
  472poe     o2 2204   0.568   2.408   4.878  0.2040  0.0440  0.2228
  472poe    c23 2205   0.681   2.336   4.833 -0.1544 -0.3125 -0.1148
  472poe    c23 2206   0.680   2.192   4.889  0.3505 -0.6460 -0.9364
  472poe     o2 2207   0.578   2.105   4.846 -0.1631 -0.2291 -0.5787
  472poe    c31 2208   0.584   1.986   4.922  0.0509  0.4002  0.4122
  473poe    c31 2209   0.648   2.378   0.277  0.5811 -0.2628 -0.1440
  473poe     o2 2210   0.716   2.265   0.227  0.0124 -0.5510 -0.2672
  473poe    c23 2211   0.834   2.303   0.160 -0.1512  0.3289 -0.0667
  473poe    c23 2212   0.897   2.190   0.077 -0.0184  0.2041  0.2049
  473poe     o2 2213   0.939   2.084   0.161  0.1635  0.3219  0.2622
  473poe    c23 2214   1.068   2.035   0.134 -0.1929 -0.4359 -0.0668
  473poe    c23 2215   1.139   1.968   0.253  0.1314 -0.2362 -0.1471
  473poe     o2 2216   1.186   2.037   0.366 -0.2186 -1.1308  0.5554
  473poe    c23 2217   1.090   2.090   0.455 -0.3786 -0.1887 -0.1683
  473poe    c23 2218   1.148   2.199   0.547 -0.6357 -0.5450  0.4250
  473poe     o2 2219   1.246   2.138   0.627  0.2879  0.0328 -0.2348
  473poe    c31 2220   1.325   2.248   0.668 -0.6072  0.5183  0.2171
  474poe    c31 2221   2.401   1.989   6.067  0.2184  0.0900 -0.6651
  474poe     o2 2222   2.341   1.895   5.981 -0.4837 -0.0281 -0.0633
  474poe    c23 2223   2.333   1.945   5.849 -0.5240 -0.1146 -0.0939
  474poe    c23 2224   2.304   1.850   5.732  0.1331 -0.1766 -0.2069
  474poe     o2 2225   2.417   1.768   5.710  0.4452  0.2251 -0.1002
  474poe    c23 2226   2.422   1.685   5.596 -0.1154 -0.6288  0.4885
  474poe    c23 2227   2.564   1.653   5.548 -0.2548 -0.0863 -0.2974
  474poe     o2 2228   2.616   1.575   5.653 -0.1001 -0.0717 -0.3635
  474poe    c23 2229   2.751   1.537   5.632  0.1863  0.7506 -0.0407
  474poe    c23 2230   2.775   1.398   5.693 -0.3251  0.5030 -0.4000
  474poe     o2 2231   2.690   1.304   5.629 -0.3806 -0.2657  0.7752
  474poe    c31 2232   2.732   1.257   5.503 -0.5497  0.2415  0.5267
  475poe    c31 2233   0.543   0.872   0.369  0.1438 -0.3808  0.0269
  475poe     o2 2234   0.423   0.836   0.304 -0.0868  0.3485  0.0426
  475poe    c23 2235   0.381   0.710   0.350  0.2670  0.1939 -0.0538
  475poe    c23 2236   0.231   0.685   0.322  0.1901  0.4043  0.1746
  475poe     o2 2237   0.198   0.685   0.185  0.8843  0.3396  0.0027
  475poe    c23 2238   0.260   0.596   0.095  0.2062  0.1771 -0.3075
  475poe    c23 2239   0.224   0.448   0.124 -0.6173  0.5541  0.6830
  475poe     o2 2240   0.110   0.404   0.054 -0.2621  0.1540  0.3503
  475poe    c23 2241   0.084   0.267   0.071 -0.5624  0.1998  0.2644
  475poe    c23 2242  -0.010   0.199  -0.030 -0.1086 -0.1572  0.0758
  475poe     o2 2243  -0.145   0.241  -0.018 -0.0457  0.0146  0.1807
  475poe    c31 2244  -0.226   0.127   0.000 -0.1881  0.0654 -0.1287
  476poe    c31 2245   1.111   2.157   4.639  0.6831  0.3001  0.0591
  476poe     o2 2246   1.149   2.133   4.506 -0.2411 -0.5342 -0.0651
  476poe    c23 2247   1.041   2.107   4.420 -0.1051 -0.6194 -0.2111
  476poe    c23 2248   1.064   2.104   4.267  0.2210 -0.4778 -0.1648
  476poe     o2 2249   1.073   2.227   4.199 -0.0939 -0.0400  0.5714
  476poe    c23 2250   1.188   2.230   4.118 -0.1115  0.0590  0.5498
  476poe    c23 2251   1.228   2.372   4.074 -0.0044 -0.1232  0.0571
  476poe     o2 2252   1.324   2.431   4.159  0.3883 -0.3359 -0.2354
  476poe    c23 2253   1.351   2.551   4.090  0.5795 -0.3467 -0.1801
  476poe    c23 2254   1.465   2.624   4.163  0.0416  0.5072 -0.1803
  476poe     o2 2255   1.429   2.684   4.285 -0.6706 -0.6192  0.1708
  476poe    c31 2256   1.343   2.795   4.284 -0.2894 -0.3243 -0.7004
  477poe    c31 2257   1.484   0.809   3.518  0.7541  0.6687 -0.7456
  477poe     o2 2258   1.430   0.937   3.544  0.5740  0.4777 -0.1492
  477poe    c23 2259   1.290   0.923   3.537  0.6174  0.2383 -0.6148
  477poe    c23 2260   1.227   1.061   3.564  0.1245 -0.0279 -0.3840
  477poe     o2 2261   1.265   1.107   3.691 -0.5952 -0.0664 -0.1478
  477poe    c23 2262   1.210   1.230   3.732 -0.1741  0.1686 -0.2815
  477poe    c23 2263   1.264   1.249   3.875 -0.1990 -0.2981 -0.2086
  477poe     o2 2264   1.402   1.225   3.892 -0.2498 -0.3725  0.1076
  477poe    c23 2265   1.442   1.277   4.017  0.0835  0.1624 -0.2172
  477poe    c23 2266   1.592   1.249   4.039  0.0721 -0.0476 -0.4109
  477poe     o2 2267   1.624   1.141   3.954 -0.1562 -0.4910  0.0634
  477poe    c31 2268   1.754   1.099   3.988 -0.0315 -0.1660 -0.0098
  478poe    c31 2269   0.297   0.443   3.722 -0.3231  0.0880  0.3012
  478poe     o2 2270   0.408   0.398   3.798 -0.3659  0.4876  0.6076
  478poe    c23 2271   0.523   0.433   3.724 -0.5025 -0.6806 -0.1911
  478poe    c23 2272   0.655   0.406   3.799 -0.6141 -0.1447  0.2027
  478poe     o2 2273   0.694   0.271   3.790  0.5579  0.1903  0.2132
  478poe    c23 2274   0.779   0.242   3.899  0.3093 -0.0876  0.3313
  478poe    c23 2275   0.859   0.112   3.881  0.0143 -0.3381  0.7899
  478poe     o2 2276   0.776  -0.002   3.873 -0.1636 -0.1483 -0.1258
  478poe    c23 2277   0.847  -0.112   3.820  0.0470 -0.2709  0.4102
  478poe    c23 2278   0.802  -0.256   3.850  0.1885 -0.3731  0.1348
  478poe     o2 2279   0.785  -0.260   3.990 -0.1457  0.0396  0.1076
  478poe    c31 2280   0.759  -0.392   4.031 -0.8886  0.3456  0.6574
  479poe    c31 2281   2.050   1.307   5.778  0.8469  0.0327  0.8282
  479poe     o2 2282   2.005   1.421   5.849 -0.2098  0.0977  0.0685
  479poe    c23 2283   1.947   1.525   5.774  0.7027 -0.0443 -0.8611
  479poe    c23 2284   1.796   1.535   5.799  0.7555 -0.4752 -0.3391
  479poe     o2 2285   1.772   1.593   5.925 -0.5295  0.1069 -0.8298
  479poe    c23 2286   1.640   1.643   5.925 -0.3967  0.4699 -0.4616
  479poe    c23 2287   1.614   1.750   6.032 -0.0763  0.2596 -0.1715
  479poe     o2 2288   1.589   1.700   6.162  0.2888  0.1090 -0.1599
  479poe    c23 2289   1.598   1.812   6.247 -0.2859  0.1134 -0.1046
  479poe    c23 2290   1.564   1.780   6.394  0.0975  0.0118 -0.0381
  479poe     o2 2291   1.530   1.899   6.459  0.2907  0.0972 -0.0918
  479poe    c31 2292   1.528   1.875   6.598  0.6048  0.1232 -0.0823
  480poe    c31 2293   1.621   2.494   3.453  0.6086  0.0319 -0.2916
  480poe     o2 2294   1.561   2.582   3.362  0.0197 -0.0621 -0.0023
  480poe    c23 2295   1.609   2.714   3.379  0.5148 -0.2765  0.2693
  480poe    c23 2296   1.512   2.813   3.445  0.2830  0.0002 -0.4775
  480poe     o2 2297   1.419   2.866   3.353 -0.0818 -0.0562 -0.1441
  480poe    c23 2298   1.313   2.909   3.435  0.4091  0.8021  0.0587
  480poe    c23 2299   1.200   2.953   3.340  0.2244 -0.1924 -0.1892
  480poe     o2 2300   1.124   2.843   3.294 -0.2224 -0.1495  0.4445
  480poe    c23 2301   1.016   2.806   3.378 -0.8171 -0.2759 -0.3664
  480poe    c23 2302   0.915   2.914   3.421 -0.5111 -0.4266  0.7491
  480poe     o2 2303   0.818   2.948   3.324 -0.1994 -0.1144  0.5434
  480poe    c31 2304   0.737   3.054   3.370  0.0594  0.1055  0.4926
  481poe    c31 2305   0.400   1.814   3.169 -0.1197 -0.2645  0.3601
  481poe     o2 2306   0.421   1.693   3.101 -0.7802 -0.1808 -0.0094
  481poe    c23 2307   0.449   1.721   2.966  0.2719 -0.1129  0.2086
  481poe    c23 2308   0.426   1.599   2.874  0.8693  0.0103 -0.1065
  481poe     o2 2309   0.500   1.486   2.915  0.2829 -0.1858  0.4380
  481poe    c23 2310   0.487   1.373   2.832 -0.2945  0.1790  0.0200
  481poe    c23 2311   0.557   1.258   2.907 -0.6559 -0.2070 -0.2300
  481poe     o2 2312   0.496   1.229   3.031  0.4156  0.1380  0.3858
  481poe    c23 2313   0.586   1.139   3.091  0.1913 -0.0576  0.4311
  481poe    c23 2314   0.543   1.100   3.234  0.4368 -0.2375  0.4586
  481poe     o2 2315   0.429   1.018   3.247 -0.2376  0.6689  0.3466
  481poe    c31 2316   0.433   0.947   3.369 -0.2657 -0.1654 -0.1314
  482poe    c31 2317   1.118   0.665   1.059 -0.1673 -0.5989  0.7913
  482poe     o2 2318   1.077   0.532   1.034 -0.6288 -0.2735 -0.2276
  482poe    c23 2319   1.180   0.476   0.956 -0.3323  0.1773 -0.1680
  482poe    c23 2320   1.178   0.328   0.913  0.3010  0.0599  0.1957
  482poe     o2 2321   1.183   0.230   1.015  0.0034 -0.4192 -0.2454
  482poe    c23 2322   1.174   0.099   0.963 -0.2427 -0.4315 -0.1735
  482poe    c23 2323   1.243  -0.014   1.042  0.3645  0.3527  0.4352
  482poe     o2 2324   1.199  -0.064   1.166  0.1066  0.0154  0.2094
  482poe    c23 2325   1.247  -0.196   1.161 -0.1352 -0.0553 -0.2545
  482poe    c23 2326   1.230  -0.261   1.299  0.2685  0.1935 -0.0865
  482poe     o2 2327   1.264  -0.398   1.308  0.1601  0.1488 -0.3596
  482poe    c31 2328   1.214  -0.469   1.419  0.7104  0.0821 -0.1522
  483poe    c31 2329   0.533   0.866   4.391 -0.2131  0.2149 -0.5913
  483poe     o2 2330   0.404   0.871   4.447  0.1422  0.3780  0.2324
  483poe    c23 2331   0.344   0.744   4.458  0.1187  0.3715  0.0402
  483poe    c23 2332   0.190   0.747   4.465  0.0863 -0.0533 -0.4717
  483poe     o2 2333   0.163   0.824   4.581  0.2638 -0.3175 -0.2529
  483poe    c23 2334   0.024   0.833   4.600  0.3159  0.3101 -0.1751
  483poe    c23 2335  -0.005   0.883   4.743  0.8888 -0.7480  0.3224
  483poe     o2 2336   0.066   1.004   4.762 -0.5296  0.1379  0.0868
  483poe    c23 2337   0.044   1.069   4.885  0.2693  0.7630 -0.0928
  483poe    c23 2338   0.145   1.185   4.874  0.1567  0.8424 -0.2983
  483poe     o2 2339   0.267   1.132   4.828 -0.2033  0.0568 -0.3604
  483poe    c31 2340   0.373   1.197   4.895 -0.3853  0.0946 -0.1096
  484poe    c31 2341   0.056   0.881   4.149 -0.7284  0.0131 -0.5006
  484poe     o2 2342   0.055   1.022   4.152  0.4285  0.0199  0.1392
  484poe    c23 2343   0.145   1.082   4.242 -0.4870  0.2937  0.8896
  484poe    c23 2344   0.199   1.223   4.211 -0.3310 -0.0745 -0.6099
  484poe     o2 2345   0.103   1.327   4.203  0.0540  0.3423  0.0495
  484poe    c23 2346   0.151   1.422   4.110  0.0519  0.2910 -0.0043
  484poe    c23 2347   0.081   1.450   3.976  0.2907  0.1146 -0.1680
  484poe     o2 2348   0.083   1.348   3.879  0.0911 -0.2805  0.2414
  484poe    c23 2349  -0.030   1.264   3.871  0.2504 -0.5214  0.4948
  484poe    c23 2350   0.002   1.165   3.759  0.7464  0.0671  0.1123
  484poe     o2 2351   0.069   1.043   3.786 -0.2786 -0.5160  0.0715
  484poe    c31 2352   0.209   1.049   3.768 -0.3598  0.6176 -0.2960
  485poe    c31 2353   0.968   0.854   0.373  0.0247  0.1955 -0.1809
  485poe     o2 2354   0.929   0.745   0.293  0.8490  0.0431 -0.3821
  485poe    c23 2355   0.836   0.785   0.196  0.1436 -0.4123  0.0971
  485poe    c23 2356   0.781   0.679   0.099 -0.6889  0.1751 -0.0946
  485poe     o2 2357   0.714   0.580   0.174 -0.4786 -0.2030 -0.3974
  485poe    c23 2358   0.694   0.449   0.127 -0.1624 -0.1222 -0.7594
  485poe    c23 2359   0.645   0.347   0.231 -0.4347  0.6343 -0.1430
  485poe     o2 2360   0.511   0.365   0.274 -0.6388  0.1934 -0.5809
  485poe    c23 2361   0.509   0.302   0.400 -0.5270  0.5245 -0.4119
  485poe    c23 2362   0.441   0.371   0.520 -0.2242  0.4696 -0.2049
  485poe     o2 2363   0.505   0.490   0.561 -0.1112  0.3064  0.0897
  485poe    c31 2364   0.439   0.539   0.676  0.0001 -0.3719  0.4505
  486poe    c31 2365   1.674   1.850   3.659 -0.5849  0.1367  0.5800
  486poe     o2 2366   1.575   1.752   3.640 -0.7472  0.4190 -0.0490
  486poe    c23 2367   1.622   1.633   3.699 -0.4900  0.2248 -0.6346
  486poe    c23 2368   1.555   1.509   3.637  0.1497 -0.5672  0.2205
  486poe     o2 2369   1.589   1.502   3.500  0.7043  0.0916  0.3159
  486poe    c23 2370   1.543   1.378   3.452  0.5865  0.3883 -0.3467
  486poe    c23 2371   1.591   1.331   3.313  0.0141  0.0210 -0.4225
  486poe     o2 2372   1.579   1.440   3.224 -0.4777 -0.0946 -0.5035
  486poe    c23 2373   1.678   1.430   3.125  0.1361  0.0769  0.0827
  486poe    c23 2374   1.825   1.447   3.167  0.3949  0.0165 -0.7720
  486poe     o2 2375   1.841   1.585   3.192 -0.3779 -0.0184 -0.0668
  486poe    c31 2376   1.977   1.619   3.198 -0.1505 -0.8736 -0.2659
  487lim     li 2377   1.143   1.420   4.412 -0.0577  0.5326 -0.3302
  488lim     li 2378   2.260   1.545   6.086  0.3927 -1.3122 -0.1888
  489lim     li 2379   1.886   0.800   5.053 -0.0778  0.5928 -0.2410
  490lim     li 2380   2.061   2.000   4.173 -1.0879  0.5934 -0.2918
  491lim     li 2381   2.445   0.968   2.989 -0.1160  0.2115  0.3336
  492lim     li 2382   0.261   0.991   4.725  0.2375  0.2573  1.2613
  493lim     li 2383   1.978   1.636   1.101 -0.1730  0.0010  0.8008
  494lim     li 2384   0.993   0.824   2.203  0.8141  0.3311 -0.6983
  495lim     li 2385   2.355   0.466   2.669 -0.2963  0.0497 -0.5617
  496lim     li 2386   0.114   1.123   6.253 -0.6156 -0.1119  0.0456
  497lim     li 2387   1.498   1.794   3.322 -0.1447  0.1059  0.5784
  498lim     li 2388   0.605   1.646   2.010 -0.2826 -0.1281  0.2081
  499lim     li 2389   1.456   0.577   6.509  0.7875  0.2288 -0.0856
  500lim     li 2390   0.864   1.973   1.621 -0.4520  0.0191 -0.9041
  501lim     li 2391   2.251   1.196   4.250 -0.7172  0.5827  0.4814
  502lim     li 2392   2.183   2.505   4.939  1.9329  0.0324  0.2719
  503lim     li 2393   0.956   0.406   1.443 -0.0565 -0.6527 -0.6778
  504lim     li 2394   1.679   2.281   6.502  1.5355 -1.0813  0.2853
  505lim     li 2395   1.499   0.657   5.322  0.2323  0.2745  1.3560
  506lim     li 2396   1.489   1.084   3.844 -0.0979 -0.1203  0.9288
  507lim     li 2397   0.690   1.670   5.250  0.0765  0.7429 -1.0093
  508lim     li 2398   2.269   0.525   6.064 -0.4398 -0.5994 -0.3167
  509lim     li 2399   0.948   0.098   4.503  0.4426  0.8520 -0.1299
  510lim     li 2400   2.414   1.895   2.097  0.3380  0.6377  0.4676
  511lim     li 2401   1.938   2.393   1.370 -0.1420 -0.1401 -0.4031
  512lim     li 2402   1.255   0.526   0.304  1.2464 -0.1191  0.5462
  513lim     li 2403   0.930   2.197   2.380  0.8018  0.3685  1.6100
  514lim     li 2404   1.312   1.767   0.585  0.2751  1.4567 -1.4436
  515lim     li 2405   0.930   1.538   3.360  0.2192 -0.7128  0.5197
  516lim     li 2406   2.197   2.347   3.443 -0.7731 -0.3771  1.5635
  517lim     li 2407   2.290   1.397   0.499  0.1030 -1.2091 -0.2852
  518lim     li 2408   0.682   0.115   6.045  0.2238  0.3591  0.0801
  519lim     li 2409   1.540   2.302   0.281  0.2527 -0.6058  0.4095
  520lim     li 2410   1.580   2.398   2.864 -0.4423  0.2326  0.6868
  521lim     li 2411   0.451   0.040   3.941  0.3954  0.7086 -0.3116
  522lim     li 2412   0.647   2.105   0.283 -0.4700 -0.1340  1.0727
  523lim     li 2413   1.329   0.195   3.022 -0.0062 -0.6260 -0.2782
  524lim     li 2414   2.179   2.319   5.400  0.7179  0.8407  0.8768
  525lim     li 2415   0.724   1.786   6.529 -0.2937  0.3928 -1.4798
  526lim     li 2416   0.696   0.267   2.965 -1.0364 -0.6353 -0.5900
  527lim     li 2417   0.205   1.820   0.300  0.4199  0.3214  0.5515
  528lim     li 2418   0.474   0.808   2.343 -0.9829  0.4524 -0.7559
  529lim     li 2419   1.631   1.301   6.048  0.1765 -1.5659  0.0880
  530lim     li 2420   0.217   2.145   4.771 -0.4915 -0.5623 -0.6484
  531lim     li 2421   2.122   1.607   2.310 -0.3433 -0.7256 -1.1985
  532lim     li 2422   2.464   2.369   2.825 -0.0542 -1.1111 -0.1432
  533lim     li 2423   2.171   1.177   1.694  0.0976  0.1500  0.3539
  534lim     li 2424   0.704   1.269   1.386 -0.1369  0.8730  0.4583
  535lim     li 2425   0.405   2.366   0.778 -0.7664 -0.6650  1.8776
  536lim     li 2426   1.682   0.228   1.980 -0.1764  1.2822  0.7457
  537lim     li 2427   0.335   1.515   3.597 -1.6247  0.8516 -0.4526
  538lim     li 2428   2.304   0.682   0.084 -0.8757 -0.1812  0.4918
  539lim     li 2429   2.127   0.533   1.608 -0.0964  1.3313 -0.2385
  540lim     li 2430   0.613   2.086   5.729 -0.0248  0.0663  0.0355
  541ntf    cn1 2431   0.996   2.073   5.067  0.1597  0.1333  0.5387
  541ntf    sn2 2432   1.087   1.979   5.193  0.4715 -0.2445  0.0359
  541ntf    nn3 2433   1.186   1.893   5.107  0.3039 -0.6397  0.2305
  541ntf    sn2 2434   1.328   1.934   5.053  0.0743 -0.2952 -0.1242
  541ntf    cn1 2435   1.425   1.823   5.160 -0.0803 -0.0801  0.2388
  541ntf    fn4 2436   1.085   2.132   4.988 -0.0066 -0.7496 -0.3349
  541ntf    fn4 2437   0.916   1.999   4.993  0.6441  0.3530 -0.2205
  541ntf    fn4 2438   0.924   2.172   5.117 -0.3179 -0.0256  0.1743
  541ntf    on5 2439   1.143   2.080   5.278  0.0903 -0.0836  0.0972
  541ntf    on5 2440   0.987   1.885   5.238 -0.0919  0.3304 -0.0019
  541ntf    on5 2441   1.369   2.066   5.093 -0.5393 -0.1431  0.0055
  541ntf    on5 2442   1.355   1.898   4.916  0.0053  0.0266 -0.2205
  541ntf    fn4 2443   1.551   1.842   5.125 -0.3338  0.0170 -0.6420
  541ntf    fn4 2444   1.415   1.850   5.290  0.0789  0.4524  0.1424
  541ntf    fn4 2445   1.389   1.697   5.142 -0.0567 -0.0685  0.1105
  542ntf    cn1 2446   1.592   1.000   2.742  0.1741  0.4786  0.2755
  542ntf    sn2 2447   1.690   1.095   2.862  0.3206  0.2716  0.3205
  542ntf    nn3 2448   1.719   1.233   2.794  0.2856  0.4326  0.6321
  542ntf    sn2 2449   1.834   1.276   2.696  0.1396 -0.1814  0.1867
  542ntf    cn1 2450   1.946   1.366   2.806  0.3323 -0.2261  0.0272
  542ntf    fn4 2451   1.482   1.065   2.708  0.0318  0.2808  0.3545
  542ntf    fn4 2452   1.648   0.976   2.625 -0.0377  0.1180  0.2442
  542ntf    fn4 2453   1.548   0.883   2.787  0.2709  0.5960  0.6815
  542ntf    on5 2454   1.594   1.117   2.967 -0.1102  0.1089 -0.0335
  542ntf    on5 2455   1.806   1.015   2.893 -0.2015 -0.5024  0.2919
  542ntf    on5 2456   1.803   1.371   2.591  0.3691 -0.1718  0.1277
  542ntf    on5 2457   1.909   1.162   2.652 -0.0139 -0.3589  0.3845
  542ntf    fn4 2458   1.975   1.296   2.914 -0.1703  0.3251  0.5244
  542ntf    fn4 2459   2.061   1.393   2.746  0.2963  0.5898  0.3090
  542ntf    fn4 2460   1.903   1.487   2.841 -0.1964 -0.5282  0.4292
  543ntf    cn1 2461   2.163   1.407   6.852  0.0619 -0.1693 -0.2861
  543ntf    sn2 2462   2.199   1.265   6.959  0.5419  0.1642  0.0004
  543ntf    nn3 2463   2.278   1.170   6.862  0.2479 -0.2989  0.2117
  543ntf    sn2 2464   2.428   1.131   6.889  0.4108 -0.0163 -0.2868
  543ntf    cn1 2465   2.465   1.038   6.737  0.0517 -0.1049 -0.3207
  543ntf    fn4 2466   2.249   1.505   6.872  0.6281 -0.7225  0.0118
  543ntf    fn4 2467   2.163   1.370   6.725  0.2308 -0.1262 -0.2980
  543ntf    fn4 2468   2.043   1.458   6.878  0.0687 -0.3264  0.0599
  543ntf    on5 2469   2.269   1.319   7.073  0.0837  0.2150  0.2585
  543ntf    on5 2470   2.069   1.206   6.982  0.5726  0.1851  0.2287
  543ntf    on5 2471   2.465   1.036   6.990 -0.1681 -0.3248 -0.3596
  543ntf    on5 2472   2.517   1.244   6.877  0.1729  0.1874 -0.1380
  543ntf    fn4 2473   2.418   1.091   6.625 -0.7516 -0.5591 -0.2003
  543ntf    fn4 2474   2.596   1.026   6.722  0.1103  0.1651 -0.0313
  543ntf    fn4 2475   2.425   0.912   6.736  0.1833 -0.1483 -0.2153
  544ntf    cn1 2476   1.926   1.960   5.818 -0.3353 -0.1594 -0.0223
  544ntf    sn2 2477   1.779   2.011   5.724 -0.2355 -0.0006 -0.0938
  544ntf    nn3 2478   1.749   1.876   5.650  0.9455 -0.2334 -0.1709
  544ntf    sn2 2479   1.684   1.847   5.510 -0.1770  0.0549  0.2792
  544ntf    cn1 2480   1.830   1.795   5.415 -0.3350  0.3420 -0.1251
  544ntf    fn4 2481   1.946   2.048   5.915 -0.2105 -0.5020  0.2646
  544ntf    fn4 2482   1.906   1.839   5.868 -0.1588  0.0830  0.6356
  544ntf    fn4 2483   2.036   1.955   5.744 -0.1673  0.2477  0.2002
  544ntf    on5 2484   1.683   2.042   5.827  0.2165  0.0419  0.3181
  544ntf    on5 2485   1.827   2.110   5.631  0.1541  0.3321  0.4530
  544ntf    on5 2486   1.634   1.960   5.435 -0.4300  0.2608  0.7559
  544ntf    on5 2487   1.603   1.728   5.510 -0.0114 -0.0588  0.0883
  544ntf    fn4 2488   1.894   1.690   5.464 -0.2210  0.4782  0.0187
  544ntf    fn4 2489   1.802   1.761   5.290  0.2161  0.1429 -0.1992
  544ntf    fn4 2490   1.921   1.890   5.404  0.1401 -0.1442 -0.4626
  545ntf    cn1 2491   0.804   0.391   4.268  0.2024 -0.2243 -0.5154
  545ntf    sn2 2492   0.985   0.381   4.286  0.1850  0.2277 -0.0527
  545ntf    nn3 2493   1.012   0.509   4.372  0.8334  0.2636 -0.3035
  545ntf    sn2 2494   1.057   0.510   4.522 -0.0282 -0.3167 -0.0343
  545ntf    cn1 2495   0.991   0.664   4.593  0.2248 -0.0962 -0.2742
  545ntf    fn4 2496   0.742   0.389   4.385 -0.4332 -0.2471 -0.8485
  545ntf    fn4 2497   0.760   0.500   4.210 -0.0281 -0.1988 -0.2954
  545ntf    fn4 2498   0.759   0.285   4.203  0.0571 -0.0617 -0.6804
  545ntf    on5 2499   0.992   0.252   4.350  0.1814  0.1869 -0.1342
  545ntf    on5 2500   1.030   0.394   4.149 -0.1423 -0.3113 -0.2177
  545ntf    on5 2501   1.199   0.533   4.535 -0.1091 -0.1175  0.5641
  545ntf    on5 2502   0.999   0.407   4.604 -0.3921  0.0897  0.2312
  545ntf    fn4 2503   0.874   0.697   4.540 -0.0279  0.4515  0.5977
  545ntf    fn4 2504   0.971   0.654   4.724 -0.0416 -0.0749 -0.3129
  545ntf    fn4 2505   1.070   0.768   4.572 -0.0206  0.1324 -0.0658
  546ntf    cn1 2506   1.907   1.561   6.542  0.3129  0.0114 -0.3297
  546ntf    sn2 2507   1.945   1.631   6.379  0.2176  0.3533 -0.2070
  546ntf    nn3 2508   1.904   1.780   6.403 -0.2435  0.1268  0.4466
  546ntf    sn2 2509   1.979   1.911   6.358 -0.1037 -0.2169 -0.3400
  546ntf    cn1 2510   2.073   1.930   6.513 -0.1736 -0.4898 -0.2644
  546ntf    fn4 2511   1.910   1.429   6.551  0.1983  0.0153 -0.2296
  546ntf    fn4 2512   1.985   1.596   6.643  0.0135  0.1937 -0.1603
  546ntf    fn4 2513   1.784   1.597   6.577  0.2040 -0.3894 -0.2861
  546ntf    on5 2514   2.088   1.609   6.377  0.2617  0.6043  0.2451
  546ntf    on5 2515   1.879   1.552   6.278 -0.8176  0.4436  0.3844
  546ntf    on5 2516   1.883   2.018   6.362 -0.1758 -0.2976  0.2415
  546ntf    on5 2517   2.082   1.912   6.257  0.4692  0.4744  0.2396
  546ntf    fn4 2518   2.189   1.986   6.482 -0.3802  0.3270  0.4260
  546ntf    fn4 2519   2.007   1.998   6.604  0.4168  0.0020 -0.1982
  546ntf    fn4 2520   2.106   1.814   6.567 -0.0159 -0.1770  0.3163
  547ntf    cn1 2521   0.187   1.614   2.595  0.3676  0.0547 -0.0918
  547ntf    sn2 2522   0.252   1.671   2.435  0.1203 -0.2100 -0.2869
  547ntf    nn3 2523   0.355   1.780   2.482  0.3488 -0.5418 -0.0087
  547ntf    sn2 2524   0.439   1.885   2.401 -0.0238 -0.0667  0.2186
  547ntf    cn1 2525   0.587   1.792   2.352  0.0471  0.1232  0.0671
  547ntf    fn4 2526   0.061   1.580   2.612  0.3492 -0.4509 -1.1567
  547ntf    fn4 2527   0.263   1.521   2.650  0.2563 -0.1952 -0.3593
  547ntf    fn4 2528   0.198   1.720   2.674 -0.9085  0.0573  0.0938
  547ntf    on5 2529   0.312   1.551   2.382  0.4168 -0.3698  0.4012
  547ntf    on5 2530   0.138   1.722   2.364  0.4287  0.4340 -0.3290
  547ntf    on5 2531   0.506   1.987   2.478  0.1464  0.4025 -0.5326
  547ntf    on5 2532   0.377   1.935   2.280 -0.2468 -0.6641  0.0801
  547ntf    fn4 2533   0.670   1.771   2.453 -0.2460 -0.1361  0.2593
  547ntf    fn4 2534   0.577   1.671   2.298 -0.3144  0.1213  0.1335
  547ntf    fn4 2535   0.659   1.867   2.271  0.4313 -0.4492 -0.1309
  548ntf    cn1 2536   1.266   0.979   6.380  0.0601  0.0255  0.1771
  548ntf    sn2 2537   1.409   1.010   6.487  0.1254  0.0547  0.0808
  548ntf    nn3 2538   1.360   1.149   6.541  0.8754 -0.0703  1.0967
  548ntf    sn2 2539   1.417   1.295   6.530  0.0441  0.1888  0.0932
  548ntf    cn1 2540   1.529   1.285   6.673 -0.0604  0.5131  0.1985
  548ntf    fn4 2541   1.276   0.862   6.318  0.2392  0.1599 -0.0487
  548ntf    fn4 2542   1.153   0.973   6.449  0.0193 -0.0149  0.1088
  548ntf    fn4 2543   1.257   1.067   6.282  0.1786  0.1258  0.2575
  548ntf    on5 2544   1.386   0.900   6.576 -0.4425 -0.1275 -0.2875
  548ntf    on5 2545   1.524   1.011   6.399  0.1405  0.4807  0.1030
  548ntf    on5 2546   1.313   1.393   6.550  0.3530  0.5020  0.1826
  548ntf    on5 2547   1.499   1.312   6.412  0.5457  0.2991  0.4522
  548ntf    fn4 2548   1.614   1.184   6.668  0.1360  0.7035 -0.3810
  548ntf    fn4 2549   1.608   1.390   6.683  0.7025 -0.0713  0.4230
  548ntf    fn4 2550   1.463   1.290   6.788  0.4611 -0.6174  0.5621
  549ntf    cn1 2551   1.912   0.659   3.681  0.0319 -0.0711 -0.1809
  549ntf    sn2 2552   1.792   0.741   3.790  0.1876  0.0513 -0.1002
  549ntf    nn3 2553   1.691   0.621   3.806 -0.0651  0.2700 -0.0433
  549ntf    sn2 2554   1.550   0.615   3.875 -0.0305  0.0628  0.0102
  549ntf    cn1 2555   1.581   0.466   3.973 -0.0124  0.2235  0.2505
  549ntf    fn4 2556   1.938   0.538   3.727 -0.4213  0.0391  0.3795
  549ntf    fn4 2557   1.856   0.644   3.562 -0.6859 -0.1255  0.1611
  549ntf    fn4 2558   2.026   0.725   3.666  0.1426 -0.1890  0.1329
  549ntf    on5 2559   1.862   0.771   3.913  0.3420 -0.6617 -0.0090
  549ntf    on5 2560   1.740   0.852   3.714 -0.2997 -0.3318 -0.3389
  549ntf    on5 2561   1.452   0.577   3.777 -0.1410  0.3455  0.0091
  549ntf    on5 2562   1.503   0.714   3.969 -0.0010 -0.0973  0.1934
  549ntf    fn4 2563   1.475   0.426   4.042 -0.2790  0.2602 -0.1382
  549ntf    fn4 2564   1.620   0.361   3.903 -0.2040  0.1398  0.2695
  549ntf    fn4 2565   1.674   0.500   4.061 -0.0589  0.0782  0.3564
  550ntf    cn1 2566   1.180   0.278   0.438 -0.1556  0.2273 -0.3057
  550ntf    sn2 2567   1.028   0.178   0.438  0.2662 -0.4205  0.4242
  550ntf    nn3 2568   1.006   0.158   0.592  0.0263  0.0858  0.4568
  550ntf    sn2 2569   0.876   0.115   0.670 -0.1549 -0.3106 -0.0601
  550ntf    cn1 2570   0.837   0.280   0.736 -0.0202 -0.1333 -0.4175
  550ntf    fn4 2571   1.172   0.387   0.514  0.2952  0.0450  0.0063
  550ntf    fn4 2572   1.276   0.203   0.488 -0.1163  0.8173  0.5440
  550ntf    fn4 2573   1.234   0.314   0.323  0.0612  0.2734 -0.1913
  550ntf    on5 2574   0.938   0.265   0.368  1.2854  0.0477 -0.3421
  550ntf    on5 2575   1.079   0.059   0.374 -0.0382 -0.0406 -0.5401
  550ntf    on5 2576   0.901   0.029   0.782  0.2139  0.0143  0.1085
  550ntf    on5 2577   0.758   0.088   0.591 -0.1973 -0.3768  0.0253
  550ntf    fn4 2578   0.711   0.315   0.717 -0.0461  0.0543  0.0870
  550ntf    fn4 2579   0.868   0.306   0.862  0.3247 -0.5346 -0.4155
  550ntf    fn4 2580   0.903   0.366   0.661  0.1654  0.3666  0.3044
  551ntf    cn1 2581   2.293   1.826   0.152 -0.0392 -0.5021 -0.1219
  551ntf    sn2 2582   2.313   1.871   0.327  0.2644  0.0742 -0.3051
  551ntf    nn3 2583   2.218   1.995   0.342  0.1244 -0.0885  0.1902
  551ntf    sn2 2584   2.260   2.146   0.356 -0.1297 -0.0091  0.0990
  551ntf    cn1 2585   2.259   2.157   0.538 -0.2569  0.0601  0.0946
  551ntf    fn4 2586   2.335   1.924   0.074  0.6223 -0.6636  0.0276
  551ntf    fn4 2587   2.353   1.711   0.123 -0.1122 -0.6520  0.3050
  551ntf    fn4 2588   2.163   1.807   0.133 -0.1700  0.0768  0.1654
  551ntf    on5 2589   2.269   1.764   0.413 -0.0834 -0.0822 -0.6767
  551ntf    on5 2590   2.454   1.900   0.337  0.3694 -0.3241 -0.5934
  551ntf    on5 2591   2.157   2.234   0.306 -0.5476 -0.3313  0.3921
  551ntf    on5 2592   2.395   2.182   0.321 -0.1800  0.2580  0.1753
  551ntf    fn4 2593   2.355   2.084   0.592 -0.5686 -0.5207 -0.1189
  551ntf    fn4 2594   2.254   2.278   0.589 -0.8213 -0.0676  0.3572
  551ntf    fn4 2595   2.149   2.098   0.583 -0.2492 -0.1245 -0.1237
  552ntf    cn1 2596   0.300   0.868   1.970  0.4374 -0.2861  0.4155
  552ntf    sn2 2597   0.217   0.880   2.131 -0.4751  0.3451 -0.0885
  552ntf    nn3 2598   0.187   1.034   2.144  0.3148  0.4905  0.0891
  552ntf    sn2 2599   0.052   1.090   2.200  0.0800 -0.2333  0.2626
  552ntf    cn1 2600   0.108   1.116   2.371  0.1976  0.0525  0.1813
  552ntf    fn4 2601   0.324   0.745   1.926  0.0431 -0.2039 -0.0427
  552ntf    fn4 2602   0.221   0.920   1.877  0.4026 -0.7271  0.1924
  552ntf    fn4 2603   0.417   0.928   1.963  0.3066  0.0035  0.7007
  552ntf    on5 2604   0.105   0.793   2.108 -0.0509 -0.4206  0.6686
  552ntf    on5 2605   0.316   0.844   2.230 -0.6145 -0.2055 -0.1445
  552ntf    on5 2606  -0.062   1.002   2.207  0.1365 -0.4117 -0.8762
  552ntf    on5 2607   0.031   1.224   2.150 -0.3984 -0.4342 -0.0871
  552ntf    fn4 2608   0.144   1.008   2.438  0.2727 -0.2614 -0.3582
  552ntf    fn4 2609   0.215   1.193   2.379  0.5222 -0.3913  0.1509
  552ntf    fn4 2610   0.013   1.183   2.434 -0.2853  0.1856 -0.6751
  553ntf    cn1 2611   0.344   1.595   4.392 -0.5719 -0.0426 -0.0675
  553ntf    sn2 2612   0.197   1.688   4.444 -0.4936  0.0036  0.0725
  553ntf    nn3 2613   0.181   1.802   4.338 -0.5011  0.2269  0.3121
  553ntf    sn2 2614   0.220   1.954   4.346  0.5998 -0.0324  0.0788
  553ntf    cn1 2615   0.343   1.975   4.213  0.2123 -0.0978 -0.2898
  553ntf    fn4 2616   0.329   1.536   4.274 -0.0436 -0.5730  0.1263
  553ntf    fn4 2617   0.455   1.664   4.371 -0.4263 -0.2094  0.1494
  553ntf    fn4 2618   0.364   1.497   4.478  0.2275  0.4555  0.3223
  553ntf    on5 2619   0.089   1.594   4.421 -0.5536  0.1148 -0.1061
  553ntf    on5 2620   0.235   1.724   4.578  0.0625 -1.0492  0.2031
  553ntf    on5 2621   0.298   1.999   4.459  0.2549  0.3408  0.1711
  553ntf    on5 2622   0.108   2.036   4.306  0.7872  0.1280 -0.1198
  553ntf    fn4 2623   0.304   1.909   4.106 -0.6856  0.3345 -0.2399
  553ntf    fn4 2624   0.363   2.102   4.181  0.1588  0.1706  0.6897
  553ntf    fn4 2625   0.463   1.932   4.247  0.0708 -0.2680  0.0002
  554ntf    cn1 2626   0.166   2.250   6.786  0.1247 -0.0917  0.0407
  554ntf    sn2 2627   0.094   2.240   6.952 -0.1917 -0.0557 -0.0933
  554ntf    nn3 2628   0.172   2.361   7.013 -0.1779  0.0614 -0.3464
  554ntf    sn2 2629   0.315   2.357   7.079 -0.3859  0.1133  0.1065
  554ntf    cn1 2630   0.391   2.509   7.015 -0.2403  0.0232  0.0645
  554ntf    fn4 2631   0.117   2.166   6.696 -0.1479 -0.1642  0.2547
  554ntf    fn4 2632   0.146   2.375   6.749  0.0946 -0.1042  0.0148
  554ntf    fn4 2633   0.296   2.228   6.787  0.0405 -0.6707 -0.5318
  554ntf    on5 2634  -0.044   2.265   6.920 -0.2338 -0.0223  0.1080
  554ntf    on5 2635   0.129   2.112   7.009  0.3812  0.3216  0.4182
  554ntf    on5 2636   0.396   2.242   7.045  0.1504  0.3978  0.4127
  554ntf    on5 2637   0.305   2.385   7.220 -1.1472 -0.5638  0.1960
  554ntf    fn4 2638   0.336   2.617   7.068  0.1210  0.0403  0.4124
  554ntf    fn4 2639   0.521   2.525   7.027 -0.2667 -0.0745  0.5025
  554ntf    fn4 2640   0.362   2.518   6.886  0.4933 -0.2297 -0.1211
  555ntf    cn1 2641   1.080   0.671   5.773  0.4440 -0.1210  0.2961
  555ntf    sn2 2642   1.116   0.556   5.637 -0.2095 -0.2046  0.1899
  555ntf    nn3 2643   0.976   0.564   5.565 -0.0967 -0.5158 -0.0633
  555ntf    sn2 2644   0.830   0.514   5.594 -0.2156 -0.4098 -0.4714
  555ntf    cn1 2645   0.748   0.623   5.473 -0.0210 -0.1760 -0.3955
  555ntf    fn4 2646   1.024   0.785   5.735  0.0502 -0.4354 -0.0825
  555ntf    fn4 2647   0.991   0.620   5.857 -0.1215  0.3132 -0.0279
  555ntf    fn4 2648   1.188   0.715   5.834  0.3598  0.6106 -0.0701
  555ntf    on5 2649   1.230   0.609   5.566 -0.2436  0.0417  0.3191
  555ntf    on5 2650   1.148   0.435   5.707  0.3436 -0.2335 -0.1095
  555ntf    on5 2651   0.778   0.550   5.724  0.1959  0.0097 -0.4216
  555ntf    on5 2652   0.814   0.378   5.549 -0.3551 -0.3299 -0.6634
  555ntf    fn4 2653   0.789   0.592   5.351  0.4340 -0.2794 -0.2219
  555ntf    fn4 2654   0.616   0.615   5.480 -0.0323 -0.0995 -0.5252
  555ntf    fn4 2655   0.789   0.747   5.494 -0.2157 -0.2951  0.7627
  556ntf    cn1 2656   2.188   1.852   5.216  0.0139 -0.1260 -0.4860
  556ntf    sn2 2657   2.343   1.946   5.207 -0.0944  0.1049  0.0261
  556ntf    nn3 2658   2.447   1.829   5.221  0.2305  0.3843 -0.0534
  556ntf    sn2 2659   2.507   1.729   5.115  0.1454  0.1007  0.1658
  556ntf    cn1 2660   2.666   1.811   5.080  0.1678 -0.0221 -0.0180
  556ntf    fn4 2661   2.200   1.737   5.152 -0.1920 -0.2471 -0.3104
  556ntf    fn4 2662   2.150   1.820   5.339 -0.0681  0.2100 -0.4250
  556ntf    fn4 2663   2.090   1.916   5.154 -0.0777  0.3798  0.1695
  556ntf    on5 2664   2.342   2.005   5.076 -0.5887 -0.1391 -0.0826
  556ntf    on5 2665   2.348   2.038   5.318  1.0429  0.4599 -0.3085
  556ntf    on5 2666   2.443   1.706   4.988  0.6994  0.1841 -0.1315
  556ntf    on5 2667   2.557   1.610   5.178  0.1314 -0.2036 -0.3985
  556ntf    fn4 2668   2.747   1.800   5.183 -0.2895 -0.4570  0.3002
  556ntf    fn4 2669   2.725   1.746   4.981  0.2934 -0.0473  0.0738
  556ntf    fn4 2670   2.656   1.938   5.043 -0.1512 -0.0672 -0.0970
  557ntf    cn1 2671   0.993   0.246   5.142 -0.3063 -0.1675 -0.3504
  557ntf    sn2 2672   0.928   0.081   5.103 -0.2036 -0.2737 -0.0725
  557ntf    nn3 2673   0.782   0.108   5.152  0.2465  0.2789  1.0094
  557ntf    sn2 2674   0.677   0.007   5.210  0.0650 -0.2863 -0.2679
  557ntf    cn1 2675   0.673   0.067   5.381 -0.3258 -0.2976 -0.2709
  557ntf    fn4 2676   0.896   0.331   5.112 -0.3752  0.0544  0.4822
  557ntf    fn4 2677   1.025   0.259   5.270 -0.3016 -0.9104 -0.2704
  557ntf    fn4 2678   1.098   0.283   5.069  0.2351 -0.0718  0.4653
  557ntf    on5 2679   0.939   0.068   4.960  0.6862  0.1976 -0.0595
  557ntf    on5 2680   0.997  -0.014   5.187 -0.1400  0.0138  0.2010
  557ntf    on5 2681   0.712  -0.131   5.232  0.3114 -0.1195  0.4094
  557ntf    on5 2682   0.546   0.040   5.158 -0.2488  0.0082  0.6940
  557ntf    fn4 2683   0.794   0.096   5.426 -0.1414 -0.2645 -0.7846
  557ntf    fn4 2684   0.596   0.174   5.396  0.0630 -0.1039  0.4176
  557ntf    fn4 2685   0.635  -0.024   5.469  0.0178 -0.6136 -0.4449
  558ntf    cn1 2686   0.019   0.278   0.679  0.0189  0.2169  0.0901
  558ntf    sn2 2687   0.033   0.388   0.536  0.3079  0.1148  0.0387
  558ntf    nn3 2688   0.097   0.510   0.611 -0.2238  0.6309 -0.3356
  558ntf    sn2 2689   0.016   0.631   0.671  0.0126  0.5431  0.1590
  558ntf    cn1 2690   0.071   0.631   0.845  0.3140 -0.1632  0.0700
  558ntf    fn4 2691  -0.069   0.325   0.766 -0.0850 -0.0877  0.1522
  558ntf    fn4 2692  -0.022   0.154   0.656 -0.2302  0.3821 -0.3537
  558ntf    fn4 2693   0.137   0.267   0.738  0.1146  0.5468 -0.0436
  558ntf    on5 2694   0.126   0.323   0.447  0.0770 -0.6367  0.3420
  558ntf    on5 2695  -0.101   0.410   0.486  0.2478  0.4757  0.3523
  558ntf    on5 2696  -0.125   0.614   0.693  0.1340 -0.0550  0.5077
  558ntf    on5 2697   0.043   0.757   0.609  0.1090  0.5237  0.1608
  558ntf    fn4 2698   0.203   0.635   0.840  0.3150 -0.1226  0.1271
  558ntf    fn4 2699   0.023   0.735   0.911  0.4070 -0.1674  0.1442
  558ntf    fn4 2700   0.028   0.521   0.904 -0.1563  0.3249  0.6594
  559ntf    cn1 2701   0.134   1.318   1.241 -0.1716  0.3671 -0.1095
  559ntf    sn2 2702   0.190   1.486   1.282  0.0204  0.3186 -0.1751
  559ntf    nn3 2703   0.114   1.520   1.414  0.0537  0.4092 -0.1793
  559ntf    sn2 2704   0.173   1.577   1.548 -0.0619  0.1601 -0.0221
  559ntf    cn1 2705   0.181   1.756   1.518 -0.5011  0.2525  0.3942
  559ntf    fn4 2706   0.165   1.217   1.321 -0.2651  0.1898 -0.2957
  559ntf    fn4 2707   0.002   1.323   1.241 -0.1844  0.0231 -0.3387
  559ntf    fn4 2708   0.164   1.281   1.118  0.6987 -0.3312  0.3015
  559ntf    on5 2709   0.330   1.451   1.290 -0.0877 -0.0476  0.1487
  559ntf    on5 2710   0.148   1.570   1.173 -0.7725  0.2338  0.0645
  559ntf    on5 2711   0.312   1.545   1.574 -0.0963 -0.2225 -0.3062
  559ntf    on5 2712   0.066   1.569   1.644  0.1665  0.3992  0.2550
  559ntf    fn4 2713   0.281   1.780   1.435 -0.2992 -0.6276  0.3787
  559ntf    fn4 2714   0.074   1.804   1.457 -0.4945 -0.1997  0.0187
  559ntf    fn4 2715   0.209   1.829   1.625 -0.2815  0.1494  0.4084
  560ntf    cn1 2716   1.761   0.011   0.977  0.4596 -0.1727  0.2533
  560ntf    sn2 2717   1.619   0.107   0.918  0.2813 -0.4216  0.2723
  560ntf    nn3 2718   1.685   0.215   0.824 -0.0771 -0.5081 -0.0838
  560ntf    sn2 2719   1.611   0.322   0.736 -0.2561 -0.5648 -0.0035
  560ntf    cn1 2720   1.661   0.468   0.832 -0.0798 -0.2990 -0.4956
  560ntf    fn4 2721   1.728  -0.083   1.064 -0.6441 -0.1319 -0.1055
  560ntf    fn4 2722   1.822  -0.059   0.883 -0.2982 -0.1641 -0.2516
  560ntf    fn4 2723   1.848   0.093   1.034  0.0554  0.2198  0.3121
  560ntf    on5 2724   1.536   0.013   0.848  0.3166 -0.0707 -0.2506
  560ntf    on5 2725   1.571   0.176   1.035 -0.6386 -0.3207 -0.1525
  560ntf    on5 2726   1.467   0.329   0.739 -0.2420 -0.4162  0.4770
  560ntf    on5 2727   1.662   0.341   0.602 -0.8053 -0.2676 -0.1733
  560ntf    fn4 2728   1.666   0.569   0.746  0.3200  0.2332  0.1414
  560ntf    fn4 2729   1.579   0.502   0.930  0.2676  0.2665 -0.3986
  560ntf    fn4 2730   1.772   0.462   0.903 -0.0883 -0.0388 -0.4604
  561ntf    cn1 2731   2.227   0.523   3.407 -0.0425 -0.2687  0.1142
  561ntf    sn2 2732   2.374   0.533   3.300 -0.0472  0.1596  0.1480
  561ntf    nn3 2733   2.475   0.610   3.392  0.1063 -0.0947  0.1910
  561ntf    sn2 2734   2.592   0.703   3.345  0.0606 -0.3547 -0.4423
  561ntf    cn1 2735   2.514   0.864   3.380  0.6322 -0.1998  0.1400
  561ntf    fn4 2736   2.227   0.627   3.487 -0.8331 -0.5283  0.4562
  561ntf    fn4 2737   2.116   0.520   3.334 -0.2949  0.4010  0.4725
  561ntf    fn4 2738   2.231   0.412   3.479  0.0865 -0.1652  0.2650
  561ntf    on5 2739   2.411   0.396   3.278  0.0891  0.2126  0.0451
  561ntf    on5 2740   2.334   0.618   3.190  0.4292  0.3934  0.1504
  561ntf    on5 2741   2.610   0.710   3.202  0.0244 -0.9266 -0.4749
  561ntf    on5 2742   2.715   0.700   3.420 -0.2835 -0.3666  0.1214
  561ntf    fn4 2743   2.597   0.958   3.338 -0.0379  0.2051 -0.2929
  561ntf    fn4 2744   2.399   0.871   3.315  0.4377 -0.1408  0.4891
  561ntf    fn4 2745   2.503   0.880   3.511 -0.2894  0.6298 -0.0282
  562ntf    cn1 2746   0.215   0.906   1.096  0.2216  0.0903  0.2083
  562ntf    sn2 2747   0.379   0.926   1.174  0.1032  0.3175  0.4026
  562ntf    nn3 2748   0.404   0.780   1.227 -0.4964  0.1846  0.3301
  562ntf    sn2 2749   0.500   0.736   1.343  0.0473 -0.1159 -0.2252
  562ntf    cn1 2750   0.388   0.754   1.485 -0.0168  0.0164 -0.2917
  562ntf    fn4 2751   0.127   0.842   1.171  0.1789 -0.6783 -0.4964
  562ntf    fn4 2752   0.150   1.022   1.091 -0.5236 -0.3275  0.1416
  562ntf    fn4 2753   0.218   0.844   0.980  0.1058 -0.1798  0.3490
  562ntf    on5 2754   0.460   0.972   1.064  0.0748  0.2113  0.3368
  562ntf    on5 2755   0.345   1.023   1.274 -0.4355  0.1641  0.3723
  562ntf    on5 2756   0.599   0.839   1.367 -0.4664  0.2694  0.2910
  562ntf    on5 2757   0.531   0.596   1.356  0.0842 -0.0625  0.2843
  562ntf    fn4 2758   0.349   0.878   1.507  0.0224 -0.0807  0.3685
  562ntf    fn4 2759   0.282   0.676   1.473 -0.3038  0.3210  0.2243
  562ntf    fn4 2760   0.436   0.729   1.606 -0.4873 -0.1700 -0.1374
  563ntf    cn1 2761   0.608   0.602   6.745  0.2364  0.5297  0.4016
  563ntf    sn2 2762   0.763   0.551   6.665 -0.0558 -0.2116  0.2974
  563ntf    nn3 2763   0.745   0.608   6.519 -0.2187 -0.2401  0.3055
  563ntf    sn2 2764   0.848   0.618   6.401 -0.2802 -0.0376  0.2688
  563ntf    cn1 2765   0.914   0.786   6.418 -0.0211 -0.1361  0.2503
  563ntf    fn4 2766   0.500   0.540   6.700  0.5866  0.3135 -0.1509
  563ntf    fn4 2767   0.598   0.579   6.875  0.2926 -0.1148  0.2945
  563ntf    fn4 2768   0.586   0.730   6.720 -0.0243  0.3674 -0.2205
  563ntf    on5 2769   0.860   0.618   6.747  0.2644  0.1452 -0.3641
  563ntf    on5 2770   0.754   0.408   6.677  0.5079 -0.2755  0.0043
  563ntf    on5 2771   0.786   0.615   6.271 -0.0171 -0.0001  0.1404
  563ntf    on5 2772   0.966   0.536   6.419 -0.0934  0.2802  0.4973
  563ntf    fn4 2773   0.816   0.875   6.425  0.2961  0.2218  0.2198
  563ntf    fn4 2774   0.995   0.802   6.522 -0.0533  0.3663  0.2013
  563ntf    fn4 2775   0.984   0.817   6.310  0.0638 -0.0569  0.3271
  564ntf    cn1 2776   0.100   1.974   3.231  0.1997 -0.0974  0.7379
  564ntf    sn2 2777  -0.064   1.915   3.179  0.4188 -0.3418  0.3149
  564ntf    nn3 2778  -0.041   1.765   3.138 -0.7553 -0.4578  0.0495
  564ntf    sn2 2779  -0.024   1.700   2.996  0.0181 -0.0529 -0.0496
  564ntf    cn1 2780   0.088   1.562   3.034  0.1163  0.0000 -0.1449
  564ntf    fn4 2781   0.153   1.894   3.321  0.5974 -0.4381  0.2071
  564ntf    fn4 2782   0.187   1.981   3.131 -0.3101  0.3669  0.3181
  564ntf    fn4 2783   0.100   2.093   3.288  0.3143 -0.0840  0.7101
  564ntf    on5 2784  -0.145   1.939   3.297 -0.6715  0.2482 -0.5364
  564ntf    on5 2785  -0.091   2.009   3.074 -0.0057 -0.0780  0.6590
  564ntf    on5 2786   0.053   1.773   2.898  0.1157 -0.3412 -0.1870
  564ntf    on5 2787  -0.144   1.631   2.956  0.2109 -0.3535 -0.1116
  564ntf    fn4 2788   0.144   1.514   2.924  0.1830  0.4225 -0.2970
  564ntf    fn4 2789   0.191   1.590   3.112  0.2296  0.1235 -0.3390
  564ntf    fn4 2790   0.029   1.456   3.087  0.2771 -0.1097 -0.1850
  565ntf    cn1 2791   1.770   1.797   2.917 -0.2164 -0.0508  0.1402
  565ntf    sn2 2792   1.669   1.946   2.895  0.0752  0.1639  0.2621
  565ntf    nn3 2793   1.529   1.881   2.870  0.1939  0.1659 -0.4439
  565ntf    sn2 2794   1.444   1.885   2.738 -0.0746  0.2990 -0.2698
  565ntf    cn1 2795   1.543   1.771   2.636 -0.0923 -0.0183  0.0656
  565ntf    fn4 2796   1.833   1.777   2.803 -0.7106  0.4772 -0.2306
  565ntf    fn4 2797   1.863   1.802   3.011 -0.0674 -0.4656  0.0176
  565ntf    fn4 2798   1.701   1.687   2.943  0.3519 -0.3664  0.3324
  565ntf    on5 2799   1.671   2.010   3.024  0.1132  0.2522  0.2185
  565ntf    on5 2800   1.729   2.017   2.784  0.2766 -0.1489  0.1696
  565ntf    on5 2801   1.446   2.005   2.658 -0.0165  0.1718 -0.4608
  565ntf    on5 2802   1.318   1.816   2.749  0.1001  0.0293  0.0554
  565ntf    fn4 2803   1.555   1.656   2.699 -1.2896 -0.1514  0.0707
  565ntf    fn4 2804   1.478   1.749   2.523  0.1066  0.0088 -0.0543
  565ntf    fn4 2805   1.666   1.818   2.621  0.0001 -0.3499 -0.2317
  566ntf    cn1 2806   0.024   0.091   2.243 -0.6422 -0.3163 -0.1352
  566ntf    sn2 2807  -0.017  -0.086   2.244 -0.0765 -0.4490 -0.1745
  566ntf    nn3 2808  -0.064  -0.103   2.095  0.0896 -0.6239 -0.2076
  566ntf    sn2 2809   0.017  -0.155   1.971  0.3529 -0.1724 -0.2288
  566ntf    cn1 2810  -0.077  -0.065   1.845  0.3373 -0.3566 -0.3497
  566ntf    fn4 2811   0.060   0.135   2.363 -0.1434  0.0795 -0.4226
  566ntf    fn4 2812   0.121   0.121   2.157 -0.0887  0.0048  0.5905
  566ntf    fn4 2813  -0.084   0.160   2.210 -0.0759  0.5188 -0.2925
  566ntf    on5 2814   0.107  -0.155   2.271 -0.0737 -0.5881 -0.5400
  566ntf    on5 2815  -0.115  -0.112   2.346  0.4387  0.2556  0.5201
  566ntf    on5 2816  -0.007  -0.293   1.935 -0.2295 -0.1878  0.2023
  566ntf    on5 2817   0.152  -0.106   1.958  0.4898 -0.5787 -0.3817
  566ntf    fn4 2818  -0.206  -0.054   1.869  0.4374 -0.3269  0.1888
  566ntf    fn4 2819  -0.029   0.059   1.839 -0.1158 -0.1645 -0.0004
  566ntf    fn4 2820  -0.065  -0.110   1.721 -0.0772 -0.1858 -0.4529
  567ntf    cn1 2821   0.332   0.113   2.548 -0.0254  0.1191  0.2713
  567ntf    sn2 2822   0.313   0.289   2.507 -0.1073  0.0259 -0.0928
  567ntf    nn3 2823   0.383   0.314   2.368  0.3214 -0.1109  0.0965
  567ntf    sn2 2824   0.537   0.329   2.341  0.2777  0.5121  0.1927
  567ntf    cn1 2825   0.567   0.201   2.216  0.3077  0.3877  0.3270
  567ntf    fn4 2826   0.458   0.082   2.574 -0.1490 -0.2976  0.3853
  567ntf    fn4 2827   0.257   0.087   2.654  0.2928 -0.7011  0.2994
  567ntf    fn4 2828   0.286   0.033   2.453 -0.1435 -0.3589  0.7312
  567ntf    on5 2829   0.172   0.314   2.511 -0.1398 -0.0112 -0.8561
  567ntf    on5 2830   0.382   0.359   2.612  0.3532 -0.2502 -0.2052
  567ntf    on5 2831   0.628   0.295   2.448  0.3627  0.4386  0.0971
  567ntf    on5 2832   0.576   0.451   2.275  0.8416  0.2402  0.0179
  567ntf    fn4 2833   0.684   0.216   2.155  0.2919 -0.0704  0.1807
  567ntf    fn4 2834   0.575   0.077   2.260  0.5072  0.2265 -0.1496
  567ntf    fn4 2835   0.475   0.206   2.121  0.5226  0.5896  0.1272
  568ntf    cn1 2836   0.956   1.056   3.239  0.0259  0.3782  0.0522
  568ntf    sn2 2837   0.893   0.929   3.354 -0.0863  0.0241 -0.3982
  568ntf    nn3 2838   0.821   1.027   3.453  0.0186  0.2369 -0.5325
  568ntf    sn2 2839   0.834   1.074   3.602 -0.0516  0.2115 -0.5188
  568ntf    cn1 2840   0.662   1.057   3.659  0.1883 -0.0567  0.1418
  568ntf    fn4 2841   0.976   1.008   3.117 -0.1119 -0.5372  0.3811
  568ntf    fn4 2842   0.863   1.149   3.231  0.1614  0.4897 -0.2214
  568ntf    fn4 2843   1.073   1.103   3.279 -0.0353 -0.0789  0.7941
  568ntf    on5 2844   0.794   0.856   3.278 -0.1185 -0.6374  0.2718
  568ntf    on5 2845   1.001   0.853   3.411  0.0920  0.7387  0.2291
  568ntf    on5 2846   0.861   1.214   3.623 -0.4601  0.1093  0.8267
  568ntf    on5 2847   0.900   0.981   3.690 -0.2733  0.1354 -0.4323
  568ntf    fn4 2848   0.645   1.068   3.790  0.2122 -0.2136  0.1585
  568ntf    fn4 2849   0.589   1.151   3.601 -0.3629 -0.3355  0.3805
  568ntf    fn4 2850   0.612   0.941   3.621 -0.3576  0.3147 -0.2944
  569ntf    cn1 2851   0.845   0.966   2.792  0.1763 -0.4226 -0.2657
  569ntf    sn2 2852   0.732   0.909   2.662  0.0371  0.0463 -0.3541
  569ntf    nn3 2853   0.640   1.035   2.656  0.2205  0.1667 -0.6866
  569ntf    sn2 2854   0.544   1.071   2.537 -0.2168  0.2991 -0.3003
  569ntf    cn1 2855   0.647   1.189   2.444  0.1857  0.0873 -0.1253
  569ntf    fn4 2856   0.784   1.000   2.905 -0.4291 -0.3670 -0.6079
  569ntf    fn4 2857   0.932   0.871   2.821  0.9037  0.5089  0.7293
  569ntf    fn4 2858   0.912   1.076   2.760 -0.2253 -0.0953  0.0008
  569ntf    on5 2859   0.820   0.882   2.551 -0.0375 -0.4664 -0.2921
  569ntf    on5 2860   0.666   0.792   2.714  0.2967 -0.0601 -0.2615
  569ntf    on5 2861   0.427   1.148   2.572 -0.2556  0.1850 -0.1790
  569ntf    on5 2862   0.522   0.961   2.446 -0.1529  0.2282 -0.2302
  569ntf    fn4 2863   0.766   1.135   2.420 -0.1309 -0.4498 -0.5219
  569ntf    fn4 2864   0.593   1.221   2.327 -0.5266 -0.8096 -0.0567
  569ntf    fn4 2865   0.669   1.295   2.519 -0.0800  0.4314 -0.5309
  570ntf    cn1 2866   1.721   0.858   5.881 -0.5202 -0.0036  0.0461
  570ntf    sn2 2867   1.846   0.973   5.817 -0.4494 -0.1546 -0.0901
  570ntf    nn3 2868   1.896   0.893   5.692  0.0763 -0.0962  0.0799
  570ntf    sn2 2869   2.035   0.819   5.690  0.0380 -0.1778  0.4002
  570ntf    cn1 2870   2.156   0.947   5.646 -0.2302 -0.0984 -0.1155
  570ntf    fn4 2871   1.650   0.902   5.983  0.1297  0.2047  0.4156
  570ntf    fn4 2872   1.634   0.834   5.784 -0.6787 -0.2707  0.2520
  570ntf    fn4 2873   1.774   0.740   5.907 -0.3811 -0.0566 -0.4524
  570ntf    on5 2874   1.759   1.082   5.779 -0.1110  0.4365  0.7852
  570ntf    on5 2875   1.939   0.993   5.926 -0.8699 -0.9138  0.4162
  570ntf    on5 2876   2.041   0.734   5.574  0.2099  0.2546  0.0853
  570ntf    on5 2877   2.081   0.757   5.811  0.0256  0.0084  0.5009
  570ntf    fn4 2878   2.147   1.047   5.731 -0.5154 -0.2370  0.0181
  570ntf    fn4 2879   2.282   0.905   5.646  0.1892  1.1025  0.1485
  570ntf    fn4 2880   2.138   1.008   5.530 -0.1054 -0.3426 -0.2637
  571ntf    cn1 2881   1.934   0.447   2.923 -0.0391  0.1512  0.2834
  571ntf    sn2 2882   1.805   0.352   2.838  0.2625 -0.0909  0.0923
  571ntf    nn3 2883   1.850   0.204   2.867  0.3578 -0.0007  0.4093
  571ntf    sn2 2884   1.969   0.120   2.808  0.3669  0.2305  0.0959
  571ntf    cn1 2885   2.066   0.101   2.960  0.3218  0.0106  0.0967
  571ntf    fn4 2886   2.053   0.388   2.917 -0.2730 -0.3363  0.4196
  571ntf    fn4 2887   1.941   0.570   2.874 -0.0479 -0.2480 -0.7567
  571ntf    fn4 2888   1.907   0.471   3.050 -0.4465 -0.0736  0.2391
  571ntf    on5 2889   1.687   0.373   2.918  0.0274  0.3940 -0.3753
  571ntf    on5 2890   1.810   0.403   2.703  0.6117  0.1808  0.2080
  571ntf    on5 2891   2.061   0.187   2.720 -0.1720  0.2190 -0.4886
  571ntf    on5 2892   1.930  -0.015   2.775  0.4911  0.2595 -0.1741
  571ntf    fn4 2893   2.190   0.061   2.935  0.2263 -0.5887  0.5476
  571ntf    fn4 2894   2.073   0.213   3.030 -0.5379  0.2428 -0.1734
  571ntf    fn4 2895   2.015   0.014   3.046  0.2953  0.2260  0.2997
  572ntf    cn1 2896   0.013   2.461   4.288 -0.4431  0.2659 -0.2017
  572ntf    sn2 2897  -0.061   2.433   4.124  0.1472  0.0179 -0.4300
  572ntf    nn3 2898   0.022   2.527   4.030  0.0973  0.1681 -0.3252
  572ntf    sn2 2899   0.000   2.678   3.991 -0.0837  0.1579 -0.2659
  572ntf    cn1 2900  -0.058   2.675   3.819 -0.0409  0.3116 -0.2825
  572ntf    fn4 2901   0.140   2.432   4.263 -0.3452  0.2027  0.3558
  572ntf    fn4 2902   0.011   2.586   4.331  0.2509  0.1313  0.2399
  572ntf    fn4 2903  -0.044   2.389   4.383  0.1731  0.0638  0.0231
  572ntf    on5 2904  -0.025   2.296   4.098 -0.0986 -0.3226  0.9279
  572ntf    on5 2905  -0.202   2.454   4.146  0.2841  0.6492 -0.1121
  572ntf    on5 2906   0.128   2.744   3.986 -0.1901  0.3606 -0.2997
  572ntf    on5 2907  -0.098   2.746   4.071  0.0998 -0.2513  0.3200
  572ntf    fn4 2908  -0.137   2.570   3.803 -0.4254  0.5684 -0.0845
  572ntf    fn4 2909  -0.133   2.778   3.781  0.3724  0.5682 -0.4110
  572ntf    fn4 2910   0.044   2.664   3.736  0.2904 -0.3230  0.2072
  573ntf    cn1 2911   0.964   2.413   3.462 -0.1736 -0.7206 -0.2079
  573ntf    sn2 2912   1.051   2.324   3.329  0.1185 -0.2129 -0.3581
  573ntf    nn3 2913   1.130   2.222   3.418 -0.1720 -0.3897 -0.2986
  573ntf    sn2 2914   1.287   2.225   3.432 -0.1732  0.0301 -0.3525
  573ntf    cn1 2915   1.317   2.336   3.573 -0.3067  0.1328 -0.4037
  573ntf    fn4 2916   0.877   2.504   3.422  0.6333  0.1460 -0.0174
  573ntf    fn4 2917   0.900   2.330   3.543 -0.1668 -0.1846  0.3509
  573ntf    fn4 2918   1.050   2.475   3.541  0.1244  0.0616 -1.1220
  573ntf    on5 2919   0.944   2.259   3.257 -0.3374  0.2029 -0.0702
  573ntf    on5 2920   1.122   2.430   3.261 -0.1910  0.3810  0.2312
  573ntf    on5 2921   1.353   2.284   3.318  0.3297 -0.2200 -0.1898
  573ntf    on5 2922   1.327   2.092   3.470 -0.0420  0.0622 -0.3791
  573ntf    fn4 2923   1.241   2.301   3.675 -0.1742 -0.4794 -0.5052
  573ntf    fn4 2924   1.440   2.331   3.622 -0.6217  0.5447  0.4344
  573ntf    fn4 2925   1.282   2.460   3.546 -0.2642  0.1938 -0.1841
  574ntf    cn1 2926   2.350   0.540   5.503 -0.9080 -0.2139  0.2753
  574ntf    sn2 2927   2.291   0.537   5.331  0.2834  0.4312 -0.1583
  574ntf    nn3 2928   2.342   0.675   5.277  0.6213  0.3438 -0.0615
  574ntf    sn2 2929   2.394   0.707   5.133  0.3426  0.1629 -0.2029
  574ntf    cn1 2930   2.566   0.654   5.159  0.2056 -0.1133  0.1534
  574ntf    fn4 2931   2.482   0.538   5.500 -0.9087  0.3753 -0.4538
  574ntf    fn4 2932   2.313   0.645   5.574  0.2208  0.2189  0.2372
  574ntf    fn4 2933   2.315   0.432   5.572  0.1317 -0.6517  0.1398
  574ntf    on5 2934   2.363   0.434   5.260 -0.5818 -0.6039  0.4388
  574ntf    on5 2935   2.148   0.519   5.339  0.2265  0.4688 -1.0434
  574ntf    on5 2936   2.399   0.848   5.104 -0.3177  0.1489 -0.3852
  574ntf    on5 2937   2.347   0.622   5.026  0.2356  0.1211 -0.1233
  574ntf    fn4 2938   2.582   0.523   5.164  0.0932 -0.1020  0.7882
  574ntf    fn4 2939   2.646   0.691   5.060 -0.0410 -0.0256 -0.0126
  574ntf    fn4 2940   2.615   0.703   5.271 -0.0561 -0.1046  0.2630
  575ntf    cn1 2941   0.468   2.387   1.606 -0.0385 -0.1483  0.0202
  575ntf    sn2 2942   0.646   2.401   1.570 -0.0044 -0.3115  0.1288
  575ntf    nn3 2943   0.688   2.423   1.720 -0.4838 -0.6872  0.3220
  575ntf    sn2 2944   0.820   2.373   1.789  0.0492  0.1786 -0.0601
  575ntf    cn1 2945   0.910   2.520   1.848 -0.0350 -0.0265  0.5786
  575ntf    fn4 2946   0.435   2.273   1.663  0.7609 -0.2879  0.2178
  575ntf    fn4 2947   0.417   2.483   1.682  0.0122  0.0945 -0.2496
  575ntf    fn4 2948   0.399   2.394   1.493 -0.0971  0.0688  0.0683
  575ntf    on5 2949   0.696   2.282   1.505  0.5904  0.2493 -0.4483
  575ntf    on5 2950   0.651   2.526   1.498  0.0768 -0.2430  0.2530
  575ntf    on5 2951   0.916   2.303   1.707 -0.2239  0.1356 -0.3489
  575ntf    on5 2952   0.786   2.314   1.915 -0.3312  0.0867 -0.2054
  575ntf    fn4 2953   0.819   2.604   1.894 -0.4461 -0.1845  0.0695
  575ntf    fn4 2954   1.002   2.500   1.940  0.1870  0.0839  0.3804
  575ntf    fn4 2955   0.974   2.581   1.750 -0.2198  0.0268  0.4901
  576ntf    cn1 2956   0.156   1.936   6.483 -0.1351  0.2745 -0.0150
  576ntf    sn2 2957   0.130   1.760   6.442  0.3142  0.1237  0.3372
  576ntf    nn3 2958   0.280   1.715   6.433  0.3386  0.3338 -0.3389
  576ntf    sn2 2959   0.335   1.598   6.343 -0.1275 -0.2360  0.1096
  576ntf    cn1 2960   0.324   1.670   6.176 -0.0034 -0.0508  0.1818
  576ntf    fn4 2961   0.237   1.943   6.587 -0.2117 -0.0972  0.0712
  576ntf    fn4 2962   0.217   2.002   6.386  0.3974 -0.0623  0.0847
  576ntf    fn4 2963   0.042   1.994   6.514 -0.3285 -0.1977  0.1608
  576ntf    on5 2964   0.056   1.704   6.552 -0.5921 -0.2095 -0.4348
  576ntf    on5 2965   0.062   1.762   6.315  0.0656 -0.2725  0.4633
  576ntf    on5 2966   0.257   1.477   6.344 -0.2410 -0.1707 -0.4304
  576ntf    on5 2967   0.476   1.585   6.368 -0.0406 -0.4189 -0.4570
  576ntf    fn4 2968   0.427   1.622   6.109  0.1093  0.2214  0.1568
  576ntf    fn4 2969   0.214   1.644   6.109  0.0970 -0.2572  0.0988
  576ntf    fn4 2970   0.350   1.800   6.172  0.3711 -0.1397 -0.2970
  577ntf    cn1 2971   0.598   1.083   5.734  0.0237 -0.0303 -0.3559
  577ntf    sn2 2972   0.666   1.222   5.640 -0.0881  0.1959 -0.1050
  577ntf    nn3 2973   0.625   1.343   5.731 -0.4246  0.3011 -0.3914
  577ntf    sn2 2974   0.722   1.398   5.842 -0.4578  0.3612 -0.3923
  577ntf    cn1 2975   0.598   1.402   5.975 -0.0207 -0.0347  0.0280
  577ntf    fn4 2976   0.621   0.969   5.672  0.2131  0.1322 -0.5844
  577ntf    fn4 2977   0.638   1.084   5.861 -0.4527 -0.5434 -0.1960
  577ntf    fn4 2978   0.466   1.094   5.734  0.0896  0.9073  0.1691
  577ntf    on5 2979   0.805   1.187   5.627 -0.0070  0.3626  0.2971
  577ntf    on5 2980   0.585   1.223   5.520 -0.0628 -0.0223 -0.1247
  577ntf    on5 2981   0.766   1.535   5.831 -0.1700  0.3017  0.0135
  577ntf    on5 2982   0.815   1.308   5.905 -0.1741  0.5933 -0.4764
  577ntf    fn4 2983   0.589   1.290   6.045 -0.5283 -0.0064  0.0102
  577ntf    fn4 2984   0.608   1.499   6.064 -0.1540 -0.1908  0.2160
  577ntf    fn4 2985   0.480   1.438   5.926  0.2591  0.4933 -0.2587
  578ntf    cn1 2986   0.885   1.872   3.792 -0.3386 -0.2891 -0.4267
  578ntf    sn2 2987   1.022   1.754   3.772  0.0793  0.1061  0.0673
  578ntf    nn3 2988   1.051   1.729   3.924 -0.1064  0.6314  0.1915
  578ntf    sn2 2989   0.989   1.616   4.014  0.1772  0.1423 -0.2205
  578ntf    cn1 2990   0.937   1.722   4.152 -0.1328 -0.2917  0.0000
  578ntf    fn4 2991   0.835   1.901   3.673  0.3988  0.1380 -0.6390
  578ntf    fn4 2992   0.784   1.832   3.868 -0.0184 -0.2504  0.0250
  578ntf    fn4 2993   0.925   1.985   3.847  0.4101 -0.5380 -0.4473
  578ntf    on5 2994   0.966   1.647   3.693  0.9464 -0.2709 -0.0440
  578ntf    on5 2995   1.129   1.829   3.711 -0.0404 -0.0071 -0.2856
  578ntf    on5 2996   1.087   1.529   4.075 -0.1648 -0.0803  0.0115
  578ntf    on5 2997   0.860   1.561   3.981  0.6520 -1.0271 -0.1891
  578ntf    fn4 2998   0.848   1.656   4.224 -0.0704  0.1178  0.4607
  578ntf    fn4 2999   1.033   1.761   4.235 -0.0140 -0.1857 -0.1860
  578ntf    fn4 3000   0.896   1.832   4.090  0.1527 -0.1495  0.0594
  579ntf    cn1 3001   0.727  -0.005   6.816 -0.1791 -0.3689 -0.1761
  579ntf    sn2 3002   0.804  -0.102   6.683  0.0597 -0.2115 -0.1554
  579ntf    nn3 3003   0.926  -0.156   6.765  0.0459  0.2817  0.1943
  579ntf    sn2 3004   1.059  -0.221   6.711  0.1864  0.4499  0.3365
  579ntf    cn1 3005   1.169  -0.078   6.688  0.4775  0.2507  0.4873
  579ntf    fn4 3006   0.818   0.083   6.856 -0.3988 -0.0624 -0.3452
  579ntf    fn4 3007   0.623   0.059   6.765 -0.4015 -0.2666  0.3977
  579ntf    fn4 3008   0.684  -0.077   6.918  0.2883 -0.3550  0.0328
  579ntf    on5 3009   0.698  -0.195   6.651 -0.1279 -0.0247 -0.0804
  579ntf    on5 3010   0.831  -0.004   6.580 -0.2447 -0.1599 -0.1889
  579ntf    on5 3011   1.059  -0.275   6.578  0.1557 -0.0906  0.5523
  579ntf    on5 3012   1.113  -0.309   6.812 -0.8733 -0.7217 -0.0890
  579ntf    fn4 3013   1.163  -0.013   6.803 -0.2320  0.4651  0.3322
  579ntf    fn4 3014   1.292  -0.108   6.650  0.2945  0.2085 -0.0804
  579ntf    fn4 3015   1.110   0.001   6.599  0.1997  0.0780  0.5151
  580ntf    cn1 3016   0.881   1.033   4.738  0.2568  0.2335 -0.4080
  580ntf    sn2 3017   0.831   1.186   4.822 -0.1385  0.1053 -0.4105
  580ntf    nn3 3018   0.689   1.203   4.756 -0.3484 -0.4012 -0.0964
  580ntf    sn2 3019   0.647   1.268   4.619  0.2727  0.0302 -0.0829
  580ntf    cn1 3020   0.616   1.440   4.669 -0.0796 -0.2059  0.5239
  580ntf    fn4 3021   0.783   0.964   4.681  0.1120  0.0169  0.0989
  580ntf    fn4 3022   0.959   1.066   4.636  0.2358  0.2089 -0.4319
  580ntf    fn4 3023   0.946   0.952   4.821  0.0031  0.1561 -0.2855
  580ntf    on5 3024   0.806   1.159   4.961 -0.1696  0.2909 -0.3806
  580ntf    on5 3025   0.935   1.280   4.789  0.1384 -0.2207 -0.4735
  580ntf    on5 3026   0.514   1.223   4.589  0.2376  0.3046 -0.3377
  580ntf    on5 3027   0.742   1.262   4.511  0.3488 -0.5890  0.0179
  580ntf    fn4 3028   0.519   1.458   4.757 -0.1490  0.0931  0.3895
  580ntf    fn4 3029   0.723   1.486   4.732 -0.2223  0.3369  0.3740
  580ntf    fn4 3030   0.582   1.525   4.573 -0.5886 -0.1573  0.7427
  581ntf    cn1 3031   2.273   1.617   3.966 -0.2970  0.0142  0.0590
  581ntf    sn2 3032   2.110   1.636   3.889 -0.2033  0.3139 -0.0636
  581ntf    nn3 3033   2.128   1.533   3.772  0.8339  0.2673  0.1358
  581ntf    sn2 3034   2.149   1.571   3.621 -0.2034 -0.2173 -0.1335
  581ntf    cn1 3035   2.150   1.410   3.536  0.1038 -0.1525 -0.2533
  581ntf    fn4 3036   2.370   1.613   3.876 -0.3561 -0.3461  0.0070
  581ntf    fn4 3037   2.297   1.720   4.045  0.6411 -0.1291 -0.0224
  581ntf    fn4 3038   2.292   1.502   4.029 -0.1814  0.0825  0.1496
  581ntf    on5 3039   2.020   1.586   3.990 -0.6351  0.3862 -0.4069
  581ntf    on5 3040   2.094   1.778   3.864  0.9191  0.5212  0.3740
  581ntf    on5 3041   2.281   1.624   3.605 -0.1598 -0.1962  0.2728
  581ntf    on5 3042   2.042   1.638   3.551 -0.1075  0.2760  0.1887
  581ntf    fn4 3043   2.038   1.340   3.551  0.0116 -0.1667 -0.9722
  581ntf    fn4 3044   2.178   1.420   3.408 -0.1206 -0.1233 -0.3013
  581ntf    fn4 3045   2.252   1.343   3.586  0.2239  0.0323 -0.2523
  582ntf    cn1 3046   1.532   1.621   6.921  0.0287  0.3907  0.2596
  582ntf    sn2 3047   1.381   1.700   6.986 -0.3537 -0.1297  0.0079
  582ntf    nn3 3048   1.270   1.591   6.967 -0.1187 -0.2902 -0.4646
  582ntf    sn2 3049   1.239   1.478   7.072 -0.1731 -0.0983 -0.2738
  582ntf    cn1 3050   1.155   1.358   6.964 -0.0078 -0.3810 -0.0873
  582ntf    fn4 3051   1.507   1.587   6.795 -0.0511 -0.2659  0.4509
  582ntf    fn4 3052   1.635   1.704   6.927 -0.1068  0.5845 -0.0438
  582ntf    fn4 3053   1.569   1.508   6.977 -0.1592  0.3219  0.2441
  582ntf    on5 3054   1.410   1.730   7.124 -0.2107 -0.2912  0.0147
  582ntf    on5 3055   1.372   1.809   6.892  0.3872  0.2239  0.3388
  582ntf    on5 3056   1.138   1.511   7.169  0.7796 -0.0687  0.7145
  582ntf    on5 3057   1.351   1.403   7.122  0.1040 -0.0286 -0.7777
  582ntf    fn4 3058   1.073   1.420   6.880  0.2932  0.0650 -0.0552
  582ntf    fn4 3059   1.238   1.296   6.881  0.3030  0.5912 -0.5137
  582ntf    fn4 3060   1.089   1.263   7.029 -0.5347  0.0391  0.0012
  583ntf    cn1 3061   0.465   2.171   3.540 -0.4877 -0.1167 -0.3436
  583ntf    sn2 3062   0.370   2.326   3.538 -0.0390  0.1588 -0.3969
  583ntf    nn3 3063   0.496   2.418   3.519  0.3833 -0.3968 -0.3141
  583ntf    sn2 3064   0.543   2.485   3.385  0.2128  0.1291 -0.1137
  583ntf    cn1 3065   0.611   2.647   3.432 -0.1134  0.2234  0.0390
  583ntf    fn4 3066   0.392   2.070   3.584 -0.3906 -0.3803 -0.7846
  583ntf    fn4 3067   0.509   2.133   3.422  0.1717 -0.1176 -0.1002
  583ntf    fn4 3068   0.574   2.196   3.610 -0.5658 -0.0356 -0.2509
  583ntf    on5 3069   0.277   2.304   3.429  0.1915  0.4689 -0.6600
  583ntf    on5 3070   0.319   2.345   3.671 -0.1628  0.4609 -0.4876
  583ntf    on5 3071   0.429   2.537   3.315  0.0378  0.6784  0.5686
  583ntf    on5 3072   0.654   2.424   3.317  0.0648 -0.3757  0.0938
  583ntf    fn4 3073   0.523   2.715   3.503 -0.5047 -0.2609  0.0249
  583ntf    fn4 3074   0.710   2.622   3.517 -0.6999 -0.2282  0.5950
  583ntf    fn4 3075   0.646   2.725   3.331  0.3934 -0.4139 -0.2889
  584ntf    cn1 3076   1.618   1.716   4.095 -0.0605  0.1278  0.1672
  584ntf    sn2 3077   1.546   1.776   4.251 -0.1355  0.2021  0.1047
  584ntf    nn3 3078   1.496   1.906   4.180 -0.0141  0.6316  0.7905
  584ntf    sn2 3079   1.576   2.037   4.145  0.0207  0.3916 -0.0562
  584ntf    cn1 3080   1.523   2.149   4.278 -0.4624 -0.2041  0.2550
  584ntf    fn4 3081   1.622   1.584   4.095  0.0852  0.1322 -0.0737
  584ntf    fn4 3082   1.539   1.747   3.994  0.0067 -0.2753 -0.0063
  584ntf    fn4 3083   1.738   1.767   4.072 -0.1483  0.0679 -0.4145
  584ntf    on5 3084   1.442   1.682   4.285 -0.5774  0.5997 -0.1361
  584ntf    on5 3085   1.655   1.796   4.344 -0.3559 -0.1130  0.4338
  584ntf    on5 3086   1.521   2.101   4.028  0.0036 -0.1731 -0.3599
  584ntf    on5 3087   1.719   2.033   4.158  0.0390  0.0142 -0.3819
  584ntf    fn4 3088   1.391   2.145   4.291 -0.4341 -0.3737  0.5061
  584ntf    fn4 3089   1.561   2.116   4.400  0.0449  0.1331  0.1922
  584ntf    fn4 3090   1.556   2.276   4.259 -0.6948 -0.2377 -0.3983
  585ntf    cn1 3091   1.735   2.122   1.637  0.1118  0.4326 -0.0165
  585ntf    sn2 3092   1.687   2.111   1.812  0.2151  0.0530 -0.0120
  585ntf    nn3 3093   1.549   2.037   1.805 -0.0130  0.5177 -0.4666
  585ntf    sn2 3094   1.405   2.099   1.797 -0.1590  0.2183 -0.2060
  585ntf    cn1 3095   1.383   2.147   1.970 -0.1850  0.1245 -0.1834
  585ntf    fn4 3096   1.701   2.012   1.572  0.5399  0.1493  0.2316
  585ntf    fn4 3097   1.674   2.223   1.577  0.0516  0.1142 -0.4891
  585ntf    fn4 3098   1.865   2.134   1.623  0.1442 -0.0271 -0.0986
  585ntf    on5 3099   1.797   2.031   1.861  0.2883  0.0430 -0.1920
  585ntf    on5 3100   1.684   2.250   1.853  0.2390  0.0468  0.0112
  585ntf    on5 3101   1.298   2.007   1.767  0.1805 -0.3010  0.1572
  585ntf    on5 3102   1.400   2.225   1.726  0.6039  0.3813  0.0168
  585ntf    fn4 3103   1.301   2.250   1.987  0.1927  0.5001 -0.6266
  585ntf    fn4 3104   1.325   2.049   2.038  0.6215 -0.2684 -0.0485
  585ntf    fn4 3105   1.495   2.184   2.030 -0.5487  0.4463  0.3073
  586ntf    cn1 3106   1.959   0.730   2.170  0.1483 -0.0730  0.4826
  586ntf    sn2 3107   1.796   0.760   2.097  0.3614 -0.0165  0.0292
  586ntf    nn3 3108   1.842   0.843   1.971 -0.1363  0.1448 -0.0510
  586ntf    sn2 3109   1.858   0.801   1.821  0.1334 -0.0564  0.0317
  586ntf    cn1 3110   1.699   0.875   1.773  0.2131  0.3015  0.3093
  586ntf    fn4 3111   2.021   0.626   2.115 -0.3629 -0.0446 -0.1473
  586ntf    fn4 3112   2.034   0.839   2.164 -0.9022  0.6070 -0.4263
  586ntf    fn4 3113   1.952   0.715   2.302  0.0571  0.0671  0.4940
  586ntf    on5 3114   1.732   0.635   2.065 -0.6685  0.5321 -0.0828
  586ntf    on5 3115   1.738   0.850   2.194  0.7701  0.2119  0.0656
  586ntf    on5 3116   1.841   0.661   1.796 -0.0550 -0.0516  0.1374
  586ntf    on5 3117   1.961   0.873   1.750  0.4041  0.0208  0.4967
  586ntf    fn4 3118   1.595   0.816   1.830  0.2783  0.1670  0.2892
  586ntf    fn4 3119   1.689   1.002   1.807  0.5097  0.3357  0.2703
  586ntf    fn4 3120   1.671   0.878   1.644  0.3960  0.2411  0.2686
  587ntf    cn1 3121   0.569   1.837   1.108 -0.1250  0.2371 -0.1461
  587ntf    sn2 3122   0.681   1.980   1.125  0.1802 -0.0043 -0.1091
  587ntf    nn3 3123   0.748   1.979   0.984 -0.4778  0.1381 -0.4258
  587ntf    sn2 3124   0.824   2.095   0.911  0.1388 -0.0926 -0.1606
  587ntf    cn1 3125   0.920   2.174   1.043 -0.0483  0.2284 -0.2156
  587ntf    fn4 3126   0.529   1.791   1.226 -0.2912  0.6225 -0.0501
  587ntf    fn4 3127   0.459   1.855   1.038 -0.1828 -0.0101 -0.1186
  587ntf    fn4 3128   0.630   1.730   1.059  0.2154  0.2536  0.2316
  587ntf    on5 3129   0.596   2.094   1.147  0.0640 -0.1002 -0.0527
  587ntf    on5 3130   0.773   1.936   1.227 -0.1088 -0.3484  0.0056
  587ntf    on5 3131   0.729   2.190   0.858  0.9323  0.7714 -0.0539
  587ntf    on5 3132   0.920   2.035   0.822  0.1996  0.3149 -0.3742
  587ntf    fn4 3133   0.981   2.284   1.001  0.1138  0.3708  0.3840
  587ntf    fn4 3134   0.837   2.217   1.137 -0.3424 -0.5542 -0.1129
  587ntf    fn4 3135   1.004   2.094   1.105  0.1550 -0.0078 -0.7887
  588ntf    cn1 3136   1.332   1.560   1.149  0.0744  0.4146  0.2854
  588ntf    sn2 3137   1.288   1.460   1.004  0.1203  0.0021  0.5548
  588ntf    nn3 3138   1.291   1.315   1.063 -0.0672 -0.0919  0.3318
  588ntf    sn2 3139   1.214   1.180   1.037  0.2566 -0.1491 -0.3696
  588ntf    cn1 3140   1.354   1.092   0.964  0.4409 -0.0728 -0.1096
  588ntf    fn4 3141   1.400   1.489   1.238 -0.1316 -0.0138  0.1020
  588ntf    fn4 3142   1.398   1.671   1.121 -0.0607  0.4733  0.1972
  588ntf    fn4 3143   1.225   1.613   1.207 -0.2922  0.0715 -0.0720
  588ntf    on5 3144   1.161   1.508   0.956  0.3698  0.3215  0.2072
  588ntf    on5 3145   1.393   1.491   0.910 -0.1578  0.5183  0.4123
  588ntf    on5 3146   1.111   1.176   0.936  0.3393 -0.1363 -0.4539
  588ntf    on5 3147   1.187   1.106   1.158  0.6728  0.3977  0.0665
  588ntf    fn4 3148   1.332   0.961   0.961 -0.3246  0.0587 -0.2313
  588ntf    fn4 3149   1.379   1.130   0.840 -0.0423  0.8469  0.0726
  588ntf    fn4 3150   1.459   1.102   1.044 -0.5948  0.2694  1.2355
  589ntf    cn1 3151   1.139   1.548   2.449  0.0178 -0.1944 -0.1321
  589ntf    sn2 3152   0.997   1.556   2.336 -0.1473  0.0150  0.0886
  589ntf    nn3 3153   1.047   1.640   2.214 -0.3338 -0.1520 -0.1039
  589ntf    sn2 3154   1.118   1.602   2.079 -0.1367  0.1421 -0.0843
  589ntf    cn1 3155   1.289   1.646   2.122 -0.0086 -0.1101 -0.3313
  589ntf    fn4 3156   1.243   1.498   2.386 -0.1509  0.0280 -0.5885
  589ntf    fn4 3157   1.169   1.666   2.500 -0.4241  0.0823 -0.5125
  589ntf    fn4 3158   1.116   1.469   2.553  0.4113 -0.0178  0.0927
  589ntf    on5 3159   0.974   1.419   2.295  0.6957  0.0836 -0.6115
  589ntf    on5 3160   0.907   1.630   2.422 -0.0450 -0.3652  0.5298
  589ntf    on5 3161   1.086   1.697   1.976 -0.7360  0.5455  0.4701
  589ntf    on5 3162   1.126   1.465   2.034  0.0827  0.2100 -0.2536
  589ntf    fn4 3163   1.314   1.773   2.095 -0.3185 -0.0795 -0.4822
  589ntf    fn4 3164   1.325   1.628   2.248  0.6019 -0.0174 -0.4879
  589ntf    fn4 3165   1.386   1.587   2.053  0.0695 -0.0261 -0.2942
  590ntf    cn1 3166   2.402   2.046   1.434 -0.4255 -0.6063  0.2862
  590ntf    sn2 3167   2.226   2.086   1.460 -0.2430  0.2968  0.1805
  590ntf    nn3 3168   2.149   1.950   1.444 -0.1290  0.2637 -0.0917
  590ntf    sn2 3169   2.149   1.832   1.547 -0.3552  0.5403  0.2283
  590ntf    cn1 3170   2.161   1.683   1.443  0.2391  0.6683  0.1084
  590ntf    fn4 3171   2.451   1.961   1.522  0.2759 -0.6923 -0.1788
  590ntf    fn4 3172   2.427   1.993   1.315 -0.1089  0.0409  0.0592
  590ntf    fn4 3173   2.473   2.154   1.462 -0.2688 -0.7136  0.2991
  590ntf    on5 3174   2.223   2.155   1.586  0.3298  0.8926 -0.1240
  590ntf    on5 3175   2.206   2.168   1.343 -0.2000 -0.1166 -0.1204
  590ntf    on5 3176   2.019   1.818   1.608 -0.3439 -0.5546  0.0204
  590ntf    on5 3177   2.267   1.827   1.630 -0.3960  0.1468  0.2643
  590ntf    fn4 3178   2.149   1.577   1.521  0.4293  0.3155 -0.3349
  590ntf    fn4 3179   2.065   1.689   1.351  0.0457  0.5966  0.3053
  590ntf    fn4 3180   2.273   1.667   1.374 -0.0155  0.9238 -0.3746
  591ntf    cn1 3181   0.402   2.500   5.791 -0.3226  0.2985 -0.0369
  591ntf    sn2 3182   0.254   2.453   5.696  0.0703 -0.1521 -0.4294
  591ntf    nn3 3183   0.164   2.400   5.813  0.3255 -0.3037 -0.3005
  591ntf    sn2 3184   0.075   2.271   5.823  0.0049 -0.0797 -0.2366
  591ntf    cn1 3185  -0.040   2.338   5.946  0.3710 -0.2242  0.1858
  591ntf    fn4 3186   0.366   2.585   5.886  0.3308  0.2305  0.2784
  591ntf    fn4 3187   0.473   2.404   5.848 -0.0654  0.5262  0.0334
  591ntf    fn4 3188   0.481   2.573   5.713 -0.2072 -0.0018 -0.2015
  591ntf    on5 3189   0.209   2.575   5.633  0.3491  0.0602 -0.2225
  591ntf    on5 3190   0.309   2.358   5.603 -0.4194  0.0507 -0.9287
  591ntf    on5 3191   0.140   2.158   5.884  0.1950  0.0195 -0.2553
  591ntf    on5 3192  -0.016   2.239   5.716 -0.1363 -0.4428 -0.0087
  591ntf    fn4 3193  -0.097   2.448   5.900  0.5886 -0.3836 -0.4750
  591ntf    fn4 3194  -0.134   2.254   5.983  0.3158 -0.1561  0.2006
  591ntf    fn4 3195   0.024   2.371   6.058 -0.1306  0.6962  0.2073
  592ntf    cn1 3196   2.129   0.793   1.205 -0.0011  0.1029 -0.2787
  592ntf    sn2 3197   2.019   0.915   1.282 -0.3283 -0.1555 -0.3382
  592ntf    nn3 3198   1.887   0.912   1.197 -0.3795  0.1816 -0.2736
  592ntf    sn2 3199   1.779   0.803   1.226 -0.0988 -0.0235  0.0029
  592ntf    cn1 3200   1.695   0.799   1.065  0.2118 -0.2563 -0.1549
  592ntf    fn4 3201   2.228   0.849   1.136  0.3362 -0.0060  0.1190
  592ntf    fn4 3202   2.181   0.724   1.304 -0.6547  0.0507  0.0280
  592ntf    fn4 3203   2.068   0.715   1.117  0.0463 -0.3998  0.1309
  592ntf    on5 3204   1.998   0.879   1.421 -0.0641  0.1243 -0.2257
  592ntf    on5 3205   2.086   1.038   1.251 -0.4968  0.0219 -0.0068
  592ntf    on5 3206   1.668   0.841   1.311  0.2814  0.0183  0.4878
  592ntf    on5 3207   1.828   0.667   1.236 -0.1891 -0.0074  0.7791
  592ntf    fn4 3208   1.659   0.920   1.024 -0.4893 -0.3059  0.2930
  592ntf    fn4 3209   1.774   0.754   0.970  0.3195  0.2706 -0.3191
  592ntf    fn4 3210   1.585   0.726   1.060  0.1483 -0.1589 -0.1970
  593ntf    cn1 3211   1.258   0.140   2.101 -0.0436 -0.2380 -0.4533
  593ntf    sn2 3212   1.291   0.197   2.271 -0.1834 -0.4307 -0.3616
  593ntf    nn3 3213   1.309   0.051   2.328 -0.1091 -0.3584 -0.2007
  593ntf    sn2 3214   1.437  -0.034   2.359  0.1253  0.0756  0.0334
  593ntf    cn1 3215   1.377  -0.201   2.321 -0.1435  0.1246  0.2430
  593ntf    fn4 3216   1.333   0.042   2.055  0.3327 -0.3734  0.4384
  593ntf    fn4 3217   1.136   0.090   2.089 -0.1427 -0.1409  0.1335
  593ntf    fn4 3218   1.273   0.240   2.015  0.1982 -0.0644 -0.2109
  593ntf    on5 3219   1.404   0.286   2.272 -0.1179 -0.5086 -0.5948
  593ntf    on5 3220   1.163   0.245   2.317  0.1895  0.1300  0.1032
  593ntf    on5 3221   1.477  -0.036   2.498 -0.6708 -0.8277  0.2572
  593ntf    on5 3222   1.550  -0.027   2.269 -0.1075  0.3625 -0.2395
  593ntf    fn4 3223   1.463  -0.301   2.331 -0.1732  0.0980  0.2345
  593ntf    fn4 3224   1.277  -0.235   2.402 -0.4534 -0.3032 -0.3142
  593ntf    fn4 3225   1.328  -0.196   2.198  0.2109  0.8491  0.1292
  594ntf    cn1 3226   1.718   1.370   4.509 -0.0247  0.1903  0.0511
  594ntf    sn2 3227   1.786   1.205   4.475 -0.0214  0.2377 -0.1730
  594ntf    nn3 3228   1.835   1.155   4.615  0.0367 -0.0964 -0.3108
  594ntf    sn2 3229   1.749   1.087   4.728  0.0392 -0.1247 -0.3259
  594ntf    cn1 3230   1.828   1.173   4.868 -0.1957 -0.1769 -0.1613
  594ntf    fn4 3231   1.811   1.460   4.536 -0.2314  0.5536 -0.4276
  594ntf    fn4 3232   1.664   1.415   4.397  0.3906 -0.3782 -0.3837
  594ntf    fn4 3233   1.634   1.365   4.612 -0.1589  0.4985 -0.0443
  594ntf    on5 3234   1.677   1.128   4.420 -0.1140  0.4144 -0.2373
  594ntf    on5 3235   1.905   1.228   4.397  0.0629  0.2825 -0.0304
  594ntf    on5 3236   1.783   0.949   4.752 -0.6975 -0.3267 -0.4222
  594ntf    on5 3237   1.612   1.128   4.739  0.1300 -0.0512  0.6917
  594ntf    fn4 3238   1.949   1.134   4.903 -0.2774  0.0106  0.3423
  594ntf    fn4 3239   1.837   1.302   4.841 -0.6150 -0.1622 -0.2321
  594ntf    fn4 3240   1.760   1.164   4.981  0.0923  0.5314  0.0774
   2.50896   2.50896   7.00848
