Converted from moscito
17280
    1SOL     ow    1   1.076   3.601   5.786 -0.2618  0.2747 -0.5464
    1SOL     hw    2   0.984   3.607   5.759 -0.3306  0.6892 -0.2278
    1SOL     hw    3   1.090   3.679   5.840 -0.3368 -0.9284  1.2779
    1SOL     vw    4   1.066   3.612   5.789 -0.2807  0.1706 -0.2637
    2SOL     ow    5   5.521   6.881   2.737  0.5292 -0.2593  0.1042
    2SOL     hw    6   5.562   6.967   2.731  2.8482 -1.0969  2.0371
    2SOL     hw    7   5.497   6.871   2.829 -1.8725 -0.8329 -0.5027
    2SOL     vw    8   5.523   6.891   2.749  0.5183 -0.4456  0.2791
    3SOL     ow    9   3.717   1.478   5.244 -1.0640 -0.0459  0.2369
    3SOL     hw   10   3.731   1.481   5.339  0.3213 -0.8945  0.0858
    3SOL     hw   11   3.706   1.570   5.218  1.0243  0.4502  0.9074
    3SOL     vw   12   3.717   1.491   5.253 -0.6057 -0.0924  0.3052
    4SOL     ow   13   0.313   2.544   3.279  0.7202 -0.4701 -0.3356
    4SOL     hw   14   0.327   2.460   3.322 -1.1873 -0.6121  0.1077
    4SOL     hw   15   0.375   2.544   3.206  3.1318 -0.7773  1.5915
    4SOL     vw   16   0.323   2.533   3.275  0.7867 -0.5293 -0.0229
    5SOL     ow   17   1.833   1.874   5.599  0.2687  0.2358  0.2278
    5SOL     hw   18   1.815   1.829   5.682 -0.8092  1.3262  0.6356
    5SOL     hw   19   1.852   1.965   5.625  1.2400  0.2991 -0.6399
    5SOL     vw   20   1.833   1.880   5.614  0.2546  0.3881  0.1671
    6SOL     ow   21   3.398   2.915   2.043 -0.4937  0.4112 -0.1037
    6SOL     hw   22   3.408   2.978   1.971 -2.3712 -0.3472 -1.1115
    6SOL     hw   23   3.465   2.848   2.025  1.3352  1.9045  0.8300
    6SOL     vw   24   3.408   2.915   2.031 -0.5002  0.5081 -0.1132
    7SOL     ow   25   0.884   0.012   1.663 -0.4198  0.2052  1.0307
    7SOL     hw   26   0.976   0.032   1.683  0.4830 -0.0435 -2.3391
    7SOL     hw   27   0.857   0.082   1.603 -1.1022 -1.8231 -1.1636
    7SOL     vw   28   0.892   0.024   1.658 -0.3907 -0.0952  0.2966
    8SOL     ow   29   0.596   4.053   6.462 -0.1158 -0.8503  0.1423
    8SOL     hw   30   0.515   4.004   6.477 -0.4514 -1.0931 -2.1057
    8SOL     hw   31   0.566   4.137   6.427  0.5515 -1.5841 -2.4115
    8SOL     vw   32   0.581   4.058   6.460 -0.0721 -0.9789 -0.4914
    9SOL     ow   33   3.674   1.997   5.653  0.4538  0.5559  0.2035
    9SOL     hw   34   3.647   2.088   5.642 -1.4643 -0.0441 -0.3557
    9SOL     hw   35   3.766   1.996   5.626  1.0865  2.6470  1.9487
    9SOL     vw   36   3.683   2.009   5.648  0.2842  0.7528  0.3600
   10SOL     ow   37   1.209   2.702   0.396 -0.5815 -0.1849 -1.0795
   10SOL     hw   38   1.220   2.609   0.416 -0.4314 -0.4913 -2.4737
   10SOL     hw   39   1.120   2.709   0.362 -0.2023 -0.0564 -2.0932
   10SOL     vw   40   1.199   2.691   0.394 -0.5116 -0.2084 -1.3972
   11SOL     ow   41   0.976   4.517   5.664  0.2029 -0.2153  0.2656
   11SOL     hw   42   0.979   4.550   5.754 -0.8155 -0.2240  0.3188
   11SOL     hw   43   1.003   4.591   5.611  0.8065 -0.2067  0.5728
   11SOL     vw   44   0.980   4.531   5.669  0.1482 -0.2151  0.3130
   12SOL     ow   45   4.960   5.909   5.419 -0.8612  0.3606 -0.1192
   12SOL     hw   46   4.971   5.923   5.325 -0.6285  0.6590 -0.0458
   12SOL     hw   47   4.998   5.986   5.460 -1.7324  0.6340  0.1941
   12SOL     vw   48   4.966   5.921   5.412 -0.9453  0.4363 -0.0684
   13SOL     ow   49   1.382   5.764   1.787  0.4440 -0.0828  0.1760
   13SOL     hw   50   1.414   5.765   1.697  0.0737  1.1607  0.0442
   13SOL     hw   51   1.323   5.839   1.792  2.3203  1.3861  2.1155
   13SOL     vw   52   1.379   5.774   1.776  0.6426  0.2749  0.4145
   14SOL     ow   53   1.864   0.966   2.064  0.1231 -0.1186 -0.6688
   14SOL     hw   54   1.884   0.874   2.081  1.5131  0.4828  1.2903
   14SOL     hw   55   1.946   1.002   2.030 -0.3447  0.4474 -1.2129
   14SOL     vw   56   1.877   0.958   2.062  0.2448  0.0353 -0.4822
   15SOL     ow   57   1.781   6.017   0.818  0.9110 -0.3183  0.2513
   15SOL     hw   58   1.795   5.958   0.892  0.4260  0.8813  1.3309
   15SOL     hw   59   1.740   5.962   0.751  1.3812 -1.4253  0.8478
   15SOL     vw   60   1.777   6.002   0.819  0.9090 -0.3059  0.4725
   16SOL     ow   61   1.912   6.311   6.592  0.2751 -0.3035  0.0486
   16SOL     hw   62   1.855   6.274   6.524  1.1069 -1.3946 -0.0756
   16SOL     hw   63   1.892   6.405   6.591 -0.4980 -0.4583 -0.9676
   16SOL     vw   64   1.902   6.319   6.583  0.2828 -0.4678 -0.1018
   17SOL     ow   65   3.540   4.334   0.810  0.0326  0.0727  0.1049
   17SOL     hw   66   3.496   4.358   0.892 -0.1723  0.7892 -0.2118
   17SOL     hw   67   3.521   4.240   0.800 -1.4084  0.3512  0.0001
   17SOL     vw   68   3.531   4.325   0.820 -0.1845  0.2041  0.0493
   18SOL     ow   69   1.836   5.952   5.393  0.3193 -0.2014  0.3319
   18SOL     hw   70   1.835   5.863   5.357  3.1298 -0.4195  0.5677
   18SOL     hw   71   1.827   6.009   5.317 -1.0568 -0.6331  0.1362
   18SOL     vw   72   1.835   5.948   5.378  0.5086 -0.2873  0.3371
   19SOL     ow   73   3.208   2.860   3.564 -0.5328  0.5005  0.5022
   19SOL     hw   74   3.272   2.928   3.540  0.9224 -1.4356 -1.5026
   19SOL     hw   75   3.261   2.785   3.590 -1.8840 -1.4064 -1.8482
   19SOL     vw   76   3.223   2.859   3.564 -0.5189 -0.0064 -0.0725
   20SOL     ow   77   5.610   6.376   0.818  0.1518 -0.5806  0.2644
   20SOL     hw   78   5.558   6.443   0.775 -3.3908 -3.4139 -0.2884
   20SOL     hw   79   5.683   6.360   0.758 -2.9787 -2.2868 -3.5082
   20SOL     vw   80   5.613   6.383   0.805 -0.7286 -1.1795 -0.3063
   21SOL     ow   81   0.484   2.079   4.072 -0.2137 -0.3816 -0.6693
   21SOL     hw   82   0.519   2.117   4.153  0.0466 -0.6092 -0.6743
   21SOL     hw   83   0.553   2.021   4.041 -1.2265 -2.1542  0.2205
   21SOL     vw   84   0.498   2.077   4.079 -0.3129 -0.6455 -0.5527
   22SOL     ow   85   1.664   4.167   3.309  0.0024 -0.2889  0.2654
   22SOL     hw   86   1.668   4.200   3.220  1.4903  0.0465  0.4339
   22SOL     hw   87   1.636   4.076   3.300 -0.4974 -0.0605 -0.4893
   22SOL     vw   88   1.661   4.159   3.296  0.1327 -0.2146  0.1880
   23SOL     ow   89   6.223   2.178   4.297 -0.1431  0.0254  1.0100
   23SOL     hw   90   6.192   2.114   4.362 -2.6468  1.3552  1.2431
   23SOL     hw   91   6.180   2.152   4.216  0.5731  0.1524  0.5833
   23SOL     vw   92   6.213   2.166   4.295 -0.3791  0.2177  0.9844
   24SOL     ow   93   4.522   1.064   0.743  0.2138 -0.0155 -0.2175
   24SOL     hw   94   4.469   1.088   0.667  0.3550  0.0765 -0.2862
   24SOL     hw   95   4.552   0.976   0.725 -0.6631 -0.4252  0.2287
   24SOL     vw   96   4.519   1.056   0.731  0.1163 -0.0574 -0.1677
   25SOL     ow   97   1.657   2.921   4.740 -0.3907  0.0187 -0.0624
   25SOL     hw   98   1.714   2.972   4.682  3.0120 -3.2453 -0.0369
   25SOL     hw   99   1.633   2.981   4.810 -0.4054  2.6990 -2.2025
   25SOL     vw  100   1.661   2.936   4.741  0.0563 -0.0582 -0.3414
   26SOL     ow  101   2.335   2.076   4.690 -0.3395 -0.1632 -0.2685
   26SOL     hw  102   2.240   2.066   4.694 -0.8118  2.5680 -1.9560
   26SOL     hw  103   2.357   2.050   4.600  0.3851  0.0465 -0.1511
   26SOL     vw  104   2.325   2.071   4.678 -0.3064  0.2248 -0.4756
   27SOL     ow  105   2.929   6.357   0.568 -0.4108 -0.2188 -0.2420
   27SOL     hw  106   2.978   6.436   0.589 -0.4025 -0.1144 -0.6475
   27SOL     hw  107   2.988   6.285   0.593  0.4334 -0.0981 -1.7854
   27SOL     vw  108   2.943   6.358   0.574 -0.2984 -0.1893 -0.4991
   28SOL     ow  109   5.089   6.445   6.336  0.3185 -0.2339 -0.5947
   28SOL     hw  110   5.073   6.485   6.250 -3.2090  2.2355  0.9749
   28SOL     hw  111   5.118   6.517   6.391  1.3211 -1.5291  0.6428
   28SOL     vw  112   5.091   6.460   6.332 -0.0145 -0.0789 -0.2241
   29SOL     ow  113   2.939   2.145   5.244  0.5842 -0.6318  0.4884
   29SOL     hw  114   3.032   2.162   5.230  1.0619 -3.1838  0.0198
   29SOL     hw  115   2.897   2.171   5.162  1.0223 -0.2860  0.3733
   29SOL     vw  116   2.946   2.151   5.231  0.7050 -0.9230  0.4115
   30SOL     ow  117   5.146   3.835   1.347  0.1590  0.1468 -0.3864
   30SOL     hw  118   5.064   3.881   1.332 -0.4539 -0.5949  0.5539
   30SOL     hw  119   5.121   3.756   1.394  1.1969 -1.0900 -1.8213
   30SOL     vw  120   5.132   3.831   1.352  0.2153 -0.1142 -0.4517
   31SOL     ow  121   0.351   4.001   4.375  0.0533 -0.2804 -0.4172
   31SOL     hw  122   0.333   3.987   4.468 -2.2162 -1.4374 -0.9568
   31SOL     hw  123   0.377   4.093   4.370 -0.8714  0.1249  1.2492
   31SOL     vw  124   0.352   4.011   4.387 -0.3681 -0.3796 -0.2685
   32SOL     ow  125   5.960   4.586   1.866  0.3894 -0.5790 -0.0204
   32SOL     hw  126   6.052   4.610   1.852  0.1520 -0.4308 -1.4842
   32SOL     hw  127   5.963   4.496   1.899  1.0598 -0.5481  0.0159
   32SOL     vw  128   5.973   4.577   1.869  0.4463 -0.5553 -0.2088
   33SOL     ow  129   0.106   1.244   5.985 -0.0692 -0.9487  0.2147
   33SOL     hw  130   0.125   1.305   5.914 -1.0244 -1.3696 -0.4187
   33SOL     hw  131   0.142   1.287   6.063 -0.3006  0.1980 -0.2892
   33SOL     vw  132   0.113   1.258   5.986 -0.2258 -0.8529  0.0646
   34SOL     ow  133   5.152   2.491   3.826 -0.1659  0.5178 -0.0636
   34SOL     hw  134   5.060   2.477   3.804 -0.2396  0.5920  0.1905
   34SOL     hw  135   5.158   2.585   3.843 -0.0504  0.5069 -0.0457
   34SOL     vw  136   5.141   2.501   3.825 -0.1605  0.5261 -0.0277
   35SOL     ow  137   0.978   2.197   0.202 -0.2483 -0.1646  0.3588
   35SOL     hw  138   0.933   2.277   0.176 -2.1901 -0.3121  2.8430
   35SOL     hw  139   1.015   2.218   0.288  1.0104 -1.3049  0.1217
   35SOL     vw  140   0.977   2.210   0.210 -0.3385 -0.3345  0.6553
   36SOL     ow  141   0.875   4.276   5.459 -0.5932 -0.3367  0.0605
   36SOL     hw  142   0.816   4.201   5.459  0.3301 -1.0943  0.3919
   36SOL     hw  143   0.934   4.261   5.385 -1.1215  0.6749 -0.5874
   36SOL     vw  144   0.875   4.264   5.449 -0.5411 -0.3030  0.0186
   37SOL     ow  145   3.620   6.667   2.816 -0.2913  0.1565  0.3550
   37SOL     hw  146   3.647   6.717   2.739 -0.2798  1.6762  1.3098
   37SOL     hw  147   3.669   6.585   2.809 -0.2205  0.2908 -1.1945
   37SOL     vw  148   3.630   6.662   2.805 -0.2805  0.3750  0.2766
   38SOL     ow  149   2.466   3.900   6.419  0.4393  0.2071 -0.3382
   38SOL     hw  150   2.524   3.838   6.462 -3.6231 -1.7257  3.0318
   38SOL     hw  151   2.417   3.847   6.356 -0.5993  0.8226 -0.0628
   38SOL     vw  152   2.467   3.885   6.416 -0.2339  0.0334  0.1423
   39SOL     ow  153   1.818   1.713   6.700  0.0773  0.3020  0.0646
   39SOL     hw  154   1.788   1.720   6.610  0.0786  2.0634  0.1785
   39SOL     hw  155   1.757   1.652   6.741 -0.1172 -0.2656 -1.0322
   39SOL     vw  156   1.806   1.706   6.694  0.0518  0.4595 -0.0651
   40SOL     ow  157   6.761   2.472   5.510  0.0023 -0.3391 -0.2106
   40SOL     hw  158   6.742   2.486   5.602  0.2208 -0.3077 -0.1682
   40SOL     hw  159   6.809   2.389   5.508  2.4554  0.9706  0.0383
   40SOL     vw  160   6.765   2.463   5.522  0.3545 -0.1622 -0.1721
   41SOL     ow  161   6.174   0.330   1.024 -0.1441  0.1099 -0.4168
   41SOL     hw  162   6.080   0.327   1.010 -0.3143  1.4109  0.2454
   41SOL     hw  163   6.193   0.254   1.079 -1.1340  0.8407  1.0133
   41SOL     vw  164   6.164   0.320   1.029 -0.2973  0.3780 -0.1408
   42SOL     ow  165   2.242   2.859   3.833  1.0855 -0.2218  0.4879
   42SOL     hw  166   2.248   2.954   3.842 -0.7425  0.0890 -0.7775
   42SOL     hw  167   2.291   2.839   3.753  1.0284 -0.2459  0.4580
   42SOL     vw  168   2.249   2.869   3.823  0.8368 -0.1839  0.3170
   43SOL     ow  169   2.063   0.660   4.444  0.5475  0.5817  0.3319
   43SOL     hw  170   1.986   0.620   4.486  0.9063 -0.7618 -0.2237
   43SOL     hw  171   2.090   0.595   4.379  1.2159  1.7318 -0.5617
   43SOL     vw  172   2.056   0.646   4.441  0.6831  0.5562  0.1404
   44SOL     ow  173   0.015   0.115   1.281 -0.4119 -0.8582  0.5507
   44SOL     hw  174  -0.020   0.194   1.240 -1.0422 -0.6727  1.4026
   44SOL     hw  175  -0.044   0.099   1.355  0.9817 -0.8818  1.6985
   44SOL     vw  176   0.002   0.123   1.286 -0.3114 -0.8369  0.8146
   45SOL     ow  177   0.227   0.133   2.218  0.3353  0.3867 -0.6743
   45SOL     hw  178   0.292   0.106   2.284  0.4954 -4.3327 -2.4157
   45SOL     hw  179   0.275   0.192   2.161  2.7035 -1.5638 -0.8812
   45SOL     vw  180   0.242   0.137   2.219  0.6689 -0.4933 -0.9313
   46SOL     ow  181   3.744   5.718   5.258 -0.3668  0.1796  0.0016
   46SOL     hw  182   3.653   5.748   5.262 -0.5923 -0.0368 -2.3939
   46SOL     hw  183   3.737   5.626   5.231  0.5723  0.3209 -0.7424
   46SOL     vw  184   3.731   5.710   5.255 -0.2728  0.1695 -0.4127
   47SOL     ow  185   4.382   4.931   4.425 -0.7065 -0.0379 -0.6166
   47SOL     hw  186   4.467   4.936   4.380 -0.6627 -1.1373 -0.7000
   47SOL     hw  187   4.322   4.900   4.357 -1.4493  1.8865 -0.8761
   47SOL     vw  188   4.385   4.928   4.410 -0.7989  0.0710 -0.6618
   48SOL     ow  189   1.018   0.002   1.230 -0.4412  0.0923  0.1403
   48SOL     hw  190   0.947   0.066   1.220  1.0543  1.9421  0.6793
   48SOL     hw  191   1.062   0.028   1.311  2.1482  0.4208 -1.2535
   48SOL     vw  192   1.015   0.014   1.239  0.0978  0.3797  0.0276
   49SOL     ow  193   0.054   3.736   5.076  0.0833 -0.3384  0.0105
   49SOL     hw  194  -0.036   3.746   5.045  0.6952  0.8143 -1.5446
   49SOL     hw  195   0.094   3.822   5.062  2.0393 -1.4193 -1.5329
   49SOL     vw  196   0.047   3.749   5.070  0.4221 -0.3288 -0.3984
   50SOL     ow  197   6.049   5.237   6.311  0.2255 -0.3572 -0.1467
   50SOL     hw  198   6.001   5.214   6.231  0.3335  0.0664 -0.3353
   50SOL     hw  199   6.091   5.321   6.291  0.1571 -0.1870  0.3938
   50SOL     vw  200   6.048   5.245   6.298  0.2308 -0.2787 -0.1001
   51SOL     ow  201   3.065   3.796   5.838  0.0256 -0.4395 -0.5397
   51SOL     hw  202   3.102   3.856   5.774  0.6831 -0.9110 -0.6135
   51SOL     hw  203   3.139   3.775   5.897 -0.7481  0.6120  0.8528
   51SOL     vw  204   3.080   3.801   5.838  0.0103 -0.3629 -0.3657
   52SOL     ow  205   5.800   1.405   5.775 -0.3173  0.1086  0.2715
   52SOL     hw  206   5.859   1.375   5.844 -0.3736  0.4578  0.4726
   52SOL     hw  207   5.857   1.427   5.702 -0.3814 -2.1828 -0.5349
   52SOL     vw  208   5.815   1.404   5.774 -0.3333 -0.1476  0.1915
   53SOL     ow  209   2.413   4.248   0.641  0.3293 -0.2802  0.0958
   53SOL     hw  210   2.438   4.198   0.719  1.2973 -0.8136 -0.5177
   53SOL     hw  211   2.496   4.279   0.605 -0.2203  1.2426  0.1012
   53SOL     vw  212   2.427   4.245   0.646  0.3846 -0.1495  0.0156
   54SOL     ow  213   6.630   4.189   4.848 -0.0164  0.0219  0.1480
   54SOL     hw  214   6.696   4.123   4.827 -0.8103 -0.5821 -0.4597
   54SOL     hw  215   6.603   4.169   4.938 -1.3404 -1.4368 -0.5373
   54SOL     vw  216   6.635   4.178   4.857 -0.2959 -0.2501 -0.0226
   55SOL     ow  217   5.382   3.013   4.633 -0.5883 -0.0330  0.1535
   55SOL     hw  218   5.340   3.098   4.633 -2.7455 -1.0326  0.0281
   55SOL     hw  219   5.450   3.019   4.566 -1.5044  1.2116 -0.7020
   55SOL     vw  220   5.385   3.025   4.624 -0.9937 -0.0007  0.0238
   56SOL     ow  221   3.769   1.960   0.776  0.2775  0.4761  0.3950
   56SOL     hw  222   3.691   2.008   0.802 -1.0609 -0.0753 -2.2900
   56SOL     hw  223   3.814   1.941   0.858 -1.4956  2.2983  1.8869
   56SOL     vw  224   3.765   1.964   0.790 -0.1332  0.6437  0.2376
   57SOL     ow  225   1.094   0.377   5.053  0.7882 -0.5456 -0.2980
   57SOL     hw  226   1.065   0.451   5.000 -1.8382 -1.7101 -0.6489
   57SOL     hw  227   1.033   0.306   5.030  3.4106 -2.9782 -0.2791
   57SOL     vw  228   1.082   0.377   5.043  0.7877 -1.0201 -0.3419
   58SOL     ow  229   5.733   2.383   1.721  0.0443 -0.1240 -0.2959
   58SOL     hw  230   5.827   2.370   1.708 -0.0786 -1.9912  0.4369
   58SOL     hw  231   5.726   2.422   1.809  0.1519  0.8049 -0.6831
   58SOL     vw  232   5.744   2.387   1.731  0.0422 -0.2477 -0.2503
   59SOL     ow  233   6.674   0.357   2.836  0.2327  0.3562 -0.2048
   59SOL     hw  234   6.713   0.285   2.786 -0.0712  0.9460 -1.3326
   59SOL     hw  235   6.658   0.425   2.771 -1.9161  0.4589  0.3517
   59SOL     vw  236   6.677   0.356   2.821 -0.0908  0.4476 -0.2803
   60SOL     ow  237   2.321   2.209   5.735  0.4609 -0.0355 -0.1786
   60SOL     hw  238   2.365   2.221   5.651 -1.9784  1.1749 -1.4081
   60SOL     hw  239   2.246   2.269   5.731 -0.9351 -1.4847  1.9874
   60SOL     vw  240   2.317   2.218   5.723 -0.0451 -0.0671 -0.0548
   61SOL     ow  241   3.347   1.358   1.184 -0.2305  0.9914  0.0026
   61SOL     hw  242   3.396   1.292   1.234  1.5774  2.1793 -0.1184
   61SOL     hw  243   3.314   1.310   1.107 -1.4449 -0.4083  1.3178
   61SOL     vw  244   3.349   1.343   1.180 -0.1523  0.9635  0.1601
   62SOL     ow  245   0.454   3.155   1.965  0.0975  0.2325  0.0977
   62SOL     hw  246   0.423   3.065   1.972 -2.3593  0.6728 -2.7755
   62SOL     hw  247   0.479   3.164   1.873  0.3111  2.4713  0.3128
   62SOL     vw  248   0.453   3.144   1.954 -0.1985  0.5860 -0.2530
   63SOL     ow  249   2.151   1.430   5.665 -0.6986  0.4028 -0.3576
   63SOL     hw  250   2.230   1.484   5.661 -0.1674 -0.4144 -0.8376
   63SOL     hw  251   2.080   1.494   5.679  0.1173  1.0779  0.9987
   63SOL     vw  252   2.152   1.446   5.667 -0.5207  0.3840 -0.2420
   64SOL     ow  253   1.994   2.994   5.401  0.2488 -0.0761 -0.1230
   64SOL     hw  254   2.045   2.945   5.335  1.1241  0.8044 -0.1262
   64SOL     hw  255   1.910   2.949   5.404  0.0552  0.0663 -2.1071
   64SOL     vw  256   1.990   2.982   5.392  0.3387  0.0589 -0.3853
   65SOL     ow  257   4.142   2.421   6.893 -0.0790  0.0140 -0.0768
   65SOL     hw  258   4.150   2.333   6.931  1.6440  0.1975  0.0871
   65SOL     hw  259   4.122   2.478   6.968 -0.9165 -0.1891 -0.1393
   65SOL     vw  260   4.141   2.417   6.908  0.0377  0.0114 -0.0635
   66SOL     ow  261   0.510   4.736   5.379  0.2454 -0.6265  0.2094
   66SOL     hw  262   0.602   4.751   5.356 -0.1720  0.4319 -0.9054
   66SOL     hw  263   0.512   4.710   5.471  1.5693  0.7052  0.6043
   66SOL     vw  264   0.522   4.735   5.388  0.3650 -0.3111  0.1144
   67SOL     ow  265   1.061   0.883   0.886 -0.3305 -0.3686  0.1692
   67SOL     hw  266   1.144   0.838   0.901  0.1247  1.0379  2.3301
   67SOL     hw  267   1.066   0.911   0.795  0.9441 -1.5031 -0.1495
   67SOL     vw  268   1.073   0.881   0.876 -0.1023 -0.3327  0.4123
   68SOL     ow  269   5.729   3.410   5.580  0.0358 -0.4662 -0.1402
   68SOL     hw  270   5.752   3.320   5.558  1.7450 -0.0354 -0.2363
   68SOL     hw  271   5.761   3.462   5.506  1.6187  0.4982  1.1513
   68SOL     vw  272   5.736   3.405   5.567  0.4702 -0.2820  0.0174
   69SOL     ow  273   1.397   3.030   3.050 -0.8751 -0.3584  0.2795
   69SOL     hw  274   1.486   3.060   3.032 -0.8500 -0.6411 -0.0924
   69SOL     hw  275   1.404   2.934   3.053 -1.1200 -0.3700  0.5111
   69SOL     vw  276   1.409   3.021   3.048 -0.9041 -0.3972  0.2611
   70SOL     ow  277   3.812   6.196   4.364  0.7004  0.7918  0.0646
   70SOL     hw  278   3.825   6.112   4.407 -1.2340  0.0700 -0.6619
   70SOL     hw  279   3.810   6.260   4.435  1.8300  0.2129  0.6504
   70SOL     vw  280   3.814   6.193   4.379  0.5943  0.6204  0.0460
   71SOL     ow  281   1.797   5.800   2.185 -0.5192  0.3877 -0.1458
   71SOL     hw  282   1.818   5.717   2.228 -0.0054 -0.0198 -1.1485
   71SOL     hw  283   1.706   5.817   2.208 -0.0965  0.5135  1.6010
   71SOL     vw  284   1.788   5.791   2.194 -0.3957  0.3505 -0.0477
   72SOL     ow  285   0.334   6.775   3.601 -0.3474 -1.1836  0.2268
   72SOL     hw  286   0.296   6.820   3.676  2.4457  0.5742  0.7110
   72SOL     hw  287   0.322   6.836   3.528  0.3895 -1.1473  0.1263
   72SOL     vw  288   0.327   6.789   3.601  0.1183 -0.9470  0.2774
   73SOL     ow  289   2.293   2.108   6.077  0.5056  0.2166  0.1487
   73SOL     hw  290   2.239   2.028   6.077  3.6282 -2.0828  0.3466
   73SOL     hw  291   2.253   2.164   6.143 -4.6939  1.1612 -3.1989
   73SOL     vw  292   2.281   2.105   6.085  0.2316  0.0380 -0.2668
   74SOL     ow  293   3.102   0.092   3.429  0.3395 -0.4890  0.1467
   74SOL     hw  294   3.150   0.119   3.507  2.2559 -2.0090 -0.4510
   74SOL     hw  295   3.106  -0.003   3.429  0.6504 -0.5253 -1.9413
   74SOL     vw  296   3.109   0.083   3.439  0.6334 -0.6943 -0.2077
   75SOL     ow  297   3.572   3.078   0.203  0.2954 -0.6013 -0.8118
   75SOL     hw  298   3.519   3.091   0.282  0.0612  2.2756 -1.3587
   75SOL     hw  299   3.661   3.070   0.236  0.1012 -0.2798 -0.1902
   75SOL     vw  300   3.577   3.078   0.218  0.2389 -0.1794 -0.8019
   76SOL     ow  301   1.931   2.837   4.808 -0.2764  1.1781  0.1487
   76SOL     hw  302   1.932   2.930   4.784  3.5521  0.5392 -3.0260
   76SOL     hw  303   2.002   2.828   4.871  1.1126  0.0879 -1.5070
   76SOL     vw  304   1.940   2.848   4.813  0.4119  0.9499 -0.4888
   77SOL     ow  305   4.712   1.330   5.877 -0.1215 -0.2204 -0.6941
   77SOL     hw  306   4.699   1.311   5.784 -1.1297  0.0687 -0.6259
   77SOL     hw  307   4.627   1.313   5.917  0.0905  0.4022  0.0496
   77SOL     vw  308   4.699   1.325   5.870 -0.2265 -0.1001 -0.5867
   78SOL     ow  309   1.235   4.391   0.325 -0.8573  0.3949 -0.2070
   78SOL     hw  310   1.293   4.467   0.334  0.4409  0.2028 -4.5233
   78SOL     hw  311   1.154   4.427   0.290 -0.2932 -0.0462 -2.1148
   78SOL     vw  312   1.232   4.406   0.321 -0.6115  0.3116 -1.0282
   79SOL     ow  313   3.404   2.236   1.883 -0.1511 -0.2899  0.0499
   79SOL     hw  314   3.490   2.266   1.914 -0.5070  2.1075 -1.0523
   79SOL     hw  315   3.346   2.311   1.899 -1.7900 -1.4333 -0.3193
   79SOL     vw  316   3.408   2.250   1.889 -0.4143 -0.1246 -0.1442
   80SOL     ow  317   0.709   3.598   1.162 -0.1267 -0.1388  0.1535
   80SOL     hw  318   0.725   3.505   1.146 -3.0280 -0.6954  0.0024
   80SOL     hw  319   0.650   3.600   1.237  0.8742  1.6984  0.9673
   80SOL     vw  320   0.703   3.586   1.170 -0.3774  0.0303  0.2409
   81SOL     ow  321   5.646   2.200   1.453 -0.2247  0.1761 -0.5286
   81SOL     hw  322   5.606   2.120   1.418 -0.1357  0.0968 -0.4470
   81SOL     hw  323   5.700   2.233   1.381 -0.6588  0.4375 -0.7400
   81SOL     vw  324   5.648   2.194   1.439 -0.2704  0.2000 -0.5457
   82SOL     ow  325   1.887   2.671   6.202  0.1531 -0.3928  0.0121
   82SOL     hw  326   1.959   2.732   6.186  0.1829 -0.1523  1.0051
   82SOL     hw  327   1.921   2.611   6.268 -0.6620 -0.0585  0.7652
   82SOL     vw  328   1.901   2.671   6.208  0.0495 -0.3170  0.2425
   83SOL     ow  329   6.130   3.515   6.497 -0.6553  0.1242 -0.3691
   83SOL     hw  330   6.180   3.441   6.532 -2.2189 -0.8055 -0.0081
   83SOL     hw  331   6.161   3.591   6.547  0.3409 -0.4196 -0.1321
   83SOL     vw  332   6.141   3.515   6.508 -0.7300 -0.0701 -0.2899
   84SOL     ow  333   0.802   2.837   0.567 -0.5501  0.1711  0.1549
   84SOL     hw  334   0.787   2.898   0.495 -0.7597 -1.5941 -1.3794
   84SOL     hw  335   0.819   2.753   0.524 -3.3995 -1.6166  2.1473
   84SOL     vw  336   0.802   2.834   0.552 -0.9537 -0.2977  0.2153
   85SOL     ow  337   3.863   6.017   5.285 -0.0825 -0.5837 -0.0816
   85SOL     hw  338   3.796   6.056   5.341 -0.2109  1.4401 -1.5096
   85SOL     hw  339   3.903   6.092   5.241  2.5937 -1.7988  0.1037
   85SOL     vw  340   3.860   6.032   5.286  0.2537 -0.4771 -0.2458
   86SOL     ow  341   1.796   1.251   2.147 -0.2082  0.1242  0.3972
   86SOL     hw  342   1.757   1.337   2.162  0.2728  0.1931  1.2598
   86SOL     hw  343   1.834   1.258   2.059 -0.7396  0.5677  0.1904
   86SOL     vw  344   1.796   1.263   2.137 -0.2148  0.1918  0.4838
   87SOL     ow  345   1.246   5.380   0.332  0.9070 -0.0101 -0.3735
   87SOL     hw  346   1.300   5.452   0.301  1.0925 -0.6554 -1.6338
   87SOL     hw  347   1.175   5.374   0.268  0.2167 -0.1657  0.3984
   87SOL     vw  348   1.244   5.388   0.319  0.8404 -0.1159 -0.4379
   88SOL     ow  349   5.226   3.337   3.563  0.2862 -0.1395 -0.0997
   88SOL     hw  350   5.233   3.278   3.639  2.9742  1.6202  1.1471
   88SOL     hw  351   5.287   3.300   3.499  0.3069  0.0613 -0.1933
   88SOL     vw  352   5.235   3.324   3.565  0.6440  0.1192  0.0525
   89SOL     ow  353   3.240   0.601   2.284 -0.6431  0.1792 -0.4817
   89SOL     hw  354   3.213   0.586   2.193  1.4868 -0.6491 -1.0592
   89SOL     hw  355   3.273   0.691   2.285 -1.6516  0.5570 -0.2370
   89SOL     vw  356   3.241   0.611   2.272 -0.4951  0.1198 -0.5257
   90SOL     ow  357   0.045   3.924   4.343  0.3169 -0.1679  0.9221
   90SOL     hw  358   0.058   3.857   4.411 -2.3938 -0.2613  1.4747
   90SOL     hw  359  -0.029   3.892   4.292  1.8960  0.2257 -1.7690
   90SOL     vw  360   0.037   3.911   4.345  0.1676 -0.1281  0.6402
   91SOL     ow  361   3.873   2.942   4.032  0.1543  0.3043 -0.0598
   91SOL     hw  362   3.784   2.943   4.067 -0.9912 -1.7558 -2.5295
   91SOL     hw  363   3.911   3.026   4.057 -2.2606  0.9839  1.5944
   91SOL     vw  364   3.866   2.953   4.040 -0.3155  0.1221 -0.1674
   92SOL     ow  365   0.261   5.304   2.757  0.4448  0.2441 -0.2445
   92SOL     hw  366   0.271   5.392   2.722 -0.0633 -0.1165 -1.3593
   92SOL     hw  367   0.167   5.297   2.777  0.8798  0.7975  2.2414
   92SOL     vw  368   0.250   5.315   2.755  0.4352  0.2697 -0.0634
   93SOL     ow  369   1.042   4.479   2.489 -1.2312 -0.4223 -0.1312
   93SOL     hw  370   1.002   4.413   2.545  0.1529  0.0690  1.5416
   93SOL     hw  371   1.032   4.561   2.538 -1.8073  0.4107 -1.5789
   93SOL     vw  372   1.036   4.481   2.503 -1.1245 -0.2472 -0.1014
   94SOL     ow  373   0.030   6.887   4.555  0.5379  0.2671  0.4915
   94SOL     hw  374  -0.055   6.921   4.584  0.3428 -0.5036  0.8577
   94SOL     hw  375   0.022   6.880   4.459  0.6683  1.4462  0.3847
   94SOL     vw  376   0.018   6.890   4.546  0.5293  0.3207  0.5255
   95SOL     ow  377   5.085   6.047   0.424  0.7550 -0.5010 -0.0960
   95SOL     hw  378   5.079   6.142   0.409  0.9098 -0.3918  0.5334
   95SOL     hw  379   5.087   6.038   0.519  1.6231 -1.0849 -0.1647
   95SOL     vw  380   5.085   6.059   0.434  0.8900 -0.5634 -0.0220
   96SOL     ow  381   1.891   2.234   2.701  0.0043  0.3448 -0.4266
   96SOL     hw  382   1.867   2.150   2.663 -0.2552  0.8880 -1.5136
   96SOL     hw  383   1.834   2.297   2.657 -0.8123  0.9494  1.3845
   96SOL     vw  384   1.880   2.231   2.690 -0.1377  0.4963 -0.3312
   97SOL     ow  385   1.526   4.425   5.711 -0.2003 -0.5080 -1.0031
   97SOL     hw  386   1.499   4.514   5.732  0.0467 -0.7322  0.3506
   97SOL     hw  387   1.537   4.425   5.616 -1.7666  0.4513 -1.2129
   97SOL     vw  388   1.524   4.436   5.701 -0.3743 -0.4110 -0.8521
   98SOL     ow  389   5.260   6.602   2.698  0.4238  0.1996 -0.5965
   98SOL     hw  390   5.260   6.522   2.750 -0.1871  1.5920  1.7296
   98SOL     hw  391   5.175   6.603   2.655 -0.1614  0.2225  0.5074
   98SOL     vw  392   5.249   6.592   2.700  0.2658  0.3862 -0.1439
   99SOL     ow  393   2.954   1.018   3.790  0.0663 -0.6246  0.5869
   99SOL     hw  394   2.993   1.096   3.829 -2.0097  0.8239 -0.0165
   99SOL     hw  395   3.000   1.007   3.707  0.8017 -0.4146  0.9595
   99SOL     vw  396   2.965   1.027   3.784 -0.1105 -0.4058  0.5565
  100SOL     ow  397   0.567   4.314   6.332  0.4939 -0.0169 -0.1687
  100SOL     hw  398   0.599   4.359   6.410 -3.8972 -0.4682  2.2326
  100SOL     hw  399   0.494   4.368   6.302 -0.2462 -1.7511 -1.6901
  100SOL     vw  400   0.561   4.327   6.339 -0.1831 -0.3054 -0.0527
  101SOL     ow  401   5.704   6.894   1.079 -0.7936 -0.1200 -0.2620
  101SOL     hw  402   5.777   6.881   1.140 -2.0299  1.6245  1.7199
  101SOL     hw  403   5.746   6.915   0.996  0.9528 -0.9280  0.3678
  101SOL     vw  404   5.719   6.895   1.076 -0.7265  0.0035  0.0826
  102SOL     ow  405   6.231   3.424   4.311  0.2571 -0.0972  0.7452
  102SOL     hw  406   6.324   3.446   4.307  0.3657 -0.6552 -0.2904
  102SOL     hw  407   6.211   3.418   4.404  1.6606 -1.5589  0.9886
  102SOL     vw  408   6.240   3.426   4.323  0.4566 -0.3636  0.6406
  103SOL     ow  409   0.405   4.942   0.974  0.3234 -0.4254  0.1577
  103SOL     hw  410   0.404   5.013   1.038 -0.1791 -0.9219  0.7179
  103SOL     hw  411   0.321   4.898   0.986  0.7535 -1.3026  0.0537
  103SOL     vw  412   0.394   4.945   0.984  0.3138 -0.6065  0.2179
  104SOL     ow  413   3.878   0.487   4.789 -0.1408  0.3957  0.3587
  104SOL     hw  414   3.891   0.395   4.812 -1.5399  0.5591  2.0012
  104SOL     hw  415   3.850   0.529   4.871 -0.1934  2.1514 -0.5063
  104SOL     vw  416   3.876   0.480   4.803 -0.3322  0.6489  0.4616
  105SOL     ow  417   3.423   5.464   0.803 -0.1125 -0.1769 -0.0828
  105SOL     hw  418   3.432   5.369   0.811  0.9839 -0.4334 -3.1063
  105SOL     hw  419   3.375   5.490   0.882  2.9845 -2.6668  2.9791
  105SOL     vw  420   3.418   5.455   0.815  0.4407 -0.5393 -0.0777
  106SOL     ow  421   4.353   0.930   1.856 -0.3682 -0.4581  0.3948
  106SOL     hw  422   4.326   0.850   1.811 -3.1861  0.4465  0.3010
  106SOL     hw  423   4.314   0.923   1.943 -0.8314  0.8890  0.3158
  106SOL     vw  424   4.345   0.918   1.862 -0.8008 -0.1610  0.3719
  107SOL     ow  425   2.001   3.998   1.509  0.0668  0.6209  0.8515
  107SOL     hw  426   1.954   4.006   1.426  2.9822 -1.2190 -1.1971
  107SOL     hw  427   2.069   4.065   1.504 -0.5490  1.3950  2.4365
  107SOL     vw  428   2.004   4.008   1.497  0.3701  0.4804  0.7904
  108SOL     ow  429   3.307   4.628   0.719 -0.1316 -0.1098  0.1170
  108SOL     hw  430   3.312   4.716   0.758  0.8034 -0.4821  0.8659
  108SOL     hw  431   3.365   4.574   0.773  2.0495 -0.4497 -2.3495
  108SOL     vw  432   3.315   4.633   0.731  0.2795 -0.2036 -0.1096
  109SOL     ow  433   5.103   4.500   6.676 -0.1680 -0.3736  0.0263
  109SOL     hw  434   5.026   4.536   6.720 -0.0227 -0.7535  0.6113
  109SOL     hw  435   5.111   4.550   6.595  1.2978  2.4864  1.7533
  109SOL     vw  436   5.094   4.512   6.671  0.0448 -0.0465  0.3316
  110SOL     ow  437   4.775   2.339   5.903  0.3343 -0.3137 -0.2674
  110SOL     hw  438   4.762   2.417   5.850  1.6406  0.7827  0.9635
  110SOL     hw  439   4.785   2.268   5.839 -0.6082  0.5330 -1.4105
  110SOL     vw  440   4.774   2.340   5.888  0.3827 -0.0572 -0.2558
  111SOL     ow  441   2.161   1.308   3.225  0.7550  0.1367 -0.4856
  111SOL     hw  442   2.184   1.241   3.290  0.3570  1.3493  0.9611
  111SOL     hw  443   2.193   1.390   3.263  0.2042  0.9259 -1.6789
  111SOL     vw  444   2.168   1.310   3.239  0.6299  0.4008 -0.4522
  112SOL     ow  445   0.437   3.818   5.866  0.3857  0.3153  0.2391
  112SOL     hw  446   0.452   3.725   5.849  1.3387  0.5431 -0.2463
  112SOL     hw  447   0.477   3.863   5.791  1.2751  1.1710  1.1883
  112SOL     vw  448   0.445   3.812   5.854  0.6288  0.4581  0.3006
  113SOL     ow  449   4.929   0.094   0.618  0.0289 -0.8222 -0.1546
  113SOL     hw  450   4.964   0.044   0.545 -0.9573 -2.6477  0.5732
  113SOL     hw  451   5.002   0.099   0.680  0.0564 -1.6263 -0.1150
  113SOL     vw  452   4.944   0.088   0.617 -0.0978 -1.1692 -0.0534
  114SOL     ow  453   1.835   6.344   0.760 -0.0767 -0.4327 -0.0944
  114SOL     hw  454   1.840   6.433   0.796  2.9189 -1.3001  2.0271
  114SOL     hw  455   1.851   6.355   0.666 -0.6061  1.3186 -0.0199
  114SOL     vw  456   1.838   6.357   0.753  0.2486 -0.3161  0.1954
  115SOL     ow  457   4.465   4.270   4.469  0.4471  0.5587 -0.5859
  115SOL     hw  458   4.450   4.362   4.494  1.6707  0.3000  1.2940
  115SOL     hw  459   4.389   4.248   4.415 -0.9592  2.0613  0.6627
  115SOL     vw  460   4.453   4.279   4.465  0.4230  0.7226 -0.1731
  116SOL     ow  461   0.160   1.209   5.054  0.2123  0.2531  0.0851
  116SOL     hw  462   0.123   1.294   5.030 -1.7563 -1.1058 -2.2326
  116SOL     hw  463   0.083   1.156   5.077  0.9399 -1.8020 -1.8286
  116SOL     vw  464   0.145   1.213   5.054  0.0486 -0.1973 -0.4735
  117SOL     ow  465   0.149   2.848   6.824  0.4022  0.0100  0.6615
  117SOL     hw  466   0.239   2.881   6.822  0.4958 -0.2690  0.1048
  117SOL     hw  467   0.095   2.926   6.827  0.6910  0.1918  3.5297
  117SOL     vw  468   0.154   2.862   6.824  0.4526 -0.0029  0.9665
  118SOL     ow  469   2.504   5.485   2.128  0.5454 -0.2485 -0.1030
  118SOL     hw  470   2.410   5.500   2.136  0.6945 -0.0256  1.7187
  118SOL     hw  471   2.530   5.449   2.213  1.9738 -1.0882 -0.8499
  118SOL     vw  472   2.495   5.482   2.140  0.7535 -0.3302  0.0389
  119SOL     ow  473   4.445   3.201   4.341 -0.1301 -0.4176 -0.1313
  119SOL     hw  474   4.442   3.140   4.267 -0.7775 -0.3557 -0.1600
  119SOL     hw  475   4.488   3.152   4.411 -1.7249 -1.3483  0.2428
  119SOL     vw  476   4.450   3.186   4.340 -0.4258 -0.5322 -0.0858
  120SOL     ow  477   0.491   6.769   5.838 -0.0934  0.3056 -0.2240
  120SOL     hw  478   0.570   6.761   5.891 -1.6100  0.3664  2.2205
  120SOL     hw  479   0.518   6.820   5.762  2.1322  0.6574  0.7295
  120SOL     vw  480   0.505   6.775   5.835  0.0001  0.3600  0.2241
  121SOL     ow  481   5.217   1.830   1.016 -0.3019  0.0340  0.1032
  121SOL     hw  482   5.268   1.783   1.082 -0.3920 -0.3579 -0.1023
  121SOL     hw  483   5.154   1.766   0.984 -0.5593  0.3563 -0.0396
  121SOL     vw  484   5.216   1.816   1.020 -0.3479  0.0249  0.0572
  122SOL     ow  485   4.040   0.309   5.758  0.6227 -0.0073  0.0924
  122SOL     hw  486   4.117   0.303   5.814  0.2293  0.0680  0.6559
  122SOL     hw  487   4.014   0.218   5.743 -0.2804 -0.0070  1.4795
  122SOL     vw  488   4.047   0.296   5.763  0.4518  0.0026  0.3498
  123SOL     ow  489   4.132   3.189   3.132  0.0046 -0.2053 -0.0836
  123SOL     hw  490   4.081   3.191   3.051  1.6202  0.2276 -1.1313
  123SOL     hw  491   4.111   3.272   3.176  1.0289  0.7349 -1.3143
  123SOL     vw  492   4.122   3.200   3.127  0.3529 -0.0242 -0.3842
  124SOL     ow  493   3.128   6.230   6.706 -0.1057  0.0749  0.0354
  124SOL     hw  494   3.184   6.154   6.719 -0.1745  0.3829  2.5186
  124SOL     hw  495   3.099   6.223   6.615  2.1174 -1.3187 -0.6350
  124SOL     vw  496   3.132   6.219   6.696  0.1785 -0.0684  0.2747
  125SOL     ow  497   1.058   1.166   4.311  0.4207 -0.4680 -0.5740
  125SOL     hw  498   1.013   1.248   4.331  0.2816 -0.5898 -0.3808
  125SOL     hw  499   1.015   1.134   4.232  2.0302  0.8163 -2.0513
  125SOL     vw  500   1.046   1.172   4.303  0.6146 -0.3146 -0.7434
  126SOL     ow  501   6.656   4.128   6.418 -0.5019 -0.0951  0.2534
  126SOL     hw  502   6.581   4.144   6.361 -2.0005 -1.6965  1.6476
  126SOL     hw  503   6.618   4.111   6.504  1.3691 -1.9768  0.7997
  126SOL     vw  504   6.641   4.128   6.422 -0.4530 -0.5550  0.5093
  127SOL     ow  505   4.944   0.333   5.224  0.2412  0.6753 -0.5490
  127SOL     hw  506   4.901   0.352   5.308  1.7031  2.0168 -0.0478
  127SOL     hw  507   4.872   0.328   5.161 -1.0819 -2.2414  1.0211
  127SOL     vw  508   4.929   0.335   5.227  0.2599  0.4675 -0.2759
  128SOL     ow  509   5.024   1.798   2.698 -0.3541 -0.4985  0.5614
  128SOL     hw  510   4.995   1.792   2.790 -1.4002  0.5213  0.3242
  128SOL     hw  511   4.978   1.874   2.664  0.8862 -0.2093 -0.5222
  128SOL     vw  512   5.014   1.807   2.706 -0.3285 -0.3258  0.3871
  129SOL     ow  513   2.696   1.482   6.156 -0.0146 -0.4311  0.1275
  129SOL     hw  514   2.767   1.473   6.092  0.7111  0.4836  0.7730
  129SOL     hw  515   2.622   1.515   6.106  0.9406  1.5839 -0.0555
  129SOL     vw  516   2.696   1.485   6.141  0.2073 -0.0445  0.1886
  130SOL     ow  517   2.955   0.520   0.379 -0.3825 -0.0887  0.0580
  130SOL     hw  518   2.974   0.584   0.448  1.6971 -0.5424 -0.0389
  130SOL     hw  519   2.981   0.436   0.416 -0.3062 -0.4891 -0.8680
  130SOL     vw  520   2.961   0.518   0.393 -0.0980 -0.2014 -0.0770
  131SOL     ow  521   1.162   4.648   1.200 -0.1786 -0.2518  0.1667
  131SOL     hw  522   1.159   4.732   1.153  0.4532 -1.8407 -2.9798
  131SOL     hw  523   1.091   4.655   1.264 -1.1172  2.1472 -0.9780
  131SOL     vw  524   1.152   4.660   1.202 -0.2190 -0.1447 -0.3995
  132SOL     ow  525   1.126   6.039   6.825 -0.0100 -0.1367  0.2959
  132SOL     hw  526   1.126   6.094   6.903  3.6094  0.9448 -0.3261
  132SOL     hw  527   1.066   6.083   6.765 -1.1542  0.2006  1.6246
  132SOL     vw  528   1.118   6.052   6.828  0.3165  0.0503  0.3893
  133SOL     ow  529   4.494   2.379   1.509 -0.3008  0.3734 -0.2083
  133SOL     hw  530   4.493   2.460   1.458 -2.9578  0.2172 -0.5538
  133SOL     hw  531   4.462   2.404   1.595 -1.6787 -0.3540 -0.4807
  133SOL     vw  532   4.490   2.393   1.513 -0.8335  0.2568 -0.2899
  134SOL     ow  533   1.059   5.322   4.906 -0.0671 -0.2609  0.3079
  134SOL     hw  534   1.045   5.387   4.975  1.5717 -1.1606  1.5876
  134SOL     hw  535   0.980   5.326   4.852  0.1333  3.0171  0.0877
  134SOL     vw  536   1.047   5.331   4.908  0.1755  0.0529  0.4478
  135SOL     ow  537   2.492   5.998   6.187 -0.3217 -0.2591  0.0016
  135SOL     hw  538   2.462   6.028   6.272  1.6155  0.9282  0.3230
  135SOL     hw  539   2.587   6.010   6.189 -0.0624 -1.5124 -1.8311
  135SOL     vw  540   2.500   6.003   6.198 -0.0319 -0.2675 -0.1979
  136SOL     ow  541   0.289   1.334   2.432  0.3968 -0.1002 -0.5997
  136SOL     hw  542   0.217   1.317   2.491  0.7035 -1.1784 -0.5059
  136SOL     hw  543   0.347   1.394   2.480 -1.2019  2.1416 -1.3142
  136SOL     vw  544   0.287   1.340   2.446  0.2264  0.0533 -0.6816
  137SOL     ow  545   2.136   2.791   4.123  0.1024  0.4774 -0.1642
  137SOL     hw  546   2.120   2.850   4.197  1.6235 -0.0857  0.6771
  137SOL     hw  547   2.049   2.762   4.096 -0.4862  0.3336  1.7307
  137SOL     vw  548   2.123   2.795   4.129  0.2253  0.3841  0.1965
  138SOL     ow  549   3.892   2.152   2.662  0.3149  0.8293  0.2049
  138SOL     hw  550   3.877   2.147   2.757  1.8629 -2.0473  0.4111
  138SOL     hw  551   3.975   2.199   2.654  0.5037  0.5216  0.3329
  138SOL     vw  552   3.901   2.157   2.674  0.5441  0.4091  0.2489
  139SOL     ow  553   0.343   4.148   2.510 -0.2505  0.4957 -0.5640
  139SOL     hw  554   0.269   4.208   2.507  0.8504  2.2228  2.3157
  139SOL     hw  555   0.340   4.111   2.598  0.0963 -2.4951 -1.7048
  139SOL     vw  556   0.333   4.151   2.521 -0.0595  0.3290 -0.3345
  140SOL     ow  557   0.334   6.177   4.601 -0.3376  0.2231  0.3118
  140SOL     hw  558   0.407   6.223   4.560 -2.0488  3.0493  0.2135
  140SOL     hw  559   0.360   6.168   4.693 -0.1792  1.9476  0.4550
  140SOL     vw  560   0.347   6.182   4.608 -0.5425  0.8235  0.3178
  141SOL     ow  561   5.004   2.814   0.741 -0.1167  0.7059 -0.1470
  141SOL     hw  562   4.973   2.753   0.808 -1.2591  1.9254  0.4929
  141SOL     hw  563   4.927   2.866   0.718  0.7674  1.7775 -0.7929
  141SOL     vw  564   4.990   2.813   0.747 -0.1507  1.0082 -0.1478
  142SOL     ow  565   0.586   1.562   6.821  0.2509  0.2795  0.1047
  142SOL     hw  566   0.597   1.614   6.741  1.8145 -2.7043 -1.7915
  142SOL     hw  567   0.509   1.600   6.863 -1.1796  1.5231 -3.2233
  142SOL     vw  568   0.577   1.574   6.816  0.2685  0.0499 -0.5848
  143SOL     ow  569   3.964   1.354   1.421 -0.7242  0.3959  0.4272
  143SOL     hw  570   3.972   1.304   1.340  1.5198  0.0329  0.8280
  143SOL     hw  571   3.977   1.445   1.394  1.4408  0.1622  0.4934
  143SOL     vw  572   3.967   1.360   1.407 -0.1426  0.3171  0.4888
  144SOL     ow  573   0.911   4.902   3.776 -0.5537 -0.0340  0.6380
  144SOL     hw  574   0.958   4.819   3.784  0.1970  0.5374  2.6151
  144SOL     hw  575   0.853   4.905   3.852 -0.8049  1.0986  0.4242
  144SOL     vw  576   0.909   4.892   3.787 -0.4878  0.1905  0.8708
  145SOL     ow  577   4.287   5.857   2.127  0.7759 -0.3430 -0.2429
  145SOL     hw  578   4.361   5.916   2.116  1.2697 -1.0632 -0.9062
  145SOL     hw  579   4.252   5.846   2.038  0.4914 -0.7772 -0.0830
  145SOL     vw  580   4.292   5.863   2.114  0.8032 -0.4952 -0.3092
  146SOL     ow  581   5.959   3.023   2.642  0.2704 -0.0421  0.6900
  146SOL     hw  582   5.999   2.981   2.719 -1.5355  0.6756  2.1057
  146SOL     hw  583   5.937   2.950   2.584  1.4214 -0.6250  0.9425
  146SOL     vw  584   5.962   3.008   2.645  0.1838 -0.0243  0.9100
  147SOL     ow  585   0.220   4.564   1.289  0.3832 -0.2750 -0.6975
  147SOL     hw  586   0.282   4.529   1.225 -0.0954 -0.5470 -1.0173
  147SOL     hw  587   0.150   4.602   1.237 -0.4361 -1.2530 -0.3515
  147SOL     vw  588   0.219   4.564   1.274  0.2120 -0.4396 -0.6941
  148SOL     ow  589   0.280   4.436   1.543  0.4226  0.6672 -0.0295
  148SOL     hw  590   0.301   4.348   1.510  0.5710  0.4274  0.6927
  148SOL     hw  591   0.295   4.430   1.637  0.9624  1.6281 -0.0503
  148SOL     vw  592   0.285   4.423   1.551  0.5134  0.7622  0.0630
  149SOL     ow  593   6.286   2.728   1.759  0.2856  0.5293 -0.6672
  149SOL     hw  594   6.209   2.782   1.742  0.8283  1.5185 -0.0785
  149SOL     hw  595   6.340   2.737   1.680 -0.3605 -0.4656 -1.2342
  149SOL     vw  596   6.283   2.736   1.747  0.2720  0.5285 -0.6644
  150SOL     ow  597   1.717   4.911   3.143  0.1140  0.5632 -0.7116
  150SOL     hw  598   1.771   4.910   3.222  0.1934  0.3634 -0.7675
  150SOL     hw  599   1.767   4.861   3.079 -0.6533 -0.6458 -0.4092
  150SOL     vw  600   1.731   4.904   3.145  0.0232  0.3772 -0.6791
  151SOL     ow  601   4.947   5.983   1.349  1.3309 -0.8910 -0.0847
  151SOL     hw  602   5.014   6.037   1.391  2.8887 -2.5388 -0.2997
  151SOL     hw  603   4.997   5.923   1.293 -0.5011 -0.4688 -2.3269
  151SOL     vw  604   4.963   5.982   1.347  1.2946 -1.0529 -0.4088
  152SOL     ow  605   2.556   2.618   1.823 -0.4698  0.0323  0.2616
  152SOL     hw  606   2.631   2.564   1.849 -0.4479  0.0030  0.1378
  152SOL     hw  607   2.534   2.587   1.735  0.4634  1.2106 -0.4107
  152SOL     vw  608   2.563   2.607   1.815 -0.3438  0.1838  0.1566
  153SOL     ow  609   5.526   4.255   5.497  0.0183 -0.0314  0.2391
  153SOL     hw  610   5.467   4.302   5.555 -0.0802 -2.6771  2.5227
  153SOL     hw  611   5.477   4.177   5.472  0.7439  0.1761 -2.0350
  153SOL     vw  612   5.512   4.251   5.501  0.1013 -0.3529  0.2403
  154SOL     ow  613   6.842   1.078   0.573 -0.4398  0.3012  0.0830
  154SOL     hw  614   6.900   1.044   0.504 -2.5774 -0.1556 -1.5951
  154SOL     hw  615   6.889   1.060   0.655  1.1943 -1.2453 -1.1116
  154SOL     vw  616   6.856   1.071   0.575 -0.5064  0.0368 -0.2960
  155SOL     ow  617   1.603   3.676   2.579  0.1056 -0.0170 -0.0989
  155SOL     hw  618   1.560   3.591   2.567  0.6073 -0.0645 -1.8899
  155SOL     hw  619   1.633   3.675   2.670 -0.4809 -1.4881  0.1106
  155SOL     vw  620   1.601   3.664   2.589  0.0945 -0.2173 -0.3076
  156SOL     ow  621   3.992   3.903   2.561  0.1315 -0.0379 -0.1698
  156SOL     hw  622   4.052   3.829   2.570  0.8697  0.3732 -1.5483
  156SOL     hw  623   4.044   3.972   2.520 -0.5729  1.2354  0.9703
  156SOL     vw  624   4.007   3.902   2.557  0.1359  0.1844 -0.2013
  157SOL     ow  625   1.992   3.552   6.785  0.0864  0.3052  0.3879
  157SOL     hw  626   2.002   3.641   6.819 -1.9667  0.0453  1.9253
  157SOL     hw  627   2.056   3.500   6.833  1.1603  0.8873 -0.3767
  157SOL     vw  628   2.002   3.557   6.796 -0.0427  0.3477  0.4897
  158SOL     ow  629   1.318   2.360   1.742  0.1034  0.0145  0.1551
  158SOL     hw  630   1.265   2.432   1.775 -0.5183 -0.5192  0.3353
  158SOL     hw  631   1.282   2.282   1.784  1.6166 -0.2736  1.0090
  158SOL     vw  632   1.306   2.359   1.752  0.2210 -0.0939  0.2916
  159SOL     ow  633   2.495   2.596   2.093  0.2107 -0.7317 -0.9102
  159SOL     hw  634   2.485   2.513   2.140  0.3826  0.0716  0.6259
  159SOL     hw  635   2.590   2.609   2.087  0.2370  0.4792  1.0706
  159SOL     vw  636   2.506   2.587   2.099  0.2369 -0.4660 -0.4463
  160SOL     ow  637   3.020   2.384   6.706 -0.2359 -0.2526 -0.0072
  160SOL     hw  638   3.047   2.334   6.629 -0.0280 -0.4009  0.1630
  160SOL     hw  639   3.009   2.474   6.674 -0.3454 -0.3536 -0.2532
  160SOL     vw  640   3.022   2.389   6.692 -0.2230 -0.2854 -0.0172
  161SOL     ow  641   5.729   4.756   2.336  0.1369  0.6162  0.4917
  161SOL     hw  642   5.697   4.829   2.282  2.1622 -0.4181 -2.3474
  161SOL     hw  643   5.710   4.678   2.284  1.2271 -0.5604  1.7851
  161SOL     vw  644   5.722   4.756   2.322  0.5481  0.3245  0.2878
  162SOL     ow  645   3.969   4.119   5.012 -0.2884 -0.3911 -0.8991
  162SOL     hw  646   3.933   4.101   5.098  1.5744 -1.0008 -0.2126
  162SOL     hw  647   3.976   4.214   5.008 -1.4270 -0.2959 -0.8420
  162SOL     vw  648   3.965   4.129   5.023 -0.1929 -0.4590 -0.8011
  163SOL     ow  649   1.251   6.874   3.273 -0.7910  0.7190 -0.3778
  163SOL     hw  650   1.268   6.950   3.217 -1.1102  0.2020 -1.1951
  163SOL     hw  651   1.182   6.826   3.228  2.2008 -2.3235 -2.1169
  163SOL     vw  652   1.244   6.878   3.260 -0.4383  0.2494 -0.7153
  164SOL     ow  653   5.642   4.438   5.258  0.5052  0.2351  0.2585
  164SOL     hw  654   5.711   4.486   5.211  1.2739 -1.2419 -0.1706
  164SOL     hw  655   5.565   4.446   5.201 -0.7307  4.5020  2.1225
  164SOL     vw  656   5.641   4.445   5.244  0.4435  0.6032  0.4478
  165SOL     ow  657   1.128   1.386   5.167 -0.1487 -0.1503  0.3901
  165SOL     hw  658   1.074   1.390   5.088  0.1527  3.0573  0.1940
  165SOL     hw  659   1.090   1.451   5.226  2.3191  0.9141  0.9795
  165SOL     vw  660   1.116   1.395   5.165  0.2167  0.4133  0.4420
  166SOL     ow  661   5.576   0.767   2.595  0.1231  0.9521 -0.0789
  166SOL     hw  662   5.671   0.757   2.581 -0.0814  0.1940 -1.0142
  166SOL     hw  663   5.548   0.828   2.526 -0.0295  1.4261  0.3927
  166SOL     vw  664   5.585   0.774   2.584  0.0758  0.9147 -0.1401
  167SOL     ow  665   5.457   3.553   0.760  0.4245 -0.4272  0.5226
  167SOL     hw  666   5.465   3.565   0.854  1.3144  2.1970  0.2044
  167SOL     hw  667   5.547   3.554   0.728  0.1032 -0.4571 -0.4178
  167SOL     vw  668   5.470   3.555   0.768  0.4997 -0.0848  0.3566
  168SOL     ow  669   6.371   5.625   1.271 -0.1061  0.5458  0.1075
  168SOL     hw  670   6.367   5.689   1.200  0.1322  0.9133  0.4217
  168SOL     hw  671   6.290   5.639   1.320 -0.2384  0.3380 -0.0496
  168SOL     vw  672   6.360   5.635   1.268 -0.0923  0.5670  0.1283
  169SOL     ow  673   2.162   4.384   0.677 -1.0427 -0.1720 -0.6429
  169SOL     hw  674   2.120   4.339   0.751 -1.4220  0.4435 -0.4752
  169SOL     hw  675   2.125   4.472   0.679 -1.0968 -0.1606 -1.5993
  169SOL     vw  676   2.151   4.390   0.687 -1.0998 -0.0894 -0.7470
  170SOL     ow  677   5.881   3.546   5.369 -1.0383  0.1843  0.2699
  170SOL     hw  678   5.930   3.591   5.438 -0.8452 -0.8145  0.8004
  170SOL     hw  679   5.819   3.612   5.337  0.5331  1.4370 -0.3315
  170SOL     vw  680   5.879   3.560   5.374 -0.8054  0.2178  0.2606
  171SOL     ow  681   1.648   0.206   3.350  0.0059 -0.0868 -0.1920
  171SOL     hw  682   1.591   0.270   3.306  0.2344 -0.7036 -1.4042
  171SOL     hw  683   1.683   0.152   3.280  1.2138 -0.4400  0.6569
  171SOL     vw  684   1.645   0.208   3.335  0.1954 -0.2147 -0.2398
  172SOL     ow  685   3.497   2.752   1.542 -0.0976  0.7012  0.3356
  172SOL     hw  686   3.434   2.822   1.559 -1.4208 -0.4834  0.4771
  172SOL     hw  687   3.582   2.795   1.547 -0.8181  2.0818  1.4692
  172SOL     vw  688   3.500   2.767   1.545 -0.3672  0.7271  0.5038
  173SOL     ow  689   5.067   4.750   6.143  0.2946  0.0292  0.5799
  173SOL     hw  690   5.053   4.659   6.169 -0.1284  0.1213  0.6865
  173SOL     hw  691   5.162   4.757   6.132  0.1706 -1.1372 -2.0212
  173SOL     vw  692   5.078   4.739   6.145  0.2224 -0.1128  0.2511
  174SOL     ow  693   0.896   5.846   6.759  0.3420  0.4500 -0.4027
  174SOL     hw  694   0.814   5.856   6.807  0.8637 -0.9702  0.8805
  174SOL     hw  695   0.877   5.781   6.691  0.4393  0.0042 -0.0051
  174SOL     vw  696   0.883   5.839   6.756  0.4236  0.2038 -0.1807
  175SOL     ow  697   5.886   2.314   2.348 -0.1019  0.8515  0.1636
  175SOL     hw  698   5.940   2.279   2.277 -1.0850  0.6411 -0.5083
  175SOL     hw  699   5.797   2.309   2.314 -0.9305 -1.6751  2.3889
  175SOL     vw  700   5.882   2.309   2.334 -0.3409  0.4903  0.3686
  176SOL     ow  701   6.233   6.073   3.525  0.1101 -0.2647 -0.4067
  176SOL     hw  702   6.297   6.142   3.507 -0.8958  0.5281 -1.1105
  176SOL     hw  703   6.255   6.002   3.465 -1.6484  1.3371 -3.1766
  176SOL     vw  704   6.244   6.073   3.515 -0.2546  0.0513 -0.8651
  177SOL     ow  705   5.006   1.555   0.031  0.2687  0.2282 -0.4534
  177SOL     hw  706   5.031   1.502  -0.044 -0.5898 -1.8805  0.6549
  177SOL     hw  707   5.065   1.528   0.101 -1.1535 -0.4230  0.5478
  177SOL     vw  708   5.017   1.545   0.030 -0.0319 -0.1360 -0.1751
  178SOL     ow  709   4.109   0.707   1.180 -0.1615  0.1739 -0.5191
  178SOL     hw  710   4.194   0.737   1.147 -0.1846 -1.8039 -2.6290
  178SOL     hw  711   4.128   0.672   1.267  0.9760  0.7592 -0.5148
  178SOL     vw  712   4.123   0.706   1.187 -0.0143 -0.0098 -0.7969
  179SOL     ow  713   6.221   6.624   6.621 -0.2353  0.0534 -0.5434
  179SOL     hw  714   6.292   6.562   6.605 -0.9190 -0.6118 -1.1089
  179SOL     hw  715   6.187   6.599   6.707 -1.3323 -1.2323 -1.3042
  179SOL     vw  716   6.226   6.613   6.630 -0.4704 -0.2041 -0.7184
  180SOL     ow  717   1.701   3.911   1.670 -0.3494 -0.1276  0.1081
  180SOL     hw  718   1.607   3.927   1.669 -0.2507  0.5134  0.4561
  180SOL     hw  719   1.710   3.816   1.666 -1.0374 -0.2421  1.0443
  180SOL     vw  720   1.690   3.901   1.669 -0.4271 -0.0582  0.2776
  181SOL     ow  721   0.405   1.766   0.797  0.2997 -0.4704  0.1929
  181SOL     hw  722   0.372   1.747   0.709 -3.5914  2.2463  0.7719
  181SOL     hw  723   0.403   1.862   0.803  1.8413 -0.5029  2.8171
  181SOL     vw  724   0.400   1.776   0.786 -0.0103 -0.1162  0.6155
  182SOL     ow  725   1.499   4.411   6.016 -0.2937 -0.0148 -0.4387
  182SOL     hw  726   1.521   4.386   6.106 -0.6527 -0.4249 -0.4640
  182SOL     hw  727   1.417   4.459   6.023 -0.5129 -0.3668 -0.5900
  182SOL     vw  728   1.491   4.414   6.029 -0.3699 -0.1154 -0.4621
  183SOL     ow  729   6.295   3.961   2.354  0.1752  0.0642  0.2284
  183SOL     hw  730   6.369   3.933   2.299  1.7584  0.3142  2.1507
  183SOL     hw  731   6.277   3.885   2.410  0.4525  0.7610  1.2779
  183SOL     vw  732   6.303   3.947   2.354  0.4206  0.1891  0.6206
  184SOL     ow  733   5.711   1.703   6.826 -0.0959 -0.5254  0.4596
  184SOL     hw  734   5.763   1.696   6.746 -0.9287 -0.8061 -0.0682
  184SOL     hw  735   5.776   1.698   6.897  0.7593  0.6504 -0.1938
  184SOL     vw  736   5.727   1.701   6.825 -0.0927 -0.4073  0.3035
  185SOL     ow  737   0.112   5.970   4.548 -0.4713  0.4566  0.3274
  185SOL     hw  738   0.070   6.029   4.610 -2.1937 -0.4122  0.0559
  185SOL     hw  739   0.040   5.936   4.495  0.6900 -0.5038 -0.6985
  185SOL     vw  740   0.097   5.973   4.549 -0.5453  0.2153  0.1564
  186SOL     ow  741   2.073   5.228   1.158  0.7866 -0.6675  0.2558
  186SOL     hw  742   2.117   5.223   1.242 -0.0487  0.3191  0.7820
  186SOL     hw  743   2.052   5.321   1.147 -0.8086 -1.0324 -0.1359
  186SOL     vw  744   2.076   5.240   1.167  0.4659 -0.5856  0.2736
  187SOL     ow  745   5.193   0.954   4.795 -0.4181 -0.7128 -0.5144
  187SOL     hw  746   5.253   0.953   4.870 -0.4398 -2.5568 -0.4887
  187SOL     hw  747   5.137   1.030   4.810  0.9482  0.1953  0.2163
  187SOL     vw  748   5.194   0.964   4.807 -0.2406 -0.8363 -0.4144
  188SOL     ow  749   5.620   0.109   0.300 -0.1756  0.4657 -0.6150
  188SOL     hw  750   5.655   0.138   0.384  0.0428 -1.3445 -0.0356
  188SOL     hw  751   5.666   0.164   0.235  2.4296 -0.5440  0.2303
  188SOL     vw  752   5.631   0.120   0.302  0.1972  0.0936 -0.4270
  189SOL     ow  753   3.536   1.201   0.216  0.4113  0.4279 -0.2626
  189SOL     hw  754   3.480   1.225   0.143 -0.4540  1.1225  0.6068
  189SOL     hw  755   3.505   1.255   0.289 -0.0697 -1.6289  1.1473
  189SOL     vw  756   3.525   1.211   0.216  0.2337  0.2481  0.0381
  190SOL     ow  757   5.520   1.205   6.493  0.0775  0.1133  0.8823
  190SOL     hw  758   5.565   1.169   6.417  0.5262 -0.6499  1.4945
  190SOL     hw  759   5.427   1.188   6.477  0.2371 -0.7991  0.8831
  190SOL     vw  760   5.514   1.198   6.481  0.1576 -0.1077  0.9632
  191SOL     ow  761   5.772   2.508   0.375  0.3856  0.6121  0.3577
  191SOL     hw  762   5.815   2.573   0.431  2.7916 -0.0607 -0.5838
  191SOL     hw  763   5.720   2.455   0.435  2.3486  0.3263  1.8907
  191SOL     vw  764   5.770   2.510   0.390  0.9620  0.4857  0.4357
  192SOL     ow  765   1.091   2.458   6.769  0.4607  0.0270  0.5601
  192SOL     hw  766   1.178   2.440   6.806  0.3809  0.3147  0.8987
  192SOL     hw  767   1.037   2.478   6.846  0.3607  0.9226  0.2644
  192SOL     vw  768   1.095   2.459   6.784  0.4370  0.1831  0.5658
  193SOL     ow  769   4.560   3.848   6.412  0.2385  0.2701  0.1958
  193SOL     hw  770   4.645   3.812   6.438 -1.3413 -3.9162  0.1705
  193SOL     hw  771   4.522   3.782   6.354 -3.4802  1.4567  1.0055
  193SOL     vw  772   4.566   3.835   6.408 -0.4604 -0.1256  0.2992
  194SOL     ow  773   4.756   5.326   2.259  0.4635 -0.1772  0.3446
  194SOL     hw  774   4.804   5.337   2.341  3.6446 -0.0983 -1.3918
  194SOL     hw  775   4.743   5.415   2.226 -1.1189 -0.1835  0.8380
  194SOL     vw  776   4.761   5.339   2.265  0.6742 -0.1678  0.1806
  195SOL     ow  777   4.702   3.643   0.896  0.1822  0.5711 -0.1487
  195SOL     hw  778   4.714   3.549   0.882 -2.8681  0.1916 -0.8336
  195SOL     hw  779   4.681   3.651   0.989  0.2626  0.5805 -0.1306
  195SOL     vw  780   4.701   3.631   0.906 -0.2098  0.5223 -0.2366
  196SOL     ow  781   1.176   6.147   0.726 -0.0985  0.5299 -0.3423
  196SOL     hw  782   1.122   6.216   0.766 -0.8804  0.1469 -0.7050
  196SOL     hw  783   1.154   6.151   0.633 -0.4090 -0.4298 -0.3171
  196SOL     vw  784   1.166   6.156   0.719 -0.2425  0.3529 -0.3868
  197SOL     ow  785   3.274   5.918   1.591  0.2150 -0.0147 -0.1161
  197SOL     hw  786   3.314   6.000   1.560  1.0916 -0.4325 -0.1253
  197SOL     hw  787   3.302   5.852   1.527 -0.6882 -0.2895 -0.2465
  197SOL     vw  788   3.283   5.920   1.578  0.2114 -0.1061 -0.1346
  198SOL     ow  789   2.747   2.620   3.045  0.1147  0.1851 -0.1085
  198SOL     hw  790   2.815   2.666   2.996  1.6571 -1.5920  0.2538
  198SOL     hw  791   2.761   2.645   3.136  0.5857 -0.5244  0.0192
  198SOL     vw  792   2.758   2.629   3.050  0.3804 -0.1432 -0.0439
  199SOL     ow  793   5.081   2.469   2.142 -0.0200 -0.1925  0.1733
  199SOL     hw  794   5.058   2.416   2.065  3.2693  0.7143 -1.5984
  199SOL     hw  795   5.028   2.548   2.133 -1.8000 -1.2816  0.5164
  199SOL     vw  796   5.071   2.472   2.130  0.1793 -0.2166 -0.0153
  200SOL     ow  797   2.881   0.370   0.108 -0.1691  0.5292 -0.0698
  200SOL     hw  798   2.920   0.294   0.151 -2.6143 -0.9868 -0.3466
  200SOL     hw  799   2.848   0.336   0.024  1.0197  2.5236 -1.4398
  200SOL     vw  800   2.882   0.356   0.102 -0.3349  0.5924 -0.2871
  201SOL     ow  801   3.931   1.257   4.059 -0.2219  0.3278 -0.4363
  201SOL     hw  802   3.865   1.237   3.993  0.8702 -1.6748 -0.9830
  201SOL     hw  803   3.992   1.316   4.014  0.6399 -1.2058 -1.3345
  201SOL     vw  804   3.931   1.262   4.044  0.0360 -0.1388 -0.6268
  202SOL     ow  805   2.397   5.246   5.186 -0.2605 -0.3725 -0.1257
  202SOL     hw  806   2.438   5.284   5.264  1.4696 -2.1671 -0.0890
  202SOL     hw  807   2.304   5.241   5.208 -0.0182  0.5363  1.2141
  202SOL     vw  808   2.390   5.251   5.199 -0.0002 -0.4895  0.0560
  203SOL     ow  809   2.793   3.884   5.730  0.4587 -0.2180  0.2610
  203SOL     hw  810   2.805   3.968   5.687 -1.1449 -0.4114 -0.6725
  203SOL     hw  811   2.699   3.866   5.722  0.3716 -1.0685  2.4058
  203SOL     vw  812   2.782   3.892   5.723  0.2356 -0.3558  0.4208
  204SOL     ow  813   6.450   4.096   6.233 -0.0609 -0.2931  0.0280
  204SOL     hw  814   6.385   4.100   6.304  0.4275 -0.7398  0.5140
  204SOL     hw  815   6.401   4.065   6.157 -0.5198 -0.1620  0.2662
  204SOL     vw  816   6.435   4.093   6.233 -0.0572 -0.3345  0.1235
  205SOL     ow  817   2.933   6.050   2.851 -0.4407 -0.6990  0.3775
  205SOL     hw  818   2.888   6.134   2.863 -2.3737 -1.3776 -1.5005
  205SOL     hw  819   2.990   6.063   2.775 -1.8765 -1.4333 -0.8846
  205SOL     vw  820   2.935   6.062   2.843 -0.8851 -0.8855 -0.0367
  206SOL     ow  821   4.265   5.147   1.139  0.0783 -0.0990 -0.1017
  206SOL     hw  822   4.262   5.106   1.053 -0.0856 -1.3109  0.4532
  206SOL     hw  823   4.344   5.201   1.138  1.3031 -1.8105 -0.2920
  206SOL     vw  824   4.275   5.149   1.128  0.2184 -0.4849 -0.0535
  207SOL     ow  825   6.216   0.768   5.567 -0.1930  0.0080 -0.3382
  207SOL     hw  826   6.186   0.691   5.616  1.7402 -1.2648 -1.0214
  207SOL     hw  827   6.232   0.734   5.478  0.9766  1.1095 -0.5748
  207SOL     vw  828   6.214   0.753   5.562  0.2162 -0.0146 -0.4594
  208SOL     ow  829   0.560   0.585   2.695 -0.8896  0.3404  0.0371
  208SOL     hw  830   0.619   0.658   2.675  0.8006 -1.2967 -1.3684
  208SOL     hw  831   0.490   0.592   2.630 -0.0375  0.0026 -0.9389
  208SOL     vw  832   0.559   0.596   2.684 -0.5542  0.0798 -0.2773
  209SOL     ow  833   0.610   0.359   6.808  0.0802 -0.1099  0.3049
  209SOL     hw  834   0.657   0.298   6.864  1.4870  0.8345  0.1916
  209SOL     hw  835   0.626   0.445   6.846 -0.4794  0.3645 -0.4854
  209SOL     vw  836   0.618   0.362   6.820  0.1920  0.0772  0.1857
  210SOL     ow  837   4.402   6.438   0.909  0.2559  0.3270 -0.0510
  210SOL     hw  838   4.453   6.410   0.985 -0.8021 -2.0106 -0.1022
  210SOL     hw  839   4.369   6.356   0.871 -2.1417  1.6241 -0.9632
  210SOL     vw  840   4.404   6.424   0.914 -0.2003  0.1895 -0.1781
  211SOL     ow  841   0.271   4.572   5.205 -0.0871  0.1915 -0.4319
  211SOL     hw  842   0.197   4.545   5.150 -0.4147  3.1609 -1.6164
  211SOL     hw  843   0.332   4.498   5.201 -2.0223 -1.4585 -1.1767
  211SOL     vw  844   0.269   4.559   5.197 -0.3856  0.3657 -0.6866
  212SOL     ow  845   2.363   1.738   1.565  0.6650 -0.2145 -0.5998
  212SOL     hw  846   2.433   1.759   1.503 -1.3012 -4.7458 -5.0419
  212SOL     hw  847   2.379   1.646   1.589 -1.7835 -0.2654  1.2326
  212SOL     vw  848   2.375   1.729   1.560  0.0825 -0.8191 -0.9441
  213SOL     ow  849   6.244   6.559   4.076 -0.7171 -0.5819 -0.3927
  213SOL     hw  850   6.245   6.617   4.000 -0.2941  3.1437  2.1940
  213SOL     hw  851   6.323   6.504   4.065  0.5635  1.3828 -1.6086
  213SOL     vw  852   6.255   6.559   4.064 -0.4921  0.1690 -0.2117
  214SOL     ow  853   6.573   5.766   2.431  0.3120  0.0191 -0.3902
  214SOL     hw  854   6.654   5.812   2.413  0.2248  0.8007  1.0650
  214SOL     hw  855   6.505   5.834   2.430 -0.3122 -0.5851 -1.3561
  214SOL     vw  856   6.575   5.781   2.428  0.2179  0.0422 -0.3256
  215SOL     ow  857   4.211   4.743   6.840 -0.2844  0.4844  0.5451
  215SOL     hw  858   4.179   4.801   6.771 -0.6612 -1.0035 -0.6110
  215SOL     hw  859   4.276   4.794   6.887 -2.1369  2.5474  0.9903
  215SOL     vw  860   4.215   4.757   6.837 -0.5784  0.5605  0.4511
  216SOL     ow  861   3.787   4.104   5.773  0.1178  0.1599  0.2978
  216SOL     hw  862   3.758   4.013   5.785 -0.5822  0.5733  1.9499
  216SOL     hw  863   3.788   4.116   5.678  0.7595 -1.7422  0.0128
  216SOL     vw  864   3.784   4.093   5.762  0.1100 -0.0365  0.4785
  217SOL     ow  865   0.934   0.663   1.015 -0.2294  0.0164  0.4058
  217SOL     hw  866   0.895   0.633   0.933  1.9300 -0.8460 -0.3889
  217SOL     hw  867   0.942   0.583   1.068 -0.6176  0.3850  1.0349
  217SOL     vw  868   0.930   0.648   1.012  0.0043 -0.0488  0.3839
  218SOL     ow  869   6.856   6.497   2.873  0.3321  0.1753  0.1344
  218SOL     hw  870   6.948   6.482   2.895  0.6809  1.4656 -0.3468
  218SOL     hw  871   6.846   6.592   2.871 -1.1235  0.0617  0.5713
  218SOL     vw  872   6.867   6.508   2.875  0.1862  0.3304  0.1286
  219SOL     ow  873   6.895   0.825   1.637 -0.7068  0.0683 -0.0268
  219SOL     hw  874   6.882   0.892   1.705  1.1316  0.4682  0.0020
  219SOL     hw  875   6.834   0.848   1.568  0.1072  2.0093 -0.1602
  219SOL     vw  876   6.885   0.837   1.637 -0.3569  0.3771 -0.0406
  220SOL     ow  877   6.028   0.989   5.384 -0.4187  0.1615  0.2591
  220SOL     hw  878   5.956   0.986   5.321 -0.3013  0.3735  0.1133
  220SOL     hw  879   6.060   1.079   5.379  0.7589 -0.2878 -0.6804
  220SOL     vw  880   6.023   1.000   5.375 -0.2477  0.1302  0.1159
  221SOL     ow  881   3.196   0.583   2.045  0.9577  0.0784  0.5998
  221SOL     hw  882   3.240   0.561   1.963 -1.8053 -2.5316 -0.3533
  221SOL     hw  883   3.118   0.632   2.019  0.3881 -0.2062  1.7073
  221SOL     vw  884   3.192   0.587   2.031  0.5181 -0.3035  0.6201
  222SOL     ow  885   6.676   0.593   6.475 -0.6793 -0.2984 -0.1862
  222SOL     hw  886   6.599   0.554   6.435 -0.1745 -0.7273 -0.7588
  222SOL     hw  887   6.741   0.595   6.405 -0.5905  1.3195 -0.0930
  222SOL     vw  888   6.675   0.588   6.461 -0.6011 -0.1415 -0.2499
  223SOL     ow  889   6.490   1.998   4.160  0.4765  0.3189 -0.2931
  223SOL     hw  890   6.412   2.044   4.190 -1.1278 -0.9973 -2.1447
  223SOL     hw  891   6.461   1.950   4.082  2.1459 -3.2561  1.0769
  223SOL     vw  892   6.476   1.998   4.154  0.4852 -0.3265 -0.3567
  224SOL     ow  893   4.923   4.688   3.281 -0.6883  0.4829  0.0763
  224SOL     hw  894   4.847   4.736   3.312 -1.6663 -1.3590  0.7108
  224SOL     hw  895   4.890   4.600   3.263  1.5498 -0.8912  1.9510
  224SOL     vw  896   4.909   4.682   3.283 -0.5219  0.0584  0.4073
  225SOL     ow  897   6.662   4.281   3.670 -0.3392 -0.1349 -0.2347
  225SOL     hw  898   6.729   4.338   3.709 -1.7911  0.1825  1.9415
  225SOL     hw  899   6.710   4.201   3.646  1.1315  0.7571 -0.4097
  225SOL     vw  900   6.677   4.278   3.672 -0.3366  0.0246  0.0294
  226SOL     ow  901   6.200   5.873   4.479 -0.4793  0.2857 -0.4612
  226SOL     hw  902   6.150   5.815   4.422  2.5378 -2.3336 -0.7219
  226SOL     hw  903   6.253   5.926   4.419  0.5240 -0.3670 -0.1707
  226SOL     vw  904   6.201   5.873   4.464  0.0510 -0.1459 -0.4573
  227SOL     ow  905   1.421   5.498   6.433  0.0277 -0.9368 -0.2563
  227SOL     hw  906   1.506   5.524   6.398 -0.2449  2.1239  1.1023
  227SOL     hw  907   1.441   5.458   6.517  0.1480 -0.4600 -0.0560
  227SOL     vw  908   1.435   5.496   6.439  0.0075 -0.4702 -0.0508
  228SOL     ow  909   5.921   1.824   3.137 -0.1611  0.7991 -0.4936
  228SOL     hw  910   5.925   1.911   3.096  2.0536  0.4520 -1.1409
  228SOL     hw  911   5.924   1.763   3.063  2.2649  0.1709  0.0471
  228SOL     vw  912   5.922   1.827   3.122  0.4513  0.6704 -0.5076
  229SOL     ow  913   2.452   1.026   6.643 -0.4251 -0.3150 -0.4875
  229SOL     hw  914   2.384   1.027   6.711  0.5127  0.5006  0.4870
  229SOL     hw  915   2.515   0.961   6.673  1.7092  2.3233  1.3098
  229SOL     vw  916   2.451   1.018   6.656 -0.0198  0.1407 -0.1218
  230SOL     ow  917   1.558   4.359   5.411  0.4629  0.3665 -0.3779
  230SOL     hw  918   1.575   4.412   5.333 -0.2185  0.6686 -0.3349
  230SOL     hw  919   1.579   4.270   5.385  0.6128  0.5198 -0.7882
  230SOL     vw  920   1.563   4.354   5.398  0.3928  0.4265 -0.4265
  231SOL     ow  921   1.556   1.312   3.585  0.0223  0.0732  0.6705
  231SOL     hw  922   1.493   1.349   3.647  0.6030 -0.3701  1.5531
  231SOL     hw  923   1.642   1.339   3.619  0.4684 -2.0123  1.3533
  231SOL     vw  924   1.559   1.320   3.598  0.1578 -0.2604  0.8769
  232SOL     ow  925   5.984   0.069   3.433  0.0906  0.1174 -0.8533
  232SOL     hw  926   6.017   0.016   3.506 -0.1654  0.2408 -0.6440
  232SOL     hw  927   5.971   0.007   3.361 -4.5824 -1.0929  0.6784
  232SOL     vw  928   5.987   0.054   3.433 -0.5598 -0.0260 -0.6236
  233SOL     ow  929   6.562   5.845   2.694  0.4994 -0.4714 -0.1644
  233SOL     hw  930   6.476   5.865   2.658 -0.4200 -3.6502 -0.0359
  233SOL     hw  931   6.547   5.834   2.788  1.6966  1.7267  0.3651
  233SOL     vw  932   6.549   5.846   2.702  0.5360 -0.6008 -0.0776
  234SOL     ow  933   2.826   3.800   0.155 -0.4226 -0.6192  0.0279
  234SOL     hw  934   2.846   3.892   0.140 -0.8021  0.2103  3.6573
  234SOL     hw  935   2.911   3.756   0.158 -0.2379 -0.4365 -1.5767
  234SOL     vw  936   2.840   3.806   0.153 -0.4483 -0.4857  0.2950
  235SOL     ow  937   0.584   5.590   1.399 -0.5333  0.2285  0.3096
  235SOL     hw  938   0.570   5.501   1.429 -1.6512 -0.9087 -3.1052
  235SOL     hw  939   0.496   5.625   1.385 -0.1692  0.2341 -2.4697
  235SOL     vw  940   0.571   5.583   1.401 -0.6328  0.0794 -0.5077
  236SOL     ow  941   0.365   1.140   6.259 -0.7517  0.1756  0.0539
  236SOL     hw  942   0.413   1.061   6.233  0.1508  1.7716 -3.6782
  236SOL     hw  943   0.421   1.212   6.233 -2.5180  2.1168  1.3235
  236SOL     vw  944   0.379   1.139   6.253 -0.8657  0.6423 -0.2711
  237SOL     ow  945   6.590   3.067   4.649 -0.7574 -0.6807  0.4188
  237SOL     hw  946   6.658   3.123   4.611 -1.5503 -0.3280 -0.5517
  237SOL     hw  947   6.612   3.061   4.742  0.9413 -1.0931  0.0307
  237SOL     vw  948   6.602   3.074   4.656 -0.6375 -0.6887  0.2396
  238SOL     ow  949   0.105   2.513   3.035 -0.3221 -0.2360  0.4095
  238SOL     hw  950   0.073   2.424   3.048 -2.8101  0.5954  0.4503
  238SOL     hw  951   0.146   2.511   2.948 -2.5323 -0.9170 -0.7028
  238SOL     vw  952   0.106   2.501   3.025 -0.9420 -0.2161  0.2681
  239SOL     ow  953   4.836   2.647   5.346 -0.2188  0.0422  0.5293
  239SOL     hw  954   4.879   2.634   5.430 -1.8162  0.4172  1.4531
  239SOL     hw  955   4.758   2.591   5.349 -0.6548  0.5628 -0.4220
  239SOL     vw  956   4.831   2.638   5.357 -0.4873  0.1605  0.5260
  240SOL     ow  957   0.655   6.225   0.495 -0.5550  0.3392 -0.0925
  240SOL     hw  958   0.704   6.307   0.496 -0.1060  0.0958 -1.0396
  240SOL     hw  959   0.702   6.170   0.433 -0.7721 -0.6946  0.6386
  240SOL     vw  960   0.668   6.229   0.487 -0.5244  0.1709 -0.1210
  241SOL     ow  961   1.449   3.840   2.341  0.1264  1.1331 -0.3489
  241SOL     hw  962   1.449   3.935   2.327 -1.5732  1.1714 -0.2737
  241SOL     hw  963   1.385   3.827   2.410  0.9795 -0.0095  0.2460
  241SOL     vw  964   1.440   3.851   2.348  0.0148  0.9873 -0.2605
  242SOL     ow  965   2.811   0.294   5.614 -0.2067 -0.2642  0.5231
  242SOL     hw  966   2.890   0.244   5.595 -0.9987 -0.9147 -1.2434
  242SOL     hw  967   2.801   0.287   5.709  1.6781 -0.3925  0.7474
  242SOL     vw  968   2.820   0.287   5.624 -0.0623 -0.3670  0.3195
  243SOL     ow  969   3.300   1.335   0.070  0.6530  0.3367 -0.3824
  243SOL     hw  970   3.274   1.412   0.120 -0.5150 -0.0212 -0.4120
  243SOL     hw  971   3.310   1.367  -0.019  0.5352  0.5264 -0.3285
  243SOL     vw  972   3.298   1.350   0.065  0.4834  0.3145 -0.3792
  244SOL     ow  973   3.604   4.099   3.124 -0.4666  0.4910 -0.2788
  244SOL     hw  974   3.652   4.129   3.047  2.9068 -2.1283  0.5395
  244SOL     hw  975   3.635   4.157   3.195  2.4957 -1.6632  0.4065
  244SOL     vw  976   3.615   4.111   3.123  0.3693 -0.1388 -0.0803
  245SOL     ow  977   1.828   5.319   5.727 -0.2883  0.5311 -0.0532
  245SOL     hw  978   1.886   5.369   5.786 -0.2889 -0.3982  0.7629
  245SOL     hw  979   1.741   5.328   5.767 -0.7891  2.0853 -1.3806
  245SOL     vw  980   1.824   5.327   5.740 -0.3545  0.6137 -0.1204
  246SOL     ow  981   2.506   3.160   4.491  0.8477  0.2459  0.4682
  246SOL     hw  982   2.543   3.229   4.436 -0.3863  1.0907  0.6420
  246SOL     hw  983   2.419   3.145   4.454  0.2864  0.2976  1.7290
  246SOL     vw  984   2.499   3.167   4.478  0.6108  0.3642  0.6576
  247SOL     ow  985   6.438   0.490   1.050  0.1385 -0.1543 -0.7408
  247SOL     hw  986   6.481   0.415   1.092  0.3676  0.2747 -0.2021
  247SOL     hw  987   6.431   0.555   1.119 -2.1004 -0.4880 -0.5836
  247SOL     vw  988   6.443   0.489   1.065 -0.1266 -0.1417 -0.6491
  248SOL     ow  989   6.106   4.738   4.239  0.6138  0.2626  0.6069
  248SOL     hw  990   6.069   4.823   4.262  1.3072  0.2361  1.9096
  248SOL     hw  991   6.040   4.697   4.184 -0.5232  0.9279  1.4397
  248SOL     vw  992   6.093   4.744   4.235  0.5550  0.3469  0.8886
  249SOL     ow  993   1.366   1.452   1.018  0.0072 -0.2470  0.3180
  249SOL     hw  994   1.289   1.414   0.976  0.1791 -1.5978  1.1468
  249SOL     hw  995   1.435   1.448   0.951  0.0274 -1.4770  0.3923
  249SOL     vw  996   1.365   1.446   1.004  0.0325 -0.5875  0.4373
  250SOL     ow  997   4.584   6.439   5.438  0.3658  0.7252  0.2252
  250SOL     hw  998   4.654   6.487   5.392  0.4283  0.6189  0.2104
  250SOL     hw  999   4.534   6.398   5.367  1.2676 -0.5791  0.3009
  250SOL     vw 1000   4.587   6.440   5.422  0.4930  0.5391  0.2332
  251SOL     ow 1001   2.014   2.785   5.929 -0.2949  0.2587  0.2867
  251SOL     hw 1002   2.101   2.818   5.953 -0.3082  0.0423  0.6417
  251SOL     hw 1003   1.954   2.851   5.962 -0.3071  0.0130  0.7594
  251SOL     vw 1004   2.017   2.798   5.936 -0.2984  0.1976  0.3963
  252SOL     ow 1005   3.825   4.449   5.452 -0.0587  0.1440  0.3596
  252SOL     hw 1006   3.900   4.508   5.440 -0.9629  1.0329 -1.1609
  252SOL     hw 1007   3.860   4.362   5.431  0.2526  0.7199 -1.6975
  252SOL     vw 1008   3.840   4.445   5.447 -0.1370  0.3374 -0.1121
  253SOL     ow 1009   2.687   0.518   5.447 -0.5638 -0.0402  0.2619
  253SOL     hw 1010   2.680   0.583   5.377  1.4533  1.0596  0.9755
  253SOL     hw 1011   2.709   0.569   5.525  1.4838 -1.5562  0.7720
  253SOL     vw 1012   2.689   0.534   5.448 -0.0275 -0.0951  0.4234
  254SOL     ow 1013   5.242   4.212   6.632 -0.6827  1.0361  0.1669
  254SOL     hw 1014   5.310   4.211   6.565 -0.0007 -1.7455  0.7629
  254SOL     hw 1015   5.173   4.154   6.597  0.3472 -1.7279  2.3334
  254SOL     vw 1016   5.242   4.204   6.619 -0.4568  0.3047  0.5314
  255SOL     ow 1017   3.563   2.332   0.736  0.2718  0.3214 -0.1557
  255SOL     hw 1018   3.536   2.355   0.825  1.3372 -0.5192  0.4056
  255SOL     hw 1019   3.643   2.383   0.721 -0.1985  0.8713 -0.8458
  255SOL     vw 1020   3.570   2.342   0.746  0.3504  0.2831 -0.1727
  256SOL     ow 1021   0.976   2.420   3.370  0.3471  0.4557 -0.1180
  256SOL     hw 1022   0.978   2.459   3.457 -0.3989  1.6049 -0.5958
  256SOL     hw 1023   0.930   2.336   3.383  2.5836 -0.6733  1.0362
  256SOL     vw 1024   0.970   2.414   3.383  0.5438  0.4584 -0.0287
  257SOL     ow 1025   1.473   0.974   3.919  0.3994 -0.4462  0.6690
  257SOL     hw 1026   1.423   0.914   3.865 -1.7631  1.8623 -0.0942
  257SOL     hw 1027   1.422   1.055   3.919  1.4807  0.4351  4.2602
  257SOL     vw 1028   1.460   0.977   3.912  0.2568 -0.0254  1.0421
  258SOL     ow 1029   2.784   0.134   3.475 -0.0012  0.2592  0.1202
  258SOL     hw 1030   2.762   0.154   3.566 -1.1178 -0.0168 -0.0757
  258SOL     hw 1031   2.700   0.121   3.432  0.5223 -2.5669 -0.2805
  258SOL     vw 1032   2.770   0.135   3.481 -0.0796 -0.1501  0.0416
  259SOL     ow 1033   5.745   6.641   5.138  0.3539 -0.1215 -0.0711
  259SOL     hw 1034   5.808   6.690   5.191  1.5928 -2.4176  0.7420
  259SOL     hw 1035   5.740   6.556   5.180 -1.8676 -0.6592 -1.2803
  259SOL     vw 1036   5.753   6.636   5.150  0.2241 -0.4954 -0.1235
  260SOL     ow 1037   5.338   6.837   0.400 -0.3883  0.1811  1.1179
  260SOL     hw 1038   5.273   6.904   0.378 -0.8170 -0.1222  1.4443
  260SOL     hw 1039   5.299   6.789   0.473 -1.5267 -2.4292 -1.0349
  260SOL     vw 1040   5.324   6.840   0.407 -0.5951 -0.2033  0.8770
  261SOL     ow 1041   5.034   6.011   2.242  0.1468 -0.7285  0.3497
  261SOL     hw 1042   5.110   5.955   2.258 -1.1034 -2.5678  0.1638
  261SOL     hw 1043   5.046   6.041   2.152  2.0690  1.4162  1.2073
  261SOL     vw 1044   5.046   6.007   2.232  0.2353 -0.6881  0.4381
  262SOL     ow 1045   5.402   5.765   2.753  0.1950  0.2645  0.8504
  262SOL     hw 1046   5.437   5.853   2.768  0.3499  0.2540  0.5541
  262SOL     hw 1047   5.342   5.750   2.827  1.9759 -0.3229  2.2582
  262SOL     vw 1048   5.399   5.774   2.765  0.4501  0.1855  0.9972
  263SOL     ow 1049   0.145   3.815   5.925 -0.0119  0.2233 -0.3015
  263SOL     hw 1050   0.116   3.737   5.973  3.8429 -1.0296  0.2653
  263SOL     hw 1051   0.091   3.816   5.846 -0.0911 -3.1391 -0.4281
  263SOL     vw 1052   0.134   3.805   5.921  0.4863 -0.3854 -0.2434
  264SOL     ow 1053   2.377   4.449   6.027  0.1921 -0.1447  0.2684
  264SOL     hw 1054   2.460   4.446   6.074  0.7506  1.8746 -0.4960
  264SOL     hw 1055   2.336   4.530   6.056  0.3722  0.9685 -2.3008
  264SOL     vw 1056   2.383   4.459   6.037  0.2894  0.2685 -0.1714
  265SOL     ow 1057   4.615   4.073   3.641 -0.4040 -0.2300 -0.0941
  265SOL     hw 1058   4.696   4.059   3.690  2.7355  1.8488 -4.1182
  265SOL     hw 1059   4.564   4.133   3.694  3.0984  2.4926  0.5412
  265SOL     vw 1060   4.619   4.079   3.654  0.4725  0.4034 -0.5411
  266SOL     ow 1061   2.551   5.036   4.989  0.2879 -0.1069  0.3277
  266SOL     hw 1062   2.538   4.986   4.909  2.0092 -1.2299  0.6990
  266SOL     hw 1063   2.513   4.982   5.058 -0.0804  0.2690  0.4196
  266SOL     vw 1064   2.545   5.022   4.988  0.4665 -0.2053  0.3886
  267SOL     ow 1065   4.094   0.107   2.417  0.5291 -0.5660 -0.1759
  267SOL     hw 1066   3.999   0.103   2.404  0.6906 -2.0596 -1.2242
  267SOL     hw 1067   4.123   0.017   2.404  1.9172 -0.4511  1.7679
  267SOL     vw 1068   4.085   0.094   2.413  0.7336 -0.7479 -0.0578
  268SOL     ow 1069   2.550   5.164   3.195  0.0245  0.5312 -0.0492
  268SOL     hw 1070   2.499   5.243   3.176  0.1827  0.7274  0.3464
  268SOL     hw 1071   2.509   5.127   3.273 -0.9481 -0.5620 -1.0360
  268SOL     vw 1072   2.538   5.170   3.202 -0.0831  0.4129 -0.1272
  269SOL     ow 1073   6.844   6.375   2.608  0.3689 -0.3608  0.1984
  269SOL     hw 1074   6.814   6.328   2.530  0.7167  0.4899 -0.4626
  269SOL     hw 1075   6.937   6.351   2.615  0.0369 -1.4492  1.1094
  269SOL     vw 1076   6.853   6.365   2.598  0.3707 -0.3922  0.2314
  270SOL     ow 1077   4.779   6.606   6.407  0.7004 -0.1045 -0.2753
  270SOL     hw 1078   4.848   6.544   6.384  0.6241  0.2316 -1.4933
  270SOL     hw 1079   4.706   6.583   6.350 -0.2419 -0.5181  1.0669
  270SOL     vw 1080   4.779   6.595   6.396  0.5660 -0.1147 -0.2589
  271SOL     ow 1081   3.484   4.833   1.385  0.0916  0.3063 -0.2040
  271SOL     hw 1082   3.510   4.742   1.398 -1.4299 -0.1944 -0.4490
  271SOL     hw 1083   3.468   4.840   1.291  1.0754  1.0962 -0.3309
  271SOL     vw 1084   3.486   4.822   1.374  0.0206  0.3445 -0.2531
  272SOL     ow 1085   5.088   2.456   2.436 -0.0429 -0.4330  0.2656
  272SOL     hw 1086   5.093   2.416   2.523 -2.1078  1.2517  1.2375
  272SOL     hw 1087   5.107   2.548   2.451 -0.7429 -0.0543 -1.0351
  272SOL     vw 1088   5.091   2.463   2.449 -0.4075 -0.1609  0.2222
  273SOL     ow 1089   0.275   0.479   5.405 -0.2052  0.2218  0.1392
  273SOL     hw 1090   0.344   0.545   5.416  0.0914  0.0465 -0.5977
  273SOL     hw 1091   0.301   0.430   5.327 -1.9642  1.1556 -1.1162
  273SOL     vw 1092   0.287   0.481   5.396 -0.3981  0.3219 -0.1237
  274SOL     ow 1093   1.763   5.292   0.135 -0.0115 -0.4559 -0.3106
  274SOL     hw 1094   1.683   5.261   0.094 -0.5399 -1.4493  1.3759
  274SOL     hw 1095   1.737   5.371   0.183  0.3980  0.1678 -1.0913
  274SOL     vw 1096   1.749   5.298   0.136 -0.0272 -0.5045 -0.1911
  275SOL     ow 1097   0.905   2.584   2.235  0.3416 -0.1287  0.2668
  275SOL     hw 1098   0.966   2.510   2.236  0.3554 -0.1096  0.9722
  275SOL     hw 1099   0.885   2.600   2.327  0.2373  0.6645  0.1136
  275SOL     vw 1100   0.911   2.576   2.247  0.3296 -0.0215  0.3396
  276SOL     ow 1101   1.766   3.443   6.609  0.0512 -0.5519 -0.0941
  276SOL     hw 1102   1.680   3.477   6.633 -0.3646  1.3450 -3.6304
  276SOL     hw 1103   1.748   3.357   6.571  0.0436 -1.0816  1.0549
  276SOL     vw 1104   1.752   3.436   6.607 -0.0046 -0.3715 -0.4091
  277SOL     ow 1105   6.359   4.261   4.647  0.3102 -0.3637 -0.4242
  277SOL     hw 1106   6.330   4.210   4.572  0.6874 -2.7166  0.9230
  277SOL     hw 1107   6.283   4.266   4.705  0.4798 -0.0021 -0.2208
  277SOL     vw 1108   6.345   4.255   4.645  0.3824 -0.6263 -0.2196
  278SOL     ow 1109   4.436   5.886   0.382 -0.3283  0.7409 -0.1934
  278SOL     hw 1110   4.446   5.944   0.457 -3.1993 -1.1985  1.8944
  278SOL     hw 1111   4.353   5.910   0.343  0.1297  0.3079 -1.4906
  278SOL     vw 1112   4.427   5.896   0.387 -0.6466  0.4280 -0.0890
  279SOL     ow 1113   3.337   3.400   0.674 -0.2689  0.5283 -0.5892
  279SOL     hw 1114   3.260   3.441   0.636 -1.8690 -0.8814  0.9409
  279SOL     hw 1115   3.303   3.343   0.743  2.1552 -0.1033  0.2107
  279SOL     vw 1116   3.323   3.398   0.678 -0.1602  0.2589 -0.2818
  280SOL     ow 1117   3.967   2.637   6.790 -0.1265  0.2832 -0.4314
  280SOL     hw 1118   3.884   2.594   6.812  0.1430  0.2198  0.5110
  280SOL     hw 1119   3.942   2.718   6.746 -0.7141  0.7740  0.7876
  280SOL     vw 1120   3.953   2.642   6.787 -0.1684  0.3396 -0.1464
  281SOL     ow 1121   4.106   1.599   0.053 -0.1045  0.2215 -0.2878
  281SOL     hw 1122   4.177   1.661   0.072  0.6039  0.0275 -2.0815
  281SOL     hw 1123   4.141   1.514   0.082  0.2182  0.1967 -0.7379
  281SOL     vw 1124   4.120   1.596   0.060  0.0317  0.1926 -0.5839
  282SOL     ow 1125   1.162   1.826   4.628  0.2350  0.4569 -0.5176
  282SOL     hw 1126   1.133   1.739   4.601  0.2526  0.2563  0.1148
  282SOL     hw 1127   1.150   1.880   4.549 -1.1272  0.2074 -0.5130
  282SOL     vw 1128   1.157   1.822   4.614  0.0576  0.3974 -0.4337
  283SOL     ow 1129   4.261   4.227   0.392  0.1357  0.0085  0.5804
  283SOL     hw 1130   4.278   4.313   0.431  1.8579  0.2896 -0.6773
  283SOL     hw 1131   4.169   4.231   0.365 -0.3573  0.7264  2.2257
  283SOL     vw 1132   4.251   4.239   0.394  0.2980  0.1402  0.6316
  284SOL     ow 1133   1.228   0.184   6.883  0.1585 -0.2790  0.7991
  284SOL     hw 1134   1.155   0.186   6.945  0.6397  0.0233  1.3552
  284SOL     hw 1135   1.206   0.252   6.819 -0.0558 -0.2047  0.9494
  284SOL     vw 1136   1.215   0.193   6.883  0.1938 -0.2293  0.8924
  285SOL     ow 1137   3.007   6.036   4.122  0.3010 -0.0501 -0.0457
  285SOL     hw 1138   2.948   6.086   4.179  0.0303  1.3101 -1.4216
  285SOL     hw 1139   2.976   6.057   4.034  1.1055 -1.5733 -0.7089
  285SOL     vw 1140   2.995   6.046   4.118  0.3713 -0.0718 -0.3147
  286SOL     ow 1141   0.292   4.914   2.242 -0.6413 -0.0582  0.1305
  286SOL     hw 1142   0.255   4.826   2.245  0.3806 -0.4817  1.5184
  286SOL     hw 1143   0.384   4.900   2.219  0.2121  0.3267  2.9077
  286SOL     vw 1144   0.300   4.900   2.240 -0.3939 -0.0632  0.6801
  287SOL     ow 1145   1.928   4.349   4.801  0.0219 -0.0858  0.4816
  287SOL     hw 1146   2.017   4.365   4.831  0.6810  0.4225 -1.5461
  287SOL     hw 1147   1.938   4.287   4.729 -0.9621  1.6146 -1.2366
  287SOL     vw 1148   1.941   4.343   4.795 -0.0209  0.2058 -0.0126
  288SOL     ow 1149   4.721   4.344   4.248  0.0628 -0.1684  0.1875
  288SOL     hw 1150   4.740   4.437   4.251  1.1550 -0.3753  0.0210
  288SOL     hw 1151   4.778   4.310   4.179  0.7374 -1.1876  1.2152
  288SOL     vw 1152   4.731   4.352   4.240  0.2961 -0.3302  0.3011
  289SOL     ow 1153   3.193   6.857   4.417 -0.0505  0.5569 -0.2112
  289SOL     hw 1154   3.215   6.949   4.430  0.6142  0.5768 -1.4173
  289SOL     hw 1155   3.098   6.853   4.428 -0.3733  1.7648 -2.1548
  289SOL     vw 1156   3.183   6.868   4.420 -0.0055  0.7191 -0.6268
  290SOL     ow 1157   0.062   3.835   2.016 -0.0816 -0.2180  0.5572
  290SOL     hw 1158   0.025   3.780   1.946 -1.2802  0.8833  0.2808
  290SOL     hw 1159   0.031   3.796   2.097 -0.7506 -0.0958  0.3684
  290SOL     vw 1160   0.053   3.823   2.017 -0.3281 -0.0566  0.4959
  291SOL     ow 1161   0.061   4.098   6.460  0.3559 -0.3648  0.0156
  291SOL     hw 1162   0.128   4.167   6.454 -1.2132  1.2262 -0.2929
  291SOL     hw 1163   0.052   4.082   6.554  0.5730  0.0561  0.1113
  291SOL     vw 1164   0.068   4.105   6.472  0.1775 -0.0992 -0.0126
  292SOL     ow 1165   0.481   3.464   4.016 -0.5657  0.0724 -0.0325
  292SOL     hw 1166   0.545   3.451   4.086 -0.3668  0.1008 -0.2081
  292SOL     hw 1167   0.501   3.551   3.980  0.1940 -0.4865 -1.0035
  292SOL     vw 1168   0.492   3.474   4.020 -0.4392  0.0026 -0.1836
  293SOL     ow 1169   4.735   6.055   1.555  0.0971  0.2618 -0.7833
  293SOL     hw 1170   4.718   5.961   1.564 -3.6223  0.9537  1.9122
  293SOL     hw 1171   4.782   6.079   1.635 -0.8795  0.9617 -0.3944
  293SOL     vw 1172   4.739   6.046   1.567 -0.5226  0.4454 -0.3764
  294SOL     ow 1173   5.108   6.442   4.288  0.3703  0.1516 -0.0061
  294SOL     hw 1174   5.159   6.450   4.369 -1.4890 -0.5654  1.3084
  294SOL     hw 1175   5.044   6.513   4.293 -1.0549 -1.1085  0.1856
  294SOL     vw 1176   5.107   6.452   4.300 -0.0632 -0.1094  0.1926
  295SOL     ow 1177   5.184   3.650   5.278 -0.4265 -0.8220  0.0274
  295SOL     hw 1178   5.210   3.723   5.335 -2.0502  2.3402 -2.8915
  295SOL     hw 1179   5.255   3.587   5.286  0.6113  0.5378  3.5142
  295SOL     vw 1180   5.196   3.651   5.287 -0.5038 -0.2254  0.1023
  296SOL     ow 1181   2.561   2.468   2.834 -0.8631  0.0909 -0.4430
  296SOL     hw 1182   2.586   2.535   2.770 -3.0351 -0.2143 -1.7419
  296SOL     hw 1183   2.555   2.387   2.782  0.4142 -0.8536  0.8223
  296SOL     vw 1184   2.563   2.466   2.818 -0.9812 -0.0740 -0.4474
  297SOL     ow 1185   4.157   2.415   4.227  0.0483  0.3741 -1.0400
  297SOL     hw 1186   4.142   2.503   4.262  1.8537  0.3440 -0.1211
  297SOL     hw 1187   4.077   2.367   4.249 -0.1673  1.2440  0.1712
  297SOL     vw 1188   4.144   2.420   4.234  0.2582  0.4847 -0.7591
  298SOL     ow 1189   6.279   2.085   5.858 -0.0277 -0.2225 -0.1355
  298SOL     hw 1190   6.258   2.169   5.897 -3.3281 -0.5263 -0.9326
  298SOL     hw 1191   6.278   2.023   5.931  0.0343  0.0752  0.1179
  298SOL     vw 1192   6.276   2.088   5.873 -0.4549 -0.2232 -0.2074
  299SOL     ow 1193   2.569   6.832   6.308  0.6849  0.1614 -0.0455
  299SOL     hw 1194   2.645   6.835   6.250  0.9306  0.3508  0.2753
  299SOL     hw 1195   2.494   6.850   6.252  1.0642  1.8867 -0.0590
  299SOL     vw 1196   2.570   6.835   6.293  0.7675  0.4141 -0.0048
  300SOL     ow 1197   3.324   3.076   0.050  0.9655 -0.1503 -0.5947
  300SOL     hw 1198   3.282   3.071   0.136 -1.1022  0.1595 -1.5131
  300SOL     hw 1199   3.256   3.046  -0.011  2.2459  0.0135 -2.1594
  300SOL     vw 1200   3.309   3.071   0.053  0.8616 -0.0877 -0.9223
  301SOL     ow 1201   5.499   6.026   3.314 -0.2524 -0.0665 -0.8670
  301SOL     hw 1202   5.416   6.005   3.355  0.0935 -0.4712 -0.3632
  301SOL     hw 1203   5.481   6.025   3.220 -0.9057  0.2639 -0.7487
  301SOL     vw 1204   5.486   6.023   3.307 -0.2928 -0.0763 -0.7849
  302SOL     ow 1205   0.284   3.410   3.792  0.1589  0.2438 -0.3974
  302SOL     hw 1206   0.194   3.388   3.769  0.1652  0.4549 -0.6274
  302SOL     hw 1207   0.308   3.479   3.731 -0.2986  1.8130  1.1149
  302SOL     vw 1208   0.275   3.416   3.781  0.0993  0.4787 -0.2283
  303SOL     ow 1209   4.878   1.149   6.098  0.1466  0.2340 -0.6409
  303SOL     hw 1210   4.848   1.066   6.062 -1.0097  1.6957 -3.2709
  303SOL     hw 1211   4.881   1.135   6.193 -1.3230 -2.3613 -0.9131
  303SOL     vw 1212   4.875   1.136   6.106 -0.1998  0.0845 -1.0235
  304SOL     ow 1213   5.133   1.666   4.328  0.0517  0.7878 -0.1750
  304SOL     hw 1214   5.124   1.632   4.239  1.8664  1.5564 -0.6905
  304SOL     hw 1215   5.140   1.588   4.383 -0.0271  0.3186 -0.8211
  304SOL     vw 1216   5.132   1.651   4.324  0.2811  0.8273 -0.3283
  305SOL     ow 1217   1.870   0.277   1.433  0.3232 -0.3750  0.5923
  305SOL     hw 1218   1.918   0.280   1.516 -1.0933  0.9544  1.4123
  305SOL     hw 1219   1.780   0.259   1.457  0.1013 -1.2700 -0.7943
  305SOL     vw 1220   1.865   0.275   1.447  0.1070 -0.3177  0.5175
  306SOL     ow 1221   1.012   1.905   0.240 -0.7239 -0.3166 -0.1742
  306SOL     hw 1222   1.074   1.876   0.307 -0.2211 -0.1987 -0.5778
  306SOL     hw 1223   0.930   1.918   0.287 -0.4965 -0.6728  0.3342
  306SOL     vw 1224   1.009   1.903   0.255 -0.6276 -0.3480 -0.1604
  307SOL     ow 1225   5.556   2.516   5.682 -0.4840 -0.7992  0.0600
  307SOL     hw 1226   5.510   2.445   5.637 -0.0618 -0.1621 -1.4148
  307SOL     hw 1227   5.545   2.592   5.625  1.1745 -0.2868  0.3828
  307SOL     vw 1228   5.549   2.516   5.669 -0.2096 -0.6474 -0.0918
  308SOL     ow 1229   5.876   5.451   0.757  0.0546  0.1918 -0.3185
  308SOL     hw 1230   5.864   5.463   0.851  1.8302 -2.1684  0.3212
  308SOL     hw 1231   5.970   5.434   0.747  0.3122  2.4800 -2.8392
  308SOL     vw 1232   5.887   5.450   0.768  0.3228  0.1822 -0.5667
  309SOL     ow 1233   6.591   1.298   3.641  0.7848 -0.0920  0.1826
  309SOL     hw 1234   6.587   1.307   3.736  2.1017 -0.0183  0.2416
  309SOL     hw 1235   6.509   1.336   3.610  0.5833  0.3768  1.2518
  309SOL     vw 1236   6.580   1.304   3.649  0.9322 -0.0204  0.3316
  310SOL     ow 1237   3.333   3.057   5.070 -0.0719  0.4975 -0.0657
  310SOL     hw 1238   3.325   3.114   5.146  0.9053  1.0570 -0.3684
  310SOL     hw 1239   3.419   3.078   5.033 -0.6495  0.4548 -1.4993
  310SOL     vw 1240   3.343   3.067   5.075 -0.0191  0.5658 -0.2949
  311SOL     ow 1241   2.389   4.031   5.589  0.2460  0.4571 -0.6569
  311SOL     hw 1242   2.307   3.993   5.621 -0.4135  1.0789 -1.5497
  311SOL     hw 1243   2.457   3.975   5.626 -0.6910 -2.8725 -3.3778
  311SOL     vw 1244   2.387   4.019   5.598  0.0353  0.1001 -1.1339
  312SOL     ow 1245   3.824   3.271   2.340 -0.0828 -0.1803 -0.0239
  312SOL     hw 1246   3.791   3.360   2.328 -1.9409 -0.7277  0.7089
  312SOL     hw 1247   3.919   3.282   2.348 -0.3002  1.7737  0.3847
  312SOL     vw 1248   3.832   3.284   2.340 -0.3568  0.0054  0.1266
  313SOL     ow 1249   6.229   3.686   3.463 -0.1055  0.1886 -0.1804
  313SOL     hw 1250   6.150   3.725   3.500 -0.6871 -0.0205 -1.1662
  313SOL     hw 1251   6.267   3.755   3.409  0.1176  0.1304 -0.0995
  313SOL     vw 1252   6.223   3.700   3.460 -0.1528  0.1532 -0.2998
  314SOL     ow 1253   3.447   5.107   1.555 -0.1490 -0.5091 -0.3162
  314SOL     hw 1254   3.533   5.148   1.542 -0.8006  0.6155 -1.3147
  314SOL     hw 1255   3.388   5.180   1.573 -0.6506 -1.3990  1.9663
  314SOL     vw 1256   3.450   5.122   1.556 -0.3012 -0.4780 -0.1468
  315SOL     ow 1257   6.344   1.801   6.847 -0.3632 -0.1470  0.6390
  315SOL     hw 1258   6.317   1.861   6.778  0.7013  0.4748  0.7381
  315SOL     hw 1259   6.264   1.780   6.894 -0.7269  1.3421  0.7007
  315SOL     vw 1260   6.330   1.806   6.844 -0.2708  0.1315  0.6602
  316SOL     ow 1261   3.142   2.168   3.757  0.5570  0.3644  0.1628
  316SOL     hw 1262   3.054   2.157   3.722  0.2808  2.2305  0.1412
  316SOL     hw 1263   3.151   2.263   3.769  2.3448  0.1624  0.7296
  316SOL     vw 1264   3.132   2.179   3.754  0.7564  0.5840  0.2347
  317SOL     ow 1265   5.372   6.238   0.670 -0.1746 -0.5726 -0.2227
  317SOL     hw 1266   5.357   6.322   0.627  0.5969 -0.5843 -0.5324
  317SOL     hw 1267   5.287   6.196   0.670 -0.1585 -0.6788 -1.9751
  317SOL     vw 1268   5.359   6.244   0.664 -0.0706 -0.5882 -0.4947
  318SOL     ow 1269   2.333   4.774   1.584 -0.1026  0.9714  0.5042
  318SOL     hw 1270   2.280   4.706   1.543 -0.8157  1.2313  0.9970
  318SOL     hw 1271   2.316   4.852   1.532  0.7329  0.7855 -0.0750
  318SOL     vw 1272   2.324   4.775   1.572 -0.0863  0.9811  0.4928
  319SOL     ow 1273   5.954   2.899   1.465 -0.6107 -0.0436  0.5409
  319SOL     hw 1274   5.995   2.931   1.545  0.1922  0.2879  0.0144
  319SOL     hw 1275   6.016   2.923   1.395 -2.2009  1.5121 -0.4414
  319SOL     vw 1276   5.967   2.907   1.466 -0.7145  0.2054  0.3418
  320SOL     ow 1277   6.711   5.426   5.632  0.1526  0.1763  0.0028
  320SOL     hw 1278   6.688   5.495   5.694  2.8997  1.9194 -0.7509
  320SOL     hw 1279   6.767   5.469   5.568  1.4069 -2.6284 -0.9388
  320SOL     vw 1280   6.715   5.441   5.631  0.6804  0.0360 -0.2210
  321SOL     ow 1281   2.351   0.771   3.820 -0.1627 -0.7125  0.8249
  321SOL     hw 1282   2.374   0.691   3.866 -0.0745 -0.2627  1.5803
  321SOL     hw 1283   2.305   0.825   3.885  0.8676  0.3516  0.7141
  321SOL     vw 1284   2.348   0.768   3.834 -0.0153 -0.5127  0.9099
  322SOL     ow 1285   1.563   0.828   1.202 -0.5379  0.8615  0.4201
  322SOL     hw 1286   1.546   0.751   1.147  0.4509  1.4638 -0.7732
  322SOL     hw 1287   1.575   0.792   1.290 -0.2862 -0.3421 -0.0810
  322SOL     vw 1288   1.563   0.813   1.206 -0.3742  0.7822  0.1966
  323SOL     ow 1289   5.424   3.928   0.295 -0.1060  0.1448  0.3905
  323SOL     hw 1290   5.385   3.845   0.268  0.9917  0.0966 -1.2009
  323SOL     hw 1291   5.354   3.974   0.341 -1.8107 -0.2573 -1.6323
  323SOL     vw 1292   5.410   3.923   0.297 -0.1860  0.0854 -0.0863
  324SOL     ow 1293   1.384   3.675   5.660  0.5116  0.5616 -0.5331
  324SOL     hw 1294   1.450   3.655   5.727  0.1058  2.5307  0.5319
  324SOL     hw 1295   1.435   3.691   5.580  1.1360 -0.1030 -0.2846
  324SOL     vw 1296   1.400   3.675   5.658  0.5404  0.7337 -0.3595
  325SOL     ow 1297   1.865   0.324   2.758 -0.0403 -0.0645 -0.9434
  325SOL     hw 1298   1.829   0.250   2.806 -0.4497  0.6268 -0.1717
  325SOL     hw 1299   1.841   0.307   2.667 -0.4665 -0.6734 -0.7243
  325SOL     vw 1300   1.857   0.312   2.752 -0.1506 -0.0536 -0.8126
  326SOL     ow 1301   0.960   6.693   1.010  0.0153 -0.0520  0.0285
  326SOL     hw 1302   0.918   6.660   0.931  2.2830 -1.4145 -0.7062
  326SOL     hw 1303   0.935   6.630   1.079 -0.5060  0.1106 -0.0111
  326SOL     vw 1304   0.951   6.680   1.009  0.2457 -0.2103 -0.0737
  327SOL     ow 1305   1.677   2.735   6.425 -0.6901  0.1488  0.1789
  327SOL     hw 1306   1.629   2.813   6.449 -0.0972  0.2042  1.2247
  327SOL     hw 1307   1.760   2.741   6.473 -0.6985 -1.1870  0.4141
  327SOL     vw 1308   1.682   2.746   6.434 -0.6129 -0.0201  0.3479
  328SOL     ow 1309   2.517   4.842   0.968 -0.0183  0.5411 -0.4767
  328SOL     hw 1310   2.452   4.802   0.911 -0.2826  0.4709 -0.1309
  328SOL     hw 1311   2.491   4.934   0.974 -2.4720 -0.1866  2.7950
  328SOL     vw 1312   2.505   4.849   0.962 -0.3769  0.4358  0.0006
  329SOL     ow 1313   0.546   6.655   3.414  0.1708 -0.1633  0.1296
  329SOL     hw 1314   0.495   6.643   3.335  1.6511  1.3874 -1.1334
  329SOL     hw 1315   0.573   6.747   3.412  1.8595 -0.5782  1.4145
  329SOL     vw 1316   0.543   6.666   3.403  0.5889 -0.0134  0.1323
  330SOL     ow 1317   3.442   5.453   0.299  0.3329 -0.1266  0.6271
  330SOL     hw 1318   3.421   5.540   0.264  1.1740 -0.8374 -1.8438
  330SOL     hw 1319   3.357   5.414   0.318 -0.0904  0.8722  0.8718
  330SOL     vw 1320   3.428   5.460   0.297  0.3880 -0.0885  0.3334
  331SOL     ow 1321   4.045   5.142   3.782 -0.5339  0.1063  0.3530
  331SOL     hw 1322   4.099   5.094   3.719  0.2499  0.3592  0.8167
  331SOL     hw 1323   4.087   5.126   3.866 -0.1972  1.6464  0.5140
  331SOL     vw 1324   4.058   5.134   3.784 -0.3862  0.3431  0.4354
  332SOL     ow 1325   4.879   1.382   2.575 -0.2083  0.1701  0.0357
  332SOL     hw 1326   4.928   1.363   2.495 -1.0696  0.2584 -0.5183
  332SOL     hw 1327   4.813   1.446   2.549 -0.5659  0.1274  0.7947
  332SOL     vw 1328   4.877   1.388   2.561 -0.3691  0.1761  0.0627
  333SOL     ow 1329   3.587   1.210   6.278 -0.4598 -1.3086  0.6399
  333SOL     hw 1330   3.539   1.242   6.202 -0.7385 -0.6651  1.0768
  333SOL     hw 1331   3.518   1.189   6.342 -0.1611  0.4344  1.5923
  333SOL     vw 1332   3.572   1.211   6.277 -0.4572 -0.9938  0.8230
  334SOL     ow 1333   6.481   6.013   6.300  0.1672 -0.4271  0.0119
  334SOL     hw 1334   6.510   6.023   6.209  0.3092  0.8365  0.1848
  334SOL     hw 1335   6.388   5.992   6.293  0.1214 -0.0931 -0.4205
  334SOL     vw 1336   6.472   6.011   6.287  0.1800 -0.2165 -0.0226
  335SOL     ow 1337   4.369   2.405   2.295 -0.1253 -0.1151  0.3705
  335SOL     hw 1338   4.416   2.488   2.300 -1.2845  0.6558 -0.9064
  335SOL     hw 1339   4.295   2.422   2.236 -0.2424 -2.1258 -0.1412
  335SOL     vw 1340   4.365   2.418   2.288 -0.2937 -0.2787  0.1346
  336SOL     ow 1341   5.092   6.706   1.530 -0.0633 -0.3617  0.5847
  336SOL     hw 1342   5.042   6.631   1.498  0.0182 -0.4427  0.6465
  336SOL     hw 1343   5.090   6.768   1.458  0.2975 -0.6273  0.3402
  336SOL     vw 1344   5.085   6.704   1.516 -0.0050 -0.4075  0.5606
  337SOL     ow 1345   4.464   0.291   4.396 -0.1894  0.3724  0.5281
  337SOL     hw 1346   4.540   0.269   4.342 -0.6399  0.0150  0.0265
  337SOL     hw 1347   4.453   0.385   4.384 -1.5113  0.0136 -1.6982
  337SOL     vw 1348   4.472   0.301   4.387 -0.4232  0.2779  0.1681
  338SOL     ow 1349   0.612   0.681   3.861 -0.1862  0.0049 -0.1779
  338SOL     hw 1350   0.704   0.681   3.888  0.4821 -0.0377 -2.2885
  338SOL     hw 1351   0.575   0.603   3.901  1.4978 -1.6623 -1.7143
  338SOL     vw 1352   0.620   0.671   3.870  0.1241 -0.2207 -0.6590
  339SOL     ow 1353   4.855   3.240   3.614 -0.7368  0.8110  0.0241
  339SOL     hw 1354   4.860   3.259   3.520  0.2896  1.3733  0.1739
  339SOL     hw 1355   4.777   3.287   3.643 -0.6022  1.3164 -0.4031
  339SOL     vw 1356   4.845   3.249   3.605 -0.5836  0.9519 -0.0125
  340SOL     ow 1357   5.263   1.273   3.747 -0.1534  0.8793 -0.3441
  340SOL     hw 1358   5.321   1.212   3.793 -1.0172 -0.5777 -1.1098
  340SOL     hw 1359   5.176   1.237   3.759 -0.7916  2.4094 -0.1883
  340SOL     vw 1360   5.259   1.260   3.754 -0.3519  0.8890 -0.4246
  341SOL     ow 1361   3.723   1.828   5.921 -0.0771  1.4739  0.1695
  341SOL     hw 1362   3.668   1.823   5.999 -0.7660  0.4246 -0.3738
  341SOL     hw 1363   3.744   1.737   5.899 -0.3252  1.7118 -1.1636
  341SOL     vw 1364   3.719   1.816   5.928 -0.2007  1.3669 -0.0780
  342SOL     ow 1365   3.434   6.354   5.930  0.0950  0.6010 -0.0705
  342SOL     hw 1366   3.374   6.308   5.989  0.3729 -1.9621 -1.5921
  342SOL     hw 1367   3.500   6.391   5.987  1.9016 -4.0273  1.3362
  342SOL     vw 1368   3.434   6.353   5.945  0.3701 -0.3481 -0.0858
  343SOL     ow 1369   3.829   4.037   1.549  0.0585 -0.5269 -0.4303
  343SOL     hw 1370   3.877   4.112   1.583 -2.6931  0.8131  0.8494
  343SOL     hw 1371   3.764   4.074   1.489 -0.5310 -2.0144 -0.7665
  343SOL     vw 1372   3.827   4.052   1.546 -0.3822 -0.5462 -0.3059
  344SOL     ow 1373   6.881   0.932   5.987  0.2569 -0.2245  0.0905
  344SOL     hw 1374   6.877   0.840   6.015  1.1478 -0.2998 -0.0160
  344SOL     hw 1375   6.791   0.953   5.961 -0.1731 -0.7565  1.0918
  344SOL     vw 1376   6.868   0.922   5.988  0.3178 -0.3047  0.2086
  345SOL     ow 1377   2.402   1.978   0.562 -0.1276  0.0292  0.1509
  345SOL     hw 1378   2.459   1.980   0.638  1.1147 -1.5018 -0.6887
  345SOL     hw 1379   2.316   2.001   0.596  0.5014 -0.0610  1.8924
  345SOL     vw 1380   2.398   1.981   0.576  0.1193 -0.1847  0.2699
  346SOL     ow 1381   4.709   5.687   5.477  0.2030 -0.5087 -0.1947
  346SOL     hw 1382   4.669   5.601   5.486  0.3726 -0.7935 -1.8492
  346SOL     hw 1383   4.636   5.749   5.484 -0.4941 -0.9880 -2.4985
  346SOL     vw 1384   4.694   5.684   5.479  0.1335 -0.6094 -0.7167
  347SOL     ow 1385   2.345   2.673   0.694 -1.0170 -0.1069 -0.3474
  347SOL     hw 1386   2.344   2.578   0.706 -0.8082 -0.0812 -0.1280
  347SOL     hw 1387   2.331   2.685   0.600  1.0595 -0.4332 -0.7435
  347SOL     vw 1388   2.343   2.662   0.683 -0.7155 -0.1466 -0.3707
  348SOL     ow 1389   5.005   4.974   1.774  0.3631 -0.0430 -0.4215
  348SOL     hw 1390   4.982   5.067   1.769  1.4569  0.1990 -1.5436
  348SOL     hw 1391   4.986   4.950   1.865  2.7888  2.0749  0.8034
  348SOL     vw 1392   5.000   4.983   1.786  0.8276  0.2685 -0.4079
  349SOL     ow 1393   6.233   2.680   3.705  0.1587  0.3319  0.0189
  349SOL     hw 1394   6.231   2.591   3.670  0.4840  0.4875 -0.4150
  349SOL     hw 1395   6.317   2.687   3.750  2.2326  1.7111 -3.5905
  349SOL     vw 1396   6.244   2.669   3.706  0.4754  0.5344 -0.5147
  350SOL     ow 1397   4.325   2.977   4.921  1.3096 -0.0054 -0.6696
  350SOL     hw 1398   4.412   2.971   4.880  1.8712 -0.0901  0.4829
  350SOL     hw 1399   4.274   2.909   4.878  1.1804  1.2966 -2.7550
  350SOL     vw 1400   4.330   2.967   4.910  1.3669  0.1552 -0.7927
  351SOL     ow 1401   3.477   0.686   5.645 -0.0933 -0.1002 -0.8216
  351SOL     hw 1402   3.503   0.695   5.553 -2.0184 -1.2257 -1.5365
  351SOL     hw 1403   3.507   0.767   5.686  0.5996  0.5397 -2.4864
  351SOL     vw 1404   3.484   0.698   5.638 -0.2559 -0.1643 -1.1356
  352SOL     ow 1405   4.968   6.465   4.015  0.5141  0.6144  0.1482
  352SOL     hw 1406   4.934   6.376   4.010 -1.5831  1.3464  0.6068
  352SOL     hw 1407   4.946   6.504   3.931  1.2263  0.8047  0.0380
  352SOL     vw 1408   4.961   6.458   4.003  0.3316  0.7360  0.1941
  353SOL     ow 1409   1.534   6.735   3.315  0.4743  0.3115  0.9648
  353SOL     hw 1410   1.588   6.658   3.327  0.0457 -0.7182 -2.7270
  353SOL     hw 1411   1.593   6.802   3.280 -0.0509  0.0532 -0.4706
  353SOL     vw 1412   1.549   6.734   3.312  0.3485  0.1416  0.2884
  354SOL     ow 1413   3.567   6.693   5.966 -0.7841 -0.1020  0.1874
  354SOL     hw 1414   3.608   6.618   6.008  1.1090  0.4767 -0.5230
  354SOL     hw 1415   3.475   6.667   5.954 -0.8879 -1.1005  2.6244
  354SOL     vw 1416   3.560   6.680   5.970 -0.5480 -0.1576  0.4151
  355SOL     ow 1417   5.473   1.731   5.624 -0.4493 -0.3207 -0.1860
  355SOL     hw 1418   5.544   1.790   5.599 -0.5379 -0.5331 -0.9521
  355SOL     hw 1419   5.395   1.787   5.628 -0.2827 -0.1237  0.4744
  355SOL     vw 1420   5.472   1.746   5.621 -0.4389 -0.3227 -0.2000
  356SOL     ow 1421   3.423   5.376   4.836 -0.3008  0.3366  0.3058
  356SOL     hw 1422   3.356   5.443   4.852 -0.8130  0.2262 -1.1907
  356SOL     hw 1423   3.373   5.297   4.816  0.1617  0.7692 -3.0266
  356SOL     vw 1424   3.407   5.374   4.836 -0.3073  0.3791 -0.3316
  357SOL     ow 1425   4.104   2.602   1.528  0.7551 -0.1902 -0.3036
  357SOL     hw 1426   4.164   2.670   1.557 -1.0885  0.9434  1.0697
  357SOL     hw 1427   4.081   2.555   1.608 -0.9673  0.0926 -0.5913
  357SOL     vw 1428   4.108   2.605   1.542  0.2847 -0.0032 -0.1603
  358SOL     ow 1429   4.447   0.720   3.935  0.3845 -0.9830  0.6517
  358SOL     hw 1430   4.533   0.763   3.940  0.0876 -0.1994 -0.6948
  358SOL     hw 1431   4.467   0.627   3.940  1.2338 -0.7851  1.2878
  358SOL     vw 1432   4.461   0.714   3.937  0.4575 -0.8535  0.5579
  359SOL     ow 1433   2.676   2.467   1.184 -0.2851  0.1652  0.3778
  359SOL     hw 1434   2.699   2.556   1.160  0.5747 -0.2968 -0.5691
  359SOL     hw 1435   2.630   2.432   1.107 -0.1805 -0.3640  0.5518
  359SOL     vw 1436   2.673   2.474   1.171 -0.1578  0.0343  0.2759
  360SOL     ow 1437   1.034   1.060   3.207  0.0350  0.4690  0.0896
  360SOL     hw 1438   1.066   1.077   3.295 -0.3719  1.7898  0.0061
  360SOL     hw 1439   0.946   1.024   3.219  0.8629 -1.5947  0.2687
  360SOL     vw 1440   1.027   1.058   3.220  0.0905  0.3710  0.1022
  361SOL     ow 1441   2.362   1.724   0.410  0.6358  0.2159 -0.9200
  361SOL     hw 1442   2.426   1.681   0.467  0.7640  0.7474 -0.6547
  361SOL     hw 1443   2.280   1.720   0.459  0.5869  0.0184 -1.0198
  361SOL     vw 1444   2.360   1.718   0.424  0.6462  0.2600 -0.8982
  362SOL     ow 1445   2.014   0.921   4.593  0.2500  0.2750  0.5149
  362SOL     hw 1446   2.005   1.014   4.615  0.6712 -0.1768  2.8324
  362SOL     hw 1447   1.928   0.884   4.610 -0.1482  0.3330 -1.1838
  362SOL     vw 1448   2.001   0.929   4.598  0.2530  0.2230  0.5963
  363SOL     ow 1449   6.296   0.643   4.812 -0.3508 -0.1783  0.6433
  363SOL     hw 1450   6.208   0.605   4.815 -0.9532  1.1774  0.9430
  363SOL     hw 1451   6.287   0.722   4.760  1.0096 -0.7141 -0.4988
  363SOL     vw 1452   6.283   0.648   4.806 -0.2508 -0.0701  0.5319
  364SOL     ow 1453   4.086   1.919   0.590  0.2677 -0.1746  0.5372
  364SOL     hw 1454   4.152   1.854   0.615  2.2396  1.4974 -0.0119
  364SOL     hw 1455   4.114   1.948   0.503 -1.3215  0.4708  0.2188
  364SOL     vw 1456   4.099   1.914   0.581  0.3181  0.1312  0.4227
  365SOL     ow 1457   3.025   0.047   4.223  0.2630 -0.0067 -0.1250
  365SOL     hw 1458   2.935   0.067   4.248 -0.9323 -3.3988 -1.1955
  365SOL     hw 1459   3.058   0.129   4.184 -2.0361  1.5506  0.9881
  365SOL     vw 1460   3.018   0.061   4.221 -0.1981 -0.2489 -0.1194
  366SOL     ow 1461   3.118   5.500   3.284  0.4654  0.4058  0.1796
  366SOL     hw 1462   3.026   5.493   3.312  0.4301  1.8988  0.5395
  366SOL     hw 1463   3.113   5.524   3.191  0.4501  1.7992  0.5275
  366SOL     vw 1464   3.105   5.502   3.275  0.4588  0.7865  0.2731
  367SOL     ow 1465   0.900   2.460   3.089 -0.2066 -0.4838  0.3882
  367SOL     hw 1466   0.972   2.398   3.083 -1.1407 -1.6752  0.8790
  367SOL     hw 1467   0.859   2.459   3.003  0.4567  0.3310  0.0549
  367SOL     vw 1468   0.904   2.452   3.077 -0.2424 -0.5333  0.4090
  368SOL     ow 1469   5.313   2.620   3.063  0.7357  0.0686 -0.2780
  368SOL     hw 1470   5.268   2.552   3.014 -0.6673  0.3370  0.5738
  368SOL     hw 1471   5.246   2.686   3.080  1.9099  1.4000 -0.5666
  368SOL     vw 1472   5.299   2.620   3.059  0.7052  0.2795 -0.2037
  369SOL     ow 1473   5.766   5.685   4.669  0.1852  0.1244 -0.4947
  369SOL     hw 1474   5.675   5.687   4.640 -0.1386 -0.6909  0.4373
  369SOL     hw 1475   5.777   5.599   4.708  1.7711 -0.3350 -1.8588
  369SOL     vw 1476   5.755   5.674   4.671  0.3517 -0.0436 -0.5517
  370SOL     ow 1477   0.869   5.472   1.338  0.4970  0.5422  0.2011
  370SOL     hw 1478   0.872   5.411   1.411  1.2026  0.2485 -0.0667
  370SOL     hw 1479   0.904   5.423   1.264 -0.9440  0.5747 -0.5281
  370SOL     vw 1480   0.874   5.458   1.338  0.4000  0.5078  0.0695
  371SOL     ow 1481   1.070   1.976   6.023  0.5555  0.6089  0.3300
  371SOL     hw 1482   1.106   2.061   6.001  0.6525  0.4067 -0.3023
  371SOL     hw 1483   1.114   1.951   6.105  1.2863  0.6990 -0.0306
  371SOL     vw 1484   1.080   1.984   6.031  0.6646  0.5942  0.1991
  372SOL     ow 1485   6.735   0.213   3.895 -0.7812 -0.0321  0.3956
  372SOL     hw 1486   6.797   0.278   3.861 -2.0092  1.1026  0.2676
  372SOL     hw 1487   6.787   0.133   3.903  0.8328  1.0029  0.7726
  372SOL     vw 1488   6.750   0.211   3.892 -0.7300  0.2542  0.4286
  373SOL     ow 1489   4.821   0.031   6.489 -0.2211 -0.0079  0.3245
  373SOL     hw 1490   4.845  -0.031   6.558 -0.3692 -0.1148  0.2802
  373SOL     hw 1491   4.794   0.109   6.536 -1.8198 -0.6017  0.4462
  373SOL     vw 1492   4.821   0.033   6.504 -0.4513 -0.1003  0.3347
  374SOL     ow 1493   0.571   2.282   3.822  0.0512 -0.1622 -0.0773
  374SOL     hw 1494   0.652   2.332   3.814  0.0302 -0.2128 -0.6309
  374SOL     hw 1495   0.529   2.290   3.736 -1.2015  1.0301  0.5874
  374SOL     vw 1496   0.576   2.290   3.809 -0.1168 -0.0114 -0.0627
  375SOL     ow 1497   5.832   1.787   0.857 -0.8944  0.4524 -0.2885
  375SOL     hw 1498   5.880   1.807   0.937  0.9955 -0.1615 -1.2162
  375SOL     hw 1499   5.882   1.828   0.787 -0.9969 -1.2235 -1.4218
  375SOL     vw 1500   5.845   1.795   0.859 -0.6585  0.1502 -0.5604
  376SOL     ow 1501   6.437   5.730   1.553 -0.3177 -0.1712 -0.9823
  376SOL     hw 1502   6.397   5.815   1.535  0.6137  0.3466 -0.6838
  376SOL     hw 1503   6.479   5.742   1.639 -1.1596 -1.2917 -0.3942
  376SOL     vw 1504   6.437   5.743   1.562 -0.3057 -0.2506 -0.8654
  377SOL     ow 1505   4.673   0.331   3.165 -0.1786 -0.4058 -0.1371
  377SOL     hw 1506   4.589   0.377   3.168 -0.1068 -0.0023 -2.4435
  377SOL     hw 1507   4.728   0.385   3.108  0.9917 -1.6764 -0.2575
  377SOL     vw 1508   4.669   0.344   3.158 -0.0148 -0.5202 -0.4573
  378SOL     ow 1509   5.382   6.790   1.552 -0.1198  0.4759 -0.6999
  378SOL     hw 1510   5.469   6.758   1.529 -0.2872  0.0235 -0.7167
  378SOL     hw 1511   5.395   6.883   1.571  0.2285  0.5954 -1.4633
  378SOL     vw 1512   5.395   6.798   1.551 -0.0961  0.4320 -0.8029
  379SOL     ow 1513   6.351   6.335   5.383  0.0852 -0.1726 -0.1118
  379SOL     hw 1514   6.275   6.385   5.355 -0.3662 -2.7255 -4.2516
  379SOL     hw 1515   6.325   6.244   5.372  2.5564 -1.2870  2.1097
  379SOL     vw 1516   6.337   6.330   5.378  0.3519 -0.6564 -0.3650
  380SOL     ow 1517   5.110   2.728   5.244 -0.2660 -0.0322  0.4926
  380SOL     hw 1518   5.168   2.746   5.317 -1.3624  1.0986  1.1106
  380SOL     hw 1519   5.124   2.635   5.225  4.7180  0.8756 -2.0445
  380SOL     vw 1520   5.119   2.718   5.251  0.2468  0.2367  0.2394
  381SOL     ow 1521   5.451   1.464   5.740 -0.1772  0.0551  0.2440
  381SOL     hw 1522   5.449   1.485   5.833  1.6064  0.6947  0.1784
  381SOL     hw 1523   5.443   1.549   5.697 -0.2511 -0.1677 -0.1855
  381SOL     vw 1524   5.449   1.478   5.747  0.0486  0.1100  0.1788
  382SOL     ow 1525   2.028   2.646   5.649  0.5823 -0.1341 -0.5323
  382SOL     hw 1526   1.946   2.622   5.606  1.2981 -0.4493 -1.7636
  382SOL     hw 1527   2.091   2.582   5.619  1.6929  1.1264 -0.9992
  382SOL     vw 1528   2.025   2.635   5.640  0.8233 -0.0094 -0.7565
  383SOL     ow 1529   3.552   4.328   4.106  0.1914  0.3682  0.6216
  383SOL     hw 1530   3.478   4.268   4.100  0.7199 -0.1415 -2.5946
  383SOL     hw 1531   3.515   4.414   4.084 -0.1620  0.9260  3.1507
  383SOL     vw 1532   3.537   4.331   4.102  0.2146  0.3748  0.5305
  384SOL     ow 1533   4.699   4.120   2.696  0.0037  0.2199 -0.0574
  384SOL     hw 1534   4.751   4.096   2.772 -0.5714 -0.5663  0.1037
  384SOL     hw 1535   4.751   4.186   2.651  0.3946  0.6211  0.9588
  384SOL     vw 1536   4.713   4.125   2.700 -0.0205  0.1690  0.0978
  385SOL     ow 1537   3.850   4.926   3.902  0.3996  0.6926 -0.1923
  385SOL     hw 1538   3.769   4.884   3.932  0.3165  0.9675 -0.0261
  385SOL     hw 1539   3.920   4.874   3.941  0.3281 -0.1363 -1.1206
  385SOL     vw 1540   3.849   4.913   3.911  0.3793  0.6196 -0.2928
  386SOL     ow 1541   3.942   6.097   2.942  0.7810 -0.3208  0.3483
  386SOL     hw 1542   3.944   6.093   3.038 -1.7185  0.5137  0.4969
  386SOL     hw 1543   3.989   6.177   2.920 -0.0389  0.3481  0.9904
  386SOL     vw 1544   3.949   6.107   2.952  0.3430 -0.1225  0.4529
  387SOL     ow 1545   3.702   4.370   4.409 -0.0357 -1.3617  0.1380
  387SOL     hw 1546   3.683   4.462   4.425  2.0423 -1.0744  1.2905
  387SOL     hw 1547   3.663   4.324   4.483  0.6313 -1.1533  0.6357
  387SOL     vw 1548   3.695   4.376   4.421  0.3265 -1.2963  0.3555
  388SOL     ow 1549   3.817   3.569   6.162  0.4618  0.0318 -0.2457
  388SOL     hw 1550   3.841   3.482   6.131  0.0764 -0.2531  0.2424
  388SOL     hw 1551   3.723   3.564   6.181  0.5450  0.3867  0.3051
  388SOL     vw 1552   3.808   3.557   6.161  0.4220  0.0410 -0.1087
  389SOL     ow 1553   2.723   3.090   6.290  0.2599 -0.2984  0.8122
  389SOL     hw 1554   2.685   3.094   6.202 -0.4448 -1.7952  1.0136
  389SOL     hw 1555   2.648   3.095   6.349  0.8154  2.0491  1.4269
  389SOL     vw 1556   2.708   3.091   6.286  0.2402 -0.1862  0.9198
  390SOL     ow 1557   5.351   3.603   3.384  0.2327 -0.0568  0.0738
  390SOL     hw 1558   5.295   3.679   3.366  1.4449  0.3530 -2.4382
  390SOL     hw 1559   5.435   3.641   3.409  0.4370 -0.5903  0.2072
  390SOL     vw 1560   5.355   3.618   3.385  0.4196 -0.0733 -0.2400
  391SOL     ow 1561   6.162   4.738   0.024  0.5491 -0.1599  0.5264
  391SOL     hw 1562   6.233   4.745  -0.040  2.5943 -0.9863  2.5468
  391SOL     hw 1563   6.082   4.743  -0.028  2.0183  2.0259 -1.7726
  391SOL     vw 1564   6.161   4.739   0.009  1.0130  0.0196  0.4897
  392SOL     ow 1565   4.756   1.756   1.622  0.0960  0.2866  0.1910
  392SOL     hw 1566   4.825   1.818   1.648 -0.0589  1.2045 -1.4474
  392SOL     hw 1567   4.685   1.773   1.683  1.3926 -0.9438  2.1704
  392SOL     vw 1568   4.756   1.767   1.633  0.2463  0.2453  0.2359
  393SOL     ow 1569   3.370   2.563   6.153  0.5336 -0.0795 -0.1761
  393SOL     hw 1570   3.355   2.601   6.067 -1.6184  0.2020  0.2556
  393SOL     hw 1571   3.337   2.473   6.145 -0.2103  0.1223  0.4764
  393SOL     vw 1572   3.363   2.556   6.141  0.1515 -0.0157 -0.0331
  394SOL     ow 1573   6.126   6.826   5.708  0.4288 -0.1661  0.1339
  394SOL     hw 1574   6.098   6.869   5.627 -1.0823 -1.2579  0.0420
  394SOL     hw 1575   6.215   6.859   5.723 -0.0046  1.5954 -0.8721
  394SOL     vw 1576   6.134   6.836   5.700  0.1724 -0.0777 -0.0110
  395SOL     ow 1577   1.365   3.476   6.675  0.0436 -0.2993  0.4612
  395SOL     hw 1578   1.450   3.488   6.717 -0.6595  0.6904  1.7045
  395SOL     hw 1579   1.333   3.392   6.708  0.0311 -0.1015  0.9704
  395SOL     vw 1580   1.372   3.467   6.685 -0.0508 -0.1426  0.6924
  396SOL     ow 1581   0.016   3.066   6.809  0.3118  0.4867  0.1352
  396SOL     hw 1582  -0.026   3.022   6.735  0.3922 -2.7584  1.8194
  396SOL     hw 1583  -0.049   3.060   6.880  0.9652  1.7842  0.8862
  396SOL     vw 1584   0.002   3.059   6.809  0.4086  0.2297  0.4568
  397SOL     ow 1585   3.462   3.821   2.987 -0.0519 -0.1132  0.7531
  397SOL     hw 1586   3.427   3.733   2.998 -0.7013  0.3627  3.0427
  397SOL     hw 1587   3.390   3.871   2.950 -0.0742 -0.2705  0.5827
  397SOL     vw 1588   3.448   3.816   2.984 -0.1404 -0.0712  1.0326
  398SOL     ow 1589   5.917   5.676   2.176  0.7005 -0.1035 -0.1383
  398SOL     hw 1590   5.918   5.584   2.151 -1.7664 -0.8502  2.0483
  398SOL     hw 1591   5.849   5.716   2.121 -0.0284 -0.2117  0.6646
  398SOL     vw 1592   5.908   5.669   2.165  0.2789 -0.2162  0.2561
  399SOL     ow 1593   1.356   1.932   3.626 -0.3593 -0.1268  0.7528
  399SOL     hw 1594   1.323   1.864   3.685 -0.4803 -0.9211 -0.2142
  399SOL     hw 1595   1.282   1.991   3.614  0.1849  1.1153  2.8389
  399SOL     vw 1596   1.342   1.931   3.632 -0.3034 -0.0677  0.9004
  400SOL     ow 1597   2.556   6.152   5.084  0.1873  0.2623 -0.0504
  400SOL     hw 1598   2.511   6.227   5.045 -1.8605  0.1226  1.8460
  400SOL     hw 1599   2.538   6.079   5.024  0.1061  0.7678 -0.6494
  400SOL     vw 1600   2.548   6.152   5.071 -0.0936  0.3107  0.1206
  401SOL     ow 1601   4.611   2.110   3.234 -0.1510 -0.1311  0.2954
  401SOL     hw 1602   4.549   2.149   3.173 -0.1291  1.0380  1.0055
  401SOL     hw 1603   4.679   2.073   3.178 -0.7622 -0.1864 -0.4267
  401SOL     vw 1604   4.612   2.110   3.219 -0.2286  0.0159  0.2937
  402SOL     ow 1605   1.964   0.495   3.032 -0.2832  0.5493 -0.2258
  402SOL     hw 1606   2.043   0.540   3.063 -0.1311  0.7987 -0.9547
  402SOL     hw 1607   1.894   0.558   3.047  0.0165  1.3083 -1.8105
  402SOL     vw 1608   1.965   0.509   3.038 -0.2235  0.6824 -0.5311
  403SOL     ow 1609   0.043   6.058   1.665 -0.4864 -0.3035  0.1957
  403SOL     hw 1610   0.037   5.963   1.672 -0.5752 -0.3634 -0.5254
  403SOL     hw 1611  -0.046   6.086   1.643  0.3106 -0.5523 -4.2851
  403SOL     vw 1612   0.030   6.049   1.663 -0.3930 -0.3443 -0.4907
  404SOL     ow 1613   3.659   6.073   6.345 -0.0373 -0.8132  0.1573
  404SOL     hw 1614   3.674   6.036   6.258 -0.9076  0.8564 -0.7399
  404SOL     hw 1615   3.671   6.167   6.334 -0.3706 -0.5466  1.8011
  404SOL     vw 1616   3.662   6.080   6.332 -0.1961 -0.5574  0.2558
  405SOL     ow 1617   2.752   2.166   1.212 -0.3818 -0.4156  0.1468
  405SOL     hw 1618   2.686   2.175   1.142 -0.9130  1.3184  0.8049
  405SOL     hw 1619   2.721   2.094   1.266  0.1059 -1.8761 -1.4509
  405SOL     vw 1620   2.739   2.158   1.210 -0.3874 -0.3794  0.0228
  406SOL     ow 1621   2.694   3.072   1.361  0.1435 -1.0949 -0.6715
  406SOL     hw 1622   2.732   2.984   1.370  2.5681 -0.4709 -3.3366
  406SOL     hw 1623   2.629   3.062   1.291  0.5298 -0.7359 -1.0798
  406SOL     vw 1624   2.690   3.059   1.353  0.5144 -0.9652 -1.0770
  407SOL     ow 1625   4.830   3.545   2.376 -0.5598  0.2194 -0.0851
  407SOL     hw 1626   4.846   3.591   2.458 -1.1265  0.0038  0.1523
  407SOL     hw 1627   4.748   3.498   2.390 -0.1903 -0.5593 -0.4553
  407SOL     vw 1628   4.821   3.544   2.389 -0.5860  0.0883 -0.1026
  408SOL     ow 1629   6.676   4.582   5.125  0.6458 -0.2562 -0.1770
  408SOL     hw 1630   6.759   4.534   5.119  1.1601  0.4653  1.0407
  408SOL     hw 1631   6.682   4.649   5.056  1.3505  0.2066  0.3280
  408SOL     vw 1632   6.688   4.584   5.115  0.8068 -0.1001  0.0503
  409SOL     ow 1633   3.960   5.833   5.099  0.5303  0.1572 -0.0216
  409SOL     hw 1634   3.943   5.864   5.009 -0.3367 -0.2649 -0.0161
  409SOL     hw 1635   4.017   5.757   5.087  1.0080  0.5378 -0.1696
  409SOL     vw 1636   3.965   5.827   5.085  0.4790  0.1516 -0.0403
  410SOL     ow 1637   5.533   3.994   2.976 -0.0138 -0.0334 -0.0713
  410SOL     hw 1638   5.461   3.953   3.024 -0.7881  0.9602 -0.3499
  410SOL     hw 1639   5.612   3.963   3.020 -0.6611 -0.1321  1.0552
  410SOL     vw 1640   5.534   3.985   2.988 -0.2012  0.0845  0.0407
  411SOL     ow 1641   1.018   5.783   4.130  0.7033  0.1885  0.5096
  411SOL     hw 1642   0.980   5.870   4.129 -1.0887 -0.5309  1.5685
  411SOL     hw 1643   1.097   5.791   4.184  1.0119  1.3016 -0.0858
  411SOL     vw 1644   1.023   5.795   4.137  0.5075  0.2401  0.5708
  412SOL     ow 1645   3.706   0.371   1.906 -0.4461  0.0939 -0.3099
  412SOL     hw 1646   3.652   0.397   1.831  0.7460 -0.2314 -1.3083
  412SOL     hw 1647   3.794   0.400   1.883 -0.1433  0.4717  1.2238
  412SOL     vw 1648   3.710   0.378   1.893 -0.2488  0.1009 -0.2393
  413SOL     ow 1649   0.603   5.089   0.830  0.3255 -0.2720 -0.2261
  413SOL     hw 1650   0.515   5.127   0.833  0.6242  0.5953 -1.5379
  413SOL     hw 1651   0.661   5.158   0.862  0.5095 -0.9928  1.0554
  413SOL     vw 1652   0.599   5.103   0.834  0.3892 -0.2527 -0.2301
  414SOL     ow 1653   0.721   1.047   1.548  0.4391 -0.2272 -0.4461
  414SOL     hw 1654   0.728   1.131   1.503 -0.0493  0.6720  1.0699
  414SOL     hw 1655   0.797   1.044   1.606 -1.6371  1.2240  2.6530
  414SOL     vw 1656   0.732   1.058   1.550  0.1007  0.0829  0.1627
  415SOL     ow 1657   1.079   6.094   4.891  0.2539 -0.4425 -0.3846
  415SOL     hw 1658   1.107   6.128   4.806  1.3082 -1.8182 -0.6141
  415SOL     hw 1659   0.996   6.050   4.873  0.1449 -0.1667 -0.5668
  415SOL     vw 1660   1.072   6.093   4.877  0.3786 -0.5875 -0.4387
  416SOL     ow 1661   2.107   4.361   4.541  0.0946 -0.3642  0.1718
  416SOL     hw 1662   2.033   4.421   4.540  0.1004 -0.3580 -0.1663
  416SOL     hw 1663   2.068   4.274   4.539  0.0546 -0.4015 -3.2334
  416SOL     vw 1664   2.092   4.357   4.540  0.0901 -0.3684 -0.3221
  417SOL     ow 1665   1.912   2.508   0.724 -0.3150 -0.9537 -0.1305
  417SOL     hw 1666   1.826   2.539   0.752 -0.3034 -0.3823 -0.7273
  417SOL     hw 1667   1.916   2.528   0.631  2.2860  3.4448  0.6631
  417SOL     vw 1668   1.901   2.515   0.715  0.0297 -0.2979 -0.1045
  418SOL     ow 1669   5.900   3.365   6.343  0.4333 -0.6601 -0.2283
  418SOL     hw 1670   5.965   3.348   6.274  0.4414 -0.7261 -0.2044
  418SOL     hw 1671   5.894   3.282   6.391 -0.3930 -0.9737 -0.8403
  418SOL     vw 1672   5.908   3.352   6.340  0.3252 -0.7102 -0.3061
  419SOL     ow 1673   6.591   2.777   2.631 -0.5557 -0.3656  0.4648
  419SOL     hw 1674   6.587   2.710   2.699 -0.7831 -0.5129  0.3090
  419SOL     hw 1675   6.532   2.746   2.563 -1.1003  0.2599  0.6346
  419SOL     vw 1676   6.583   2.764   2.631 -0.6578 -0.3026  0.4667
  420SOL     ow 1677   2.588   5.721   3.720 -0.4037  0.0490  0.3064
  420SOL     hw 1678   2.605   5.788   3.654  1.6301 -0.7934 -0.1080
  420SOL     hw 1679   2.593   5.767   3.803 -0.0251  0.6021 -0.0144
  420SOL     vw 1680   2.591   5.736   3.722 -0.0855  0.0107  0.2093
  421SOL     ow 1681   4.422   2.073   4.945 -0.4237 -0.5049  0.4088
  421SOL     hw 1682   4.431   2.147   5.005  3.5109 -1.1095  0.8026
  421SOL     hw 1683   4.407   2.113   4.859  0.2588  0.6630  0.8228
  421SOL     vw 1684   4.421   2.088   4.941  0.1853 -0.4305  0.5152
  422SOL     ow 1685   2.512   4.115   3.418 -0.0763 -0.2159  0.6903
  422SOL     hw 1686   2.418   4.114   3.399  0.2169 -0.2711 -0.9130
  422SOL     hw 1687   2.526   4.039   3.475 -0.6682 -1.6884 -1.0281
  422SOL     vw 1688   2.502   4.105   3.423 -0.1158 -0.4177  0.2521
  423SOL     ow 1689   5.945   6.759   2.712  0.6590 -0.0723  0.8031
  423SOL     hw 1690   5.912   6.751   2.801  0.1709 -0.2432  0.6109
  423SOL     hw 1691   5.969   6.670   2.687 -0.5158 -0.2737  0.2796
  423SOL     vw 1692   5.943   6.746   2.720  0.4396 -0.1214  0.7088
  424SOL     ow 1693   2.804   1.379   4.853 -0.5068 -0.6168  0.7219
  424SOL     hw 1694   2.881   1.436   4.857 -2.0950  1.6418  2.0237
  424SOL     hw 1695   2.795   1.357   4.760  1.5931 -0.8636  0.5285
  424SOL     vw 1696   2.813   1.384   4.841 -0.4393 -0.3514  0.8681
  425SOL     ow 1697   5.443   4.483   3.293  0.0711  0.6507  0.5435
  425SOL     hw 1698   5.377   4.414   3.289 -0.6747  1.2644  1.5951
  425SOL     hw 1699   5.443   4.522   3.206  1.4011 -1.4505 -0.4580
  425SOL     vw 1700   5.434   4.479   3.281  0.1481  0.4542  0.5499
  426SOL     ow 1701   0.709   0.341   2.524 -0.3302 -0.1113  0.4807
  426SOL     hw 1702   0.748   0.422   2.493 -1.2339  0.3432  0.4825
  426SOL     hw 1703   0.782   0.281   2.535  0.2674  0.4788 -0.2108
  426SOL     vw 1704   0.723   0.344   2.522 -0.3706  0.0266  0.3898
  427SOL     ow 1705   6.572   1.319   2.803  0.2227 -0.0769 -0.3613
  427SOL     hw 1706   6.645   1.259   2.787  0.4952  0.3255 -0.6431
  427SOL     hw 1707   6.517   1.273   2.867  0.9229 -0.2233  0.1498
  427SOL     vw 1708   6.574   1.305   2.809  0.3512 -0.0431 -0.3312
  428SOL     ow 1709   2.736   4.349   3.228  0.4379 -0.0494 -0.8723
  428SOL     hw 1710   2.800   4.333   3.159 -0.5017  1.9469 -2.3136
  428SOL     hw 1711   2.750   4.441   3.252 -0.5023 -0.1861  0.2641
  428SOL     vw 1712   2.746   4.359   3.222  0.1900  0.1962 -0.9125
  429SOL     ow 1713   0.891   2.291   5.689 -0.6714 -0.2990  0.5863
  429SOL     hw 1714   0.973   2.332   5.718 -1.4083  0.5765  1.4962
  429SOL     hw 1715   0.918   2.207   5.652  1.0454  1.4703 -2.5745
  429SOL     vw 1716   0.905   2.285   5.688 -0.5421  0.0499  0.2892
  430SOL     ow 1717   1.417   1.694   2.196  0.7327  0.0006  0.0086
  430SOL     hw 1718   1.491   1.679   2.255  0.1849  1.5190  1.1285
  430SOL     hw 1719   1.406   1.610   2.150  2.5317 -0.5412  0.4932
  430SOL     vw 1720   1.426   1.681   2.198  0.8978  0.1295  0.2204
  431SOL     ow 1721   4.637   3.032   5.668  0.0376  0.4829  0.1764
  431SOL     hw 1722   4.589   3.092   5.611 -0.8713 -0.8914 -0.5778
  431SOL     hw 1723   4.575   3.010   5.738 -0.5715 -1.4409 -0.9013
  431SOL     vw 1724   4.622   3.037   5.670 -0.1626  0.0478 -0.0656
  432SOL     ow 1725   3.024   3.582   3.108  0.1300 -0.1023  0.1368
  432SOL     hw 1726   3.109   3.582   3.063  0.4300  0.3894  0.6935
  432SOL     hw 1727   3.046   3.592   3.201 -0.6140  2.3457  0.1187
  432SOL     vw 1728   3.038   3.583   3.114  0.0715  0.2855  0.2079
  433SOL     ow 1729   4.025   5.252   5.517  0.1060  0.0626 -0.0560
  433SOL     hw 1730   4.095   5.187   5.523 -0.0395 -0.1341 -0.4703
  433SOL     hw 1731   4.002   5.254   5.424 -0.0635  0.5219 -0.0074
  433SOL     vw 1732   4.031   5.244   5.505  0.0648  0.0973 -0.1042
  434SOL     ow 1733   4.384   2.919   1.048 -0.9281  0.4057  0.1388
  434SOL     hw 1734   4.457   2.879   1.095  0.3243  2.1036 -0.2619
  434SOL     hw 1735   4.317   2.932   1.114 -1.2614 -1.9815  0.3428
  434SOL     vw 1736   4.385   2.915   1.063 -0.8070  0.3147  0.1129
  435SOL     ow 1737   5.401   3.847   4.406  0.1571  0.6086  0.0365
  435SOL     hw 1738   5.418   3.754   4.396 -0.2698  0.5981 -0.6685
  435SOL     hw 1739   5.340   3.853   4.479 -0.0903  0.2992 -0.1427
  435SOL     vw 1740   5.395   3.836   4.414  0.0679  0.5665 -0.0801
  436SOL     ow 1741   0.763   1.618   3.198 -0.2367 -0.5006 -0.0289
  436SOL     hw 1742   0.709   1.568   3.137 -0.1454  0.1493 -0.6688
  436SOL     hw 1743   0.800   1.688   3.144 -1.7909  1.3565  1.1651
  436SOL     vw 1744   0.761   1.621   3.183 -0.4297 -0.1698  0.0443
  437SOL     ow 1745   4.100   0.103   2.753 -0.8365 -0.6690 -0.5572
  437SOL     hw 1746   4.013   0.067   2.741 -1.2903 -0.3769  1.4648
  437SOL     hw 1747   4.099   0.141   2.841  1.8928 -2.3946  0.3719
  437SOL     vw 1748   4.089   0.103   2.763 -0.5360 -0.8582 -0.1678
  438SOL     ow 1749   5.860   3.172   0.464  0.4450  0.1511  0.1189
  438SOL     hw 1750   5.784   3.118   0.485 -0.2823  1.8744  2.4155
  438SOL     hw 1751   5.929   3.139   0.522  0.9946 -0.3420 -0.7858
  438SOL     vw 1752   5.859   3.161   0.475  0.4215  0.3134  0.3025
  439SOL     ow 1753   1.785   3.578   4.554 -0.1880  1.0344  0.2997
  439SOL     hw 1754   1.744   3.559   4.638 -0.5818  0.1677 -0.0720
  439SOL     hw 1755   1.866   3.624   4.577 -0.6754  1.5304  1.1032
  439SOL     vw 1756   1.791   3.582   4.568 -0.3042  0.9854  0.3567
  440SOL     ow 1757   1.125   3.551   6.404  0.1846  0.5942 -0.2872
  440SOL     hw 1758   1.151   3.601   6.326 -0.1406 -0.7291 -1.2819
  440SOL     hw 1759   1.033   3.574   6.417 -0.4820 -1.0335 -1.8149
  440SOL     vw 1760   1.117   3.561   6.395  0.0537  0.2049 -0.6201
  441SOL     ow 1761   5.565   6.064   0.868 -0.1707 -0.2478 -0.9749
  441SOL     hw 1762   5.642   6.107   0.905 -0.2737 -0.3907 -0.5925
  441SOL     hw 1763   5.542   5.996   0.932 -0.5086 -0.3203 -1.1702
  441SOL     vw 1764   5.572   6.061   0.881 -0.2291 -0.2763 -0.9502
  442SOL     ow 1765   2.975   1.014   2.824  0.1447 -0.4202 -0.1051
  442SOL     hw 1766   3.036   0.992   2.895  0.8872  1.2315 -0.1720
  442SOL     hw 1767   3.032   1.037   2.750 -0.5701  0.0557 -0.5168
  442SOL     vw 1768   2.991   1.014   2.824  0.1483 -0.1395 -0.1682
  443SOL     ow 1769   0.645   3.999   4.942 -0.0003  0.1245  0.5254
  443SOL     hw 1770   0.648   4.084   4.899 -1.0072 -0.3673 -0.5646
  443SOL     hw 1771   0.552   3.976   4.944 -0.0082  0.0534  2.8793
  443SOL     vw 1772   0.634   4.007   4.937 -0.1342  0.0498  0.6924
  444SOL     ow 1773   5.600   4.684   3.465  0.0494 -0.1964 -0.5717
  444SOL     hw 1774   5.596   4.740   3.542 -2.1005  0.9041 -1.3809
  444SOL     hw 1775   5.610   4.745   3.392 -1.0353 -0.9426 -1.3788
  444SOL     vw 1776   5.601   4.699   3.465 -0.3769 -0.1495 -0.7850
  445SOL     ow 1777   5.823   5.497   3.311  0.4391 -1.0218 -0.6431
  445SOL     hw 1778   5.762   5.428   3.339 -0.5827  0.1916  0.2847
  445SOL     hw 1779   5.778   5.541   3.239 -1.0236  1.4076  1.5615
  445SOL     vw 1780   5.809   5.494   3.305  0.1116 -0.5410 -0.2297
  446SOL     ow 1781   0.807   6.357   6.312  0.2637  0.3732 -0.1892
  446SOL     hw 1782   0.759   6.280   6.281  1.5603 -1.1601  1.3923
  446SOL     hw 1783   0.893   6.349   6.270  1.9765 -1.6193  3.2314
  446SOL     vw 1784   0.812   6.345   6.303  0.6608 -0.0920  0.4706
  447SOL     ow 1785   1.259   0.606   2.084  0.0146  0.2396 -0.0286
  447SOL     hw 1786   1.240   0.653   2.165  1.4368 -1.3624  1.3011
  447SOL     hw 1787   1.174   0.570   2.057 -2.0297  5.9982 -2.9936
  447SOL     vw 1788   1.245   0.607   2.091 -0.0675  0.7880 -0.2443
  448SOL     ow 1789   6.077   4.716   0.293 -0.4276  0.2341 -0.5666
  448SOL     hw 1790   6.089   4.796   0.344 -1.1769  1.1210 -1.7360
  448SOL     hw 1791   5.991   4.726   0.253  1.0296  0.6651 -3.8831
  448SOL     vw 1792   6.067   4.728   0.295 -0.3340  0.4082 -1.1585
  449SOL     ow 1793   3.025   5.589   5.461 -0.1049  0.5848 -0.4788
  449SOL     hw 1794   2.980   5.650   5.521  2.1906  1.9105  0.0090
  449SOL     hw 1795   2.954   5.550   5.410 -2.1013  0.0987  2.4088
  449SOL     vw 1796   3.010   5.592   5.463 -0.0656  0.6957 -0.0336
  450SOL     ow 1797   3.249   4.000   1.913  0.3820  0.5888  0.4020
  450SOL     hw 1798   3.181   3.998   1.845 -1.2584 -1.4859  1.9590
  450SOL     hw 1799   3.203   4.025   1.993  1.6759  0.1811  1.3037
  450SOL     vw 1800   3.234   4.003   1.914  0.3362  0.2615  0.7264
  451SOL     ow 1801   0.141   4.855   4.163  0.1612  0.3506  0.0901
  451SOL     hw 1802   0.153   4.778   4.218 -0.4030 -0.2096 -0.5619
  451SOL     hw 1803   0.072   4.831   4.101  0.4799  1.1209 -0.5893
  451SOL     vw 1804   0.133   4.842   4.162  0.1288  0.3784 -0.0856
  452SOL     ow 1805   6.709   3.449   1.248  0.3364  0.0800  0.2440
  452SOL     hw 1806   6.771   3.506   1.295  1.1965  0.5103 -1.3465
  452SOL     hw 1807   6.755   3.425   1.168 -1.5521  0.4189 -0.9999
  452SOL     vw 1808   6.723   3.453   1.244  0.2007  0.1816 -0.1300
  453SOL     ow 1809   1.831   3.327   0.654  0.5537 -0.3546  0.4051
  453SOL     hw 1810   1.759   3.267   0.671 -1.8118  1.1468 -3.0567
  453SOL     hw 1811   1.889   3.280   0.594  0.9752 -0.5828  0.9814
  453SOL     vw 1812   1.829   3.313   0.648  0.2972 -0.1866  0.0244
  454SOL     ow 1813   1.220   0.210   5.275 -0.3711 -0.0197 -0.3945
  454SOL     hw 1814   1.289   0.182   5.216 -0.4473 -1.8874  0.3438
  454SOL     hw 1815   1.258   0.202   5.363 -0.1372  3.0309 -0.1071
  454SOL     vw 1816   1.234   0.205   5.279 -0.3503  0.1363 -0.2592
  455SOL     ow 1817   4.057   5.844   1.016  0.1644  0.0968 -0.9882
  455SOL     hw 1818   4.033   5.893   0.938  0.8023  0.4760 -0.9518
  455SOL     hw 1819   3.974   5.809   1.049 -0.5025  2.1772 -0.3160
  455SOL     vw 1820   4.043   5.846   1.010  0.1605  0.4215 -0.8947
  456SOL     ow 1821   4.721   2.204   6.636 -0.2620  0.5395 -0.4427
  456SOL     hw 1822   4.789   2.182   6.571  0.1153  1.7384 -0.4888
  456SOL     hw 1823   4.644   2.156   6.607  0.6985 -1.3446 -0.0524
  456SOL     vw 1824   4.720   2.195   6.623 -0.0854  0.4492 -0.3972
  457SOL     ow 1825   3.113   5.475   4.325 -0.1562  0.0363  0.8468
  457SOL     hw 1826   3.022   5.499   4.308  0.6053  3.0362  0.3039
  457SOL     hw 1827   3.111   5.426   4.407 -2.2547 -0.2366  0.6801
  457SOL     vw 1828   3.101   5.472   4.334 -0.3326  0.3960  0.7532
  458SOL     ow 1829   5.654   2.309   4.871  0.5227 -0.4799  0.0013
  458SOL     hw 1830   5.658   2.308   4.775  0.1010  1.0858 -0.0684
  458SOL     hw 1831   5.711   2.382   4.896 -0.1713 -0.2208  0.8737
  458SOL     vw 1832   5.662   2.319   4.861  0.3755 -0.2391  0.1070
  459SOL     ow 1833   4.798   3.794   5.713 -0.5442 -0.1592  0.6393
  459SOL     hw 1834   4.819   3.702   5.693  0.8543 -0.2556  2.3339
  459SOL     hw 1835   4.741   3.821   5.641 -1.2919 -2.4593  0.2786
  459SOL     vw 1836   4.793   3.785   5.701 -0.4582 -0.4753  0.8149
  460SOL     ow 1837   5.306   3.336   0.870  0.0577  0.2727  0.5840
  460SOL     hw 1838   5.232   3.319   0.929  0.4656 -0.7789  0.8221
  460SOL     hw 1839   5.383   3.328   0.927  0.4341 -0.3750 -0.0064
  460SOL     vw 1840   5.306   3.332   0.886  0.1609  0.0486  0.5375
  461SOL     ow 1841   1.481   6.015   2.705 -0.5790  0.4276  0.3478
  461SOL     hw 1842   1.473   6.040   2.613 -0.6791  0.6500  0.4145
  461SOL     hw 1843   1.399   6.047   2.745 -0.9695 -0.5197  0.3217
  461SOL     vw 1844   1.469   6.023   2.699 -0.6437  0.3319  0.3532
  462SOL     ow 1845   0.196   6.762   2.105  0.1769 -0.2853 -1.0397
  462SOL     hw 1846   0.265   6.697   2.122  0.2698 -0.0459 -0.4853
  462SOL     hw 1847   0.158   6.734   2.021 -0.9430 -2.0982 -0.0043
  462SOL     vw 1848   0.200   6.749   2.096  0.0414 -0.4930 -0.8299
  463SOL     ow 1849   5.959   5.702   5.811 -0.1021  0.2642  0.4535
  463SOL     hw 1850   5.981   5.773   5.751  0.3157  0.8121  1.2293
  463SOL     hw 1851   5.963   5.623   5.757  1.4821  0.6018  0.0168
  463SOL     vw 1852   5.963   5.701   5.796  0.1621  0.3810  0.4983
  464SOL     ow 1853   0.647   2.203   4.979  0.6324  0.0374 -0.1662
  464SOL     hw 1854   0.561   2.191   4.937  1.1739  0.6854 -1.4972
  464SOL     hw 1855   0.632   2.272   5.044  0.6945  2.2215 -2.2997
  464SOL     vw 1856   0.633   2.211   4.982  0.7121  0.4112 -0.6235
  465SOL     ow 1857   0.297   0.766   3.163  0.5181 -0.3302  0.6966
  465SOL     hw 1858   0.272   0.707   3.091  0.8146 -0.1381  0.4353
  465SOL     hw 1859   0.365   0.718   3.211  0.5343 -0.3313  0.6724
  465SOL     vw 1860   0.303   0.752   3.160  0.5593 -0.3050  0.6590
  466SOL     ow 1861   4.467   3.434   6.836  0.3447  0.4201  0.0089
  466SOL     hw 1862   4.453   3.528   6.825 -0.3581  0.6401  2.3195
  466SOL     hw 1863   4.386   3.394   6.804  0.5197  0.6071 -0.6867
  466SOL     vw 1864   4.454   3.441   6.830  0.2749  0.4737  0.2220
  467SOL     ow 1865   5.894   2.407   2.656 -0.4521  0.3696 -0.3286
  467SOL     hw 1866   5.813   2.426   2.704  0.7390  1.9730  1.1668
  467SOL     hw 1867   5.964   2.418   2.720  1.2954  3.2885 -2.4626
  467SOL     vw 1868   5.892   2.411   2.671 -0.0644  0.9663 -0.4128
  468SOL     ow 1869   5.999   5.063   6.574 -0.7977 -0.4950 -0.0114
  468SOL     hw 1870   6.041   5.000   6.515  0.1640  1.1312 -1.1312
  468SOL     hw 1871   6.003   5.021   6.660 -1.2440 -2.4428 -0.8846
  468SOL     vw 1872   6.005   5.049   6.578 -0.7298 -0.5374 -0.2744
  469SOL     ow 1873   3.562   3.201   5.455 -0.3021 -0.3384 -0.0062
  469SOL     hw 1874   3.619   3.169   5.385 -0.3029 -0.8243  0.2078
  469SOL     hw 1875   3.576   3.139   5.527  0.7457  0.9444  0.9367
  469SOL     vw 1876   3.571   3.189   5.456 -0.1639 -0.2333  0.1464
  470SOL     ow 1877   6.525   0.452   4.962 -0.3631  0.7744 -0.0049
  470SOL     hw 1878   6.588   0.381   4.973  0.5476  1.2087 -1.9180
  470SOL     hw 1879   6.569   0.528   5.001 -0.7291  0.5915  0.7730
  470SOL     vw 1880   6.539   0.453   4.969 -0.2913  0.8076 -0.1545
  471SOL     ow 1881   5.110   2.989   2.857  0.2251 -0.5145  0.3638
  471SOL     hw 1882   5.201   3.018   2.863  0.5253 -1.2623 -0.4197
  471SOL     hw 1883   5.081   2.981   2.948  0.7117  0.4273  0.6074
  471SOL     vw 1884   5.118   2.992   2.870  0.3290 -0.4889  0.2927
  472SOL     ow 1885   3.849   1.909   2.439 -0.4925 -0.1089  0.3189
  472SOL     hw 1886   3.854   1.843   2.370  0.1375  0.6684 -0.4010
  472SOL     hw 1887   3.877   1.863   2.518 -3.3432 -1.6302  0.5771
  472SOL     vw 1888   3.853   1.894   2.440 -0.7856 -0.2071  0.2581
  473SOL     ow 1889   1.189   1.327   2.739  0.2461  0.6646 -0.2807
  473SOL     hw 1890   1.132   1.355   2.810  1.4159  2.0194  0.1619
  473SOL     hw 1891   1.247   1.261   2.779 -0.4662 -0.1208 -0.5272
  473SOL     vw 1892   1.189   1.322   2.754  0.3064  0.7396 -0.2549
  474SOL     ow 1893   5.134   5.028   6.281 -0.2748 -0.4741 -1.0399
  474SOL     hw 1894   5.228   5.038   6.268 -0.1427 -0.1203  0.1406
  474SOL     hw 1895   5.125   4.987   6.367 -1.2535  1.5811 -0.0974
  474SOL     vw 1896   5.145   5.024   6.290 -0.3865 -0.1562 -0.7601
  475SOL     ow 1897   2.184   1.704   3.862  0.3546  0.1683 -0.6791
  475SOL     hw 1898   2.136   1.624   3.841 -0.2890  0.9970 -2.5319
  475SOL     hw 1899   2.161   1.765   3.792  2.0567  1.4641 -0.1683
  475SOL     vw 1900   2.175   1.701   3.850  0.4942  0.4486 -0.8563
  476SOL     ow 1901   1.752   0.005   5.913  0.4154  0.1292  0.5828
  476SOL     hw 1902   1.685   0.022   5.978 -0.2228 -0.1126 -0.0059
  476SOL     hw 1903   1.820  -0.043   5.960 -0.4051 -0.7509  0.8744
  476SOL     vw 1904   1.752   0.001   5.927  0.2229 -0.0188  0.5434
  477SOL     ow 1905   0.889   0.658   6.034  0.1255 -0.0029  0.1945
  477SOL     hw 1906   0.864   0.581   6.084  2.2882 -0.0164  1.3294
  477SOL     hw 1907   0.826   0.725   6.061 -1.7185 -1.2760 -0.7351
  477SOL     vw 1908   0.877   0.657   6.044  0.1675 -0.1727  0.2217
  478SOL     ow 1909   2.276   3.182   5.429  0.5425  0.7097 -0.5848
  478SOL     hw 1910   2.322   3.257   5.466  3.4875 -2.2115  2.3893
  478SOL     hw 1911   2.327   3.157   5.352  1.2661  0.1537  0.0642
  478SOL     vw 1912   2.289   3.189   5.424  1.0264  0.2508 -0.1066
  479SOL     ow 1913   2.250   4.270   5.800 -0.4337  0.3101  0.7176
  479SOL     hw 1914   2.249   4.199   5.864  0.1827 -1.2030 -0.8518
  479SOL     hw 1915   2.209   4.232   5.722  1.0962  1.2307 -0.5923
  479SOL     vw 1916   2.244   4.255   5.798 -0.1504  0.2322  0.3378
  480SOL     ow 1917   0.089   5.559   3.619  0.3559 -0.4562  0.1348
  480SOL     hw 1918   0.126   5.543   3.705  0.4128 -2.7088 -0.2500
  480SOL     hw 1919   0.158   5.534   3.557 -0.3625 -0.8014 -0.5526
  480SOL     vw 1920   0.103   5.554   3.622  0.2686 -0.7989 -0.0068
  481SOL     ow 1921   0.293   1.187   5.337 -0.3334  0.1269 -0.0093
  481SOL     hw 1922   0.268   1.278   5.349 -2.6852 -0.2487 -1.3416
  481SOL     hw 1923   0.362   1.172   5.402 -1.0146  2.3968  1.3501
  481SOL     vw 1924   0.298   1.197   5.347 -0.7336  0.3768 -0.0055
  482SOL     ow 1925   4.468   5.235   3.219 -0.6677 -0.0643  0.4851
  482SOL     hw 1926   4.390   5.235   3.274 -1.6117  0.2741 -0.8268
  482SOL     hw 1927   4.541   5.228   3.281 -1.7202 -0.2279  1.7343
  482SOL     vw 1928   4.467   5.234   3.235 -0.9315 -0.0412  0.4768
  483SOL     ow 1929   3.191   3.649   4.718 -0.3480 -0.2082 -0.1655
  483SOL     hw 1930   3.114   3.688   4.677  0.9814  0.3417 -2.2791
  483SOL     hw 1931   3.266   3.689   4.673  1.1361 -2.9954 -0.4160
  483SOL     vw 1932   3.191   3.659   4.706  0.0231 -0.5035 -0.4773
  484SOL     ow 1933   4.534   6.739   1.656 -0.6346  0.7035  0.5295
  484SOL     hw 1934   4.482   6.801   1.605  0.1239 -0.0624 -1.2947
  484SOL     hw 1935   4.625   6.763   1.637 -0.3316 -0.6912  0.0840
  484SOL     vw 1936   4.539   6.750   1.647 -0.4945  0.4184  0.2301
  485SOL     ow 1937   1.118   0.508   4.290 -0.0808 -0.7558 -0.6412
  485SOL     hw 1938   1.031   0.508   4.332  0.3873 -2.0830  0.3967
  485SOL     hw 1939   1.100   0.534   4.200 -1.3236  0.7091 -0.0271
  485SOL     vw 1940   1.104   0.511   4.284 -0.1831 -0.7377 -0.4232
  486SOL     ow 1941   4.491   1.075   0.094 -0.2738 -0.0086 -0.2119
  486SOL     hw 1942   4.441   1.087   0.013 -1.5846 -2.3926  0.1593
  486SOL     hw 1943   4.444   1.128   0.158 -0.7000 -0.0582 -0.4798
  486SOL     vw 1944   4.478   1.084   0.092 -0.5031 -0.3297 -0.1982
  487SOL     ow 1945   3.433   2.437   0.459  0.1677 -0.4667  0.0130
  487SOL     hw 1946   3.492   2.419   0.386 -0.5121 -1.0110 -0.4235
  487SOL     hw 1947   3.444   2.530   0.477  3.4467 -1.1022  2.0065
  487SOL     vw 1948   3.442   2.447   0.452  0.5106 -0.6224  0.2184
  488SOL     ow 1949   3.501   4.407   6.574  0.2164  0.0584 -0.4614
  488SOL     hw 1950   3.537   4.334   6.625  2.1478 -0.5790 -2.5666
  488SOL     hw 1951   3.576   4.440   6.524 -0.3555  4.1355  1.0125
  488SOL     vw 1952   3.516   4.402   6.574  0.3958  0.5121 -0.5445
  489SOL     ow 1953   6.659   5.107   0.719  0.2047 -0.3015  0.0834
  489SOL     hw 1954   6.591   5.063   0.668  1.4367 -1.2264 -0.8159
  489SOL     hw 1955   6.734   5.114   0.659  1.1330  0.0900  1.2450
  489SOL     vw 1956   6.660   5.102   0.704  0.4897 -0.3722  0.1180
  490SOL     ow 1957   1.989   1.791   0.069  0.5089 -0.8625 -0.2231
  490SOL     hw 1958   1.899   1.788   0.101  0.1424 -1.2033 -1.2251
  490SOL     hw 1959   2.010   1.700   0.048  2.4885 -1.4764  3.5572
  490SOL     vw 1960   1.980   1.779   0.070  0.7217 -0.9885  0.1434
  491SOL     ow 1961   4.076   2.947   3.764 -0.2555  0.3290 -0.1760
  491SOL     hw 1962   4.060   2.906   3.679  0.7933 -1.7616  0.5447
  491SOL     hw 1963   4.073   3.041   3.748 -0.8067 -0.0237 -2.3602
  491SOL     vw 1964   4.073   2.954   3.751 -0.1900  0.0067 -0.3692
  492SOL     ow 1965   0.391   2.173   6.130 -0.8481 -0.3028 -0.0810
  492SOL     hw 1966   0.316   2.201   6.183  0.0999  0.8439  0.7087
  492SOL     hw 1967   0.464   2.170   6.192  0.7895  3.0904 -1.5482
  492SOL     vw 1968   0.391   2.177   6.145 -0.5070  0.2961 -0.1705
  493SOL     ow 1969   2.806   4.309   4.400 -0.5050 -0.8296 -0.1960
  493SOL     hw 1970   2.753   4.377   4.441  2.1003  0.4100  1.3912
  493SOL     hw 1971   2.798   4.233   4.459 -1.6137 -1.1685 -0.7564
  493SOL     vw 1972   2.798   4.308   4.413 -0.3074 -0.7107 -0.0603
  494SOL     ow 1973   2.948   6.518   6.809  0.4107 -0.3138  0.3812
  494SOL     hw 1974   2.939   6.585   6.877  3.0592  0.3171  0.2093
  494SOL     hw 1975   3.017   6.551   6.752 -0.7897 -1.4725 -1.8731
  494SOL     vw 1976   2.956   6.531   6.811  0.6016 -0.3834  0.0608
  495SOL     ow 1977   4.617   5.885   0.138 -0.2102 -0.3364 -0.2307
  495SOL     hw 1978   4.576   5.829   0.072 -1.7390 -0.3926  0.7161
  495SOL     hw 1979   4.578   5.971   0.123 -0.2053 -0.2434  0.2831
  495SOL     vw 1980   4.606   5.889   0.127 -0.4110 -0.3314 -0.0380
  496SOL     ow 1981   4.689   5.967   4.668 -0.7479 -0.5939 -0.1737
  496SOL     hw 1982   4.715   5.978   4.759 -1.5777  0.4487 -0.0356
  496SOL     hw 1983   4.600   5.933   4.672 -0.8520 -0.3843 -0.5904
  496SOL     vw 1984   4.681   5.964   4.680 -0.8712 -0.4287 -0.2100
  497SOL     ow 1985   5.611   5.220   4.070  0.9050 -0.5067  0.9931
  497SOL     hw 1986   5.683   5.206   4.131  1.7122 -1.6211 -0.1460
  497SOL     hw 1987   5.607   5.139   4.018 -0.0136  0.2163 -0.1354
  497SOL     vw 1988   5.620   5.207   4.071  0.8907 -0.5586  0.6938
  498SOL     ow 1989   2.531   1.934   2.279  0.9684  0.1749  0.3347
  498SOL     hw 1990   2.540   1.975   2.365  1.3110 -0.1487  0.4582
  498SOL     hw 1991   2.453   1.974   2.241  0.1012 -0.5434  1.2874
  498SOL     vw 1992   2.522   1.945   2.285  0.8991  0.0374  0.4767
  499SOL     ow 1993   5.752   4.636   1.581 -0.1907  0.0281  0.0655
  499SOL     hw 1994   5.670   4.632   1.532  1.0716 -2.1313 -2.0543
  499SOL     hw 1995   5.819   4.653   1.515  1.1925  1.2031  1.6723
  499SOL     vw 1996   5.750   4.638   1.566  0.1583 -0.1018 -0.0023
  500SOL     ow 1997   3.630   3.537   5.453 -0.4963 -0.2875 -0.2393
  500SOL     hw 1998   3.643   3.609   5.392  0.1085 -1.9469 -2.1699
  500SOL     hw 1999   3.718   3.516   5.484 -0.3316 -1.6608 -1.5194
  500SOL     vw 2000   3.643   3.544   5.449 -0.3948 -0.6876 -0.6628
  501SOL     ow 2001   6.888   5.719   4.889  0.3849 -0.6483  0.8458
  501SOL     hw 2002   6.817   5.767   4.931 -0.4008  0.7067 -1.7689
  501SOL     hw 2003   6.851   5.688   4.807  2.9806  1.0735 -1.1710
  501SOL     vw 2004   6.874   5.721   4.884  0.6237 -0.2422  0.2346
  502SOL     ow 2005   6.204   0.417   1.965 -1.3443  0.0406 -0.3485
  502SOL     hw 2006   6.151   0.469   2.025 -1.3370 -1.5379  1.1010
  502SOL     hw 2007   6.272   0.377   2.020  1.3370  1.8356 -2.0911
  502SOL     vw 2008   6.206   0.418   1.980 -0.9894  0.0692 -0.3873
  503SOL     ow 2009   5.100   1.499   2.678 -0.0454  0.3184  0.3978
  503SOL     hw 2010   5.169   1.433   2.678  0.4661  0.8414  0.3194
  503SOL     hw 2011   5.019   1.449   2.677  0.3192 -0.2989 -1.3026
  503SOL     vw 2012   5.099   1.484   2.678  0.0703  0.3060  0.1631
  504SOL     ow 2013   3.844   3.470   6.448 -0.3186 -0.1712 -0.3276
  504SOL     hw 2014   3.797   3.388   6.464  0.4715 -0.6761 -0.5294
  504SOL     hw 2015   3.865   3.503   6.535 -1.7117  0.4760 -0.2028
  504SOL     vw 2016   3.840   3.464   6.461 -0.3983 -0.1525 -0.3378
  505SOL     ow 2017   3.502   5.493   4.541  0.3519 -0.3407  0.6385
  505SOL     hw 2018   3.517   5.584   4.568 -0.2375 -0.4113  1.2464
  505SOL     hw 2019   3.565   5.478   4.471 -0.8360  1.1662 -0.8337
  505SOL     vw 2020   3.512   5.503   4.536  0.1174 -0.1509  0.5243
  506SOL     ow 2021   6.825   3.796   3.076  0.0962  0.2840 -0.1070
  506SOL     hw 2022   6.901   3.838   3.118  0.5080 -0.6432  0.1055
  506SOL     hw 2023   6.835   3.703   3.097 -1.5098  0.2334  0.5570
  506SOL     vw 2024   6.836   3.789   3.084 -0.0613  0.1550  0.0086
  507SOL     ow 2025   4.771   2.079   6.058 -0.3878  0.5856 -0.3702
  507SOL     hw 2026   4.778   2.039   5.972 -0.6495 -2.9529  1.0958
  507SOL     hw 2027   4.720   2.016   6.110 -1.7078  3.3423  1.9642
  507SOL     vw 2028   4.765   2.065   6.053 -0.5965  0.4824  0.1311
  508SOL     ow 2029   1.298   4.346   1.184 -0.0466  0.1373 -0.3912
  508SOL     hw 2030   1.333   4.303   1.261  0.2489  0.8156 -0.1398
  508SOL     hw 2031   1.307   4.281   1.114 -2.0533 -1.2181  0.4975
  508SOL     vw 2032   1.304   4.332   1.185 -0.2724  0.0482 -0.2409
  509SOL     ow 2033   3.011   4.704   6.137 -0.1434  0.2593 -0.1525
  509SOL     hw 2034   2.966   4.689   6.220  2.0781 -0.5065  0.9782
  509SOL     hw 2035   3.030   4.798   6.137  0.2507  0.1884  0.4576
  509SOL     vw 2036   3.008   4.715   6.148  0.2017  0.1488  0.0772
  510SOL     ow 2037   6.191   4.185   3.425  0.5326 -0.3981 -0.3983
  510SOL     hw 2038   6.158   4.115   3.368 -2.3421 -0.2677  0.9324
  510SOL     hw 2039   6.177   4.265   3.375 -3.1870 -0.1493  0.7462
  510SOL     vw 2040   6.185   4.186   3.411 -0.3374 -0.3481 -0.0718
  511SOL     ow 2041   2.670   3.676   2.044 -0.7917 -0.2293 -0.1340
  511SOL     hw 2042   2.726   3.650   1.971 -0.1810  0.6587 -0.0050
  511SOL     hw 2043   2.650   3.768   2.027 -3.4119 -0.8466 -0.9373
  511SOL     vw 2044   2.675   3.685   2.032 -1.0569 -0.1937 -0.2229
  512SOL     ow 2045   0.881   1.649   0.041 -0.0685  0.5847 -0.1416
  512SOL     hw 2046   0.911   1.722   0.095  0.7616  1.7076 -2.0393
  512SOL     hw 2047   0.961   1.601   0.019 -0.5264 -0.5083  0.4904
  512SOL     vw 2048   0.896   1.652   0.045 -0.0194  0.5885 -0.3086
  513SOL     ow 2049   5.501   6.661   4.944  0.3875 -0.0520  0.2979
  513SOL     hw 2050   5.426   6.628   4.895  0.4012 -0.2387  0.4016
  513SOL     hw 2051   5.472   6.659   5.035  1.3710 -2.5158  0.6324
  513SOL     vw 2052   5.487   6.656   4.949  0.5190 -0.4017  0.3555
  514SOL     ow 2053   2.527   6.174   1.361 -0.2418  0.3012  0.1155
  514SOL     hw 2054   2.452   6.126   1.396 -1.7136  1.3444 -1.4568
  514SOL     hw 2055   2.496   6.264   1.352  1.0220  0.6561 -1.0767
  514SOL     vw 2056   2.513   6.179   1.364 -0.2692  0.4859 -0.2492
  515SOL     ow 2057   6.641   1.981   1.509  0.6105 -0.1856  0.6647
  515SOL     hw 2058   6.671   1.980   1.600  0.7720  0.1802  0.6167
  515SOL     hw 2059   6.614   2.071   1.493  0.5976 -0.2425  0.3470
  515SOL     vw 2060   6.642   1.992   1.519  0.6301 -0.1448  0.6165
  516SOL     ow 2061   2.119   2.998   2.581 -0.5455  0.6657  0.8634
  516SOL     hw 2062   2.096   3.091   2.576 -0.6487  0.7953  2.8271
  516SOL     hw 2063   2.083   2.969   2.666  1.6498 -0.5241  1.4597
  516SOL     vw 2064   2.111   3.006   2.592 -0.2694  0.5258  1.2013
  517SOL     ow 2065   3.562   0.163   2.075  0.5719  0.9943  0.3719
  517SOL     hw 2066   3.576   0.115   1.993 -2.1620  0.1177  0.2999
  517SOL     hw 2067   3.515   0.101   2.131  0.9222  2.1337  1.9907
  517SOL     vw 2068   3.558   0.149   2.071  0.2575  1.0290  0.5759
  518SOL     ow 2069   4.058   5.436   5.769  0.1466  0.6173  0.0022
  518SOL     hw 2070   4.058   5.532   5.768  3.1259  0.7426  1.2466
  518SOL     hw 2071   4.072   5.413   5.861 -1.4320 -1.0936 -0.1191
  518SOL     vw 2072   4.060   5.446   5.781  0.3314  0.4082  0.1504
  519SOL     ow 2073   5.369   6.305   0.979  0.6266  0.6880  0.2108
  519SOL     hw 2074   5.411   6.297   1.064  0.4294  0.1750  0.2619
  519SOL     hw 2075   5.276   6.292   0.997  0.5438  0.9303 -0.0318
  519SOL     vw 2076   5.362   6.303   0.992  0.5898  0.6523  0.1855
  520SOL     ow 2077   6.514   6.650   3.387 -0.1973  0.3593 -0.5000
  520SOL     hw 2078   6.435   6.619   3.343 -0.8482 -3.2631  2.6693
  520SOL     hw 2079   6.583   6.589   3.359  0.6784  1.3610 -0.5909
  520SOL     vw 2080   6.513   6.638   3.378 -0.1678  0.0136 -0.0939
  521SOL     ow 2081   0.019   1.849   5.119 -0.2420  0.2989  0.8261
  521SOL     hw 2082   0.097   1.901   5.140  0.9260 -0.9929 -0.0972
  521SOL     hw 2083  -0.039   1.862   5.193  0.1344  2.6196  0.7880
  521SOL     vw 2084   0.022   1.857   5.131 -0.0382  0.4347  0.6990
  522SOL     ow 2085   2.965   3.090   3.642 -0.0114 -0.5701 -0.2329
  522SOL     hw 2086   3.026   3.147   3.595  0.2369 -0.0420  0.7201
  522SOL     hw 2087   2.926   3.146   3.709 -1.2795 -0.9990 -0.5801
  522SOL     vw 2088   2.968   3.105   3.644 -0.1459 -0.5571 -0.1529
  523SOL     ow 2089   6.392   1.499   1.536  0.2677 -0.0431  0.0847
  523SOL     hw 2090   6.427   1.477   1.622 -0.2065  0.2987  0.3703
  523SOL     hw 2091   6.347   1.583   1.549 -3.3423 -1.8580  0.4839
  523SOL     vw 2092   6.391   1.507   1.549 -0.2713 -0.2374  0.1751
  524SOL     ow 2093   1.581   1.947   5.399 -0.5823 -0.0823 -0.0057
  524SOL     hw 2094   1.555   2.005   5.327  0.0814  0.2628  0.0242
  524SOL     hw 2095   1.504   1.943   5.456  0.3411  3.5525  1.8054
  524SOL     vw 2096   1.568   1.954   5.397 -0.3728  0.4427  0.2375
  525SOL     ow 2097   3.881   2.447   3.231  0.1705 -0.3599  0.4767
  525SOL     hw 2098   3.862   2.365   3.276  0.3013 -0.8508 -0.3289
  525SOL     hw 2099   3.917   2.504   3.299 -0.2575 -0.8471  1.1225
  525SOL     vw 2100   3.883   2.444   3.246  0.1312 -0.4890  0.4556
  526SOL     ow 2101   0.302   1.879   6.235  0.2417 -0.2623 -0.5840
  526SOL     hw 2102   0.382   1.855   6.281  0.3784  0.3349 -0.5060
  526SOL     hw 2103   0.237   1.815   6.264 -0.3278  1.4548  2.2757
  526SOL     vw 2104   0.304   1.867   6.245  0.1846  0.0430 -0.1962
  527SOL     ow 2105   6.833   1.735   0.500 -0.4511 -0.8315 -0.1940
  527SOL     hw 2106   6.899   1.799   0.470 -1.0589 -0.8982 -1.7990
  527SOL     hw 2107   6.877   1.651   0.490 -0.6111 -0.8449 -0.8075
  527SOL     vw 2108   6.848   1.733   0.494 -0.5524 -0.8419 -0.4867
  528SOL     ow 2109   0.613   5.912   6.853  0.4279 -0.0122 -0.4250
  528SOL     hw 2110   0.577   5.947   6.771  0.2250 -0.8145 -0.6849
  528SOL     hw 2111   0.645   5.989   6.899  0.6916  0.4415 -1.3300
  528SOL     vw 2112   0.613   5.927   6.848  0.4359 -0.0582 -0.5786
  529SOL     ow 2113   5.099   0.772   4.065 -0.3171  0.7533 -0.9553
  529SOL     hw 2114   5.028   0.834   4.054  0.7558  1.9275 -1.5310
  529SOL     hw 2115   5.179   0.823   4.047  0.5049 -1.3168 -3.9345
  529SOL     vw 2116   5.100   0.787   4.061 -0.0672  0.6351 -1.4241
  530SOL     ow 2117   0.569   5.314   5.800  0.4747  0.3595  0.3003
  530SOL     hw 2118   0.663   5.311   5.817 -0.0875 -0.4962  4.5239
  530SOL     hw 2119   0.535   5.378   5.863 -1.9007 -0.6905  0.2264
  530SOL     vw 2120   0.577   5.322   5.811  0.0871  0.1080  0.8476
  531SOL     ow 2121   4.970   2.966   3.590  0.2264  1.0304 -0.6785
  531SOL     hw 2122   4.980   2.873   3.613 -0.0464  1.0986 -0.2677
  531SOL     hw 2123   5.030   2.979   3.517  2.3956  1.1931  1.0294
  531SOL     vw 2124   4.979   2.955   3.584  0.4766  1.0608 -0.3989
  532SOL     ow 2125   5.804   2.631   5.783 -0.3048 -0.0554 -0.0132
  532SOL     hw 2126   5.785   2.712   5.737  2.0446  1.0267  0.7515
  532SOL     hw 2127   5.874   2.590   5.732 -0.1932 -0.6477  0.6028
  532SOL     vw 2128   5.811   2.636   5.770  0.0198  0.0092  0.1688
  533SOL     ow 2129   4.948   1.682   5.116  0.0361  0.3459  0.4141
  533SOL     hw 2130   4.863   1.640   5.103 -0.4052  1.3103  0.1410
  533SOL     hw 2131   4.992   1.672   5.031 -0.4743  1.3197  0.0200
  533SOL     vw 2132   4.943   1.675   5.103 -0.0894  0.6016  0.3262
  534SOL     ow 2133   4.164   5.585   4.189  0.2538 -0.5182  0.6667
  534SOL     hw 2134   4.182   5.679   4.194 -0.1364 -0.4898  1.9781
  534SOL     hw 2135   4.069   5.578   4.185  0.2664 -0.8740  0.9280
  534SOL     vw 2136   4.154   5.596   4.189  0.2041 -0.5615  0.8745
  535SOL     ow 2137   5.828   0.685   0.443 -0.1546  0.5444 -0.6085
  535SOL     hw 2138   5.827   0.682   0.539 -1.2207 -2.2432 -0.6074
  535SOL     hw 2139   5.918   0.663   0.420 -0.3143 -0.6079 -0.2082
  535SOL     vw 2140   5.840   0.682   0.453 -0.3164  0.0246 -0.5555
  536SOL     ow 2141   2.324   6.771   0.725 -0.1647 -0.0544 -0.3621
  536SOL     hw 2142   2.320   6.675   0.726 -1.0401 -0.0244 -0.2736
  536SOL     hw 2143   2.412   6.791   0.758  0.0907 -0.8236 -0.5384
  536SOL     vw 2144   2.335   6.761   0.730 -0.2465 -0.1519 -0.3737
  537SOL     ow 2145   2.392   1.799   4.060  0.3034 -0.4582 -0.0326
  537SOL     hw 2146   2.441   1.871   4.098  0.4922 -0.5073 -0.1811
  537SOL     hw 2147   2.456   1.750   4.009 -0.3477  0.8894 -2.2946
  537SOL     vw 2148   2.407   1.802   4.058  0.2425 -0.2869 -0.3505
  538SOL     ow 2149   2.539   3.836   5.697 -0.2852 -0.1218  0.0537
  538SOL     hw 2150   2.538   3.754   5.648 -0.6880 -0.5459  0.7547
  538SOL     hw 2151   2.483   3.819   5.773  0.2839  0.5404  0.6301
  538SOL     vw 2152   2.531   3.823   5.700 -0.2633 -0.0905  0.2222
  539SOL     ow 2153   6.395   4.338   3.630  0.6163 -0.2062  0.5798
  539SOL     hw 2154   6.418   4.430   3.620 -0.0384 -0.1090 -0.0808
  539SOL     hw 2155   6.469   4.300   3.677  0.4636  0.8447  1.7203
  539SOL     vw 2156   6.408   4.345   3.635  0.5097 -0.0548  0.6429
  540SOL     ow 2157   3.288   4.796   4.958 -0.1683  0.1071 -0.3180
  540SOL     hw 2158   3.338   4.723   4.922  0.4081  1.7594 -3.1742
  540SOL     hw 2159   3.256   4.844   4.881 -0.3542  2.9697  1.3836
  540SOL     vw 2160   3.291   4.793   4.943 -0.1167  0.7029 -0.4704
  541poe    c31 2161   3.224   5.456   5.175  0.3375 -0.1032 -0.2303
  541poe     o2 2162   3.186   5.401   5.299 -0.3333  0.2178 -0.2865
  541poe    c23 2163   3.268   5.293   5.338 -0.1481  0.2794 -0.5036
  541poe    c23 2164   3.206   5.243   5.470  0.5664  0.0243 -0.2537
  541poe     o2 2165   3.209   5.348   5.564 -0.4839 -0.2185  0.0692
  541poe    c23 2166   3.153   5.300   5.684 -0.8552  0.2274  0.0739
  541poe    c23 2167   3.189   5.413   5.782  0.2554  0.0887 -0.1684
  541poe     o2 2168   3.170   5.544   5.732 -0.1863 -0.0554 -0.3766
  541poe    c23 2169   3.080   5.605   5.822  0.2899 -0.4304  0.3624
  541poe    c23 2170   3.023   5.740   5.776  0.2476 -0.5153  0.1677
  541poe     o2 2171   2.965   5.752   5.648  0.1663 -0.5651  0.1994
  541poe    c31 2172   2.901   5.877   5.633  0.2175 -0.4325  1.0680
  542poe    c31 2173   2.787   3.690   6.080 -0.8203  0.2269 -0.1725
  542poe     o2 2174   2.805   3.669   5.942 -0.0920  0.0587 -0.0518
  542poe    c23 2175   2.825   3.532   5.917 -0.6837 -0.1462  0.5935
  542poe    c23 2176   2.787   3.507   5.770 -0.7751  0.2541  0.5481
  542poe     o2 2177   2.844   3.607   5.689 -0.2273 -0.3025  0.2294
  542poe    c23 2178   2.837   3.565   5.555  0.2448  0.1233  0.0674
  542poe    c23 2179   2.898   3.674   5.465  0.5215 -0.1862 -0.1256
  542poe     o2 2180   3.011   3.717   5.538  0.0742  0.4148  0.2260
  542poe    c23 2181   3.075   3.829   5.481 -0.1214  0.1452 -0.5456
  542poe    c23 2182   3.056   3.966   5.549  0.3546  0.1836 -0.4886
  542poe     o2 2183   3.114   3.984   5.677 -0.1365  0.3534 -0.2885
  542poe    c31 2184   3.060   4.103   5.729 -0.1113  0.1008  0.3284
  543poe    c31 2185   1.902   4.480   0.860  0.1162 -0.2424 -0.2830
  543poe     o2 2186   2.003   4.384   0.877  0.3712  0.1411  0.4039
  543poe    c23 2187   1.960   4.269   0.947 -0.4014  0.4127  0.3792
  543poe    c23 2188   1.962   4.150   0.849  0.1615  0.2654  0.5661
  543poe     o2 2189   2.079   4.123   0.776  0.1159 -0.3599  0.7185
  543poe    c23 2190   2.057   4.019   0.683  0.0411  0.1319  0.1808
  543poe    c23 2191   2.173   4.031   0.582  0.0418  0.0173  0.1680
  543poe     o2 2192   2.183   4.140   0.493  0.3356 -0.2485 -0.1274
  543poe    c23 2193   2.074   4.169   0.408  0.0324 -0.5880  0.1416
  543poe    c23 2194   2.121   4.275   0.306  0.5529 -0.3616  0.6121
  543poe     o2 2195   2.221   4.348   0.374  0.2272  0.6543  0.0161
  543poe    c31 2196   2.269   4.450   0.289  0.3979  0.2692 -0.3534
  544poe    c31 2197   6.416   3.452   1.006 -0.2267 -0.2994 -0.8211
  544poe     o2 2198   6.499   3.356   1.068 -0.0126  0.4443  0.0623
  544poe    c23 2199   6.482   3.239   0.992 -0.3602  0.4055  0.1982
  544poe    c23 2200   6.584   3.138   1.048  0.0007  0.4782 -0.3167
  544poe     o2 2201   6.576   3.143   1.189 -0.0596  0.0152 -0.3036
  544poe    c23 2202   6.663   3.059   1.261 -0.1895  0.1227 -0.0203
  544poe    c23 2203   6.618   3.107   1.400  0.3674  0.1630  0.1497
  544poe     o2 2204   6.588   3.245   1.407  0.0025  0.0992 -0.0908
  544poe    c23 2205   6.536   3.300   1.526  0.0328  0.0176 -0.0393
  544poe    c23 2206   6.493   3.444   1.493 -0.1340 -0.1490 -0.5651
  544poe     o2 2207   6.426   3.434   1.370 -0.0813 -0.2296 -0.5870
  544poe    c31 2208   6.358   3.555   1.348 -0.1313 -0.0959  0.2689
  545poe    c31 2209   6.861   2.339   3.322 -0.1844 -0.1865 -0.8661
  545poe     o2 2210   6.922   2.465   3.334 -0.2995 -0.2640  0.6365
  545poe    c23 2211   6.836   2.557   3.398 -0.2813  0.0631  0.1945
  545poe    c23 2212   6.914   2.687   3.428  0.2612 -0.2039 -0.0358
  545poe     o2 2213   6.971   2.732   3.307  0.4786  0.1390  0.1917
  545poe    c23 2214   7.037   2.856   3.301  0.0768  0.3481  0.0692
  545poe    c23 2215   7.088   2.875   3.157  0.8304  0.1783  0.3102
  545poe     o2 2216   7.166   2.766   3.114 -0.3419 -0.2939 -0.6634
  545poe    c23 2217   7.289   2.799   3.052  0.3131 -0.0606  0.7358
  545poe    c23 2218   7.342   2.674   2.979 -0.0376  0.2431 -0.0447
  545poe     o2 2219   7.370   2.582   3.082 -0.2301  0.2672  0.0309
  545poe    c31 2220   7.441   2.471   3.032 -0.5180  0.1959 -0.2175
  546poe    c31 2221   6.004   0.215   2.762 -0.0790  0.4456  0.0260
  546poe     o2 2222   5.973   0.146   2.643 -0.0711  0.0551  0.2513
  546poe    c23 2223   5.934   0.228   2.536 -0.4127  0.0892  0.4022
  546poe    c23 2224   5.855   0.121   2.458  0.6909  0.1264 -0.8011
  546poe     o2 2225   5.935   0.007   2.438 -0.0599 -0.5374 -0.0599
  546poe    c23 2226   5.871  -0.071   2.340  0.3358 -1.0064  0.0506
  546poe    c23 2227   5.960  -0.196   2.324  0.6157 -0.7616 -0.3287
  546poe     o2 2228   5.930  -0.276   2.436 -0.2746  0.0955  0.0701
  546poe    c23 2229   6.033  -0.370   2.460 -0.3719  0.0434  0.2804
  546poe    c23 2230   6.003  -0.467   2.576 -1.3825  0.2296  0.1875
  546poe     o2 2231   5.986  -0.389   2.692  0.7680  0.3704  0.4559
  546poe    c31 2232   5.982  -0.483   2.797 -0.0196  0.3697  0.4313
  547poe    c31 2233   1.057   4.164   5.153 -0.0138 -0.3689 -0.0938
  547poe     o2 2234   1.032   4.252   5.260  0.2921 -0.3742 -0.0169
  547poe    c23 2235   1.145   4.335   5.280  0.2104 -0.3873  0.5025
  547poe    c23 2236   1.142   4.417   5.411  0.2086 -0.1668  0.3660
  547poe     o2 2237   1.124   4.347   5.532 -0.7396 -0.4155  0.0931
  547poe    c23 2238   1.223   4.248   5.549 -0.2069  0.1731  0.4424
  547poe    c23 2239   1.171   4.170   5.671  0.7887 -0.8183  0.2503
  547poe     o2 2240   1.031   4.159   5.660  0.6885  0.3158  0.2626
  547poe    c23 2241   0.981   4.131   5.789  0.3315 -0.9777 -0.1379
  547poe    c23 2242   0.827   4.132   5.782  0.3271 -0.4429  0.0328
  547poe     o2 2243   0.796   4.260   5.731  0.0318 -0.4550  0.1817
  547poe    c31 2244   0.684   4.321   5.790 -0.0190 -0.1801 -0.1953
  548poe    c31 2245   3.064   0.685   5.438 -0.0602  0.5128  0.7038
  548poe     o2 2246   3.144   0.635   5.543  0.7726  0.0519 -0.1278
  548poe    c23 2247   3.105   0.502   5.572 -0.2124  0.2729 -0.3888
  548poe    c23 2248   3.227   0.441   5.643 -0.4275 -0.0632 -0.3098
  548poe     o2 2249   3.273   0.522   5.749  0.1433 -0.5648 -0.1637
  548poe    c23 2250   3.187   0.538   5.859 -0.1710 -0.2078 -0.4551
  548poe    c23 2251   3.226   0.663   5.941  0.2548 -0.5300 -0.1582
  548poe     o2 2252   3.233   0.751   5.831 -0.5101 -0.1059  0.1259
  548poe    c23 2253   3.261   0.885   5.864  0.4437 -0.1804 -0.3580
  548poe    c23 2254   3.233   0.968   5.738  0.5496 -0.4400 -0.5534
  548poe     o2 2255   3.278   0.895   5.625  0.2561 -0.6558 -0.5315
  548poe    c31 2256   3.254   0.973   5.510 -0.5399  0.3407  0.2829
  549poe    c31 2257   4.711   6.858   3.736  0.5078  0.5895 -0.4106
  549poe     o2 2258   4.808   6.950   3.778  0.5804  0.3167  0.0238
  549poe    c23 2259   4.847   6.910   3.907  0.0955  0.1159  0.1079
  549poe    c23 2260   4.958   7.008   3.948 -0.0144  0.2208  0.1562
  549poe     o2 2261   5.044   7.024   3.837 -0.1663 -0.6859 -0.0991
  549poe    c23 2262   5.170   7.084   3.858 -0.6316  0.3780 -0.2751
  549poe    c23 2263   5.233   7.113   3.721 -0.3167 -0.8762 -0.4162
  549poe     o2 2264   5.123   7.179   3.661 -0.2591  0.1533  0.5703
  549poe    c23 2265   5.121   7.210   3.524  0.0648  0.0678  0.5458
  549poe    c23 2266   4.976   7.229   3.477  0.2765 -0.2570 -0.2674
  549poe     o2 2267   4.909   7.114   3.524 -0.1219 -0.0649 -0.3560
  549poe    c31 2268   4.772   7.109   3.491 -0.0774  0.2972 -0.6041
  550poe    c31 2269   4.774   4.567   0.829  0.0728 -0.1161  0.0657
  550poe     o2 2270   4.790   4.578   0.968 -0.0173 -0.2193  0.0843
  550poe    c23 2271   4.914   4.526   1.013  0.0158 -0.5720 -0.4090
  550poe    c23 2272   4.920   4.510   1.166 -0.1038 -0.9753 -0.4466
  550poe     o2 2273   4.795   4.451   1.197 -0.5147  0.1055 -0.0130
  550poe    c23 2274   4.793   4.427   1.336  0.1516  0.1731  0.0149
  550poe    c23 2275   4.662   4.354   1.370  0.0405  0.1142 -0.5339
  550poe     o2 2276   4.574   4.407   1.273 -0.4174  0.8826  0.2777
  550poe    c23 2277   4.448   4.344   1.272  0.0541 -0.0852  0.1011
  550poe    c23 2278   4.377   4.440   1.174  0.3513  0.1867  0.1510
  550poe     o2 2279   4.437   4.449   1.046  0.5755 -0.1591  0.2291
  550poe    c31 2280   4.338   4.493   0.956  0.6948  0.3105  0.3253
  551poe    c31 2281   2.848   4.842   6.376 -0.8606  0.2352  0.0451
  551poe     o2 2282   2.827   4.713   6.324 -0.0219  0.0710  0.0996
  551poe    c23 2283   2.696   4.677   6.284  0.1324 -0.3002 -0.0732
  551poe    c23 2284   2.639   4.755   6.165  0.1162 -0.5258 -0.2130
  551poe     o2 2285   2.723   4.757   6.052 -0.2127  0.3981 -0.4522
  551poe    c23 2286   2.666   4.800   5.931 -0.1315  0.2555 -0.5429
  551poe    c23 2287   2.777   4.829   5.829  0.1264  0.8377 -0.1029
  551poe     o2 2288   2.845   4.707   5.812 -0.2303  0.6582 -0.2511
  551poe    c23 2289   2.947   4.730   5.717 -0.2321  0.3934 -0.3190
  551poe    c23 2290   3.073   4.645   5.743 -0.5323  0.1295  0.2928
  551poe     o2 2291   3.106   4.660   5.879  0.3789  0.4540  0.0377
  551poe    c31 2292   3.244   4.638   5.897  0.2887  0.1415  0.3559
  552poe    c31 2293   4.206   2.676   3.932  0.0086  0.1217  0.3456
  552poe     o2 2294   4.074   2.713   3.901  0.1222  0.2217 -0.0216
  552poe    c23 2295   3.994   2.597   3.890 -0.2125  0.4021  0.4759
  552poe    c23 2296   3.887   2.621   3.782  0.0352 -0.3512  0.0596
  552poe     o2 2297   3.833   2.749   3.802  0.0687 -0.2664 -0.3667
  552poe    c23 2298   3.741   2.786   3.701  0.8350 -0.3904 -1.1150
  552poe    c23 2299   3.706   2.935   3.717  0.5716 -0.5821  0.2619
  552poe     o2 2300   3.817   3.020   3.733 -0.1136  0.2216  0.7844
  552poe    c23 2301   3.782   3.157   3.723 -0.0940  0.2298  0.8323
  552poe    c23 2302   3.891   3.231   3.643 -0.3771 -0.1605  0.0702
  552poe     o2 2303   4.020   3.217   3.698 -0.2962  0.2826  0.0006
  552poe    c31 2304   4.111   3.306   3.637  0.0052  0.1288  0.2208
  553poe    c31 2305   3.815   1.371   0.236 -0.0341 -0.1072  0.4538
  553poe     o2 2306   3.781   1.265   0.323 -0.0986 -0.6572 -0.2335
  553poe    c23 2307   3.799   1.301   0.458 -0.2768 -0.0289 -0.3731
  553poe    c23 2308   3.791   1.169   0.536  0.1576  0.2850  0.2152
  553poe     o2 2309   3.687   1.099   0.472  0.2493  0.3298  0.0158
  553poe    c23 2310   3.592   1.015   0.534  0.2014 -0.0424 -0.5543
  553poe    c23 2311   3.622   0.876   0.477  0.7792 -0.1430 -0.0092
  553poe     o2 2312   3.635   0.900   0.338  0.0460 -0.4472 -0.1336
  553poe    c23 2313   3.722   0.810   0.272  0.4419  0.2998 -0.6354
  553poe    c23 2314   3.724   0.877   0.133 -0.3022  0.2873 -0.6586
  553poe     o2 2315   3.745   1.016   0.137 -0.3503  0.2788  0.0362
  553poe    c31 2316   3.775   1.056   0.005 -0.1485 -0.0567 -0.0215
  554poe    c31 2317   1.500   5.258   0.615  0.2984  0.9427  0.4399
  554poe     o2 2318   1.366   5.303   0.611 -0.0659 -0.1681 -0.1609
  554poe    c23 2319   1.353   5.425   0.680 -0.3619 -0.5101  0.3885
  554poe    c23 2320   1.213   5.478   0.645  0.1739  0.9338  0.3633
  554poe     o2 2321   1.124   5.373   0.677 -0.0230  0.9803 -0.0233
  554poe    c23 2322   1.004   5.386   0.604 -0.0935 -0.3069 -0.1655
  554poe    c23 2323   0.972   5.241   0.566 -0.4427 -0.2093 -0.2410
  554poe     o2 2324   1.084   5.188   0.499 -0.1701  0.3765 -0.2473
  554poe    c23 2325   1.062   5.070   0.426  0.4240  0.0533  0.0856
  554poe    c23 2326   1.191   5.026   0.354  0.1785  0.1528 -0.4224
  554poe     o2 2327   1.297   5.094   0.418 -0.4682  0.4310  0.3752
  554poe    c31 2328   1.412   5.063   0.342 -0.1425  1.3700  0.4745
  555poe    c31 2329   5.177   6.191   5.318 -0.4228 -0.3323 -0.0696
  555poe     o2 2330   5.136   6.136   5.441  0.2866 -0.1202  0.2672
  555poe    c23 2331   5.111   6.241   5.532 -0.5342  0.0532 -0.1464
  555poe    c23 2332   5.083   6.162   5.661  0.0129  0.0549 -0.0220
  555poe     o2 2333   4.987   6.061   5.640  0.6839 -0.5433 -0.2473
  555poe    c23 2334   4.967   6.000   5.767  0.7484 -1.1427 -0.5202
  555poe    c23 2335   4.874   5.878   5.766 -0.2735 -0.3841  0.3466
  555poe     o2 2336   4.892   5.767   5.681  0.2321  0.3651 -0.5336
  555poe    c23 2337   4.994   5.679   5.723 -0.0861 -0.0313 -0.5953
  555poe    c23 2338   5.018   5.568   5.618  0.3221  0.0114 -0.5494
  555poe     o2 2339   5.051   5.635   5.499  0.3079 -0.3221 -0.7399
  555poe    c31 2340   5.118   5.560   5.400  0.2395 -0.1669 -0.9056
  556poe    c31 2341   2.199   0.703   4.861  0.1778  0.1748  0.4701
  556poe     o2 2342   2.108   0.733   4.964 -0.1819 -0.4282  0.3307
  556poe    c23 2343   2.084   0.871   4.958 -0.3609 -0.4875 -0.4332
  556poe    c23 2344   2.029   0.904   5.098 -0.3370 -0.2444 -0.4796
  556poe     o2 2345   1.945   0.794   5.127 -0.5127 -0.0444 -0.2287
  556poe    c23 2346   1.879   0.800   5.251  0.4181 -0.1178  0.2842
  556poe    c23 2347   1.808   0.664   5.266 -0.0765  0.1138  0.0741
  556poe     o2 2348   1.887   0.564   5.208 -0.1656  0.0818  0.0074
  556poe    c23 2349   1.971   0.487   5.291 -0.0218  0.1242 -0.0989
  556poe    c23 2350   2.068   0.395   5.213  0.5247  0.4287  0.2199
  556poe     o2 2351   2.123   0.487   5.120 -0.1509  0.2630 -0.3481
  556poe    c31 2352   2.263   0.473   5.113 -0.1107  0.1560  0.5092
  557poe    c31 2353   3.825   5.343   0.828  0.3008  0.0862  0.4874
  557poe     o2 2354   3.744   5.453   0.793  0.3070 -0.1434 -0.2583
  557poe    c23 2355   3.794   5.514   0.676 -0.3496  0.2699 -0.3278
  557poe    c23 2356   3.757   5.663   0.677 -0.1583  0.3170 -0.2953
  557poe     o2 2357   3.624   5.675   0.722  0.0265 -0.0078  0.3498
  557poe    c23 2358   3.601   5.804   0.776 -0.3842  0.0882 -0.0481
  557poe    c23 2359   3.457   5.819   0.829 -0.3086  0.3556  0.0784
  557poe     o2 2360   3.429   5.701   0.900 -0.2864  0.4361  0.2215
  557poe    c23 2361   3.315   5.709   0.982  0.1188  0.5125  0.7857
  557poe    c23 2362   3.325   5.601   1.092  1.0570 -0.5238 -0.2828
  557poe     o2 2363   3.300   5.467   1.058  0.1063 -0.4169 -0.0544
  557poe    c31 2364   3.330   5.375   1.161  0.7322 -0.0767  0.0760
  558poe    c31 2365   0.956   0.535   0.714 -0.4043  0.1807 -0.3095
  558poe     o2 2366   0.850   0.603   0.777  0.0731  0.4563  0.2035
  558poe    c23 2367   0.816   0.710   0.692 -0.1245  0.1458 -0.1104
  558poe    c23 2368   0.709   0.795   0.763 -0.1684  0.2887 -0.3474
  558poe     o2 2369   0.765   0.856   0.877  0.1130  0.3685 -0.5266
  558poe    c23 2370   0.664   0.913   0.958  0.3356  0.1311 -0.0814
  558poe    c23 2371   0.726   1.032   1.033  0.1274 -0.1065  0.4719
  558poe     o2 2372   0.827   0.973   1.111 -0.1258 -0.3852  0.5887
  558poe    c23 2373   0.912   1.059   1.185 -0.4495  0.5768 -0.1424
  558poe    c23 2374   1.018   0.970   1.252 -0.4106  0.5053 -0.2969
  558poe     o2 2375   1.055   0.879   1.151  0.2526 -0.2841  0.6391
  558poe    c31 2376   1.187   0.831   1.151  0.1861 -0.4787 -0.0128
  559poe    c31 2377   3.290   6.209   6.221  0.0165 -0.3285  0.0490
  559poe     o2 2378   3.294   6.212   6.080  0.2089 -0.0850  0.0589
  559poe    c23 2379   3.189   6.137   6.023  0.2788 -0.0156 -0.1626
  559poe    c23 2380   3.209   6.093   5.877  0.1122 -0.0323 -0.1799
  559poe     o2 2381   3.258   6.205   5.806  0.4601 -0.0586  0.0180
  559poe    c23 2382   3.169   6.240   5.703  0.4715 -0.5595 -0.1687
  559poe    c23 2383   3.228   6.363   5.631 -0.1927 -0.1072  0.0420
  559poe     o2 2384   3.368   6.347   5.637 -0.1454  0.5080  0.8320
  559poe    c23 2385   3.443   6.466   5.630  0.0786  0.3519  0.5263
  559poe    c23 2386   3.593   6.430   5.632 -0.0620 -0.2559  0.1807
  559poe     o2 2387   3.613   6.338   5.737  0.0719  0.1290  0.4958
  559poe    c31 2388   3.751   6.315   5.747  0.0978  0.0479  0.0156
  560poe    c31 2389   6.716   1.682   1.593  0.0658  0.1755 -0.2014
  560poe     o2 2390   6.816   1.780   1.578  0.1083  0.1921  0.1746
  560poe    c23 2391   6.941   1.715   1.567 -0.2440 -0.3806 -0.5112
  560poe    c23 2392   7.037   1.818   1.503 -0.0079 -0.1448  0.2172
  560poe     o2 2393   6.969   1.878   1.395 -0.1197 -0.2839  0.2090
  560poe    c23 2394   7.042   1.972   1.319 -0.4668 -0.3132 -0.1645
  560poe    c23 2395   6.957   2.022   1.201 -0.3319 -0.3974 -0.2971
  560poe     o2 2396   6.825   2.029   1.249 -0.1804  0.0186  0.0693
  560poe    c23 2397   6.743   2.111   1.169 -0.1206 -0.2295 -0.2489
  560poe    c23 2398   6.595   2.125   1.211 -0.1880 -0.4084 -0.4219
  560poe     o2 2399   6.604   2.187   1.337 -0.1248 -0.2885 -0.4851
  560poe    c31 2400   6.502   2.282   1.358 -0.0671 -0.2708 -0.2815
  561poe    c31 2401   0.651   6.758   1.430 -0.3572  1.0669  0.4810
  561poe     o2 2402   0.739   6.720   1.534 -0.2576 -0.3604 -0.0945
  561poe    c23 2403   0.815   6.612   1.486 -0.1870 -0.0936 -0.5922
  561poe    c23 2404   0.941   6.590   1.571 -0.5079  0.1658 -0.0393
  561poe     o2 2405   0.899   6.616   1.703 -0.3521  0.4410 -0.0432
  561poe    c23 2406   1.002   6.605   1.798 -0.4756 -0.4522 -0.0088
  561poe    c23 2407   0.937   6.651   1.930  0.0567 -0.0896  0.1309
  561poe     o2 2408   0.862   6.763   1.890 -0.0385 -0.3006 -0.2862
  561poe    c23 2409   0.760   6.801   1.980  0.1002  0.5161 -0.4736
  561poe    c23 2410   0.632   6.758   1.905 -0.5896  0.8382  0.5043
  561poe     o2 2411   0.621   6.805   1.773  0.2070  0.3220  0.2462
  561poe    c31 2412   0.484   6.807   1.738  0.2642  0.5517  0.0319
  562poe    c31 2413   2.888   6.253   1.283 -0.0907  0.1298  0.1339
  562poe     o2 2414   2.824   6.137   1.333 -0.1615  0.0553 -0.1310
  562poe    c23 2415   2.899   6.088   1.442 -0.2803  0.5345  0.1674
  562poe    c23 2416   2.894   5.935   1.427 -0.3638  0.5973 -0.4885
  562poe     o2 2417   2.759   5.903   1.399 -0.1713 -0.4791 -0.2377
  562poe    c23 2418   2.721   5.773   1.437  0.1779 -0.4355  0.2661
  562poe    c23 2419   2.579   5.743   1.386  0.0531  0.1880  0.2383
  562poe     o2 2420   2.495   5.846   1.434 -0.3274  0.1551 -0.3439
  562poe    c23 2421   2.364   5.794   1.432 -0.3195  0.0580  0.7151
  562poe    c23 2422   2.267   5.903   1.480 -0.7139 -0.3415  0.8332
  562poe     o2 2423   2.302   6.032   1.435 -0.2991 -1.0064 -0.8114
  562poe    c31 2424   2.181   6.097   1.401  0.1334 -0.1536 -0.7351
  563poe    c31 2425   4.070   5.767   3.006 -0.6916 -0.3534  0.3072
  563poe     o2 2426   3.967   5.813   2.921 -0.1880  0.5554  0.1728
  563poe    c23 2427   3.897   5.702   2.868  0.2233  0.3708  0.0100
  563poe    c23 2428   3.760   5.758   2.828 -0.1684 -0.5125  0.1021
  563poe     o2 2429   3.783   5.872   2.749 -0.0807 -0.0247  0.8187
  563poe    c23 2430   3.659   5.925   2.707  0.3686  0.5860  0.2303
  563poe    c23 2431   3.676   6.048   2.617 -0.7311  0.3598 -0.3003
  563poe     o2 2432   3.753   6.149   2.679 -0.3628 -0.1997  0.1554
  563poe    c23 2433   3.739   6.273   2.614  0.2398 -0.0371  0.3317
  563poe    c23 2434   3.803   6.391   2.689  0.2630  0.2307 -0.1089
  563poe     o2 2435   3.736   6.449   2.799  0.3826  0.0087  0.0812
  563poe    c31 2436   3.745   6.370   2.915  0.0123  0.0796  0.1591
  564poe    c31 2437   6.250   1.744   5.800  0.5452 -0.3907 -0.3377
  564poe     o2 2438   6.361   1.831   5.798  0.2220  0.0412  0.1857
  564poe    c23 2439   6.459   1.768   5.877 -0.0462  0.2139  0.6586
  564poe    c23 2440   6.599   1.828   5.852  0.1041 -0.1698  0.5674
  564poe     o2 2441   6.568   1.966   5.847  0.5431 -0.0683  0.6207
  564poe    c23 2442   6.678   2.032   5.788 -0.3421  0.8367 -0.0473
  564poe    c23 2443   6.623   2.175   5.771 -0.2778  0.8434 -0.1947
  564poe     o2 2444   6.499   2.168   5.705 -0.2375 -0.1585 -0.1671
  564poe    c23 2445   6.499   2.168   5.564  0.1021 -0.3277 -0.1686
  564poe    c23 2446   6.361   2.129   5.508 -0.0858  0.2278 -0.0990
  564poe     o2 2447   6.340   2.002   5.566  0.0090  0.3872  0.2898
  564poe    c31 2448   6.241   1.933   5.493  0.1405  0.1190  0.3651
  565poe    c31 2449   1.703   5.227   1.140 -0.3329  0.1396  0.0784
  565poe     o2 2450   1.805   5.190   1.049 -0.3039 -0.2666  0.2738
  565poe    c23 2451   1.793   5.234   0.916  0.4381 -0.7876  0.0265
  565poe    c23 2452   1.927   5.223   0.841  0.6198  0.3895  0.1508
  565poe     o2 2453   1.998   5.112   0.891  0.2644  0.1579  0.1453
  565poe    c23 2454   2.115   5.090   0.815  0.4059 -0.0710  0.4249
  565poe    c23 2455   2.175   4.961   0.874  0.5205 -0.0805  0.2853
  565poe     o2 2456   2.187   4.978   1.013  0.2568 -0.2230  0.3251
  565poe    c23 2457   2.164   4.857   1.083 -0.0064 -0.3214  0.0756
  565poe    c23 2458   2.083   4.890   1.210  0.6327  0.9042  0.1851
  565poe     o2 2459   1.954   4.932   1.169  0.3208 -0.4619 -0.2814
  565poe    c31 2460   1.874   4.946   1.284  0.1334 -0.9934 -0.3455
  566poe    c31 2461   5.285   3.973   5.171  0.2699  0.4796  0.2434
  566poe     o2 2462   5.171   3.890   5.163  0.3780  0.3545 -0.0244
  566poe    c23 2463   5.054   3.954   5.118  0.2050 -0.0875 -0.2082
  566poe    c23 2464   4.935   3.856   5.125  0.6356 -0.5435  0.9467
  566poe     o2 2465   4.984   3.737   5.068 -0.3150 -0.3911 -0.2336
  566poe    c23 2466   4.910   3.618   5.083 -0.2056 -0.4470 -0.1233
  566poe    c23 2467   4.984   3.509   5.003 -0.1249  0.0661 -0.7635
  566poe     o2 2468   5.105   3.504   5.076 -0.3767  0.0464 -0.3472
  566poe    c23 2469   5.170   3.380   5.080 -0.1118  0.2001  0.2730
  566poe    c23 2470   5.324   3.390   5.082 -0.0999  0.3192 -0.7814
  566poe     o2 2471   5.354   3.426   5.215  0.1504  0.7493 -0.9541
  566poe    c31 2472   5.464   3.352   5.264 -0.1468  0.8085 -0.1982
  567poe    c31 2473   5.513   3.814   1.427 -0.0761 -0.0149 -0.3244
  567poe     o2 2474   5.440   3.900   1.511 -0.1082 -0.7121  0.3628
  567poe    c23 2475   5.502   3.922   1.636  0.1440  0.1489  0.0913
  567poe    c23 2476   5.433   4.048   1.691 -0.4521 -0.1636  0.0676
  567poe     o2 2477   5.299   4.052   1.648 -0.6059 -0.0558  0.5575
  567poe    c23 2478   5.244   4.176   1.687 -0.4365  0.2576 -0.1853
  567poe    c23 2479   5.091   4.168   1.691 -0.4445  0.4541 -0.0959
  567poe     o2 2480   5.059   4.099   1.572 -0.3117 -0.8793  0.6284
  567poe    c23 2481   4.920   4.100   1.549 -0.1688 -0.1131 -0.2459
  567poe    c23 2482   4.883   4.060   1.405 -0.2025 -0.2660 -0.1954
  567poe     o2 2483   4.934   3.944   1.344  0.6141 -0.0647  0.0850
  567poe    c31 2484   4.852   3.902   1.236  0.1713  0.2649  0.2898
  568poe    c31 2485   2.319   1.123   3.793  0.0746  0.4058  0.2383
  568poe     o2 2486   2.416   1.040   3.734 -0.1012  0.2012  0.2336
  568poe    c23 2487   2.518   1.110   3.666 -0.1895  0.5182  0.4242
  568poe    c23 2488   2.637   1.013   3.649 -0.3487  0.2410  0.8927
  568poe     o2 2489   2.598   0.884   3.608  0.4496  0.3552 -0.2449
  568poe    c23 2490   2.695   0.791   3.564 -0.3172 -0.7446  0.3338
  568poe    c23 2491   2.621   0.658   3.540 -0.0117 -0.9007  0.2520
  568poe     o2 2492   2.557   0.618   3.659 -0.3977 -0.4649  0.1930
  568poe    c23 2493   2.488   0.496   3.665 -0.1569 -0.6083  0.0423
  568poe    c23 2494   2.506   0.447   3.810  0.1483  0.1018  0.2496
  568poe     o2 2495   2.449   0.535   3.904  0.2550  0.3607  0.0730
  568poe    c31 2496   2.467   0.470   4.028 -0.2631  0.4548  0.1986
  569poe    c31 2497   0.754   6.376   3.276  0.4691  0.2683 -0.0689
  569poe     o2 2498   0.728   6.248   3.328  0.1262  0.2334 -0.3231
  569poe    c23 2499   0.787   6.239   3.456 -0.3326 -0.4851 -0.1585
  569poe    c23 2500   0.721   6.117   3.524 -0.8473 -0.3824 -0.4651
  569poe     o2 2501   0.711   6.007   3.437  0.5926 -0.5667 -0.4219
  569poe    c23 2502   0.621   5.907   3.478 -0.0806  0.2820  0.1914
  569poe    c23 2503   0.587   5.832   3.348 -0.0228  0.0653  0.3013
  569poe     o2 2504   0.589   5.931   3.248  0.5139 -0.0352  0.2095
  569poe    c23 2505   0.571   5.865   3.125 -0.4204  0.5256  0.0362
  569poe    c23 2506   0.561   5.973   3.015 -0.1438  0.5839  0.0674
  569poe     o2 2507   0.644   6.081   3.053 -0.3351  0.4280  0.9385
  569poe    c31 2508   0.660   6.170   2.946 -0.0819 -0.5693  0.1304
  570poe    c31 2509   3.867   6.839   6.030 -0.5988  0.1010  0.3293
  570poe     o2 2510   3.746   6.901   5.991 -0.3219  0.2268 -0.3515
  570poe    c23 2511   3.756   7.029   6.050  0.1450  0.0004  0.0779
  570poe    c23 2512   3.648   7.118   5.984  0.1617 -0.1301 -0.1266
  570poe     o2 2513   3.538   7.032   5.966  0.0158  0.0594 -0.1420
  570poe    c23 2514   3.434   7.097   5.895  0.7171  0.3511 -0.9240
  570poe    c23 2515   3.322   7.001   5.852  0.2916  0.1572  0.5452
  570poe     o2 2516   3.394   6.896   5.790 -0.2676 -0.1635  0.4359
  570poe    c23 2517   3.315   6.798   5.726 -0.9969  0.4411  0.3888
  570poe    c23 2518   3.239   6.716   5.833 -0.9851 -0.1765 -0.0684
  570poe     o2 2519   3.320   6.660   5.934 -0.3363 -0.0721 -0.5240
  570poe    c31 2520   3.247   6.608   6.043  0.2726 -0.0038 -0.0849
  571poe    c31 2521   3.699   1.013   2.872  0.0386 -0.1647  0.1598
  571poe     o2 2522   3.832   0.985   2.835  0.1332  0.4392  0.0218
  571poe    c23 2523   3.879   0.906   2.942  0.3909  0.7241  0.1177
  571poe    c23 2524   4.005   0.837   2.886  0.0041  0.1425 -0.0380
  571poe     o2 2525   4.043   0.920   2.779 -0.1444 -0.1718 -0.3356
  571poe    c23 2526   4.183   0.926   2.776 -0.1263 -0.7101 -0.6896
  571poe    c23 2527   4.207   1.008   2.647 -0.0917 -0.4825 -0.5387
  571poe     o2 2528   4.115   1.115   2.660  0.0597 -0.3520 -0.5455
  571poe    c23 2529   4.106   1.219   2.565 -0.6139  0.1679  0.0783
  571poe    c23 2530   3.981   1.294   2.615 -0.6036  0.3276 -0.1385
  571poe     o2 2531   3.875   1.201   2.623 -0.1117 -0.2094  0.1680
  571poe    c31 2532   3.751   1.268   2.633  0.0785  0.1485  0.1502
  572poe    c31 2533   4.105   4.413   5.046 -0.2934 -0.1756 -0.3420
  572poe     o2 2534   3.988   4.391   4.971 -0.2273  0.0019 -0.4954
  572poe    c23 2535   3.980   4.458   4.847 -0.7103  0.0710 -0.4301
  572poe    c23 2536   4.042   4.370   4.737  0.0095 -0.3604  0.3068
  572poe     o2 2537   3.976   4.247   4.717  0.4252 -0.5566  0.1279
  572poe    c23 2538   4.030   4.158   4.622  0.0818 -0.3691 -0.2473
  572poe    c23 2539   3.963   4.019   4.610  0.0559 -0.3331 -0.5211
  572poe     o2 2540   3.981   3.942   4.726 -0.6196  0.0388 -0.1685
  572poe    c23 2541   3.960   3.805   4.701 -0.6096  0.0163 -0.0543
  572poe    c23 2542   3.937   3.739   4.839  0.0662  0.2220  0.1604
  572poe     o2 2543   3.902   3.832   4.939 -0.1367 -0.0745  0.3661
  572poe    c31 2544   3.884   3.753   5.054 -0.1305  0.1009  0.4886
  573poe    c31 2545   4.885   4.810   1.504  0.1855 -0.1871  1.2410
  573poe     o2 2546   4.965   4.924   1.483  0.3343 -0.5555 -0.3010
  573poe    c23 2547   4.880   5.016   1.418 -0.3690 -0.6314  0.4941
  573poe    c23 2548   4.935   5.158   1.436 -0.4350 -0.5249 -0.1071
  573poe     o2 2549   4.956   5.214   1.564  0.0614 -0.0806 -0.3761
  573poe    c23 2550   4.850   5.235   1.654 -0.0293 -0.8037 -0.3077
  573poe    c23 2551   4.888   5.302   1.788 -0.0788 -0.7570 -0.3170
  573poe     o2 2552   4.969   5.219   1.868 -0.0348 -0.2740  0.1480
  573poe    c23 2553   4.974   5.245   2.006  0.4471 -0.1703  0.1119
  573poe    c23 2554   5.072   5.163   2.092  0.5410 -0.0721  0.0989
  573poe     o2 2555   5.059   5.024   2.069  0.2882  0.0072 -0.2502
  573poe    c31 2556   5.136   4.934   2.145 -0.2908 -0.1572  0.1555
  574poe    c31 2557   5.546   0.903   2.261 -0.0450  0.3516 -0.3168
  574poe     o2 2558   5.458   0.891   2.370  0.2492  0.3495 -0.0758
  574poe    c23 2559   5.326   0.854   2.336  0.0348  0.0958  0.9926
  574poe    c23 2560   5.248   0.843   2.468 -0.2863 -0.5544  0.7572
  574poe     o2 2561   5.291   0.743   2.558  0.2785 -0.5013  0.5539
  574poe    c23 2562   5.243   0.763   2.689  0.3081  0.0735  0.4826
  574poe    c23 2563   5.237   0.627   2.762 -0.2359  0.0093  0.3225
  574poe     o2 2564   5.357   0.555   2.742 -0.0709  0.3427  0.0908
  574poe    c23 2565   5.335   0.429   2.801 -0.3899  0.2858 -0.1451
  574poe    c23 2566   5.464   0.361   2.852 -0.1302  0.7236 -0.2160
  574poe     o2 2567   5.563   0.329   2.757  0.2859 -0.2506  0.5267
  574poe    c31 2568   5.648   0.432   2.714 -0.1811  0.1259  0.4967
  575poe    c31 2569   4.775   0.305   0.245  0.5249 -0.3093 -0.5009
  575poe     o2 2570   4.774   0.203   0.342 -0.4625  0.1210 -0.0515
  575poe    c23 2571   4.661   0.121   0.362 -0.2281 -0.1898 -0.0012
  575poe    c23 2572   4.568   0.172   0.473 -0.3599 -0.4106 -0.0103
  575poe     o2 2573   4.634   0.164   0.598 -0.2187 -0.0816 -0.0625
  575poe    c23 2574   4.554   0.209   0.705  0.1511  0.3290  0.0426
  575poe    c23 2575   4.633   0.194   0.836 -0.2502 -0.0840  0.2383
  575poe     o2 2576   4.769   0.224   0.816 -0.2912 -0.1910 -0.2109
  575poe    c23 2577   4.844   0.186   0.929 -0.0812  0.4581 -0.1263
  575poe    c23 2578   4.981   0.255   0.912  0.1337  0.1391  0.2699
  575poe     o2 2579   5.050   0.227   0.792 -0.3767 -0.1757  0.0414
  575poe    c31 2580   5.187   0.261   0.795 -0.4387  0.0483  0.4252
  576poe    c31 2581   4.897   2.053   3.411 -0.0601 -0.0964 -1.1198
  576poe     o2 2582   4.770   2.092   3.459  0.3865  0.3487 -0.2730
  576poe    c23 2583   4.742   2.006   3.567  0.1276  0.4760 -0.2395
  576poe    c23 2584   4.620   2.077   3.629 -0.1143  0.1786 -0.3749
  576poe     o2 2585   4.532   2.117   3.527 -0.5877  0.1508  0.0161
  576poe    c23 2586   4.413   2.176   3.575 -0.9423 -0.4450 -0.1127
  576poe    c23 2587   4.372   2.274   3.463 -0.1158  0.4625  0.3593
  576poe     o2 2588   4.498   2.320   3.418  0.2398 -0.4581  0.3839
  576poe    c23 2589   4.512   2.454   3.375  0.4918 -0.7559 -0.4821
  576poe    c23 2590   4.658   2.501   3.364  0.2363  0.1602  0.0008
  576poe     o2 2591   4.723   2.376   3.363  0.0329  0.0418  0.7230
  576poe    c31 2592   4.860   2.405   3.348 -0.0385  0.1895  0.3326
  577poe    c31 2593   1.145   3.837   5.484 -0.1440  0.1683  0.9760
  577poe     o2 2594   1.127   3.698   5.500  0.1274 -0.0432 -0.4257
  577poe    c23 2595   1.150   3.629   5.379 -0.8730 -0.2117 -0.5276
  577poe    c23 2596   1.147   3.479   5.413 -0.1929 -0.0471  0.3009
  577poe     o2 2597   1.224   3.455   5.529  0.9165 -0.0646 -0.4187
  577poe    c23 2598   1.219   3.330   5.593 -0.0020  0.0227 -0.3045
  577poe    c23 2599   1.341   3.305   5.684 -0.5285 -0.9316  0.1568
  577poe     o2 2600   1.338   3.400   5.787  0.0569 -0.2456 -0.4466
  577poe    c23 2601   1.447   3.409   5.876  0.0498 -0.1099 -0.4524
  577poe    c23 2602   1.463   3.534   5.966  1.0267 -0.1976 -0.4897
  577poe     o2 2603   1.508   3.647   5.895  0.3715  0.5189  0.2184
  577poe    c31 2604   1.499   3.752   5.989  0.4466  0.5589  0.1805
  578poe    c31 2605   6.280   5.829   3.754  0.2611 -0.0457 -0.1434
  578poe     o2 2606   6.220   5.950   3.794 -0.1239 -0.2563 -0.0848
  578poe    c23 2607   6.204   5.960   3.934 -0.5432 -0.2757 -0.1297
  578poe    c23 2608   6.176   6.107   3.970 -0.1740 -0.1695 -0.2747
  578poe     o2 2609   6.103   6.156   3.859 -0.0521  0.1598 -0.2111
  578poe    c23 2610   6.059   6.287   3.887  0.5562  0.4469 -0.5895
  578poe    c23 2611   6.052   6.346   3.745  0.0079  0.1970 -0.6676
  578poe     o2 2612   6.157   6.297   3.663  0.2076 -0.7107  0.1179
  578poe    c23 2613   6.168   6.367   3.542 -0.3235 -0.0210  0.4611
  578poe    c23 2614   6.318   6.376   3.507 -0.2554 -0.1372  0.7230
  578poe     o2 2615   6.379   6.250   3.493  0.2506  0.0908  0.8362
  578poe    c31 2616   6.518   6.270   3.488  0.2396  0.2501  1.1732
  579poe    c31 2617   4.400   2.321   1.136  0.5038 -0.1051  0.3467
  579poe     o2 2618   4.336   2.314   1.261 -0.2144  0.4531  0.0141
  579poe    c23 2619   4.195   2.318   1.258 -0.2196  0.0229 -0.3529
  579poe    c23 2620   4.140   2.317   1.402 -0.2219  0.3634 -0.3496
  579poe     o2 2621   4.229   2.227   1.465 -0.4229  0.2362 -0.2453
  579poe    c23 2622   4.187   2.173   1.588  0.5390 -0.0475 -0.0379
  579poe    c23 2623   4.292   2.061   1.600  0.5778  0.0686  0.7792
  579poe     o2 2624   4.418   2.104   1.554  0.4940 -0.2677  0.2311
  579poe    c23 2625   4.489   1.999   1.492  0.0418 -0.4589  0.0305
  579poe    c23 2626   4.613   2.058   1.424 -0.2279  0.1746  0.0761
  579poe     o2 2627   4.578   2.160   1.333 -0.4270  0.1535  0.1286
  579poe    c31 2628   4.695   2.226   1.289 -0.4779  0.4177  0.3771
  580poe    c31 2629   3.706   3.810   6.460  0.0543 -0.0114 -0.7252
  580poe     o2 2630   3.832   3.764   6.415 -0.1850 -0.3744 -1.0312
  580poe    c23 2631   3.933   3.861   6.421 -0.4574 -0.1472  0.1647
  580poe    c23 2632   4.069   3.788   6.420 -0.3058  0.1337  0.1491
  580poe     o2 2633   4.073   3.682   6.328 -0.3821  0.5097 -0.2906
  580poe    c23 2634   4.188   3.599   6.328 -0.2017  0.7565 -0.4269
  580poe    c23 2635   4.155   3.451   6.300 -0.0718  0.6017  0.2233
  580poe     o2 2636   4.062   3.441   6.194  0.2525 -0.0542 -0.0012
  580poe    c23 2637   4.065   3.308   6.146 -0.6373 -0.1941  0.3008
  580poe    c23 2638   3.966   3.299   6.029 -0.2502 -0.2095 -0.0278
  580poe     o2 2639   3.827   3.310   6.052 -0.3027  0.7434 -0.7424
  580poe    c31 2640   3.771   3.181   6.052 -0.3365  0.7565 -0.2416
  581poe    c31 2641   2.919   5.944   3.155 -0.2377  0.0442 -0.2901
  581poe     o2 2642   2.841   5.877   3.059 -0.3649 -1.0910  0.5848
  581poe    c23 2643   2.705   5.906   3.082 -0.1617  0.4213 -0.0025
  581poe    c23 2644   2.632   5.845   2.960  0.5370 -1.2390  0.3686
  581poe     o2 2645   2.719   5.850   2.850  0.3136  0.2017  0.2270
  581poe    c23 2646   2.645   5.816   2.734  0.0838  0.5941  0.2581
  581poe    c23 2647   2.711   5.867   2.605 -0.1430 -0.2198 -0.1893
  581poe     o2 2648   2.851   5.849   2.604 -0.0663  0.3261  0.3645
  581poe    c23 2649   2.898   5.943   2.510 -0.4761 -0.2221 -0.3934
  581poe    c23 2650   3.049   5.975   2.507 -0.4842 -0.1780 -0.3128
  581poe     o2 2651   3.087   6.032   2.631 -0.0994 -0.7440 -0.1652
  581poe    c31 2652   3.228   6.037   2.631 -0.0947 -0.8530 -0.5598
  582poe    c31 2653   1.483   5.510   4.396 -0.2883 -0.8079  0.1844
  582poe     o2 2654   1.525   5.427   4.502  0.0787 -0.9744 -0.0885
  582poe    c23 2655   1.453   5.470   4.615 -0.2968  0.1944 -0.7531
  582poe    c23 2656   1.479   5.370   4.729  0.5133 -0.2066 -1.2812
  582poe     o2 2657   1.610   5.320   4.717  0.5111 -0.5139 -0.1944
  582poe    c23 2658   1.637   5.228   4.821  0.0882 -0.3151  0.0890
  582poe    c23 2659   1.780   5.175   4.806  0.1512 -0.1241  0.0115
  582poe     o2 2660   1.790   5.150   4.667 -0.0770  0.2456 -0.0712
  582poe    c23 2661   1.924   5.133   4.627 -0.2940 -0.5632 -0.4729
  582poe    c23 2662   1.923   5.164   4.476  0.2386 -0.2418 -0.4142
  582poe     o2 2663   1.836   5.275   4.469  0.2099 -0.2652 -0.4292
  582poe    c31 2664   1.824   5.339   4.344 -0.1506 -0.3024 -0.4147
  583poe    c31 2665   6.123   5.981   5.615  0.6682 -0.4137 -0.1925
  583poe     o2 2666   6.045   5.865   5.600 -0.3173  0.2008  0.1205
  583poe    c23 2667   6.021   5.840   5.464  0.6026 -0.2631  0.0375
  583poe    c23 2668   5.948   5.707   5.439  0.1735  0.0012 -0.1349
  583poe     o2 2669   5.808   5.711   5.457  0.1441  0.3817 -0.4412
  583poe    c23 2670   5.785   5.593   5.530 -0.0320  0.5607 -0.2058
  583poe    c23 2671   5.659   5.631   5.610  0.2018  0.2856  0.2985
  583poe     o2 2672   5.576   5.677   5.506 -0.0446 -0.2339  0.2633
  583poe    c23 2673   5.449   5.708   5.558  0.0170 -0.1200  0.3468
  583poe    c23 2674   5.386   5.800   5.452  0.0495 -0.0655  0.3757
  583poe     o2 2675   5.475   5.871   5.368 -0.1526 -0.3666 -0.0966
  583poe    c31 2676   5.408   5.943   5.267  0.0025  0.5094  0.4208
  584poe    c31 2677   2.358   4.726   0.656  0.5940  0.0729  0.0805
  584poe     o2 2678   2.365   4.704   0.796  0.3761  0.3038  0.1288
  584poe    c23 2679   2.366   4.565   0.815  0.4678  0.2619 -0.1722
  584poe    c23 2680   2.364   4.514   0.961  0.3737  0.0708 -0.2388
  584poe     o2 2681   2.476   4.568   1.028 -0.2955  0.4852  0.5666
  584poe    c23 2682   2.456   4.552   1.167 -0.0734  0.0999  0.5561
  584poe    c23 2683   2.590   4.570   1.241  0.3562 -0.0814 -0.1578
  584poe     o2 2684   2.652   4.688   1.196  0.5606 -0.0984  0.0782
  584poe    c23 2685   2.743   4.746   1.287  0.2899 -0.1237  0.3637
  584poe    c23 2686   2.784   4.876   1.217 -0.0063 -0.0798  0.2704
  584poe     o2 2687   2.776   4.844   1.080 -0.3333  0.1724  0.2269
  584poe    c31 2688   2.859   4.926   1.002 -0.5591 -0.2263 -0.4441
  585poe    c31 2689   4.637   3.401   4.514  0.8270  0.5234 -0.2104
  585poe     o2 2690   4.538   3.442   4.422  0.4705  0.5171  0.1668
  585poe    c23 2691   4.511   3.580   4.432  0.0001  0.4110  0.3661
  585poe    c23 2692   4.375   3.603   4.363 -0.2191 -0.7460  0.3838
  585poe     o2 2693   4.375   3.535   4.240  0.1352 -0.0194 -0.0290
  585poe    c23 2694   4.248   3.540   4.179  0.0314  0.5310  0.2327
  585poe    c23 2695   4.262   3.459   4.049  0.0789 -0.1172  0.6378
  585poe     o2 2696   4.333   3.344   4.088  0.4232 -0.1347 -0.0207
  585poe    c23 2697   4.315   3.242   3.992  0.1954  0.2597 -0.4018
  585poe    c23 2698   4.417   3.129   4.012  0.1234  0.2813  0.1100
  585poe     o2 2699   4.407   3.065   4.137 -0.5991  0.1059 -0.0360
  585poe    c31 2700   4.300   2.974   4.153 -0.3674 -0.1773 -0.0942
  586poe    c31 2701   4.395   6.833   4.293 -0.5644 -0.2033  0.2653
  586poe     o2 2702   4.369   6.905   4.411  0.6014  0.0987  0.3495
  586poe    c23 2703   4.317   6.820   4.511  0.6400 -0.6551 -0.2589
  586poe    c23 2704   4.339   6.884   4.650  0.2721 -0.1575 -0.4292
  586poe     o2 2705   4.284   7.010   4.617  0.0959 -0.1914 -0.2676
  586poe    c23 2706   4.273   7.105   4.721  0.4050 -0.1301 -0.2881
  586poe    c23 2707   4.200   7.232   4.675 -0.7005 -0.8688 -0.6324
  586poe     o2 2708   4.271   7.285   4.565  0.1101 -0.4986  0.0556
  586poe    c23 2709   4.235   7.415   4.526 -0.3078 -0.8760 -0.8376
  586poe    c23 2710   4.263   7.455   4.379 -0.0118  0.0293 -0.5438
  586poe     o2 2711   4.401   7.464   4.356  0.1231  0.1790  0.2852
  586poe    c31 2712   4.441   7.542   4.245  0.0452 -0.6917 -0.3671
  587poe    c31 2713   0.833   5.511   5.064 -0.3281 -0.3696  0.4879
  587poe     o2 2714   0.965   5.479   5.100 -0.4001 -0.7733  0.3904
  587poe    c23 2715   0.982   5.432   5.232 -0.0507 -0.1202  0.5830
  587poe    c23 2716   1.128   5.402   5.270 -0.0038 -0.5607  0.0771
  587poe     o2 2717   1.163   5.283   5.204 -0.0424 -0.3365 -0.3475
  587poe    c23 2718   1.284   5.234   5.256  0.1543  0.4328 -0.0639
  587poe    c23 2719   1.322   5.102   5.185 -0.1993  0.0882  0.3746
  587poe     o2 2720   1.306   5.116   5.046 -0.2275 -0.0201  0.3672
  587poe    c23 2721   1.378   5.011   4.986 -0.1396  0.2271  0.0386
  587poe    c23 2722   1.336   5.035   4.839  0.8991  0.1562 -0.2806
  587poe     o2 2723   1.196   5.051   4.839  0.8425 -0.3073 -1.0390
  587poe    c31 2724   1.147   5.040   4.707 -0.3776  0.0742 -0.6302
  588poe    c31 2725   4.985   6.067   4.597 -0.4282 -0.1743  0.2209
  588poe     o2 2726   4.882   6.105   4.509 -0.0981  0.1131 -0.0459
  588poe    c23 2727   4.896   6.242   4.478 -0.3208  0.1105 -0.1629
  588poe    c23 2728   4.796   6.269   4.364  0.1652 -0.0570 -0.6328
  588poe     o2 2729   4.680   6.201   4.408  0.2814  0.2229  0.1225
  588poe    c23 2730   4.577   6.210   4.312  0.0625  0.9578  0.4155
  588poe    c23 2731   4.455   6.140   4.374  0.7656 -0.2584  0.4669
  588poe     o2 2732   4.478   6.009   4.419  0.3563 -0.1776  0.9315
  588poe    c23 2733   4.359   5.946   4.459  0.1387 -0.1105  0.4017
  588poe    c23 2734   4.373   5.817   4.543  0.1484 -0.0049  0.5621
  588poe     o2 2735   4.434   5.854   4.665  0.8036  0.1823  0.1837
  588poe    c31 2736   4.440   5.751   4.761 -0.2316 -0.0701 -0.0123
  589poe    c31 2737   0.064   5.256   6.634  0.0607 -0.2420  0.9325
  589poe     o2 2738  -0.045   5.281   6.549  0.3639  0.0751  0.6354
  589poe    c23 2739  -0.112   5.402   6.576  0.0953  0.1161 -0.1791
  589poe    c23 2740  -0.255   5.402   6.517 -0.1808 -0.1956  0.4769
  589poe     o2 2741  -0.224   5.384   6.381 -0.4223  0.1688  0.3735
  589poe    c23 2742  -0.343   5.344   6.317 -0.2139 -0.1284  0.1713
  589poe    c23 2743  -0.296   5.234   6.220  0.0699  0.0643  0.0881
  589poe     o2 2744  -0.208   5.161   6.302 -0.0760 -0.3145 -0.0882
  589poe    c23 2745  -0.170   5.047   6.228 -0.4113 -0.3823 -0.1561
  589poe    c23 2746  -0.043   4.991   6.293 -0.1550  0.8598  0.4429
  589poe     o2 2747   0.040   5.104   6.309 -0.1266  0.9065 -0.0055
  589poe    c31 2748   0.169   5.077   6.260 -0.3216  0.1563 -0.1074
  590poe    c31 2749   5.802   0.498   6.348  0.1918 -0.2997 -0.4140
  590poe     o2 2750   5.688   0.421   6.321  0.2404 -0.4563 -0.1802
  590poe    c23 2751   5.618   0.396   6.441  0.3778  0.2054  0.0409
  590poe    c23 2752   5.550   0.266   6.395  0.1012  0.4493 -0.2515
  590poe     o2 2753   5.471   0.280   6.280 -0.4994 -0.1348  0.0821
  590poe    c23 2754   5.437   0.159   6.217  0.5850 -0.5882  0.3560
  590poe    c23 2755   5.539   0.127   6.106 -0.0602  0.1921 -0.4691
  590poe     o2 2756   5.594   0.253   6.075  0.3833  0.1622  0.1819
  590poe    c23 2757   5.713   0.246   6.001  0.5663  0.6914  0.4187
  590poe    c23 2758   5.731   0.380   5.928  0.6438  0.0288 -0.8240
  590poe     o2 2759   5.736   0.479   6.029 -0.3259 -0.1615 -0.5838
  590poe    c31 2760   5.763   0.603   5.968 -0.0533 -0.2484 -0.6380
  591poe    c31 2761   0.245   5.526   1.433 -0.5558  0.5996 -0.5252
  591poe     o2 2762   0.319   5.603   1.341  0.4015  0.6228  0.2424
  591poe    c23 2763   0.236   5.701   1.282 -0.1241 -0.2560 -0.5171
  591poe    c23 2764   0.332   5.762   1.179  0.4807 -0.0332  0.1669
  591poe     o2 2765   0.449   5.825   1.227  0.4576 -0.1065  0.3172
  591poe    c23 2766   0.555   5.845   1.136 -0.0209  0.5477 -0.1024
  591poe    c23 2767   0.692   5.878   1.198 -0.1032  0.9650 -0.1372
  591poe     o2 2768   0.770   5.776   1.255 -0.2053  0.9102 -0.0944
  591poe    c23 2769   0.890   5.830   1.306  0.0467  0.1671  0.1287
  591poe    c23 2770   0.889   5.852   1.458  0.4930  0.2244  0.1236
  591poe     o2 2771   0.781   5.934   1.498  0.2514  0.0825 -0.2323
  591poe    c31 2772   0.793   5.964   1.636  0.3778 -0.1748 -0.1847
  592poe    c31 2773   2.992   2.505   1.164 -0.4383 -0.3522 -0.2219
  592poe     o2 2774   2.940   2.417   1.261  0.1115 -0.2769  0.1491
  592poe    c23 2775   2.991   2.440   1.390 -0.1128 -0.2378  0.2313
  592poe    c23 2776   2.931   2.338   1.490 -0.1889 -0.1929  0.2315
  592poe     o2 2777   2.792   2.342   1.472 -0.1440 -0.0179 -0.1037
  592poe    c23 2778   2.731   2.250   1.560  0.1137 -0.1970 -0.1115
  592poe    c23 2779   2.756   2.099   1.537  0.1838 -0.2223  0.1276
  592poe     o2 2780   2.686   2.046   1.426 -0.0221  0.2098  0.0482
  592poe    c23 2781   2.704   1.909   1.453 -0.0837  0.2696  0.3962
  592poe    c23 2782   2.653   1.820   1.339  0.3863  0.4071  0.0779
  592poe     o2 2783   2.518   1.782   1.354  0.5169 -0.1895 -0.2207
  592poe    c31 2784   2.465   1.722   1.238  0.7180 -0.1660 -0.3266
  593poe    c31 2785   3.126   0.242   0.478 -0.2664 -0.5721  0.3049
  593poe     o2 2786   2.997   0.298   0.476 -0.1250 -0.2438  0.1495
  593poe    c23 2787   2.910   0.202   0.533  0.1835 -0.3456  0.4577
  593poe    c23 2788   2.767   0.259   0.526  0.4477  0.2109 -0.5699
  593poe     o2 2789   2.716   0.282   0.396 -0.2200 -0.3058 -0.4048
  593poe    c23 2790   2.598   0.357   0.408  0.3069  0.4623  0.0181
  593poe    c23 2791   2.573   0.414   0.267 -0.1428 -0.0190 -0.0994
  593poe     o2 2792   2.660   0.514   0.218 -0.8034  0.5211 -0.1710
  593poe    c23 2793   2.627   0.567   0.091 -0.6873  0.0294 -0.4074
  593poe    c23 2794   2.728   0.681   0.068  0.0334 -0.4139  0.4941
  593poe     o2 2795   2.855   0.649   0.121  0.5790  0.3727 -0.3319
  593poe    c31 2796   2.945   0.758   0.127  0.2802  0.5901  0.2882
  594poe    c31 2797   6.497   3.385   4.657  0.2329  0.6158 -0.0626
  594poe     o2 2798   6.358   3.391   4.635  0.2324  0.5312 -0.0829
  594poe    c23 2799   6.297   3.514   4.666  0.1865  0.4364  0.2116
  594poe    c23 2800   6.143   3.509   4.667  0.2085 -0.3183  0.1501
  594poe     o2 2801   6.091   3.482   4.539  0.4517 -0.0806  0.0001
  594poe    c23 2802   5.950   3.473   4.534  0.4395  0.3415 -0.5736
  594poe    c23 2803   5.894   3.416   4.402 -0.0111 -0.1513 -0.1750
  594poe     o2 2804   5.935   3.503   4.299  0.2769 -0.0364  0.0331
  594poe    c23 2805   5.893   3.464   4.170 -0.0024  0.4620 -0.0289
  594poe    c23 2806   5.962   3.551   4.063  0.0418  0.2299 -0.1906
  594poe     o2 2807   6.095   3.569   4.108 -0.2738  0.3867  0.7098
  594poe    c31 2808   6.159   3.644   4.007 -0.0117 -0.0597  0.5429
  595poe    c31 2809   6.406   6.056   4.737 -0.6816  0.0552 -0.6230
  595poe     o2 2810   6.395   5.915   4.745  0.1062  0.0193 -0.0854
  595poe    c23 2811   6.521   5.859   4.775  0.0598  0.4308  0.9494
  595poe    c23 2812   6.498   5.707   4.789 -0.0565  0.2595 -0.8673
  595poe     o2 2813   6.400   5.661   4.698 -0.0866 -0.2640 -0.5754
  595poe    c23 2814   6.438   5.527   4.681  0.0545 -0.2622 -0.2831
  595poe    c23 2815   6.334   5.481   4.577 -0.8256  0.2811  0.3498
  595poe     o2 2816   6.331   5.574   4.470 -0.0145  0.3695  0.3979
  595poe    c23 2817   6.249   5.513   4.373  0.1105  0.8813 -0.0297
  595poe    c23 2818   6.211   5.606   4.256 -0.3161  0.2619 -0.3853
  595poe     o2 2819   6.127   5.708   4.303 -0.4685 -0.1244  0.1935
  595poe    c31 2820   6.033   5.739   4.202 -0.1150  0.2659 -0.0166
  596poe    c31 2821   2.380   3.053   2.376  0.0219  0.2349 -0.3270
  596poe     o2 2822   2.339   2.924   2.413 -0.6510  0.3640 -0.5947
  596poe    c23 2823   2.416   2.830   2.341 -0.2471  0.0434  0.2388
  596poe    c23 2824   2.346   2.699   2.381 -0.0546 -0.1243  0.0270
  596poe     o2 2825   2.208   2.724   2.371  0.0484  0.4093 -0.0959
  596poe    c23 2826   2.133   2.607   2.394 -0.1459  0.4239 -0.6387
  596poe    c23 2827   1.997   2.651   2.449  0.0817  0.0058  0.2962
  596poe     o2 2828   2.015   2.735   2.561  0.1741  0.4812 -0.0733
  596poe    c23 2829   1.893   2.755   2.629  0.0923  0.2243 -0.1440
  596poe    c23 2830   1.917   2.793   2.776 -0.0933  0.0004 -0.0549
  596poe     o2 2831   1.995   2.911   2.787 -0.4924  0.2288  0.3409
  596poe    c31 2832   1.999   2.964   2.918 -0.1089  0.5683  0.1914
  597poe    c31 2833   2.339   6.151   3.006 -0.3648  0.0260  0.2302
  597poe     o2 2834   2.365   6.126   3.142  0.2483  0.4521  0.1924
  597poe    c23 2835   2.302   6.011   3.194 -0.0602  0.4111 -0.2611
  597poe    c23 2836   2.340   5.983   3.341 -0.3797  0.2653 -0.2060
  597poe     o2 2837   2.301   6.091   3.424 -0.1787 -0.0241  0.2698
  597poe    c23 2838   2.236   6.045   3.540  0.0996 -0.5313  0.2287
  597poe    c23 2839   2.261   6.172   3.623 -0.2717 -0.1973 -0.1700
  597poe     o2 2840   2.252   6.288   3.543 -0.2823  0.1896  0.3861
  597poe    c23 2841   2.322   6.397   3.598 -0.0381  0.0958  0.2615
  597poe    c23 2842   2.364   6.493   3.485 -0.0090 -0.1452  0.0673
  597poe     o2 2843   2.400   6.410   3.376 -0.1643 -0.6048  0.3612
  597poe    c31 2844   2.487   6.468   3.281 -0.5894 -0.6384 -0.0518
  598poe    c31 2845   5.927   2.565   4.860 -0.6125  0.4001 -0.5631
  598poe     o2 2846   5.794   2.582   4.905 -0.5409 -0.1207 -0.1319
  598poe    c23 2847   5.785   2.614   5.042 -0.3911 -0.4324 -0.0483
  598poe    c23 2848   5.799   2.507   5.152 -0.5573  0.2040  0.5997
  598poe     o2 2849   5.692   2.416   5.148 -0.2837 -0.1041  0.0684
  598poe    c23 2850   5.724   2.306   5.230 -0.0289  0.1592  0.3234
  598poe    c23 2851   5.612   2.207   5.269 -0.2347  0.2668  0.0019
  598poe     o2 2852   5.559   2.135   5.160 -0.3153 -0.2359  0.3751
  598poe    c23 2853   5.563   1.998   5.196 -0.2893 -0.1681  0.6361
  598poe    c23 2854   5.543   1.913   5.069  0.1720  0.0401  0.4204
  598poe     o2 2855   5.604   1.981   4.961  0.0218 -0.0791  0.2586
  598poe    c31 2856   5.588   1.911   4.840  0.0446  0.4419 -0.0496
  599poe    c31 2857   1.485   4.830   3.871  0.2890 -0.0436  0.2173
  599poe     o2 2858   1.623   4.810   3.890  0.3382  0.6120  0.5489
  599poe    c23 2859   1.649   4.690   3.960  0.1543  0.1298 -0.2017
  599poe    c23 2860   1.795   4.667   4.002 -0.0190 -0.0411  0.3067
  599poe     o2 2861   1.832   4.796   4.047  0.3093 -0.0831  0.1573
  599poe    c23 2862   1.973   4.794   4.059  0.3376  0.2837 -0.1089
  599poe    c23 2863   2.009   4.942   4.082 -0.0622  0.3997 -0.2065
  599poe     o2 2864   1.924   5.013   3.995  0.3524  0.2939 -0.7050
  599poe    c23 2865   1.919   5.151   4.028 -0.5133  0.1920 -0.3947
  599poe    c23 2866   1.799   5.209   3.952 -0.5591 -0.0666 -0.5239
  599poe     o2 2867   1.701   5.109   3.938 -0.1511 -0.4253 -0.8674
  599poe    c31 2868   1.578   5.163   3.895 -0.2043  0.3554  0.2126
  600poe    c31 2869   2.896   5.506   0.812 -0.1468 -0.1092  0.1753
  600poe     o2 2870   2.762   5.549   0.810  0.0588  0.5288 -0.1812
  600poe    c23 2871   2.721   5.606   0.687 -0.2495 -0.3189 -0.4839
  600poe    c23 2872   2.573   5.645   0.706 -0.1047 -0.1074  0.2855
  600poe     o2 2873   2.497   5.552   0.778 -0.4321  0.0529  0.1476
  600poe    c23 2874   2.370   5.596   0.821 -0.2926  0.2007  0.4080
  600poe    c23 2875   2.320   5.492   0.923  0.3590  0.0013  0.5308
  600poe     o2 2876   2.437   5.447   0.986  0.7853 -0.1548 -0.3573
  600poe    c23 2877   2.436   5.454   1.127 -0.4057  0.1575 -0.3747
  600poe    c23 2878   2.575   5.414   1.179 -0.2656 -0.5260 -1.2594
  600poe     o2 2879   2.672   5.442   1.080  0.3888  0.5857 -0.3373
  600poe    c31 2880   2.800   5.443   1.137  0.2396  0.1661  0.0142
  601poe    c31 2881   6.419   0.131   3.053 -0.3391 -0.2809  0.5573
  601poe     o2 2882   6.451   0.258   3.002  0.1620 -0.8427 -0.5456
  601poe    c23 2883   6.336   0.326   2.957  0.2896 -0.3445 -0.1294
  601poe    c23 2884   6.364   0.477   2.969  0.5914 -0.4281  0.2085
  601poe     o2 2885   6.479   0.530   2.908  0.4690 -0.6055 -0.1809
  601poe    c23 2886   6.445   0.618   2.803 -0.2455 -0.1512  0.4235
  601poe    c23 2887   6.565   0.664   2.718 -0.3479 -0.6489  0.0081
  601poe     o2 2888   6.612   0.548   2.652  0.6656 -0.2174 -0.0429
  601poe    c23 2889   6.702   0.600   2.557  0.2381  0.0479 -0.3068
  601poe    c23 2890   6.785   0.485   2.496  0.2248  0.0534 -0.3355
  601poe     o2 2891   6.878   0.426   2.584 -0.3758 -0.4614 -0.0404
  601poe    c31 2892   6.899   0.291   2.548  0.6215 -0.2252 -0.3692
  602poe    c31 2893   2.774   5.288   2.928 -0.0622  0.1277 -0.3183
  602poe     o2 2894   2.688   5.177   2.944  0.9629 -0.6088  0.2122
  602poe    c23 2895   2.643   5.120   2.823 -0.5229  0.2808  0.3316
  602poe    c23 2896   2.552   4.996   2.835 -0.2953  0.0794 -0.0322
  602poe     o2 2897   2.572   4.934   2.960 -0.0430 -0.0344 -0.1282
  602poe    c23 2898   2.504   4.811   2.968 -0.2865  0.1106  0.0702
  602poe    c23 2899   2.363   4.826   3.026 -0.2746 -0.0351  0.1383
  602poe     o2 2900   2.389   4.875   3.156  0.3387  0.1212 -0.0411
  602poe    c23 2901   2.272   4.927   3.215  0.3232 -0.1133  0.1391
  602poe    c23 2902   2.289   4.926   3.368 -0.0392  0.2511  0.1839
  602poe     o2 2903   2.398   5.007   3.406  0.1886 -0.1106  0.3015
  602poe    c31 2904   2.432   4.983   3.541  0.5298  0.0233  0.2403
  603poe    c31 2905   4.262   1.790   3.253  0.5516 -0.0428 -0.8937
  603poe     o2 2906   4.335   1.706   3.339  0.0775  0.0865 -0.3571
  603poe    c23 2907   4.458   1.766   3.373 -0.1701  0.5326 -0.2451
  603poe    c23 2908   4.570   1.661   3.384 -0.0832  0.6846  0.3705
  603poe     o2 2909   4.496   1.572   3.465 -0.0506  0.3645  0.0518
  603poe    c23 2910   4.568   1.456   3.504 -0.2301  0.0655 -0.4948
  603poe    c23 2911   4.476   1.372   3.594 -0.0923  0.6540  0.2019
  603poe     o2 2912   4.355   1.387   3.523  0.2751 -0.1293 -0.6102
  603poe    c23 2913   4.251   1.381   3.619  0.2029  0.0692 -0.6756
  603poe    c23 2914   4.121   1.402   3.539 -0.0094 -0.1546 -0.3890
  603poe     o2 2915   4.140   1.524   3.470 -0.0430 -0.0731 -0.2557
  603poe    c31 2916   4.011   1.573   3.446  0.0301  0.3052  0.1170
  604poe    c31 2917   0.794   4.673   6.449 -0.0716  0.4226 -0.1491
  604poe     o2 2918   0.711   4.776   6.401 -0.1246  0.2701 -0.3816
  604poe    c23 2919   0.643   4.827   6.513  0.4665  0.0939  0.0621
  604poe    c23 2920   0.622   4.974   6.471 -0.3225  0.0482  0.2860
  604poe     o2 2921   0.582   4.966   6.336  0.1997 -0.5496  0.1569
  604poe    c23 2922   0.547   5.090   6.278  0.3548 -0.6568 -0.1689
  604poe    c23 2923   0.501   5.063   6.134 -0.8055 -0.0687  0.0739
  604poe     o2 2924   0.591   4.959   6.104 -0.7512 -0.1806  0.6284
  604poe    c23 2925   0.532   4.877   6.006 -0.0810  0.0022  0.0596
  604poe    c23 2926   0.621   4.754   5.979 -0.0499  0.0286  0.0415
  604poe     o2 2927   0.668   4.711   6.105 -0.3010 -0.0009  0.1262
  604poe    c31 2928   0.687   4.572   6.094 -0.9670 -0.0484 -0.5537
  605poe    c31 2929   5.968   2.104   2.929 -0.7062 -0.0065 -0.1723
  605poe     o2 2930   6.027   2.064   3.051 -0.2977 -0.3877 -0.4890
  605poe    c23 2931   6.066   2.180   3.122  0.6082 -0.8645 -0.1978
  605poe    c23 2932   6.116   2.147   3.264  0.2942 -0.1018  0.0924
  605poe     o2 2933   6.021   2.080   3.344  0.2888  0.1493  0.2988
  605poe    c23 2934   6.064   2.033   3.470 -0.2353 -0.1738  0.3604
  605poe    c23 2935   5.956   1.958   3.550  0.0108 -0.7903  0.1196
  605poe     o2 2936   5.906   1.851   3.472  0.2138 -0.4329 -0.5064
  605poe    c23 2937   5.871   1.742   3.554  0.7846  0.2445  0.6665
  605poe    c23 2938   5.900   1.608   3.484  0.0350  0.3281  0.1824
  605poe     o2 2939   5.834   1.622   3.360  0.1564 -0.5169  0.0140
  605poe    c31 2940   5.864   1.522   3.265  0.2625 -0.3847 -0.0935
  606poe    c31 2941   5.105   0.864   0.803  0.2218  0.7265 -0.4569
  606poe     o2 2942   5.232   0.825   0.850 -0.4443 -0.4856  0.3911
  606poe    c23 2943   5.224   0.686   0.873 -0.4201 -0.5002  0.3140
  606poe    c23 2944   5.342   0.668   0.971 -0.3248 -0.1020  0.2747
  606poe     o2 2945   5.439   0.769   0.964 -0.5354  0.1233  0.5820
  606poe    c23 2946   5.558   0.747   1.037 -0.3297  0.0072  0.2129
  606poe    c23 2947   5.635   0.880   1.024  0.5286 -0.4257  0.7584
  606poe     o2 2948   5.541   0.984   1.038  0.5987 -0.3385  0.5739
  606poe    c23 2949   5.576   1.108   0.981  0.3484 -0.2981  0.5075
  606poe    c23 2950   5.561   1.105   0.827 -0.1071 -0.0966  0.5457
  606poe     o2 2951   5.434   1.048   0.808  0.1178 -0.5293  0.3288
  606poe    c31 2952   5.377   1.069   0.681  0.2737  0.4356  0.4124
  607poe    c31 2953   2.758   6.368   2.168  0.0954 -0.0991  0.0767
  607poe     o2 2954   2.885   6.395   2.221 -0.0879 -0.4235  0.6973
  607poe    c23 2955   2.964   6.282   2.194  0.1850 -0.0595 -0.0736
  607poe    c23 2956   3.101   6.285   2.265  0.6752  0.4078 -1.0192
  607poe     o2 2957   3.148   6.417   2.277  0.0504  0.5678 -0.2729
  607poe    c23 2958   3.263   6.430   2.358 -0.2330 -0.6906  0.3587
  607poe    c23 2959   3.218   6.541   2.456  0.1821 -0.1604 -0.0441
  607poe     o2 2960   3.128   6.627   2.390  0.3445  0.3452  0.3863
  607poe    c23 2961   3.048   6.696   2.483 -0.3177 -0.6428  0.5737
  607poe    c23 2962   2.927   6.758   2.411 -0.4140 -0.6944  0.6908
  607poe     o2 2963   2.869   6.659   2.329 -0.0645  0.1847 -0.6494
  607poe    c31 2964   2.758   6.710   2.258 -0.5332 -0.8070 -0.6450
  608poe    c31 2965   0.523   0.069   6.669  0.1842  0.1163 -0.1001
  608poe     o2 2966   0.530   0.185   6.589 -0.3129  0.1504 -0.0965
  608poe    c23 2967   0.418   0.186   6.503 -0.1547 -0.3727 -0.3129
  608poe    c23 2968   0.404   0.320   6.428 -0.3289 -0.3291 -0.2025
  608poe     o2 2969   0.374   0.424   6.518 -0.0923 -0.7666  0.3928
  608poe    c23 2970   0.424   0.549   6.476  0.1489 -0.9228  0.2159
  608poe    c23 2971   0.566   0.573   6.532 -0.0864  0.6948  0.1800
  608poe     o2 2972   0.647   0.461   6.503 -0.5899  0.5515 -0.6778
  608poe    c23 2973   0.785   0.481   6.481 -0.2718 -0.4358  0.3384
  608poe    c23 2974   0.857   0.346   6.465 -0.4014 -0.4182 -0.4311
  608poe     o2 2975   0.790   0.260   6.554 -0.0475 -0.1010  0.1448
  608poe    c31 2976   0.872   0.177   6.633  0.2417  0.2525  0.2212
  609poe    c31 2977   5.389   5.786   3.541 -0.9277 -0.3496 -0.4537
  609poe     o2 2978   5.344   5.919   3.524  0.0759  0.0479 -0.0966
  609poe    c23 2979   5.388   5.991   3.637 -0.3007  0.4544 -0.2058
  609poe    c23 2980   5.375   6.144   3.627  0.0953  0.4878 -0.2306
  609poe     o2 2981   5.471   6.192   3.536  0.1031  0.0566 -0.4547
  609poe    c23 2982   5.478   6.333   3.537  0.1975  0.0504 -0.2910
  609poe    c23 2983   5.630   6.361   3.540  0.1772  0.1357  0.0757
  609poe     o2 2984   5.687   6.279   3.440  0.1243  0.6972 -0.4225
  609poe    c23 2985   5.826   6.298   3.428  0.3399 -0.6107 -0.1692
  609poe    c23 2986   5.854   6.226   3.295  0.2295 -0.4453 -0.2822
  609poe     o2 2987   5.794   6.098   3.302 -0.2811 -0.1765  0.3990
  609poe    c31 2988   5.883   6.006   3.242 -0.0240  0.4833 -0.2452
  610poe    c31 2989   0.373   0.045   3.296  1.1013 -0.3875 -0.5049
  610poe     o2 2990   0.450   0.040   3.414  0.2750 -0.0269  0.0660
  610poe    c23 2991   0.554   0.133   3.433  0.5675 -0.3162 -0.0897
  610poe    c23 2992   0.622   0.099   3.567  0.2886  0.4147  0.2425
  610poe     o2 2993   0.644  -0.040   3.577 -0.6208  0.2684  0.3474
  610poe    c23 2994   0.665  -0.070   3.713 -0.7418 -0.2908  0.2437
  610poe    c23 2995   0.709  -0.216   3.730 -0.2218 -0.0345  1.1996
  610poe     o2 2996   0.598  -0.286   3.678  0.3654 -0.0174 -0.1092
  610poe    c23 2997   0.600  -0.419   3.725  0.0601 -0.0590 -0.2111
  610poe    c23 2998   0.460  -0.462   3.774  0.0994 -0.1277 -0.1593
  610poe     o2 2999   0.370  -0.420   3.675  0.1380 -0.2394 -0.2415
  610poe    c31 3000   0.240  -0.473   3.692 -0.1597  0.5346 -0.0630
  611poe    c31 3001   2.651   5.436   4.965 -0.2637 -0.2248 -0.0833
  611poe     o2 3002   2.541   5.351   4.940 -0.0058 -0.4357 -0.4929
  611poe    c23 3003   2.497   5.351   4.806 -0.3441  0.3598 -0.3876
  611poe    c23 3004   2.354   5.293   4.805 -0.2068  0.0075 -0.0803
  611poe     o2 3005   2.347   5.186   4.896  0.7745  0.1160  0.1341
  611poe    c23 3006   2.217   5.138   4.920  0.7705  0.1067  0.0938
  611poe    c23 3007   2.220   4.995   4.977  0.3911  0.0115 -0.1215
  611poe     o2 3008   2.304   4.983   5.089 -0.0831 -0.5596  0.1784
  611poe    c23 3009   2.305   4.862   5.160 -0.1009 -0.4708  0.3311
  611poe    c23 3010   2.384   4.881   5.291  0.1911  0.1814  0.0603
  611poe     o2 3011   2.514   4.913   5.247  0.1021  0.4572 -0.0019
  611poe    c31 3012   2.607   4.865   5.341  0.1658  0.0362 -0.2784
  612poe    c31 3013   3.638   2.752   1.867 -0.0020 -0.9486  0.1461
  612poe     o2 3014   3.565   2.723   1.984 -0.2406 -0.1036  0.2076
  612poe    c23 3015   3.598   2.597   2.038  0.2803 -0.1308 -0.1709
  612poe    c23 3016   3.548   2.582   2.183  0.2950 -0.4613 -0.1991
  612poe     o2 3017   3.413   2.614   2.206  0.3253 -0.3428 -0.1819
  612poe    c23 3018   3.380   2.620   2.343 -0.2330 -0.8591 -0.2906
  612poe    c23 3019   3.234   2.668   2.356  0.1175  0.1827 -0.1568
  612poe     o2 3020   3.217   2.795   2.296 -0.3023  0.1864 -0.0354
  612poe    c23 3021   3.110   2.877   2.337 -0.3810  0.2054 -0.2752
  612poe    c23 3022   3.093   3.000   2.247 -0.0947  0.3474 -0.1369
  612poe     o2 3023   3.117   2.972   2.111 -0.6068  0.5550 -0.2727
  612poe    c31 3024   3.069   3.063   2.014 -0.0974 -0.1701 -1.2233
  613poe    c31 3025   4.101   5.839   0.381  0.2404  0.0566 -0.1910
  613poe     o2 3026   4.136   5.907   0.263  0.0876 -0.2359 -0.4059
  613poe    c23 3027   4.022   5.967   0.206 -0.1390 -0.3323 -0.0561
  613poe    c23 3028   4.075   6.001   0.065 -0.1221 -0.2859 -0.0384
  613poe     o2 3029   4.074   5.882  -0.011  0.3163 -0.2791 -0.0554
  613poe    c23 3030   4.153   5.903  -0.126  0.4473 -0.2139  0.0453
  613poe    c23 3031   4.160   5.784  -0.224  0.1545 -0.3012  0.1309
  613poe     o2 3032   4.043   5.761  -0.300 -0.0031  0.5125  0.1113
  613poe    c23 3033   3.941   5.705  -0.220  0.2156  0.3930  0.3088
  613poe    c23 3034   3.823   5.804  -0.209 -0.0507  0.1559 -0.4003
  613poe     o2 3035   3.750   5.847  -0.322 -0.4422  0.3221 -0.0839
  613poe    c31 3036   3.670   5.749  -0.384  0.0402 -0.0479 -0.1234
  614poe    c31 3037   5.350   3.183   6.722  0.2923  0.2258  0.1335
  614poe     o2 3038   5.384   3.159   6.587 -0.3868  0.1680 -0.0328
  614poe    c23 3039   5.523   3.169   6.562 -0.4548  0.4390 -0.3031
  614poe    c23 3040   5.539   3.205   6.413  0.2411  0.0635 -0.3192
  614poe     o2 3041   5.477   3.090   6.361 -0.0396 -0.0603  0.2716
  614poe    c23 3042   5.474   3.108   6.221  0.2304  0.0693  0.2826
  614poe    c23 3043   5.362   3.013   6.177  0.1841  0.0550  0.4342
  614poe     o2 3044   5.253   3.042   6.262 -0.1042 -0.0563  0.1057
  614poe    c23 3045   5.154   2.941   6.264  0.1611 -0.3193  0.1797
  614poe    c23 3046   5.048   2.979   6.369 -0.1949 -0.4183 -0.1407
  614poe     o2 3047   5.111   3.019   6.488 -0.0103 -0.2137 -0.3074
  614poe    c31 3048   5.012   3.037   6.587  0.5104 -0.0045  0.1869
  615poe    c31 3049   0.656   3.290   3.729 -0.0500 -0.7848 -1.0358
  615poe     o2 3050   0.550   3.252   3.814  0.5451 -0.5626 -0.1882
  615poe    c23 3051   0.515   3.118   3.788 -0.2008 -0.4377  0.1333
  615poe    c23 3052   0.469   3.059   3.923 -0.7550  0.0240  0.1471
  615poe     o2 3053   0.373   3.155   3.963 -0.6862  0.2062 -0.1247
  615poe    c23 3054   0.276   3.086   4.038 -0.4364 -0.3159 -0.2695
  615poe    c23 3055   0.161   3.182   4.076  0.4438  0.6758 -0.0663
  615poe     o2 3056   0.116   3.204   3.944  0.0313 -0.2102 -0.0746
  615poe    c23 3057  -0.012   3.263   3.944  0.1964  0.1472 -0.2324
  615poe    c23 3058  -0.056   3.290   3.799  0.5528  0.0544 -0.3581
  615poe     o2 3059   0.034   3.365   3.721  0.5209  0.2751 -0.1849
  615poe    c31 3060   0.008   3.360   3.582  0.0280  0.4858 -0.1003
  616poe    c31 3061   5.210   0.168   4.980  0.1063  0.2741 -0.1166
  616poe     o2 3062   5.150   0.293   5.005 -0.3180  0.1412 -0.4537
  616poe    c23 3063   5.171   0.373   4.890  0.0220 -0.2030 -0.6341
  616poe    c23 3064   5.094   0.504   4.915 -0.0951 -0.4327  0.2244
  616poe     o2 3065   5.144   0.534   5.044 -0.0656 -0.2151  0.1612
  616poe    c23 3066   5.107   0.660   5.096  0.4608  0.3341 -0.7449
  616poe    c23 3067   5.216   0.661   5.204 -0.5679 -0.6590  0.3406
  616poe     o2 3068   5.209   0.533   5.264  0.0544 -0.4712  0.8280
  616poe    c23 3069   5.323   0.482   5.329  0.9706 -0.0991 -0.4508
  616poe    c23 3070   5.280   0.345   5.383 -0.0785  0.3615 -0.0972
  616poe     o2 3071   5.213   0.266   5.287 -0.1548  0.2808  0.0217
  616poe    c31 3072   5.167   0.147   5.347 -0.5330  0.3747 -0.0746
  617poe    c31 3073   2.768   0.747   3.015  0.4322 -0.6436 -0.0118
  617poe     o2 3074   2.742   0.794   2.885  0.5439 -0.2264  0.1134
  617poe    c23 3075   2.621   0.739   2.838  0.4328 -0.0936  0.2447
  617poe    c23 3076   2.627   0.777   2.689  0.7907 -0.1952  0.2326
  617poe     o2 3077   2.680   0.908   2.676 -0.1973  0.2231  0.3342
  617poe    c23 3078   2.662   0.958   2.546  0.2955  0.5196  0.3797
  617poe    c23 3079   2.739   1.090   2.525  0.0049  0.5175 -0.7926
  617poe     o2 3080   2.877   1.084   2.553 -0.1954  0.1666  0.1680
  617poe    c23 3081   2.951   1.204   2.549  0.1057 -0.0147  0.3019
  617poe    c23 3082   3.100   1.166   2.541  0.0272 -0.2110 -0.2870
  617poe     o2 3083   3.130   1.095   2.660 -0.0604 -0.1040 -0.2010
  617poe    c31 3084   3.265   1.055   2.664 -0.0740 -0.0962  0.3575
  618poe    c31 3085   0.011   4.126   2.299 -0.6323 -0.0437 -0.1645
  618poe     o2 3086   0.090   4.096   2.186  0.3789 -0.0054  0.5133
  618poe    c23 3087   0.112   4.222   2.128 -0.2850 -0.2332 -0.2572
  618poe    c23 3088   0.118   4.212   1.974 -0.3177 -0.5165 -0.2405
  618poe     o2 3089   0.211   4.111   1.942  0.3642 -0.0501  0.2432
  618poe    c23 3090   0.206   4.073   1.807  0.0867 -0.3060  0.3251
  618poe    c23 3091   0.327   3.980   1.788  0.3784  0.1028  0.1856
  618poe     o2 3092   0.324   3.884   1.891  0.4262 -0.0266  0.0679
  618poe    c23 3093   0.431   3.897   1.983  0.1793  0.3053  0.3143
  618poe    c23 3094   0.390   3.829   2.115  0.1565  0.3801  0.3459
  618poe     o2 3095   0.293   3.906   2.180 -0.4657 -0.0792 -0.0276
  618poe    c31 3096   0.279   3.861   2.313  0.3226 -0.5320 -0.0926
  619poe    c31 3097   2.188   0.183   2.996  0.5267 -0.3521 -0.1146
  619poe     o2 3098   2.166   0.289   2.905  0.2620  0.3700  0.7778
  619poe    c23 3099   2.289   0.315   2.843 -0.0800 -0.1088 -0.1180
  619poe    c23 3100   2.243   0.382   2.713 -0.4625 -0.3686 -0.1170
  619poe     o2 3101   2.139   0.468   2.755 -0.0182  0.1501 -0.0757
  619poe    c23 3102   2.099   0.555   2.651 -0.2282 -0.2796 -0.3581
  619poe    c23 3103   2.012   0.674   2.694  0.0344 -0.3114  0.2764
  619poe     o2 3104   1.893   0.641   2.763 -0.1854 -0.0538  0.0241
  619poe    c23 3105   1.816   0.751   2.807 -0.2718 -0.0663 -0.0975
  619poe    c23 3106   1.717   0.710   2.918 -0.4322  0.0091 -0.2114
  619poe     o2 3107   1.770   0.652   3.035 -0.3293  0.1658 -0.1793
  619poe    c31 3108   1.677   0.634   3.138 -0.3087  0.2355 -0.1485
  620poe    c31 3109   2.074   1.914   1.802  0.5367 -0.4009 -0.0831
  620poe     o2 3110   2.102   1.798   1.726  0.4277 -0.7892  0.4622
  620poe    c23 3111   2.076   1.682   1.801  0.1002 -0.7671  0.3847
  620poe    c23 3112   2.012   1.576   1.709 -0.5323 -0.1141  0.0588
  620poe     o2 3113   2.094   1.575   1.594 -0.0709 -0.4754  0.3834
  620poe    c23 3114   2.045   1.483   1.500  0.1183 -0.4930  0.3011
  620poe    c23 3115   2.126   1.506   1.371 -0.1932 -0.3180  0.1336
  620poe     o2 3116   2.174   1.639   1.368  0.1328 -0.4490 -0.5148
  620poe    c23 3117   2.096   1.723   1.286 -0.0751  0.1593  0.3024
  620poe    c23 3118   2.127   1.872   1.312  0.2902  0.1769 -0.2136
  620poe     o2 3119   2.143   1.901   1.449 -0.6600 -0.3299  0.0130
  620poe    c31 3120   2.188   2.033   1.470  0.1092 -0.5754 -0.0889
  621poe    c31 3121   6.047   5.047   0.115 -0.4118 -0.4434  0.6493
  621poe     o2 3122   6.101   4.997   0.235 -0.1338 -0.5352  0.4878
  621poe    c23 3123   6.226   5.060   0.246 -0.4528  0.2885 -0.4199
  621poe    c23 3124   6.320   4.967   0.326  0.1562  0.7917 -0.5379
  621poe     o2 3125   6.373   4.860   0.252 -0.0593  0.1806  0.1736
  621poe    c23 3126   6.463   4.768   0.308  0.4334  0.3626 -0.3104
  621poe    c23 3127   6.507   4.657   0.211  0.4676  0.1295 -0.0315
  621poe     o2 3128   6.392   4.586   0.170  0.4005  0.3932 -0.3077
  621poe    c23 3129   6.418   4.463   0.106  0.1131  0.3441 -0.3302
  621poe    c23 3130   6.286   4.390   0.134  0.3010  0.0942 -0.0905
  621poe     o2 3131   6.175   4.478   0.140 -0.0519 -0.3577  0.0861
  621poe    c31 3132   6.059   4.398   0.132 -0.1226 -0.2084 -0.4464
  622poe    c31 3133   3.441   5.346   4.234  0.4624  0.3685  0.0851
  622poe     o2 3134   3.323   5.300   4.173  0.5357 -0.3401  0.4658
  622poe    c23 3135   3.325   5.162   4.142  0.2379 -0.2272 -0.0692
  622poe    c23 3136   3.188   5.108   4.097  0.0796 -0.6933  0.9416
  622poe     o2 3137   3.090   5.180   4.167  0.1099 -0.1396  0.4230
  622poe    c23 3138   2.972   5.103   4.180 -0.0993  0.0765 -0.1767
  622poe    c23 3139   2.880   5.162   4.288 -0.3750 -0.3064 -0.2005
  622poe     o2 3140   2.872   5.300   4.258  0.1483 -0.2061  0.1066
  622poe    c23 3141   2.763   5.361   4.325 -0.4084 -0.0235 -0.9405
  622poe    c23 3142   2.748   5.505   4.272 -0.1487  0.2391 -0.3113
  622poe     o2 3143   2.864   5.582   4.294 -0.2388  0.1885  0.3806
  622poe    c31 3144   2.838   5.710   4.240 -0.2049 -0.1474 -0.4456
  623poe    c31 3145   2.629   3.496   0.233 -0.6312 -0.2624  0.2741
  623poe     o2 3146   2.646   3.609   0.316 -0.4567 -0.0544 -0.0460
  623poe    c23 3147   2.618   3.595   0.453  0.1391 -0.1315  0.0730
  623poe    c23 3148   2.571   3.731   0.507  0.0624 -0.2519  0.3124
  623poe     o2 3149   2.643   3.835   0.443  0.0747 -0.4145  0.0602
  623poe    c23 3150   2.585   3.956   0.487  0.4113 -0.0506 -0.4950
  623poe    c23 3151   2.617   4.063   0.382  0.3484  0.2674 -0.1915
  623poe     o2 3152   2.598   4.025   0.247  0.3741  0.4016 -0.2338
  623poe    c23 3153   2.638   4.120   0.151 -0.1826  0.1758 -0.6878
  623poe    c23 3154   2.785   4.160   0.134 -0.0695 -0.2928 -0.8440
  623poe     o2 3155   2.876   4.053   0.122 -0.3494 -0.6608  0.2395
  623poe    c31 3156   2.994   4.108   0.067 -0.4282 -0.6543  0.0779
  624poe    c31 3157   4.217   0.143   6.003  0.2217 -0.0478 -0.2867
  624poe     o2 3158   4.209   0.270   5.943  0.1446  0.0334 -0.1051
  624poe    c23 3159   4.200   0.361   6.050  0.0611 -0.2236  0.1081
  624poe    c23 3160   4.270   0.492   6.009 -0.9943  0.4189  0.3014
  624poe     o2 3161   4.202   0.540   5.896 -0.5596  0.0217 -0.1314
  624poe    c23 3162   4.243   0.670   5.860  0.2301 -0.1879 -0.0125
  624poe    c23 3163   4.259   0.713   5.713 -0.1671 -0.6352 -0.1907
  624poe     o2 3164   4.140   0.672   5.651 -0.5095 -0.0824  0.0964
  624poe    c23 3165   4.124   0.705   5.515  0.1026  0.0614  0.0574
  624poe    c23 3166   3.984   0.653   5.477  0.2820 -0.5193  0.1785
  624poe     o2 3167   3.966   0.520   5.521 -0.0431 -0.5579 -0.0682
  624poe    c31 3168   3.861   0.468   5.442 -0.9576  0.9545  0.0937
  625poe    c31 3169   6.828   4.080   2.941 -0.4261 -0.1660  0.2116
  625poe     o2 3170   6.756   3.997   2.852 -0.4850  0.3316 -0.2079
  625poe    c23 3171   6.640   4.064   2.808 -0.1141  0.9684 -0.2326
  625poe    c23 3172   6.576   3.966   2.707 -0.2319 -0.1261  0.8833
  625poe     o2 3173   6.571   3.839   2.768  0.1189 -0.3144  0.5266
  625poe    c23 3174   6.518   3.730   2.697 -0.0320 -0.0661  0.2526
  625poe    c23 3175   6.534   3.626   2.810 -0.2228  0.0954  0.4302
  625poe     o2 3176   6.660   3.628   2.874 -0.0808 -0.0410  0.1586
  625poe    c23 3177   6.677   3.495   2.916  0.4158 -0.0876 -0.1870
  625poe    c23 3178   6.813   3.475   2.986  0.6841  0.8942 -0.4195
  625poe     o2 3179   6.835   3.537   3.110  0.5311  0.1362 -0.0079
  625poe    c31 3180   6.953   3.477   3.159  0.0612 -0.8899 -0.1094
  626poe    c31 3181   6.056   2.610   5.548  0.6178  0.0650  0.0271
  626poe     o2 3182   5.995   2.525   5.643  0.4584  0.0217 -0.1118
  626poe    c23 3183   6.066   2.407   5.677  0.7696  0.3069  0.2449
  626poe    c23 3184   5.979   2.306   5.754  0.2753  0.2953 -0.3189
  626poe     o2 3185   5.924   2.363   5.870  0.5804 -0.2724  0.1098
  626poe    c23 3186   5.863   2.261   5.945 -0.6836  0.0809 -0.4109
  626poe    c23 3187   5.769   2.326   6.048  0.1375 -0.2505  0.5641
  626poe     o2 3188   5.660   2.388   5.985 -0.2584 -0.9164  0.5856
  626poe    c23 3189   5.566   2.421   6.085 -0.3990 -0.1950  0.2262
  626poe    c23 3190   5.474   2.527   6.023 -0.0753  0.0249  0.1208
  626poe     o2 3191   5.539   2.622   5.941  0.0213 -0.0747  0.0816
  626poe    c31 3192   5.438   2.717   5.917  0.0436 -0.2180 -0.6140
  627poe    c31 3193   1.758   1.224   1.805 -0.3248  0.2992 -0.5098
  627poe     o2 3194   1.873   1.222   1.886 -0.4407 -0.0672 -0.3511
  627poe    c23 3195   1.980   1.156   1.823  0.2631  0.1302  0.6118
  627poe    c23 3196   2.106   1.146   1.911  0.7392  0.5804 -0.0061
  627poe     o2 3197   2.071   1.086   2.034  0.3880  0.1441 -0.3152
  627poe    c23 3198   2.178   1.081   2.125  0.2185  0.3068 -0.1067
  627poe    c23 3199   2.111   1.125   2.257  0.2808 -0.3204  0.1387
  627poe     o2 3200   1.999   1.049   2.297 -0.1708  0.1700 -0.1773
  627poe    c23 3201   1.979   1.054   2.436  0.6623 -0.4123 -0.0294
  627poe    c23 3202   1.847   0.979   2.465  0.2034  0.3944 -0.0086
  627poe     o2 3203   1.759   1.031   2.367  0.2433 -0.1893 -0.3556
  627poe    c31 3204   1.632   0.974   2.391  0.1386  0.2046  0.0339
  628poe    c31 3205   5.367   6.444   1.540 -0.7285  0.1153 -0.0553
  628poe     o2 3206   5.279   6.523   1.617 -0.0303  1.1215 -0.2834
  628poe    c23 3207   5.190   6.444   1.692  0.0616  0.9614 -0.3418
  628poe    c23 3208   5.149   6.507   1.827  0.1844 -0.0393  0.1743
  628poe     o2 3209   5.146   6.644   1.793  0.3133 -0.0978 -0.0820
  628poe    c23 3210   5.129   6.720   1.911  0.3919 -0.1582 -0.0318
  628poe    c23 3211   5.125   6.869   1.870 -0.1974 -0.2635 -0.3732
  628poe     o2 3212   5.246   6.899   1.804  0.3361  0.1087  0.7338
  628poe    c23 3213   5.292   7.029   1.832  0.3516  0.2948 -0.1286
  628poe    c23 3214   5.420   7.078   1.762 -0.1579  0.6492 -0.8298
  628poe     o2 3215   5.417   7.079   1.621  0.4303 -0.2234 -0.8558
  628poe    c31 3216   5.533   7.130   1.558  0.1846  0.8574 -0.4471
  629poe    c31 3217   4.016   1.603   5.139 -0.8935 -0.0894 -0.3389
  629poe     o2 3218   3.982   1.705   5.048  0.7110  0.6985 -0.0870
  629poe    c23 3219   3.942   1.661   4.920 -0.5174 -0.1604  0.5757
  629poe    c23 3220   3.799   1.696   4.873 -0.2366 -0.1091 -0.2504
  629poe     o2 3221   3.780   1.834   4.896  0.3072 -0.1290  0.3743
  629poe    c23 3222   3.651   1.876   4.858  0.1883 -0.2362  0.6582
  629poe    c23 3223   3.651   2.029   4.869  0.5624 -0.1841 -0.0098
  629poe     o2 3224   3.705   2.076   4.991  0.0461 -0.1034  0.1891
  629poe    c23 3225   3.644   2.201   5.013 -0.1831 -0.1547 -0.1558
  629poe    c23 3226   3.719   2.289   5.114 -0.3312  0.4225 -0.5382
  629poe     o2 3227   3.845   2.335   5.073 -0.2724  0.4010 -0.3819
  629poe    c31 3228   3.878   2.413   5.187 -0.2462  0.2511 -0.2867
  630poe    c31 3229   1.877   1.234   5.771  0.2694 -0.1386 -0.1626
  630poe     o2 3230   1.941   1.239   5.645  0.4206  0.3594 -0.0699
  630poe    c23 3231   1.872   1.180   5.537  0.0709  0.6817 -0.0220
  630poe    c23 3232   1.968   1.196   5.418  0.3335  1.0363  0.2335
  630poe     o2 3233   2.099   1.179   5.467  0.1256 -0.1960  0.4065
  630poe    c23 3234   2.207   1.168   5.377 -0.1625 -0.3410  0.0797
  630poe    c23 3235   2.342   1.164   5.450 -0.3021  0.1245  0.3669
  630poe     o2 3236   2.344   1.272   5.541 -0.0009 -0.1789  0.7251
  630poe    c23 3237   2.475   1.314   5.568  0.2544 -0.4294 -0.0836
  630poe    c23 3238   2.483   1.437   5.661  0.2518 -0.4483 -0.0582
  630poe     o2 3239   2.417   1.552   5.612  0.2180 -0.3020  0.3300
  630poe    c31 3240   2.486   1.656   5.546 -0.5867  0.0641  0.0470
  631poe    c31 3241   1.772   2.000   2.460 -0.1106 -0.0403  0.5602
  631poe     o2 3242   1.830   2.016   2.587  0.3685 -0.2943  0.3772
  631poe    c23 3243   1.834   1.890   2.649  0.1367 -0.1950  0.5958
  631poe    c23 3244   1.820   1.903   2.802 -0.0651 -0.1986  0.5786
  631poe     o2 3245   1.919   1.993   2.847 -0.0967  0.2543 -0.2378
  631poe    c23 3246   1.902   1.993   2.987  0.3417  0.1116 -0.1840
  631poe    c23 3247   1.870   2.130   3.049 -0.1127  0.0020 -0.1743
  631poe     o2 3248   1.968   2.215   2.994 -0.6532  0.1848 -0.8641
  631poe    c23 3249   1.951   2.344   3.046  0.1128  0.0296 -0.2175
  631poe    c23 3250   2.067   2.427   2.987  0.1142  0.0788 -0.1463
  631poe     o2 3251   2.084   2.390   2.852 -1.0968  0.2694 -0.3663
  631poe    c31 3252   2.198   2.458   2.802 -0.3708 -0.5955  0.0895
  632poe    c31 3253   6.233   4.686   3.543 -0.1337 -0.6982 -0.1950
  632poe     o2 3254   6.213   4.587   3.642 -0.0223 -0.2285  0.3033
  632poe    c23 3255   6.103   4.502   3.615 -0.1170  0.1246 -0.4433
  632poe    c23 3256   6.063   4.405   3.727 -0.3193  0.4752 -0.2102
  632poe     o2 3257   6.142   4.288   3.726 -0.3372  0.4502  0.4437
  632poe    c23 3258   6.086   4.184   3.802  0.3984  0.2852  0.7675
  632poe    c23 3259   6.200   4.083   3.828  0.9223  0.6623 -0.0305
  632poe     o2 3260   6.273   4.040   3.715  0.5910  0.4179 -0.1547
  632poe    c23 3261   6.395   3.977   3.749 -0.1823 -1.0829 -0.0850
  632poe    c23 3262   6.451   3.959   3.607  0.0164 -0.0816 -0.1412
  632poe     o2 3263   6.434   4.077   3.533  0.0080 -0.0582 -0.1019
  632poe    c31 3264   6.533   4.054   3.435 -0.9824 -0.6016 -1.0011
  633poe    c31 3265   4.941   6.766   6.163 -0.1189  0.1815 -0.3086
  633poe     o2 3266   4.824   6.820   6.219 -0.1084  0.4298 -0.5231
  633poe    c23 3267   4.725   6.856   6.125 -0.4544 -0.7019 -0.6068
  633poe    c23 3268   4.597   6.905   6.195  0.0383  0.3544 -0.4293
  633poe     o2 3269   4.560   6.802   6.283 -0.1765  0.6574 -0.1616
  633poe    c23 3270   4.457   6.859   6.361 -0.6958  0.0344 -0.3759
  633poe    c23 3271   4.442   6.763   6.481 -0.1347 -0.2747 -0.5481
  633poe     o2 3272   4.577   6.746   6.519 -0.3569  0.0216  0.3860
  633poe    c23 3273   4.592   6.689   6.647 -0.1722 -0.3524  0.1972
  633poe    c23 3274   4.736   6.662   6.694 -0.0983  0.2362  0.3188
  633poe     o2 3275   4.804   6.784   6.712  0.4113 -0.0434  0.3217
  633poe    c31 3276   4.889   6.791   6.825  0.2464  0.6098  0.4126
  634poe    c31 3277   0.122   4.844   5.351  0.1731  0.4750  0.1004
  634poe     o2 3278   0.243   4.861   5.281 -0.0022 -0.3928 -0.4327
  634poe    c23 3279   0.237   4.970   5.191  0.5579  0.2799  0.3262
  634poe    c23 3280   0.375   4.985   5.125  0.3942 -0.2624 -0.1480
  634poe     o2 3281   0.413   4.852   5.099 -0.4644 -0.5302 -0.0770
  634poe    c23 3282   0.515   4.852   5.001 -0.6542 -0.2527 -0.2766
  634poe    c23 3283   0.553   4.703   4.994  0.2775 -0.0420  0.1523
  634poe     o2 3284   0.549   4.639   5.119 -0.0397 -0.3054  0.0083
  634poe    c23 3285   0.628   4.522   5.111  0.2991 -0.0702 -0.0937
  634poe    c23 3286   0.607   4.451   5.245  0.1914  0.0347 -0.0548
  634poe     o2 3287   0.474   4.411   5.271  0.2298  0.2422  0.4704
  634poe    c31 3288   0.478   4.351   5.399  0.1590 -0.9699 -0.0800
  635poe    c31 3289   0.006   5.195   2.963  0.3658 -0.0934  0.2479
  635poe     o2 3290   0.027   5.188   2.823 -0.3823 -0.1897  0.1359
  635poe    c23 3291  -0.029   5.072   2.766  0.5242 -0.1585 -0.8425
  635poe    c23 3292   0.085   4.970   2.748  0.4509 -0.4441  0.2796
  635poe     o2 3293   0.195   5.035   2.688  0.2313  0.0753  0.4274
  635poe    c23 3294   0.271   4.938   2.619  0.0694  0.2272  0.0303
  635poe    c23 3295   0.407   4.995   2.576  0.0556  0.1323 -0.1408
  635poe     o2 3296   0.487   5.056   2.676 -0.2129 -0.1065  0.2224
  635poe    c23 3297   0.598   5.130   2.631 -0.4946  0.0724 -0.1879
  635poe    c23 3298   0.652   5.223   2.741 -0.0776 -0.0156 -0.3163
  635poe     o2 3299   0.547   5.290   2.806  0.2689  0.3600 -0.1398
  635poe    c31 3300   0.588   5.357   2.923 -0.3571 -0.1455  0.3741
  636poe    c31 3301   1.408   4.625   4.469  0.1321  0.0166 -0.2531
  636poe     o2 3302   1.282   4.621   4.533  0.3347 -0.4482  0.1245
  636poe    c23 3303   1.297   4.630   4.673 -0.1096  0.7172  0.1076
  636poe    c23 3304   1.156   4.604   4.728 -0.1848  0.0562 -0.3797
  636poe     o2 3305   1.073   4.675   4.639  0.0364  0.5691 -0.1802
  636poe    c23 3306   0.934   4.669   4.659  0.0261  0.3901 -0.3053
  636poe    c23 3307   0.867   4.733   4.536  0.0040  0.0567 -0.4678
  636poe     o2 3308   0.932   4.691   4.418  0.2655  0.4138 -0.4507
  636poe    c23 3309   0.868   4.608   4.324 -0.3929  0.5144 -0.0934
  636poe    c23 3310   0.979   4.560   4.229 -0.5575  0.0495 -0.0554
  636poe     o2 3311   1.092   4.537   4.310 -0.3896  0.1534 -0.2595
  636poe    c31 3312   1.167   4.428   4.260 -0.2698  0.2398 -0.2693
  637poe    c31 3313   5.739   4.090   5.296  0.5969 -0.0172 -0.4166
  637poe     o2 3314   5.786   4.215   5.344  0.0860  0.0702 -0.1429
  637poe    c23 3315   5.895   4.201   5.432 -0.1055 -0.0563  0.0774
  637poe    c23 3316   5.952   4.343   5.444 -0.0635 -0.0177 -0.5434
  637poe     o2 3317   5.839   4.422   5.470 -0.0761 -0.1507 -0.1918
  637poe    c23 3318   5.860   4.561   5.484 -0.2508 -0.1041 -0.3889
  637poe    c23 3319   5.773   4.610   5.602  0.1530  0.4929 -0.3336
  637poe     o2 3320   5.642   4.570   5.568  0.2345 -0.1852  0.1154
  637poe    c23 3321   5.541   4.590   5.664  0.3757  0.0178  0.2235
  637poe    c23 3322   5.508   4.471   5.756  0.1758 -0.2751 -0.2215
  637poe     o2 3323   5.428   4.364   5.713 -0.5321  0.2978 -0.3502
  637poe    c31 3324   5.403   4.279   5.823  0.0080  0.0357 -0.4270
  638poe    c31 3325   2.179   3.072   1.471 -0.1283 -0.0199  0.7742
  638poe     o2 3326   2.055   3.082   1.536 -0.6250 -0.0307 -0.1581
  638poe    c23 3327   2.011   2.952   1.568  0.7613 -0.4191  0.2244
  638poe    c23 3328   1.858   2.967   1.556  0.8147 -0.0846 -0.0716
  638poe     o2 3329   1.835   3.075   1.644 -0.2551 -0.2421 -0.1411
  638poe    c23 3330   1.702   3.120   1.653 -0.1405  0.1046 -0.1633
  638poe    c23 3331   1.698   3.234   1.756 -0.1420 -0.2158  0.1939
  638poe     o2 3332   1.824   3.297   1.753 -0.0025 -0.4770  0.5411
  638poe    c23 3333   1.873   3.359   1.870 -0.2755 -0.0075  0.4094
  638poe    c23 3334   2.025   3.376   1.851 -0.2578 -0.6219 -0.0276
  638poe     o2 3335   2.072   3.266   1.776 -0.4129 -0.6274 -0.1187
  638poe    c31 3336   2.197   3.230   1.831 -0.2440 -0.2945 -0.2785
  639poe    c31 3337   1.337   4.537   1.742  0.4666  0.6025  0.0014
  639poe     o2 3338   1.365   4.651   1.665  0.3130  0.4747 -0.2451
  639poe    c23 3339   1.504   4.650   1.640  0.4027 -0.3786  0.2410
  639poe    c23 3340   1.526   4.698   1.495 -0.2602  0.1832  0.3187
  639poe     o2 3341   1.470   4.826   1.507 -1.0586 -0.0787 -0.5299
  639poe    c23 3342   1.495   4.918   1.402 -0.4647  0.2696 -0.0906
  639poe    c23 3343   1.408   5.031   1.460 -0.1658  0.3812  0.1459
  639poe     o2 3344   1.301   4.975   1.534  0.1475 -0.1905  0.1675
  639poe    c23 3345   1.205   5.067   1.579  0.1061 -0.0730 -0.1591
  639poe    c23 3346   1.099   4.972   1.639  0.3840 -0.0063  0.4381
  639poe     o2 3347   1.164   4.875   1.717 -0.6994 -1.2714 -0.2003
  639poe    c31 3348   1.076   4.836   1.821  0.1537  0.0146  1.0458
  640poe    c31 3349   0.568   1.134   2.395  0.7659 -0.4338 -0.1252
  640poe     o2 3350   0.476   1.145   2.289  1.0514 -0.2757 -0.3577
  640poe    c23 3351   0.534   1.160   2.161 -0.3338 -0.1355 -0.9944
  640poe    c23 3352   0.559   1.311   2.139  0.0355 -0.0461 -0.0232
  640poe     o2 3353   0.430   1.367   2.131  0.1564  0.2911  0.3624
  640poe    c23 3354   0.438   1.507   2.117  0.1280  0.2513 -0.0501
  640poe    c23 3355   0.302   1.566   2.076  0.2119  0.2089 -0.3977
  640poe     o2 3356   0.221   1.518   2.182  0.2692  0.2168 -0.3501
  640poe    c23 3357   0.081   1.515   2.165  0.2844  0.8966 -0.6043
  640poe    c23 3358   0.043   1.371   2.128  0.1943  0.6777  0.3417
  640poe     o2 3359   0.131   1.287   2.200  0.0124 -0.5582 -0.8485
  640poe    c31 3360   0.088   1.155   2.178 -0.5929 -0.5176  0.0456
  641poe    c31 3361   5.294   0.659   1.484  0.2507 -0.5720  0.0274
  641poe     o2 3362   5.331   0.786   1.535 -0.3456  0.0554 -1.0529
  641poe    c23 3363   5.445   0.831   1.467  0.3093 -0.1465 -0.1107
  641poe    c23 3364   5.521   0.925   1.563  0.0265 -0.2164  0.1790
  641poe     o2 3365   5.417   1.002   1.619  0.1789  0.0897  0.0377
  641poe    c23 3366   5.469   1.109   1.696  0.1029  0.2833 -0.1784
  641poe    c23 3367   5.345   1.190   1.737  0.2378  0.0554  0.6897
  641poe     o2 3368   5.236   1.113   1.785  0.0317  0.0138  0.1579
  641poe    c23 3369   5.248   1.060   1.915 -0.3474 -0.2054  0.1028
  641poe    c23 3370   5.160   0.933   1.915 -0.1910 -0.3141 -0.1228
  641poe     o2 3371   5.175   0.870   1.790 -0.2051  0.3371 -0.4597
  641poe    c31 3372   5.097   0.753   1.801  0.0566  0.2090  0.1309
  642poe    c31 3373   3.214   4.871   2.031  0.1140  0.2874 -0.6863
  642poe     o2 3374   3.204   4.968   2.132  0.6750  0.0511 -0.3998
  642poe    c23 3375   3.111   4.904   2.218  0.1386  0.4747 -0.6611
  642poe    c23 3376   3.066   5.023   2.304  0.0706 -0.3909  0.5182
  642poe     o2 3377   3.180   5.104   2.323 -0.3891  0.2937  0.4276
  642poe    c23 3378   3.166   5.229   2.385 -0.2458  0.5479 -0.0481
  642poe    c23 3379   3.307   5.291   2.396 -0.0496  0.0685  0.1327
  642poe     o2 3380   3.347   5.288   2.261  0.2077 -0.3617  0.2164
  642poe    c23 3381   3.472   5.336   2.216 -0.0298 -0.1849 -0.2635
  642poe    c23 3382   3.450   5.301   2.068 -0.4187  0.5476 -0.3816
  642poe     o2 3383   3.398   5.173   2.038  0.2354  0.1745  0.0490
  642poe    c31 3384   3.439   5.122   1.913 -0.2358  0.0616 -0.0607
  643poe    c31 3385   1.096   2.326   5.969 -0.2435  0.4587  0.2591
  643poe     o2 3386   1.149   2.198   5.938  0.1118  0.5019  0.6732
  643poe    c23 3387   1.258   2.203   5.849 -0.2189 -0.6831  0.1914
  643poe    c23 3388   1.363   2.097   5.886  0.2901 -0.1817  0.1969
  643poe     o2 3389   1.333   1.962   5.857  0.3596 -0.0825 -0.3363
  643poe    c23 3390   1.437   1.876   5.897  0.2697  0.0477  0.1785
  643poe    c23 3391   1.402   1.731   5.858  0.7129 -0.2875  0.9990
  643poe     o2 3392   1.281   1.699   5.922  0.0105  0.1640 -0.0660
  643poe    c23 3393   1.248   1.572   5.869  0.5782 -0.2134  0.4694
  643poe    c23 3394   1.104   1.555   5.919  0.5407  0.8546  0.7555
  643poe     o2 3395   1.046   1.683   5.907  0.1136  0.6195  0.2733
  643poe    c31 3396   0.910   1.672   5.942 -0.0938  0.4791 -0.5641
  644poe    c31 3397   5.244   4.807   6.501 -0.2179 -0.2283  0.5391
  644poe     o2 3398   5.131   4.886   6.474  0.1836  0.2333  0.1839
  644poe    c23 3399   5.009   4.817   6.491  0.1598  0.2620  0.1281
  644poe    c23 3400   4.877   4.875   6.438 -0.3056 -0.9005 -0.0047
  644poe     o2 3401   4.875   4.887   6.297  0.1602 -0.2215  0.0388
  644poe    c23 3402   4.744   4.859   6.252  0.6087 -1.1270 -0.7308
  644poe    c23 3403   4.767   4.836   6.101 -0.3051 -0.9047 -0.9079
  644poe     o2 3404   4.867   4.927   6.061  0.0400 -1.0030 -0.2920
  644poe    c23 3405   4.868   4.974   5.928  0.0444  0.4620  0.2103
  644poe    c23 3406   4.971   5.088   5.915 -0.0531  0.4752 -0.5272
  644poe     o2 3407   5.080   5.060   6.001 -0.3402 -0.3834 -0.4328
  644poe    c31 3408   5.202   5.098   5.941 -0.5514 -0.0998 -0.6792
  645poe    c31 3409   4.517   0.144   2.220 -0.8645  0.2727  0.6079
  645poe     o2 3410   4.572   0.181   2.096 -0.0695 -0.7373  0.6402
  645poe    c23 3411   4.471   0.171   1.998  0.3575  0.0266  0.1030
  645poe    c23 3412   4.462   0.310   1.934  0.3717  0.0703  0.1962
  645poe     o2 3413   4.595   0.335   1.894  0.3004 -0.3798 -0.3233
  645poe    c23 3414   4.599   0.443   1.803  0.7524  0.3415  0.5377
  645poe    c23 3415   4.749   0.443   1.765  0.5516  0.6775 -0.2663
  645poe     o2 3416   4.816   0.429   1.888  0.8756  0.7803 -0.4299
  645poe    c23 3417   4.938   0.361   1.871  0.3278 -0.1214 -0.8228
  645poe    c23 3418   4.983   0.330   2.014 -0.1590  0.4708 -0.5349
  645poe     o2 3419   4.870   0.272   2.075  0.3329  0.1005  0.0425
  645poe    c31 3420   4.920   0.178   2.168  0.0311 -0.3138 -0.2108
  646poe    c31 3421   4.349   0.664   4.939 -0.2082  0.3641  0.4244
  646poe     o2 3422   4.449   0.760   4.965  0.2804  0.0916 -0.4002
  646poe    c23 3423   4.407   0.874   4.893  0.0401 -0.3468 -0.9616
  646poe    c23 3424   4.489   1.001   4.922 -0.3196 -0.3509  0.1042
  646poe     o2 3425   4.607   0.942   4.972 -0.0620 -0.1639 -0.2722
  646poe    c23 3426   4.728   1.011   4.955 -0.4046  0.4500 -0.2544
  646poe    c23 3427   4.836   0.963   5.053 -0.2610  0.0501 -0.6038
  646poe     o2 3428   4.786   0.833   5.077  0.4441 -0.1182  0.0032
  646poe    c23 3429   4.818   0.791   5.207 -0.2216  0.3161  0.3108
  646poe    c23 3430   4.733   0.668   5.244  0.1664  0.0253  0.2353
  646poe     o2 3431   4.601   0.707   5.215 -0.0423 -0.7451  0.1300
  646poe    c31 3432   4.516   0.661   5.317 -0.5099 -0.5757 -0.1808
  647poe    c31 3433   4.897   6.672   4.784 -0.0302  0.4550  0.2366
  647poe     o2 3434   4.825   6.675   4.905 -0.4373  0.1095  0.0093
  647poe    c23 3435   4.839   6.797   4.975 -0.2194  0.0353  0.0964
  647poe    c23 3436   4.695   6.839   5.008 -0.1193 -0.1100  0.7432
  647poe     o2 3437   4.624   6.730   5.062  0.0428 -0.3196  0.5305
  647poe    c23 3438   4.498   6.782   5.097 -0.1737 -0.1397 -0.4849
  647poe    c23 3439   4.426   6.694   5.200  0.3505 -0.1527 -0.1270
  647poe     o2 3440   4.418   6.558   5.163  0.5749 -0.1798 -0.0800
  647poe    c23 3441   4.315   6.503   5.243  0.3540  0.3863  0.0296
  647poe    c23 3442   4.303   6.351   5.222 -0.0448  0.4402 -0.1286
  647poe     o2 3443   4.419   6.299   5.282 -0.3579  0.2306  0.2993
  647poe    c31 3444   4.451   6.164   5.257  0.0515  0.3183  0.3414
  648poe    c31 3445   5.947   4.379   6.340  0.0775 -0.2877  0.0532
  648poe     o2 3446   5.990   4.460   6.233  0.2607 -0.1164  0.2562
  648poe    c23 3447   5.885   4.494   6.146  0.3943  0.4974  0.3282
  648poe    c23 3448   5.926   4.603   6.046  0.2648  0.1222 -0.1425
  648poe     o2 3449   6.033   4.544   5.976  0.1900 -0.1757 -0.0068
  648poe    c23 3450   6.110   4.641   5.908 -0.4799  0.0380 -0.4666
  648poe    c23 3451   6.248   4.574   5.914 -0.2736  0.5181  0.1933
  648poe     o2 3452   6.286   4.550   6.048 -0.4848  0.0048  0.1628
  648poe    c23 3453   6.400   4.468   6.063 -0.1717  0.4361  0.1903
  648poe    c23 3454   6.423   4.462   6.215 -0.8663  0.3982  0.3013
  648poe     o2 3455   6.292   4.427   6.251 -0.7536  0.0134  0.3434
  648poe    c31 3456   6.293   4.400   6.390 -0.1000  0.1532  0.3684
  649poe    c31 3457   4.148   5.332   6.749  0.3163  0.6590 -0.0266
  649poe     o2 3458   4.102   5.265   6.864  0.0923  0.5863 -0.1579
  649poe    c23 3459   4.012   5.165   6.820  0.3009  0.2156  0.2452
  649poe    c23 3460   3.945   5.071   6.922  0.0927 -0.2870 -0.3523
  649poe     o2 3461   4.024   4.973   6.985  0.2633  0.2149  0.2143
  649poe    c23 3462   3.953   4.916   7.092 -0.3633 -0.7045 -0.6798
  649poe    c23 3463   4.014   4.791   7.159 -0.0886 -0.2576 -0.0887
  649poe     o2 3464   4.025   4.684   7.068 -0.1777 -0.0414 -0.3529
  649poe    c23 3465   4.120   4.590   7.112  0.0151  0.3551  0.0848
  649poe    c23 3466   4.118   4.463   7.025  0.7337  0.2223  0.2507
  649poe     o2 3467   4.074   4.503   6.897  0.7600 -0.2559  0.0912
  649poe    c31 3468   4.044   4.394   6.813 -0.3325  0.3224 -0.2774
  650poe    c31 3469   0.031   5.130   2.357 -0.6335  0.8172 -0.1518
  650poe     o2 3470   0.158   5.171   2.312 -0.5909  0.6847 -0.1542
  650poe    c23 3471   0.209   5.274   2.393  0.5405  0.1620 -0.1826
  650poe    c23 3472   0.341   5.331   2.339  0.7489 -0.0597  0.0888
  650poe     o2 3473   0.398   5.217   2.278 -0.2830 -0.5060 -0.0625
  650poe    c23 3474   0.514   5.250   2.205  0.0198 -0.6202  0.3604
  650poe    c23 3475   0.563   5.123   2.132  0.4737  0.2481 -0.8849
  650poe     o2 3476   0.456   5.067   2.060 -0.0313  0.0183  0.0231
  650poe    c23 3477   0.406   5.138   1.949  0.0484  0.5118  0.3019
  650poe    c23 3478   0.269   5.080   1.906  0.4883 -0.3108 -0.0073
  650poe     o2 3479   0.193   5.078   2.025  0.3743  0.0090 -0.0733
  650poe    c31 3480   0.055   5.058   2.000  0.2825 -0.2256  0.6151
  651poe    c31 3481   6.740   0.722   6.849 -0.0456 -0.4265  0.5200
  651poe     o2 3482   6.783   0.608   6.777 -0.0601  0.1368 -0.3943
  651poe    c23 3483   6.902   0.557   6.833 -0.2035  0.2432  0.0090
  651poe    c23 3484   6.950   0.486   6.706 -0.1723 -0.4448  0.4015
  651poe     o2 3485   6.849   0.419   6.633  0.0183 -0.4306  0.1231
  651poe    c23 3486   6.877   0.282   6.624 -0.3462 -0.5326  0.5280
  651poe    c23 3487   6.772   0.226   6.526  0.0755  0.1737 -0.3392
  651poe     o2 3488   6.652   0.297   6.547 -0.0208  0.0603 -0.5002
  651poe    c23 3489   6.572   0.271   6.434 -0.3160  0.0491 -0.2886
  651poe    c23 3490   6.435   0.340   6.447 -0.4010 -0.2325  0.3245
  651poe     o2 3491   6.445   0.478   6.420  0.0276 -0.2865  0.2013
  651poe    c31 3492   6.324   0.547   6.443 -0.3244 -0.8095 -0.0823
  652poe    c31 3493   0.903   0.529   2.048 -0.0585 -0.0767  0.5076
  652poe     o2 3494   1.027   0.507   1.985 -0.3399 -0.7764  0.1869
  652poe    c23 3495   1.036   0.559   1.855  0.1157 -0.1031  0.4820
  652poe    c23 3496   1.150   0.494   1.774  0.3518 -0.2139  0.9041
  652poe     o2 3497   1.281   0.520   1.820  0.6517  0.5448 -0.3227
  652poe    c23 3498   1.379   0.462   1.737  0.3720 -0.6067  0.1374
  652poe    c23 3499   1.516   0.485   1.803  0.4520  0.1842 -0.2968
  652poe     o2 3500   1.519   0.618   1.851 -0.2460  0.2636 -0.4735
  652poe    c23 3501   1.634   0.655   1.923 -0.1489 -0.0198 -0.4827
  652poe    c23 3502   1.602   0.792   1.984 -0.2147 -0.3893  0.3307
  652poe     o2 3503   1.470   0.784   2.032 -0.4724  0.0369 -0.2902
  652poe    c31 3504   1.444   0.881   2.131  0.0451  0.2656 -0.3725
  653poe    c31 3505   1.638   5.704   6.334  0.7219  0.2653  0.9519
  653poe     o2 3506   1.648   5.564   6.348 -0.3608  0.0393 -0.2997
  653poe    c23 3507   1.731   5.507   6.248  0.3677 -0.2633  0.4670
  653poe    c23 3508   1.690   5.361   6.223  0.3118 -0.1419 -0.1522
  653poe     o2 3509   1.562   5.343   6.166 -0.1020  0.4608  0.5784
  653poe    c23 3510   1.509   5.221   6.213  0.3651 -0.1493 -0.4587
  653poe    c23 3511   1.360   5.200   6.183  0.3315 -0.7114  0.0869
  653poe     o2 3512   1.277   5.293   6.250  0.6627 -0.0574 -0.4074
  653poe    c23 3513   1.142   5.274   6.215  0.4313 -0.0272  0.4448
  653poe    c23 3514   1.052   5.337   6.322 -0.3752 -0.1145 -0.1693
  653poe     o2 3515   1.107   5.465   6.337 -0.3640 -0.2048  0.6208
  653poe    c31 3516   1.030   5.564   6.402  0.3661  0.6966  0.1466
  654poe    c31 3517   5.583   6.191   1.197 -0.2474 -0.2779  0.2454
  654poe     o2 3518   5.539   6.313   1.142 -0.6161 -0.0718  0.9871
  654poe    c23 3519   5.634   6.411   1.176 -0.3720  0.0394  0.0040
  654poe    c23 3520   5.630   6.541   1.094  0.0078 -0.1866 -0.3775
  654poe     o2 3521   5.542   6.647   1.123  0.1626 -0.0957 -0.2326
  654poe    c23 3522   5.408   6.606   1.103 -0.0196  0.3812 -0.0023
  654poe    c23 3523   5.328   6.711   1.183  0.0641  0.3013  0.1862
  654poe     o2 3524   5.372   6.837   1.138 -0.3666  0.2390 -0.4213
  654poe    c23 3525   5.296   6.939   1.199  0.3774  0.4770  0.1297
  654poe    c23 3526   5.356   7.079   1.183  0.4671  0.3803 -0.4035
  654poe     o2 3527   5.491   7.064   1.221  0.3717  0.1902 -0.1395
  654poe    c31 3528   5.559   7.185   1.195  0.2548  0.3644  0.3532
  655poe    c31 3529   3.863   1.143   5.395  0.3818  0.6759  0.2419
  655poe     o2 3530   3.827   1.175   5.262  0.3298 -0.2915  0.0160
  655poe    c23 3531   3.938   1.202   5.178  0.1656  0.5780  0.0709
  655poe    c23 3532   3.887   1.204   5.033 -0.2346 -0.2314  0.1887
  655poe     o2 3533   3.763   1.271   5.032 -0.3527 -0.4528 -0.0956
  655poe    c23 3534   3.692   1.251   4.912 -0.0295  0.6258 -0.4663
  655poe    c23 3535   3.551   1.301   4.947 -0.5642 -0.9217 -0.3698
  655poe     o2 3536   3.536   1.257   5.080  0.5827  0.2734  0.1738
  655poe    c23 3537   3.413   1.293   5.139  0.1634 -0.5332 -0.1894
  655poe    c23 3538   3.422   1.239   5.283  0.0419  0.0091  0.0269
  655poe     o2 3539   3.548   1.280   5.330  0.1826  0.2177 -0.5216
  655poe    c31 3540   3.562   1.257   5.469 -0.0757  0.3846 -0.4679
  656poe    c31 3541   5.692   1.440   4.145  0.0661  0.1797 -0.5785
  656poe     o2 3542   5.820   1.499   4.148 -0.0257  0.3407  0.4540
  656poe    c23 3543   5.911   1.417   4.078 -0.2745  0.2373  0.2477
  656poe    c23 3544   6.035   1.500   4.040 -0.2693  0.0709 -0.1018
  656poe     o2 3545   6.085   1.553   4.161  0.3272 -0.1834 -0.2323
  656poe    c23 3546   6.180   1.658   4.153 -0.1372  0.2546 -0.0431
  656poe    c23 3547   6.192   1.693   4.302  0.1801  0.5473 -0.1354
  656poe     o2 3548   6.058   1.707   4.344  0.0249  0.1692 -0.4949
  656poe    c23 3549   6.029   1.685   4.481  0.3069  0.1918 -0.4304
  656poe    c23 3550   5.882   1.719   4.514  0.2875 -0.0821 -0.2371
  656poe     o2 3551   5.793   1.649   4.430 -0.2744  0.8522 -0.4312
  656poe    c31 3552   5.666   1.633   4.489 -0.1550  0.3846 -0.2982
  657poe    c31 3553   1.689   6.333   2.711 -0.8590 -0.2555 -0.4612
  657poe     o2 3554   1.701   6.221   2.796 -0.5950  0.2410  0.1606
  657poe    c23 3555   1.627   6.244   2.914 -0.7506  0.4367  0.0259
  657poe    c23 3556   1.640   6.126   3.012 -0.2440  0.2564 -0.2495
  657poe     o2 3557   1.650   6.015   2.926  0.2851  0.0426  0.0835
  657poe    c23 3558   1.710   5.902   2.986  0.1289 -0.2343 -0.2821
  657poe    c23 3559   1.762   5.812   2.871  0.5125  0.3834 -0.5974
  657poe     o2 3560   1.826   5.911   2.794  0.1638  0.5549 -0.6697
  657poe    c23 3561   1.880   5.855   2.677  0.3174 -0.9828  0.1127
  657poe    c23 3562   1.800   5.898   2.552  0.4131  0.0825  0.4087
  657poe     o2 3563   1.736   6.021   2.578 -0.0980 -0.0797 -0.0695
  657poe    c31 3564   1.716   6.089   2.456 -0.4260  0.1918  0.1337
  658poe    c31 3565   1.512   5.574   2.076  0.3580  0.0541  0.1623
  658poe     o2 3566   1.393   5.592   2.001  0.0464 -0.2139  0.5897
  658poe    c23 3567   1.274   5.575   2.076 -0.4630  0.1826 -0.1251
  658poe    c23 3568   1.157   5.610   1.982 -0.3487 -0.4188 -0.5005
  658poe     o2 3569   1.178   5.523   1.874 -0.1672 -0.6966 -0.2436
  658poe    c23 3570   1.086   5.562   1.774 -0.1159 -0.4239 -0.1829
  658poe    c23 3571   1.145   5.518   1.639  0.0806  0.4692 -0.4008
  658poe     o2 3572   1.280   5.557   1.640  0.3252 -0.3418  0.6041
  658poe    c23 3573   1.354   5.538   1.521  0.1022  0.0156  0.4047
  658poe    c23 3574   1.363   5.674   1.449 -0.6180  0.0302  0.3374
  658poe     o2 3575   1.438   5.757   1.534  0.1315 -0.3324  0.0362
  658poe    c31 3576   1.534   5.831   1.461 -0.0013 -0.3927 -0.1990
  659poe    c31 3577   4.494   6.378   3.581 -0.1140 -0.0138 -0.1106
  659poe     o2 3578   4.476   6.427   3.712  0.0067  0.0252 -0.1089
  659poe    c23 3579   4.502   6.566   3.715 -0.1435  0.0423  0.5902
  659poe    c23 3580   4.434   6.613   3.845 -0.3756 -0.5340  0.6804
  659poe     o2 3581   4.303   6.663   3.838 -0.1237  0.1234  0.6629
  659poe    c23 3582   4.296   6.802   3.865  0.5517  0.1606  0.6618
  659poe    c23 3583   4.177   6.841   3.954 -0.0985  0.4829 -0.3415
  659poe     o2 3584   4.070   6.806   3.869  0.0758  0.1808 -0.4381
  659poe    c23 3585   3.947   6.840   3.930 -0.0920 -0.1928 -0.5706
  659poe    c23 3586   3.833   6.785   3.842 -0.0574 -0.2267 -0.5939
  659poe     o2 3587   3.870   6.649   3.827 -0.4417 -0.3481 -0.4508
  659poe    c31 3588   3.763   6.559   3.812 -0.2719 -0.6022 -0.1354
  660poe    c31 3589   4.314   1.652   6.651  0.1762 -0.2388 -0.8615
  660poe     o2 3590   4.184   1.606   6.681  0.4161 -0.2550  0.1979
  660poe    c23 3591   4.123   1.552   6.566 -0.1780  0.3925  0.2003
  660poe    c23 3592   4.007   1.462   6.613  0.0445 -0.0228 -0.0396
  660poe     o2 3593   3.926   1.552   6.685  0.1373  0.0852 -0.0708
  660poe    c23 3594   3.800   1.493   6.702  0.1174  0.1633  0.0588
  660poe    c23 3595   3.732   1.609   6.778 -0.2879  0.1173 -0.2277
  660poe     o2 3596   3.826   1.669   6.864 -0.5747  0.2328  0.0032
  660poe    c23 3597   3.791   1.805   6.880 -0.5226  0.1961  0.4376
  660poe    c23 3598   3.915   1.892   6.908 -0.4392  0.0241  0.6052
  660poe     o2 3599   4.010   1.876   6.805 -0.2987  0.0964  0.7234
  660poe    c31 3600   4.107   1.978   6.793 -0.3813  0.1704  0.6928
  661poe    c31 3601   0.560   0.111   5.585 -0.5776  0.3628 -0.1511
  661poe     o2 3602   0.539  -0.029   5.587  0.1429  0.2324 -1.0617
  661poe    c23 3603   0.426  -0.048   5.504 -0.2633 -0.0860 -0.4411
  661poe    c23 3604   0.397  -0.198   5.481  0.1142 -0.1709 -0.3738
  661poe     o2 3605   0.360  -0.261   5.601 -0.2226  0.2484 -0.2571
  661poe    c23 3606   0.311  -0.392   5.585  1.1350 -0.2865 -0.1511
  661poe    c23 3607   0.313  -0.454   5.726 -0.0192 -0.0852 -0.0365
  661poe     o2 3608   0.274  -0.360   5.823  0.3493 -0.0955  0.1248
  661poe    c23 3609   0.239  -0.421   5.945  0.1728 -0.0610  0.0917
  661poe    c23 3610   0.223  -0.323   6.063 -0.0610  0.0502 -0.0312
  661poe     o2 3611   0.292  -0.208   6.019 -0.0113  0.0343  0.0052
  661poe    c31 3612   0.289  -0.106   6.116 -0.8381 -0.4311  0.4860
  662poe    c31 3613   1.042   2.301   2.190 -0.0630  0.2144  0.1006
  662poe     o2 3614   1.086   2.415   2.260  0.2963  0.2804 -0.2296
  662poe    c23 3615   1.227   2.408   2.257  0.3091  0.0863  0.5773
  662poe    c23 3616   1.309   2.537   2.276  0.2911  0.2622 -0.4575
  662poe     o2 3617   1.263   2.650   2.205 -0.4870  0.4091  0.2584
  662poe    c23 3618   1.306   2.772   2.259 -0.1343  0.1124  0.6522
  662poe    c23 3619   1.244   2.890   2.181  0.4303  0.2092  0.3399
  662poe     o2 3620   1.107   2.881   2.214  0.4475  0.4409  0.4729
  662poe    c23 3621   1.036   3.000   2.182 -0.0054  0.0085 -0.1681
  662poe    c23 3622   0.887   2.975   2.209  0.0749 -0.3709 -0.0621
  662poe     o2 3623   0.851   2.863   2.132  0.5319 -0.2109 -0.5062
  662poe    c31 3624   0.713   2.872   2.105  0.2889 -0.5170  0.6014
  663poe    c31 3625   3.381   4.577   6.822  0.8601  0.0012  0.4128
  663poe     o2 3626   3.311   4.557   6.701  0.5714  0.4415  0.5052
  663poe    c23 3627   3.306   4.672   6.619  0.2734  0.4917  0.5937
  663poe    c23 3628   3.213   4.638   6.502  1.1320  0.2732 -0.0342
  663poe     o2 3629   3.245   4.503   6.479 -0.3338 -0.1404  0.2137
  663poe    c23 3630   3.147   4.433   6.406  0.1470 -0.0825 -0.4978
  663poe    c23 3631   3.194   4.287   6.393  0.2943 -0.0487 -0.3470
  663poe     o2 3632   3.208   4.245   6.527 -0.1487  0.2568 -0.2030
  663poe    c23 3633   3.300   4.140   6.537  0.0014  0.4556  0.6033
  663poe    c23 3634   3.339   4.101   6.681  0.4534 -0.6556  0.1973
  663poe     o2 3635   3.420   4.204   6.734 -0.2877  0.1788 -0.2561
  663poe    c31 3636   3.461   4.175   6.866 -0.1217 -0.0221 -0.3520
  664poe    c31 3637   3.473   0.459   2.152  0.5011  0.5804  0.4844
  664poe     o2 3638   3.611   0.435   2.143  0.3075 -0.7336  0.8585
  664poe    c23 3639   3.672   0.481   2.262  0.3828  0.5705  0.3285
  664poe    c23 3640   3.823   0.452   2.249  0.3987  0.2994  1.0810
  664poe     o2 3641   3.828   0.317   2.211  0.1012  0.6886 -0.3950
  664poe    c23 3642   3.957   0.270   2.178 -0.1098 -0.2375  0.0696
  664poe    c23 3643   3.942   0.129   2.117 -0.4261 -0.2432  0.1547
  664poe     o2 3644   3.861   0.147   2.003 -0.2374  0.0441  0.0634
  664poe    c23 3645   3.869   0.032   1.921  0.8730  0.2628 -0.1493
  664poe    c23 3646   3.754   0.027   1.819  0.2900  0.5322  0.4807
  664poe     o2 3647   3.620   0.007   1.856 -0.1170  0.2687 -1.0400
  664poe    c31 3648   3.580  -0.122   1.899  0.3996  0.2933 -0.4648
  665poe    c31 3649   1.337   0.346   4.046 -0.1589  0.2394  0.3913
  665poe     o2 3650   1.362   0.353   4.185 -0.1505  0.2296  0.3900
  665poe    c23 3651   1.475   0.434   4.204  0.0351  0.0971 -0.1251
  665poe    c23 3652   1.512   0.417   4.353 -0.3477 -0.1834 -0.0619
  665poe     o2 3653   1.388   0.424   4.421 -0.0923  0.1586  0.3732
  665poe    c23 3654   1.409   0.403   4.559  0.4499  0.0145  0.2747
  665poe    c23 3655   1.281   0.461   4.623  0.4652  0.5335 -0.1599
  665poe     o2 3656   1.165   0.390   4.585  0.1983  0.7801  0.1814
  665poe    c23 3657   1.045   0.449   4.628 -0.0493  0.5186 -0.1397
  665poe    c23 3658   0.915   0.413   4.554 -0.1789  0.1012  0.2846
  665poe     o2 3659   0.915   0.445   4.417 -0.1275 -0.4498  0.1566
  665poe    c31 3660   0.809   0.379   4.350  0.1866 -0.5406 -0.2549
  666poe    c31 3661   2.368   5.308   2.381  0.0426 -0.0112 -0.2857
  666poe     o2 3662   2.487   5.378   2.351  0.0656  0.0184 -0.1246
  666poe    c23 3663   2.577   5.354   2.457  0.2728 -0.1285 -0.3313
  666poe    c23 3664   2.693   5.455   2.445 -0.4455  0.7546  0.0401
  666poe     o2 3665   2.741   5.447   2.313 -0.0602 -0.3367  0.2408
  666poe    c23 3666   2.866   5.508   2.291 -0.1832 -0.0698  0.2801
  666poe    c23 3667   2.903   5.513   2.142  0.0431 -0.3283  0.3271
  666poe     o2 3668   2.804   5.577   2.065 -0.2052 -0.8723  0.1885
  666poe    c23 3669   2.819   5.544   1.929  0.4559 -0.4590  0.1557
  666poe    c23 3670   2.732   5.620   1.828  0.5828 -0.1533  0.2770
  666poe     o2 3671   2.598   5.606   1.869  0.5193 -0.5873 -0.0721
  666poe    c31 3672   2.494   5.657   1.788  0.6621  0.7815  0.5739
  667poe    c31 3673   6.179   3.403   3.681 -0.5914 -0.1862 -0.2537
  667poe     o2 3674   6.290   3.481   3.644 -0.7006  0.1725  0.1719
  667poe    c23 3675   6.401   3.444   3.721 -0.3719  0.3877 -0.1954
  667poe    c23 3676   6.512   3.548   3.691  0.5534 -0.3319  0.6376
  667poe     o2 3677   6.524   3.539   3.550  0.5331 -0.1176  0.6228
  667poe    c23 3678   6.605   3.643   3.500 -0.3835  0.2853 -0.0583
  667poe    c23 3679   6.600   3.649   3.346 -0.5304 -0.1708 -0.0741
  667poe     o2 3680   6.465   3.665   3.310 -0.5406  0.5375  0.2574
  667poe    c23 3681   6.442   3.725   3.185  0.1053 -0.3867 -0.3067
  667poe    c23 3682   6.292   3.752   3.166  0.0805 -0.1250  0.2570
  667poe     o2 3683   6.237   3.864   3.231  0.1178 -0.0952  0.2380
  667poe    c31 3684   6.096   3.876   3.229  0.1367  0.0908  0.0440
  668poe    c31 3685   2.712   6.648   5.885 -0.3027 -0.0725  0.3285
  668poe     o2 3686   2.591   6.661   5.815  0.0473  0.0103 -0.2632
  668poe    c23 3687   2.624   6.743   5.704  0.3516  0.0555 -0.1395
  668poe    c23 3688   2.503   6.771   5.613  0.1973 -0.2778 -0.0397
  668poe     o2 3689   2.440   6.645   5.621 -0.4871  0.0818  0.2897
  668poe    c23 3690   2.319   6.647   5.548 -0.5797  0.0467  0.4424
  668poe    c23 3691   2.245   6.515   5.578  0.2104 -0.5170 -0.0692
  668poe     o2 3692   2.209   6.520   5.714  0.3313  0.1296 -0.0589
  668poe    c23 3693   2.217   6.387   5.760 -0.0393  0.0841 -0.1275
  668poe    c23 3694   2.243   6.402   5.911  0.2428  0.0118 -0.1685
  668poe     o2 3695   2.367   6.465   5.932  0.1747  0.1401 -0.1489
  668poe    c31 3696   2.407   6.446   6.066  0.1184  0.6658 -0.0550
  669poe    c31 3697   6.631   1.429   6.773  0.6867  0.1704 -0.3593
  669poe     o2 3698   6.594   1.316   6.698  0.2988  0.1594 -0.1516
  669poe    c23 3699   6.634   1.189   6.743  0.0807  0.2251  0.2300
  669poe    c23 3700   6.559   1.075   6.670  0.0151  0.1292  0.4457
  669poe     o2 3701   6.578   1.115   6.536 -0.2006  0.1350  0.4162
  669poe    c23 3702   6.486   1.063   6.443  0.0940 -0.2411  0.3302
  669poe    c23 3703   6.489   1.154   6.318 -0.4459 -0.0223  0.4736
  669poe     o2 3704   6.439   1.280   6.356 -0.5856  0.0708 -0.0197
  669poe    c23 3705   6.421   1.382   6.261 -0.4624  0.0464 -0.0693
  669poe    c23 3706   6.346   1.475   6.358 -0.0369  0.2685  0.0501
  669poe     o2 3707   6.433   1.493   6.467  0.2852  0.4444 -0.2342
  669poe    c31 3708   6.384   1.601   6.542 -0.5442 -0.4171  0.4866
  670poe    c31 3709   3.576   3.855   5.856 -0.3987 -0.5017 -0.1930
  670poe     o2 3710   3.712   3.890   5.867 -0.4964 -0.1235 -0.1810
  670poe    c23 3711   3.765   3.861   5.994 -0.0904  0.1678 -0.2835
  670poe    c23 3712   3.912   3.907   6.011 -0.1728  0.2174  0.3003
  670poe     o2 3713   3.933   4.040   6.053 -0.0469  0.2809  0.0349
  670poe    c23 3714   4.069   4.076   6.043 -0.0270  0.0681 -0.4961
  670poe    c23 3715   4.073   4.230   6.043  0.1684  0.0636 -0.0587
  670poe     o2 3716   3.989   4.272   5.938  0.3724  0.2593 -0.1449
  670poe    c23 3717   4.000   4.412   5.927 -0.5596  0.3718  0.2997
  670poe    c23 3718   3.884   4.465   5.841 -0.7047  0.2298  0.4073
  670poe     o2 3719   3.770   4.385   5.866 -0.4454  0.0111  0.8948
  670poe    c31 3720   3.666   4.431   5.783 -0.7557  0.0477  1.3013
  671poe    c31 3721   6.117   5.730   4.814  0.2202 -0.0364 -0.3072
  671poe     o2 3722   6.013   5.819   4.781  0.2615  0.1360  0.0190
  671poe    c23 3723   6.058   5.951   4.760 -0.2035  0.3885  0.5623
  671poe    c23 3724   5.946   6.004   4.669  0.0625  0.0181  0.0124
  671poe     o2 3725   5.825   5.967   4.729  0.1334  0.0195  0.1557
  671poe    c23 3726   5.719   6.052   4.692  0.2943 -0.0100 -0.3794
  671poe    c23 3727   5.592   5.996   4.761  0.5579  0.0529  0.1601
  671poe     o2 3728   5.557   5.883   4.685 -0.2707  0.5753 -0.2470
  671poe    c23 3729   5.419   5.855   4.685 -0.1683  0.0679 -0.1119
  671poe    c23 3730   5.385   5.738   4.590 -0.2565 -0.1327  0.1622
  671poe     o2 3731   5.454   5.619   4.621 -0.1068 -0.0625  0.1035
  671poe    c31 3732   5.348   5.525   4.621 -0.3348  0.1854 -0.6548
  672poe    c31 3733   3.006   6.737   3.618 -0.8081 -0.7191 -0.2127
  672poe     o2 3734   3.015   6.742   3.477 -0.2176  0.0541 -0.1485
  672poe    c23 3735   2.880   6.721   3.441 -0.2438  0.2420 -0.1651
  672poe    c23 3736   2.852   6.752   3.292 -0.1591  0.2704 -0.1751
  672poe     o2 3737   2.876   6.888   3.263  0.0015  0.2006 -0.3684
  672poe    c23 3738   2.865   6.922   3.126 -0.1824  0.4157 -0.3004
  672poe    c23 3739   2.837   7.073   3.141 -0.3450  0.2782  0.8931
  672poe     o2 3740   2.932   7.132   3.227  0.8262 -0.5766  0.2253
  672poe    c23 3741   2.942   7.270   3.202 -0.0383 -0.4010  0.7846
  672poe    c23 3742   3.010   7.346   3.318  0.1573 -0.0268  0.4306
  672poe     o2 3743   2.917   7.341   3.424 -0.0061  0.2409  0.2988
  672poe    c31 3744   2.978   7.405   3.533  0.3752  0.1852  0.1172
  673poe    c31 3745   0.020   3.143   4.597  0.1160 -0.2768 -0.2398
  673poe     o2 3746  -0.091   3.166   4.513  0.2317 -0.1947 -0.3710
  673poe    c23 3747  -0.083   3.091   4.393  0.4190 -0.3830 -0.2418
  673poe    c23 3748  -0.212   3.069   4.312  0.0099 -0.9190  0.5390
  673poe     o2 3749  -0.334   3.048   4.379 -0.3116  0.4564  0.4329
  673poe    c23 3750  -0.447   3.055   4.295  0.4005  0.0077 -0.5838
  673poe    c23 3751  -0.565   3.118   4.371  0.1672 -0.4163 -0.5877
  673poe     o2 3752  -0.589   3.051   4.493 -0.5037 -0.4837 -0.7540
  673poe    c23 3753  -0.695   3.095   4.573  0.2687  0.8038 -0.4044
  673poe    c23 3754  -0.699   3.016   4.705  0.2028  0.8524 -0.3769
  673poe     o2 3755  -0.566   2.982   4.738 -0.3729 -0.4551  0.7153
  673poe    c31 3756  -0.548   2.933   4.869 -0.1974 -0.9432  0.5105
  674poe    c31 3757   3.710   2.947   2.425  0.0030  0.3469 -0.0943
  674poe     o2 3758   3.746   2.965   2.290  0.2075 -0.1213 -0.1031
  674poe    c23 3759   3.842   2.865   2.261  0.1593 -0.1922 -0.0179
  674poe    c23 3760   3.898   2.896   2.121  0.4231 -0.4481  0.0308
  674poe     o2 3761   3.894   3.036   2.114  0.5064 -0.4420  0.1128
  674poe    c23 3762   3.918   3.078   1.981  0.2217  0.1630  0.2475
  674poe    c23 3763   3.886   3.228   1.983  0.0184  0.1156  0.6295
  674poe     o2 3764   3.766   3.251   2.054 -0.2864  0.2976  0.0589
  674poe    c23 3765   3.648   3.238   1.977  0.0707 -0.0596 -0.4305
  674poe    c23 3766   3.531   3.251   2.076  0.4243 -0.3142  0.0276
  674poe     o2 3767   3.568   3.182   2.193  0.4310  0.0805  0.2621
  674poe    c31 3768   3.459   3.169   2.281  0.2767  0.7142  0.1659
  675poe    c31 3769   2.074   5.438   0.298  0.5135  0.1527 -0.0666
  675poe     o2 3770   2.028   5.341   0.207 -0.2190 -0.0927  0.5551
  675poe    c23 3771   2.115   5.232   0.223  0.0120 -0.0346 -0.2478
  675poe    c23 3772   2.066   5.123   0.125 -0.4622 -0.0118 -0.0360
  675poe     o2 3773   2.028   5.179   0.002 -0.6106  0.2444  0.1241
  675poe    c23 3774   1.972   5.094  -0.095  0.3716  0.3070 -0.5209
  675poe    c23 3775   1.920   5.200  -0.193  0.0884  0.2512 -0.4330
  675poe     o2 3776   1.840   5.288  -0.117  0.2222 -0.1268  0.1507
  675poe    c23 3777   1.808   5.400  -0.197 -0.5078 -0.4184  0.0324
  675poe    c23 3778   1.809   5.521  -0.102  0.6625 -0.3626 -0.0422
  675poe     o2 3779   1.921   5.513  -0.016  0.9832 -0.1156 -0.4341
  675poe    c31 3780   1.971   5.641   0.017 -0.1043  0.5589 -1.3255
  676poe    c31 3781   4.131   5.588   2.262 -0.0758  0.2754 -0.2576
  676poe     o2 3782   4.066   5.711   2.285 -0.2093  0.1762 -0.1007
  676poe    c23 3783   3.930   5.717   2.248 -0.1923  0.0455 -0.1824
  676poe    c23 3784   3.879   5.859   2.281 -0.8685 -0.1207 -0.4788
  676poe     o2 3785   3.984   5.944   2.240 -0.4877 -0.1712  0.3724
  676poe    c23 3786   3.955   6.082   2.240  0.4102  0.0231  0.5866
  676poe    c23 3787   4.073   6.149   2.168 -0.2025  0.5946  0.1090
  676poe     o2 3788   4.196   6.104   2.218 -0.2247  0.1599 -0.2234
  676poe    c23 3789   4.292   6.199   2.178 -0.0734  0.1166  0.0303
  676poe    c23 3790   4.436   6.159   2.216 -0.2968 -0.4715  0.2678
  676poe     o2 3791   4.480   6.051   2.138  0.4291  0.4947 -0.6831
  676poe    c31 3792   4.616   6.015   2.149  0.2832  0.0114 -0.4512
  677poe    c31 3793   0.287   5.198   1.177  0.1290 -0.0970  0.0430
  677poe     o2 3794   0.406   5.135   1.133  0.3102 -0.0485  0.4598
  677poe    c23 3795   0.503   5.154   1.233  0.7204  0.3170 -0.0050
  677poe    c23 3796   0.645   5.113   1.189  0.5739  0.0882 -0.2689
  677poe     o2 3797   0.653   4.983   1.135 -0.2040 -0.0536 -0.0467
  677poe    c23 3798   0.788   4.963   1.100 -0.0903 -0.2348  0.4834
  677poe    c23 3799   0.826   4.831   1.031  0.2551 -0.3983  0.9775
  677poe     o2 3800   0.747   4.819   0.914  0.4017  0.7103  0.7513
  677poe    c23 3801   0.730   4.683   0.879  0.7385  0.7239  0.5384
  677poe    c23 3802   0.633   4.686   0.760  0.6671  0.2460  0.5833
  677poe     o2 3803   0.527   4.775   0.787  0.2259 -0.0599 -0.1030
  677poe    c31 3804   0.418   4.755   0.699  0.3935  0.2335 -0.3818
  678poe    c31 3805   6.271   4.604   4.494 -0.1736  0.1806  0.0907
  678poe     o2 3806   6.337   4.583   4.372 -0.1133 -0.0536  0.1619
  678poe    c23 3807   6.377   4.449   4.349  0.0268 -0.0315  0.2706
  678poe    c23 3808   6.415   4.420   4.203  0.1645 -0.4551  0.3892
  678poe     o2 3809   6.336   4.514   4.132  0.9066 -0.1879 -0.0914
  678poe    c23 3810   6.358   4.500   3.993 -0.1164 -0.1993 -0.2600
  678poe    c23 3811   6.268   4.613   3.939 -0.1056 -0.0621  0.0043
  678poe     o2 3812   6.289   4.721   4.027 -0.4893  0.5579 -0.6640
  678poe    c23 3813   6.391   4.816   4.005  0.0725  0.1737  0.2558
  678poe    c23 3814   6.383   4.912   4.126  0.5711  0.2363  0.2424
  678poe     o2 3815   6.385   4.840   4.247  0.4860 -0.0875  0.0535
  678poe    c31 3816   6.390   4.947   4.339  0.2289 -0.7023  0.7963
  679poe    c31 3817   1.713   0.983   3.680 -0.5143  0.8037 -0.0027
  679poe     o2 3818   1.720   0.906   3.798  0.1044 -0.2363 -0.7073
  679poe    c23 3819   1.832   0.821   3.790  0.5543  0.2513  0.3297
  679poe    c23 3820   1.827   0.757   3.930 -0.1637 -0.7619 -0.1429
  679poe     o2 3821   1.772   0.836   4.034  0.0535 -0.1823 -0.4632
  679poe    c23 3822   1.763   0.754   4.148 -0.5310  0.0803 -0.3170
  679poe    c23 3823   1.707   0.825   4.273  0.4027 -0.0373  0.1730
  679poe     o2 3824   1.602   0.913   4.242  0.0663 -0.3232  0.4940
  679poe    c23 3825   1.565   0.990   4.354  0.4888  0.7775 -0.0974
  679poe    c23 3826   1.448   1.079   4.309 -0.2422  0.2485  0.7176
  679poe     o2 3827   1.318   1.025   4.305 -0.2687  0.3567 -0.0265
  679poe    c31 3828   1.284   0.947   4.192 -0.0290  0.2295 -0.0123
  680poe    c31 3829   2.878   3.701   2.815 -0.3055  0.0136 -0.1331
  680poe     o2 3830   2.892   3.579   2.883 -0.4409 -0.0033 -0.1349
  680poe    c23 3831   2.912   3.470   2.796  0.6670  0.2682 -0.2362
  680poe    c23 3832   2.950   3.350   2.885  0.6976  0.8512  0.5501
  680poe     o2 3833   2.853   3.352   2.987 -0.1959 -0.4791 -0.2379
  680poe    c23 3834   2.887   3.253   3.082 -0.5591 -0.4436 -0.0687
  680poe    c23 3835   2.808   3.291   3.208  0.1306  0.1240  0.1955
  680poe     o2 3836   2.844   3.426   3.232  0.4111  0.1214 -0.1997
  680poe    c23 3837   2.797   3.461   3.361  0.1830 -0.0599 -0.2319
  680poe    c23 3838   2.896   3.530   3.457 -0.1953  0.1561  0.0042
  680poe     o2 3839   2.938   3.652   3.401  0.0809  0.2044  0.3146
  680poe    c31 3840   3.027   3.720   3.486  0.2089 -0.6912  0.9004
  681poe    c31 3841   0.929   3.689   4.299  0.2987  0.1528  0.2625
  681poe     o2 3842   0.890   3.769   4.189  0.0209 -0.4899 -0.1142
  681poe    c23 3843   0.751   3.769   4.164  0.0273  0.2829 -0.1816
  681poe    c23 3844   0.714   3.917   4.146  0.1877  0.3243 -0.1683
  681poe     o2 3845   0.799   3.968   4.046 -0.0668  0.0323 -0.5334
  681poe    c23 3846   0.782   4.108   4.053  0.3121  0.0857 -0.6564
  681poe    c23 3847   0.917   4.170   4.011  0.4258  0.1953 -0.1470
  681poe     o2 3848   1.004   4.059   4.019  0.3076  0.0604 -0.6320
  681poe    c23 3849   1.139   4.081   3.985  0.4308 -0.0674 -0.2360
  681poe    c23 3850   1.199   3.962   4.062  0.0381 -0.1179 -0.0055
  681poe     o2 3851   1.130   3.843   4.031 -0.5019  0.2150 -0.0891
  681poe    c31 3852   1.217   3.735   4.003 -0.0880  0.5326 -0.0489
  682poe    c31 3853   4.728   1.465   6.208  1.0834  0.2391  0.6782
  682poe     o2 3854   4.808   1.450   6.092  0.6443 -0.1725  0.4241
  682poe    c23 3855   4.868   1.573   6.059 -0.1474  0.1438  0.1488
  682poe    c23 3856   4.956   1.545   5.936 -0.9018  0.1961 -0.4099
  682poe     o2 3857   4.990   1.408   5.943 -0.0941  0.3866 -0.5278
  682poe    c23 3858   5.083   1.394   5.838 -0.0578  0.7582 -0.5449
  682poe    c23 3859   5.118   1.246   5.815 -0.7202  0.6102 -0.6285
  682poe     o2 3860   4.998   1.171   5.819 -0.4354  0.1901  0.3765
  682poe    c23 3861   5.003   1.040   5.769 -0.3623  0.4083 -0.2052
  682poe    c23 3862   4.864   0.981   5.799 -0.2031  0.1512  0.0352
  682poe     o2 3863   4.832   0.966   5.936  0.2355 -0.4039  0.0814
  682poe    c31 3864   4.717   0.885   5.938 -0.3962  0.4567 -0.3245
  683poe    c31 3865   6.151   1.090   5.700  0.4020  0.2334  0.0312
  683poe     o2 3866   6.057   0.990   5.668 -0.0757  0.5610  0.3751
  683poe    c23 3867   5.939   1.014   5.740 -0.0491  0.1392  0.5656
  683poe    c23 3868   5.872   0.876   5.749 -0.7998  0.4735  0.2522
  683poe     o2 3869   5.891   0.833   5.616  0.2873 -0.3043  0.6427
  683poe    c23 3870   5.835   0.706   5.593  0.2089 -0.1548 -0.0016
  683poe    c23 3871   5.859   0.662   5.447 -0.2826 -0.5283  0.0290
  683poe     o2 3872   5.996   0.665   5.417 -0.3538  0.5801 -0.2110
  683poe    c23 3873   6.025   0.609   5.291 -0.2194 -0.1749  0.1528
  683poe    c23 3874   6.177   0.616   5.268 -0.2884  0.0573 -0.2568
  683poe     o2 3875   6.247   0.733   5.306 -0.1435 -0.1847  0.2398
  683poe    c31 3876   6.382   0.719   5.267 -0.1967 -0.3309  0.1026
  684poe    c31 3877   3.832   3.864   1.260  0.0760  0.0458 -0.4539
  684poe     o2 3878   3.844   3.798   1.384 -0.0187  0.0738 -0.4297
  684poe    c23 3879   3.840   3.658   1.372  1.4917 -0.0336  0.1053
  684poe    c23 3880   3.838   3.587   1.509 -0.2182 -0.2017  0.0218
  684poe     o2 3881   3.903   3.683   1.590 -0.4524 -0.1677  0.1696
  684poe    c23 3882   3.897   3.641   1.725  0.1764 -0.2773  0.1645
  684poe    c23 3883   3.860   3.770   1.799 -0.1431 -0.2363 -0.0669
  684poe     o2 3884   3.928   3.881   1.746 -0.4409  0.0133  0.0699
  684poe    c23 3885   3.934   3.981   1.846  0.4299  0.2311 -0.1918
  684poe    c23 3886   4.023   4.099   1.802  0.3324  0.1508 -0.6080
  684poe     o2 3887   3.952   4.182   1.713  0.0896  0.7563  0.1381
  684poe    c31 3888   4.008   4.309   1.686 -0.0365  0.6657 -0.5769
  685poe    c31 3889   5.884   5.170   0.530  0.4940 -0.4069  0.4449
  685poe     o2 3890   5.776   5.205   0.614  0.2117  0.5213 -0.2860
  685poe    c23 3891   5.658   5.176   0.544  0.1627 -0.0769  0.0416
  685poe    c23 3892   5.544   5.225   0.635 -0.1341  0.5002 -0.6299
  685poe     o2 3893   5.594   5.334   0.709  0.3442 -0.2576  0.1775
  685poe    c23 3894   5.500   5.405   0.786  0.5756  0.0434  0.1851
  685poe    c23 3895   5.543   5.503   0.897 -0.0414  0.2880  0.2113
  685poe     o2 3896   5.663   5.461   0.957 -0.1465  0.0459  0.2494
  685poe    c23 3897   5.732   5.565   1.022  0.1634  0.3777 -0.5996
  685poe    c23 3898   5.854   5.520   1.104 -0.3887  0.8159  0.4815
  685poe     o2 3899   5.960   5.485   1.018  0.0563  0.7725  1.0365
  685poe    c31 3900   6.071   5.447   1.096 -0.1422  0.1260  1.0110
  686poe    c31 3901   5.666   5.586   4.163 -0.3703  0.4250  0.0530
  686poe     o2 3902   5.571   5.484   4.143  0.2058 -0.1655  0.3028
  686poe    c23 3903   5.459   5.530   4.216 -0.1150 -0.6302  0.1073
  686poe    c23 3904   5.336   5.441   4.190 -0.1424 -0.5271 -0.1188
  686poe     o2 3905   5.334   5.409   4.053  0.2730  0.2412 -0.3102
  686poe    c23 3906   5.255   5.292   4.042  1.1249 -0.4900  1.1265
  686poe    c23 3907   5.269   5.251   3.895 -0.1738 -0.2072  0.9155
  686poe     o2 3908   5.404   5.237   3.857 -0.4417 -0.0680 -0.1082
  686poe    c23 3909   5.437   5.329   3.756  0.5737 -0.5245 -0.1985
  686poe    c23 3910   5.587   5.366   3.755  0.4406  0.0179 -0.2821
  686poe     o2 3911   5.627   5.416   3.880  0.2465  0.2288 -0.3019
  686poe    c31 3912   5.765   5.443   3.863  0.2829  0.2052 -0.0525
  687poe    c31 3913   4.507   2.722   2.176  0.2250 -0.2310  0.1865
  687poe     o2 3914   4.524   2.601   2.247  0.4225 -0.0178  0.5044
  687poe    c23 3915   4.660   2.581   2.278  0.5424 -0.1565 -0.0939
  687poe    c23 3916   4.670   2.522   2.420 -0.1806  0.6469  0.2999
  687poe     o2 3917   4.620   2.391   2.432  0.9640  0.1781  0.0284
  687poe    c23 3918   4.601   2.355   2.567 -0.2211  0.2540 -0.1089
  687poe    c23 3919   4.554   2.212   2.601  0.0481  0.2203  0.1258
  687poe     o2 3920   4.470   2.167   2.497  0.1961  0.2847 -0.0215
  687poe    c23 3921   4.419   2.036   2.504  0.0622  0.3107 -0.5226
  687poe    c23 3922   4.317   2.017   2.390 -0.2614  0.2656 -0.2257
  687poe     o2 3923   4.375   2.060   2.269  0.3440  0.2945  0.0728
  687poe    c31 3924   4.304   2.040   2.149  0.3088  0.4614  0.0646
  688poe    c31 3925   1.635   1.600   5.558 -0.0069  0.6509  0.3895
  688poe     o2 3926   1.696   1.666   5.449 -0.1147 -0.0768 -0.1154
  688poe    c23 3927   1.715   1.581   5.339 -0.2148  0.4440 -0.5376
  688poe    c23 3928   1.738   1.657   5.207  0.0795  0.0255 -0.7303
  688poe     o2 3929   1.816   1.762   5.259  0.0726 -0.0180 -0.6312
  688poe    c23 3930   1.848   1.860   5.163  0.5814  0.4749  0.0309
  688poe    c23 3931   1.936   1.975   5.216  0.7878  0.2636  0.1495
  688poe     o2 3932   1.899   2.007   5.348  0.5237 -0.0330  0.1477
  688poe    c23 3933   1.960   2.128   5.388  0.9154 -0.3473  0.5150
  688poe    c23 3934   1.883   2.191   5.505  0.3431 -0.0732 -0.0051
  688poe     o2 3935   1.903   2.131   5.631  0.1606 -0.0881  0.0180
  688poe    c31 3936   1.807   2.183   5.720  0.6195 -0.3742  0.6857
  689poe    c31 3937   2.326   1.912   5.813 -0.3309 -0.2777  0.0878
  689poe     o2 3938   2.430   1.981   5.879 -0.3371 -0.2739  0.0937
  689poe    c23 3939   2.550   1.912   5.854 -0.1839  0.0223  0.0175
  689poe    c23 3940   2.650   2.003   5.928 -0.0406  0.1391 -0.3144
  689poe     o2 3941   2.612   2.137   5.907  0.6914  0.3392 -0.3882
  689poe    c23 3942   2.637   2.220   6.018 -0.2883 -0.2719  0.3059
  689poe    c23 3943   2.586   2.363   5.997 -0.2212 -0.2528  0.2693
  689poe     o2 3944   2.457   2.336   5.946 -0.1568  0.0773 -0.0735
  689poe    c23 3945   2.391   2.461   5.943  0.2965  0.3253  0.1504
  689poe    c23 3946   2.243   2.440   5.979  0.3828 -0.4471  0.0816
  689poe     o2 3947   2.172   2.365   5.883 -0.2497 -0.6904  0.7358
  689poe    c31 3948   2.034   2.387   5.905 -0.2133  0.0678  0.2194
  690poe    c31 3949   6.266   5.778   0.983  0.3703  0.1582  0.1861
  690poe     o2 3950   6.368   5.778   1.080  0.2520 -0.3485  0.3111
  690poe    c23 3951   6.488   5.842   1.043 -0.0519  0.1558  0.1923
  690poe    c23 3952   6.574   5.872   1.166 -0.0292 -0.3144  0.2930
  690poe     o2 3953   6.624   5.758   1.232  0.4873 -0.0930  0.2985
  690poe    c23 3954   6.718   5.810   1.323 -0.5607 -0.0434  1.3856
  690poe    c23 3955   6.785   5.686   1.384  0.0106 -0.4201  0.0138
  690poe     o2 3956   6.676   5.617   1.441 -0.2996  0.2015  0.1773
  690poe    c23 3957   6.720   5.493   1.491 -0.1370  0.3381  0.3723
  690poe    c23 3958   6.597   5.429   1.559 -0.5541  0.4613 -0.2565
  690poe     o2 3959   6.503   5.431   1.454 -0.5987  0.3373 -0.2189
  690poe    c31 3960   6.407   5.332   1.483 -0.1192 -0.0153  0.1934
  691poe    c31 3961   4.498   3.103   0.164  0.3277  0.1533 -0.0555
  691poe     o2 3962   4.503   3.151   0.032 -0.2912 -0.5853 -0.3541
  691poe    c23 3963   4.414   3.068  -0.039 -0.8291 -0.1276 -0.2180
  691poe    c23 3964   4.474   3.043  -0.179  0.2325  0.7301  0.0721
  691poe     o2 3965   4.478   3.159  -0.260 -0.2275  0.4693 -0.3293
  691poe    c23 3966   4.588   3.172  -0.348  0.2433 -0.1449  0.1500
  691poe    c23 3967   4.643   3.312  -0.313  0.1607 -0.0681 -0.0214
  691poe     o2 3968   4.678   3.313  -0.176  0.9854 -0.1873 -0.2215
  691poe    c23 3969   4.779   3.409  -0.159  0.0387  0.7198  0.4372
  691poe    c23 3970   4.845   3.356  -0.030  0.0516 -0.4930 -0.0566
  691poe     o2 3971   4.743   3.326   0.062 -0.0800 -0.6943 -0.2641
  691poe    c31 3972   4.808   3.303   0.185  0.2571 -0.5302 -0.4105
  692poe    c31 3973   6.769   0.407   1.106  0.3207 -0.6645 -0.3533
  692poe     o2 3974   6.888   0.344   1.148  0.4317 -0.5541 -0.5019
  692poe    c23 3975   7.000   0.428   1.130  0.0380  0.1423  0.2670
  692poe    c23 3976   7.130   0.359   1.175 -0.1735 -0.2057  0.3489
  692poe     o2 3977   7.152   0.244   1.096 -0.2031 -0.0333  0.0877
  692poe    c23 3978   7.265   0.180   1.151 -0.2908 -0.1220  0.1643
  692poe    c23 3979   7.273   0.031   1.112  0.0530  0.0241 -0.3316
  692poe     o2 3980   7.154  -0.038   1.140  0.2232 -0.1538 -0.0359
  692poe    c23 3981   7.160  -0.172   1.095  0.0065 -0.2246  0.1414
  692poe    c23 3982   7.043  -0.240   1.168 -0.0546 -0.0803  0.1774
  692poe     o2 3983   6.933  -0.156   1.142  0.1806 -0.1143 -0.9732
  692poe    c31 3984   6.827  -0.235   1.191  0.4323 -0.2606 -0.6641
  693poe    c31 3985   2.147   2.102   3.978  0.5603  0.3906 -0.7658
  693poe     o2 3986   2.176   1.981   4.043 -0.7489  0.2459 -0.4388
  693poe    c23 3987   2.092   1.986   4.156 -0.7428 -0.2357 -0.4094
  693poe    c23 3988   2.095   1.857   4.240  0.1071 -0.0528 -0.1427
  693poe     o2 3989   2.097   1.752   4.145  0.4180 -0.2324  0.0586
  693poe    c23 3990   2.065   1.632   4.213 -0.4935 -0.0664 -0.0581
  693poe    c23 3991   2.176   1.526   4.211 -0.6485 -0.2317  0.1264
  693poe     o2 3992   2.284   1.585   4.280 -0.2579 -0.6097 -0.1497
  693poe    c23 3993   2.399   1.505   4.291  0.1567  0.0106  0.0650
  693poe    c23 3994   2.522   1.595   4.320 -0.2982  0.5555  0.3289
  693poe     o2 3995   2.525   1.638   4.454 -1.0178  0.2043  0.4626
  693poe    c31 3996   2.614   1.746   4.465 -0.6319 -0.0867  0.2226
  694poe    c31 3997   1.979   0.098   3.320  0.8669  0.0148 -0.0177
  694poe     o2 3998   1.914   0.099   3.445 -0.1449 -0.3131 -0.5220
  694poe    c23 3999   1.917  -0.028   3.506  0.4528 -0.0998 -0.0944
  694poe    c23 4000   1.840   0.010   3.634  0.5464  0.2139 -0.1304
  694poe     o2 4001   1.726   0.087   3.604  0.1942 -0.1530  0.2450
  694poe    c23 4002   1.660   0.123   3.723  0.1943  0.3725  0.0869
  694poe    c23 4003   1.573   0.244   3.683  0.3244  0.4966  0.1742
  694poe     o2 4004   1.642   0.341   3.609  0.3218  0.0864 -0.3751
  694poe    c23 4005   1.710   0.434   3.691  0.2636 -0.7105  0.5818
  694poe    c23 4006   1.816   0.493   3.596 -0.1113 -0.8076  0.0977
  694poe     o2 4007   1.882   0.393   3.523  0.2063 -0.1762 -0.4906
  694poe    c31 4008   2.013   0.427   3.483  0.4270 -0.2224  0.1844
  695poe    c31 4009   4.463   5.556   0.279  0.2715 -0.1786  0.1676
  695poe     o2 4010   4.570   5.636   0.325  0.1731  0.1125 -0.1058
  695poe    c23 4011   4.679   5.559   0.370  0.8766  0.5738 -0.9958
  695poe    c23 4012   4.746   5.643   0.481 -0.3429 -0.3810  0.4966
  695poe     o2 4013   4.739   5.775   0.432  0.1092 -0.4141  0.3410
  695poe    c23 4014   4.775   5.861   0.537  0.1497 -0.3994  0.3146
  695poe    c23 4015   4.771   6.004   0.479  0.1279 -0.3424  0.4587
  695poe     o2 4016   4.652   6.027   0.408  0.3214 -0.1653  0.1910
  695poe    c23 4017   4.649   6.158   0.357 -0.0680 -0.3130 -0.1733
  695poe    c23 4018   4.524   6.191   0.272 -0.4913 -0.4629  0.3869
  695poe     o2 4019   4.516   6.117   0.153  0.1896  0.2645 -0.1209
  695poe    c31 4020   4.397   6.177   0.106  0.4886  0.4553 -0.6472
  696poe    c31 4021   6.527   5.540   2.810  0.0702  0.4489  0.2327
  696poe     o2 4022   6.608   5.557   2.696 -0.2972 -0.0347 -0.1039
  696poe    c23 4023   6.652   5.438   2.634  0.6005  0.0984  0.2504
  696poe    c23 4024   6.710   5.467   2.494 -0.3068 -0.0789 -0.1725
  696poe     o2 4025   6.788   5.583   2.510 -0.5334  0.0296  0.1582
  696poe    c23 4026   6.861   5.616   2.394 -0.0735 -0.3432  0.3398
  696poe    c23 4027   6.925   5.756   2.402 -0.2919 -0.2178 -0.0748
  696poe     o2 4028   6.826   5.855   2.405  0.1580  0.2334  0.0714
  696poe    c23 4029   6.870   5.976   2.347  0.0656  0.3004  0.1410
  696poe    c23 4030   6.769   6.093   2.352  0.0025  0.2503  0.0427
  696poe     o2 4031   6.823   6.222   2.364 -0.5387  0.4797  0.0455
  696poe    c31 4032   6.910   6.270   2.264  0.2161 -0.2482  0.3368
  697poe    c31 4033   3.671   5.358   1.547  0.1773  0.0819  0.1581
  697poe     o2 4034   3.673   5.219   1.573 -0.0598  0.1369  0.4743
  697poe    c23 4035   3.738   5.197   1.696  0.6433 -0.1044  0.0663
  697poe    c23 4036   3.785   5.053   1.718  0.4263 -0.1381  0.3217
  697poe     o2 4037   3.664   4.982   1.737  0.4619 -0.2039  0.3021
  697poe    c23 4038   3.686   4.850   1.691 -0.3489 -0.2530  0.0428
  697poe    c23 4039   3.563   4.767   1.729 -0.2249 -0.4356  0.0442
  697poe     o2 4040   3.446   4.779   1.650 -0.0400 -0.0807 -0.1738
  697poe    c23 4041   3.343   4.709   1.715 -0.0344  0.4675  0.4432
  697poe    c23 4042   3.219   4.751   1.633  0.2696 -0.6297 -0.6165
  697poe     o2 4043   3.236   4.883   1.588  0.0708 -0.5701 -0.5176
  697poe    c31 4044   3.131   4.915   1.499 -0.1353  0.3866  0.0503
  698poe    c31 4045   0.397   1.454   6.092 -0.2153 -0.6461  0.0873
  698poe     o2 4046   0.373   1.403   6.222  0.8094 -0.2483  0.4451
  698poe    c23 4047   0.351   1.503   6.318  0.6480  0.3420 -0.1980
  698poe    c23 4048   0.427   1.457   6.444  0.1843  0.3968  0.0995
  698poe     o2 4049   0.385   1.331   6.491  0.1376 -0.0465 -1.1122
  698poe    c23 4050   0.422   1.298   6.623 -0.2370 -0.0198 -0.9986
  698poe    c23 4051   0.422   1.145   6.634  0.0342  0.0903  0.7160
  698poe     o2 4052   0.312   1.098   6.560  0.5132 -0.8939  0.6082
  698poe    c23 4053   0.278   0.961   6.570  0.7496 -1.0482 -0.5420
  698poe    c23 4054   0.136   0.944   6.513  0.4966 -0.1145 -0.2254
  698poe     o2 4055   0.133   1.009   6.388 -0.4735  0.1890 -0.0539
  698poe    c31 4056   0.012   0.988   6.318  0.0424 -0.8867 -0.6520
  699poe    c31 4057   6.637   1.241   3.317 -0.0826 -0.1297 -0.1404
  699poe     o2 4058   6.695   1.147   3.404 -0.1531  0.0112  0.0603
  699poe    c23 4059   6.645   1.018   3.378 -0.2864  0.0085  0.3203
  699poe    c23 4060   6.618   0.965   3.520 -0.2850 -0.0610  0.2948
  699poe     o2 4061   6.732   0.998   3.596 -0.0924  0.2505 -0.1277
  699poe    c23 4062   6.756   0.924   3.713 -0.1661  0.1548 -0.1725
  699poe    c23 4063   6.808   1.021   3.822  0.7582  0.1818 -0.6244
  699poe     o2 4064   6.739   1.144   3.827 -0.0676 -0.3114  0.4962
  699poe    c23 4065   6.788   1.247   3.909 -0.0644  0.1281 -0.0570
  699poe    c23 4066   6.671   1.315   3.982 -0.5208 -0.3606 -0.3297
  699poe     o2 4067   6.563   1.341   3.896 -0.4830  0.3522 -0.1667
  699poe    c31 4068   6.443   1.317   3.966 -0.1610  0.0520  0.2779
  700poe    c31 4069   6.433   1.683   0.275 -0.9763  0.0673 -0.1578
  700poe     o2 4070   6.530   1.723   0.181 -0.1899 -0.1422  0.5474
  700poe    c23 4071   6.652   1.655   0.195 -0.2224 -0.3275 -0.0653
  700poe    c23 4072   6.746   1.743   0.111 -0.6528  0.4323  0.2445
  700poe     o2 4073   6.676   1.759  -0.011 -0.4029 -0.1383  0.0250
  700poe    c23 4074   6.753   1.829  -0.106 -0.1161 -0.3033  0.1323
  700poe    c23 4075   6.676   1.857  -0.237  0.3750  0.6954  0.0539
  700poe     o2 4076   6.583   1.962  -0.223 -0.3365  0.0500  0.2112
  700poe    c23 4077   6.509   1.977  -0.342 -0.1032 -0.4609 -0.0008
  700poe    c23 4078   6.392   2.067  -0.295 -0.1235 -0.5416  0.1063
  700poe     o2 4079   6.297   1.994  -0.222 -0.4306  0.0453  0.2945
  700poe    c31 4080   6.193   2.080  -0.182 -0.0789  0.5867  0.0530
  701poe    c31 4081   4.233   0.862   2.162 -0.2552  0.2553 -0.2860
  701poe     o2 4082   4.235   0.958   2.059 -0.3073  0.3016 -0.2436
  701poe    c23 4083   4.209   1.092   2.097 -0.1570 -0.0203  1.0629
  701poe    c23 4084   4.342   1.159   2.134 -0.2723  0.6700  0.2628
  701poe     o2 4085   4.442   1.150   2.035  0.4964 -0.5765  1.1154
  701poe    c23 4086   4.562   1.199   2.089  0.8233  0.7286 -0.6883
  701poe    c23 4087   4.665   1.091   2.050  0.3714 -0.0467  0.2228
  701poe     o2 4088   4.655   1.094   1.909  0.0242  0.4223  0.2549
  701poe    c23 4089   4.760   1.025   1.845 -0.1035  0.8193 -0.4010
  701poe    c23 4090   4.730   1.006   1.696 -0.0099 -0.9048 -0.2272
  701poe     o2 4091   4.591   0.982   1.682 -0.2156 -0.0245  0.2310
  701poe    c31 4092   4.559   0.930   1.555  0.3590 -0.1932  0.1517
  702poe    c31 4093   2.287   2.616   1.091 -0.3671  0.3223  0.3746
  702poe     o2 4094   2.242   2.704   0.991  0.2845 -0.5859 -0.7503
  702poe    c23 4095   2.106   2.679   0.962  0.1140 -0.0614 -0.4171
  702poe    c23 4096   2.038   2.804   0.903 -0.2101 -0.0228  0.0328
  702poe     o2 4097   2.126   2.864   0.811 -0.3924 -0.2716 -0.3092
  702poe    c23 4098   2.069   2.955   0.720  0.0874  0.1546 -0.1884
  702poe    c23 4099   2.190   3.016   0.646 -0.1714  0.4203 -0.3945
  702poe     o2 4100   2.267   2.926   0.570 -0.4106 -0.3966  0.3237
  702poe    c23 4101   2.225   2.906   0.437  0.2763 -0.1148  0.0583
  702poe    c23 4102   2.317   2.808   0.363  0.3154 -0.2765  0.3166
  702poe     o2 4103   2.302   2.681   0.421  0.0653 -0.4497 -0.1191
  702poe    c31 4104   2.371   2.575   0.360  0.1750 -0.0784 -0.6434
  703poe    c31 4105   3.384   2.997   4.660  0.6299  0.3953  0.0555
  703poe     o2 4106   3.385   2.910   4.771  0.8249  0.2043 -0.0945
  703poe    c23 4107   3.503   2.833   4.779  0.6683 -0.0447 -0.1662
  703poe    c23 4108   3.468   2.720   4.877 -0.0694  0.1808 -0.1649
  703poe     o2 4109   3.434   2.756   5.009 -0.5831  0.3207 -0.3318
  703poe    c23 4110   3.446   2.637   5.083 -0.1028  0.5654 -0.0142
  703poe    c23 4111   3.425   2.685   5.228  0.0765 -0.1053  0.2385
  703poe     o2 4112   3.309   2.765   5.221  0.0757 -0.1084  0.2153
  703poe    c23 4113   3.253   2.810   5.342 -0.3756 -1.1711  0.4169
  703poe    c23 4114   3.118   2.884   5.336  0.2677  0.0184  0.2552
  703poe     o2 4115   3.133   3.000   5.257  0.4127  0.1083  0.4126
  703poe    c31 4116   3.005   3.055   5.234  0.6266  0.0768 -0.9427
  704poe    c31 4117   1.770   5.666   5.675  0.1640 -0.5129  0.3845
  704poe     o2 4118   1.711   5.780   5.616  0.1674 -0.5685  0.2744
  704poe    c23 4119   1.572   5.777   5.639  0.1583 -0.4069  0.2375
  704poe    c23 4120   1.528   5.924   5.656  0.7793 -0.2112  0.2070
  704poe     o2 4121   1.595   6.011   5.568  0.2204  0.3054  0.2846
  704poe    c23 4122   1.542   6.139   5.543 -0.9449 -0.2426 -0.1321
  704poe    c23 4123   1.631   6.257   5.499 -0.0305 -0.6456  0.5920
  704poe     o2 4124   1.671   6.222   5.368  0.2078  0.4266  0.3657
  704poe    c23 4125   1.758   6.311   5.303 -0.0022  0.0488 -0.4470
  704poe    c23 4126   1.818   6.256   5.172 -0.3925 -0.6374 -0.3440
  704poe     o2 4127   1.917   6.156   5.175 -0.0334 -0.2802 -0.0944
  704poe    c31 4128   1.936   6.068   5.066  0.6117 -0.5089  0.1916
  705poe    c31 4129   0.568   0.438   4.079  0.3839  0.1898  0.4213
  705poe     o2 4130   0.530   0.476   3.949 -0.2824 -0.1846  0.4964
  705poe    c23 4131   0.402   0.430   3.915 -0.2079  0.2137 -0.3628
  705poe    c23 4132   0.366   0.475   3.773 -0.2996  0.0646 -0.3870
  705poe     o2 4133   0.373   0.614   3.748  0.2088  0.0952 -0.0825
  705poe    c23 4134   0.252   0.684   3.764  0.0559 -0.0867 -0.4233
  705poe    c23 4135   0.269   0.819   3.836  0.3836 -0.4551  0.1922
  705poe     o2 4136   0.361   0.891   3.756  0.1036 -0.2203  0.0788
  705poe    c23 4137   0.399   1.011   3.819 -0.2903  0.0487 -0.1914
  705poe    c23 4138   0.531   1.062   3.759 -0.0322 -0.1425  0.2052
  705poe     o2 4139   0.608   0.944   3.748  0.3590  0.1534 -0.3152
  705poe    c31 4140   0.724   0.969   3.672  0.3559  0.2918 -0.2736
  706poe    c31 4141   3.334   1.101   1.669 -0.3829  0.1246  0.1103
  706poe     o2 4142   3.242   1.155   1.760 -0.6133 -0.4068  0.1974
  706poe    c23 4143   3.143   1.236   1.700 -0.2516  0.1060  0.2807
  706poe    c23 4144   3.031   1.290   1.792 -0.0712  0.5432  0.2441
  706poe     o2 4145   3.058   1.268   1.929  0.6210 -0.3322 -0.0197
  706poe    c23 4146   3.082   1.381   2.009  0.2458 -0.3347  0.0979
  706poe    c23 4147   3.159   1.329   2.131 -0.1906 -0.6450  0.2440
  706poe     o2 4148   3.245   1.223   2.094  0.4649  0.0252 -0.1907
  706poe    c23 4149   3.305   1.165   2.207  0.7401  0.2659 -0.2126
  706poe    c23 4150   3.407   1.064   2.153  0.3228 -0.4032  0.2227
  706poe     o2 4151   3.355   0.994   2.042 -0.4858 -0.3897  0.5891
  706poe    c31 4152   3.453   0.901   2.001 -0.2239  0.3296 -0.4596
  707poe    c31 4153   1.794   3.934   1.198  0.8697 -0.6260  0.5162
  707poe     o2 4154   1.827   4.034   1.291 -0.0435  0.0929  0.0799
  707poe    c23 4155   1.711   4.098   1.339 -0.0627  0.6135 -0.6469
  707poe    c23 4156   1.734   4.214   1.439 -0.0817 -0.0466  0.1310
  707poe     o2 4157   1.773   4.174   1.568  0.1621  0.3948  0.1945
  707poe    c23 4158   1.737   4.269   1.667 -0.6453  0.0358  0.2543
  707poe    c23 4159   1.773   4.216   1.807  0.3727 -0.8005 -0.3117
  707poe     o2 4160   1.887   4.134   1.791  0.9820 -0.0220  0.0106
  707poe    c23 4161   1.893   4.043   1.898 -0.6490  0.1148  0.2462
  707poe    c23 4162   2.012   3.948   1.871 -0.0652  0.8964  0.0428
  707poe     o2 4163   1.974   3.875   1.757  0.8642  0.0891  0.2415
  707poe    c31 4164   2.020   3.742   1.747 -0.1164 -0.2158 -0.3668
  708poe    c31 4165   0.447   2.984   1.476  0.4551 -0.2954  0.4596
  708poe     o2 4166   0.310   2.979   1.441  0.4325  0.2529  0.4580
  708poe    c23 4167   0.287   3.083   1.349  0.3443 -0.4381 -0.3099
  708poe    c23 4168   0.136   3.079   1.321  0.0960  0.2146  0.8617
  708poe     o2 4169   0.084   2.949   1.300  0.5215  0.1232  0.3420
  708poe    c23 4170   0.088   2.897   1.169  1.3530  0.3421  0.2744
  708poe    c23 4171   0.108   2.745   1.184 -0.7366 -0.0286 -0.3447
  708poe     o2 4172   0.223   2.711   1.258 -0.5656  0.0117 -0.5925
  708poe    c23 4173   0.228   2.576   1.299 -0.4568  0.1999  0.0136
  708poe    c23 4174   0.314   2.574   1.427  0.7928  0.6085 -0.8007
  708poe     o2 4175   0.291   2.698   1.491 -0.1022  0.0570 -0.0346
  708poe    c31 4176   0.338   2.684   1.623  0.2323 -0.4952 -0.2083
  709poe    c31 4177   3.058   3.044   0.269 -0.2147  0.0869  0.3447
  709poe     o2 4178   3.193   3.080   0.284 -0.0699 -0.1876 -0.2583
  709poe    c23 4179   3.227   3.200   0.351 -0.1360 -0.3905  0.1442
  709poe    c23 4180   3.241   3.333   0.275 -0.2549 -0.2533  0.3640
  709poe     o2 4181   3.351   3.338   0.187 -0.3874  0.0011  0.2109
  709poe    c23 4182   3.348   3.438   0.088  0.1117  0.2122  0.4035
  709poe    c23 4183   3.482   3.443   0.012 -0.3277  0.1139 -0.3895
  709poe     o2 4184   3.492   3.317  -0.051  0.3752 -0.0371  0.0178
  709poe    c23 4185   3.615   3.328  -0.120  0.3913  0.6984  0.1534
  709poe    c23 4186   3.648   3.189  -0.177  0.6282  0.6347  0.4427
  709poe     o2 4187   3.625   3.094  -0.076  0.3783  0.2217  0.0040
  709poe    c31 4188   3.706   2.982  -0.105 -0.0781 -0.1246  0.0498
  710poe    c31 4189   5.038   5.082   4.583 -0.0014 -0.8600 -0.2190
  710poe     o2 4190   4.961   5.192   4.626  0.6174 -0.2329 -0.6707
  710poe    c23 4191   4.943   5.276   4.515  0.7404  0.1451 -0.4033
  710poe    c23 4192   4.884   5.412   4.558 -0.6554 -0.3303 -0.7537
  710poe     o2 4193   4.783   5.382   4.651 -0.0467 -0.0986 -0.0110
  710poe    c23 4194   4.779   5.489   4.743  0.4653  0.3344 -0.4844
  710poe    c23 4195   4.696   5.421   4.854  0.7710 -0.2877 -0.6332
  710poe     o2 4196   4.715   5.281   4.855  0.4159 -0.3387 -0.8713
  710poe    c23 4197   4.603   5.204   4.893  0.3334  0.1038 -0.1945
  710poe    c23 4198   4.653   5.058   4.887  0.5059  0.1605 -0.1473
  710poe     o2 4199   4.714   5.029   4.763 -0.2451 -0.7671 -0.3090
  710poe    c31 4200   4.757   4.896   4.751  0.1486 -0.6914  0.2051
  711poe    c31 4201   2.467   3.353   1.389  0.5382  0.2767 -0.7088
  711poe     o2 4202   2.603   3.327   1.362  0.3624 -0.9821 -0.4067
  711poe    c23 4203   2.642   3.423   1.267 -0.4472 -0.8548 -0.6166
  711poe    c23 4204   2.774   3.372   1.207 -0.2374 -0.6127 -0.3638
  711poe     o2 4205   2.863   3.353   1.314  0.1173  0.5694 -0.4435
  711poe    c23 4206   2.990   3.306   1.275  0.0284  0.4905 -0.6378
  711poe    c23 4207   3.051   3.262   1.410 -0.3629  0.0108 -0.6143
  711poe     o2 4208   2.951   3.179   1.464 -0.1433  0.0644 -0.1258
  711poe    c23 4209   3.019   3.056   1.472 -0.2799 -0.0304 -0.4376
  711poe    c23 4210   2.943   2.937   1.535  0.7476 -0.4211  0.0748
  711poe     o2 4211   2.857   2.881   1.439 -0.1060  0.0132  0.5797
  711poe    c31 4212   2.775   2.783   1.500 -0.6878 -0.0843 -0.3310
  712poe    c31 4213   1.899   2.714   0.413  0.1680 -0.2100  0.2618
  712poe     o2 4214   1.795   2.674   0.500 -0.1711 -0.5290 -0.2917
  712poe    c23 4215   1.687   2.608   0.437 -0.5181  0.2633 -0.5382
  712poe    c23 4216   1.549   2.635   0.498 -0.5320 -0.3250 -0.3030
  712poe     o2 4217   1.490   2.755   0.454  0.1490  0.0875 -0.0910
  712poe    c23 4218   1.526   2.862   0.538  0.3318  0.1358 -0.2295
  712poe    c23 4219   1.552   2.984   0.448  0.0911  0.2037 -0.2073
  712poe     o2 4220   1.436   2.976   0.368 -0.1310  0.3348  0.0992
  712poe    c23 4221   1.410   3.088   0.286 -0.2216 -0.0827 -0.4477
  712poe    c23 4222   1.260   3.089   0.255 -0.2279  0.1218 -0.4071
  712poe     o2 4223   1.244   2.955   0.215  0.0838 -0.1104  0.2506
  712poe    c31 4224   1.119   2.944   0.152  0.1283  0.0123  0.1411
  713poe    c31 4225   6.299   2.654   2.482 -0.3521 -0.5236  0.2649
  713poe     o2 4226   6.431   2.691   2.448 -0.6730 -0.2670 -0.7446
  713poe    c23 4227   6.470   2.659   2.317  0.0751 -0.2922 -0.5212
  713poe    c23 4228   6.445   2.750   2.195 -0.5005  0.2695  0.0090
  713poe     o2 4229   6.471   2.708   2.063  0.2232  0.1488  0.1897
  713poe    c23 4230   6.606   2.684   2.030  0.0820 -0.2616 -0.0920
  713poe    c23 4231   6.615   2.566   1.932  0.0408 -0.3189 -0.0266
  713poe     o2 4232   6.530   2.601   1.825  0.2466  0.6252  0.1159
  713poe    c23 4233   6.522   2.512   1.716  0.4278  0.3525  0.3273
  713poe    c23 4234   6.537   2.571   1.575 -0.2555 -0.2769 -0.0175
  713poe     o2 4235   6.460   2.689   1.560 -0.0549 -0.1234  0.1446
  713poe    c31 4236   6.426   2.714   1.426  0.0062  0.2055  0.1900
  714poe    c31 4237   3.117   2.486   0.133 -0.4448 -0.2597 -0.1814
  714poe     o2 4238   3.115   2.354   0.085 -0.8418 -0.2425 -0.2154
  714poe    c23 4239   3.243   2.297   0.100 -0.3346  0.8506 -0.3037
  714poe    c23 4240   3.274   2.199  -0.015 -0.0464  0.3696  0.1795
  714poe     o2 4241   3.159   2.118  -0.030  0.3557 -0.0834 -0.5341
  714poe    c23 4242   3.152   2.035  -0.144  0.3264  0.0065 -0.5978
  714poe    c23 4243   3.013   2.011  -0.205  0.1183  0.3717 -0.2754
  714poe     o2 4244   2.951   2.130  -0.161  0.0302  0.4296 -0.5548
  714poe    c23 4245   2.812   2.119  -0.179 -0.0367 -0.1581  0.2528
  714poe    c23 4246   2.754   2.211  -0.070  0.1793  0.3108 -0.0237
  714poe     o2 4247   2.856   2.226   0.025  0.0273  0.3100  0.1405
  714poe    c31 4248   2.813   2.269   0.153 -0.3395  0.2832  0.0255
  715poe    c31 4249   4.380   0.116   3.069 -0.1100  0.1100 -0.0353
  715poe     o2 4250   4.515   0.099   3.104 -0.0804 -0.5185 -0.4443
  715poe    c23 4251   4.520  -0.021   3.178  0.5099 -0.0092  0.3526
  715poe    c23 4252   4.661  -0.080   3.192  0.3324 -0.5062  0.0615
  715poe     o2 4253   4.749   0.030   3.194  0.0029 -0.2437  0.2133
  715poe    c23 4254   4.882  -0.013   3.216  0.1338  0.1449  0.1974
  715poe    c23 4255   4.980   0.105   3.217  0.1296  0.1479  0.3311
  715poe     o2 4256   4.950   0.192   3.110  0.4789  0.3313  0.3795
  715poe    c23 4257   5.044   0.296   3.095  0.2022  0.5750  0.3099
  715poe    c23 4258   4.990   0.373   2.973 -0.1600 -0.2669 -0.0673
  715poe     o2 4259   4.865   0.436   2.989  0.0593  0.1147  0.1492
  715poe    c31 4260   4.799   0.463   2.868  0.2818 -0.0672 -0.0129
  716poe    c31 4261   6.143   2.519   6.657  0.4110 -0.3137 -0.6084
  716poe     o2 4262   6.160   2.465   6.528 -0.2098 -0.6457 -0.5528
  716poe    c23 4263   6.059   2.369   6.504 -0.3839 -0.6628  0.2246
  716poe    c23 4264   5.977   2.419   6.383  0.4119  0.2428  0.0472
  716poe     o2 4265   6.071   2.482   6.299  0.6846 -0.0089  0.1604
  716poe    c23 4266   6.004   2.587   6.235  0.1514 -0.1566  0.4742
  716poe    c23 4267   6.105   2.692   6.185 -0.1116  0.2836  0.8524
  716poe     o2 4268   6.204   2.675   6.284  0.2365 -0.0334  0.4542
  716poe    c23 4269   6.309   2.770   6.272 -0.1625  0.3794  0.1834
  716poe    c23 4270   6.396   2.760   6.399  0.2120  0.2211 -0.0865
  716poe     o2 4271   6.391   2.622   6.429  0.0055  0.3648  0.5397
  716poe    c31 4272   6.479   2.616   6.538  0.0199  0.0952  0.5124
  717poe    c31 4273   3.445   5.341   3.362 -0.4027  0.5415  0.0671
  717poe     o2 4274   3.404   5.468   3.407 -0.1251  0.3957  0.7332
  717poe    c23 4275   3.511   5.557   3.430  0.2146 -0.0727  0.9887
  717poe    c23 4276   3.464   5.703   3.413  0.0223 -0.1501  0.8441
  717poe     o2 4277   3.333   5.697   3.463 -0.1285 -0.0452  0.4637
  717poe    c23 4278   3.276   5.825   3.474  0.0965  0.0581  0.4058
  717poe    c23 4279   3.134   5.816   3.532 -0.0218 -0.0929  0.0965
  717poe     o2 4280   3.070   5.705   3.473 -0.7409  0.9434 -1.1021
  717poe    c23 4281   2.948   5.688   3.541  0.2150 -0.5321  0.2943
  717poe    c23 4282   2.847   5.635   3.438  0.0704 -0.3103  0.3207
  717poe     o2 4283   2.875   5.520   3.361 -0.1601  0.1725 -0.4969
  717poe    c31 4284   2.762   5.479   3.286 -0.4161 -1.1033  0.5460
  718poe    c31 4285   4.585   5.693   3.087 -0.1251 -0.0816  0.7206
  718poe     o2 4286   4.611   5.825   3.128 -0.1150  0.0787  0.2147
  718poe    c23 4287   4.710   5.877   3.043  0.3357 -0.1335  0.6036
  718poe    c23 4288   4.712   6.028   3.076  0.7865 -0.0847  0.3586
  718poe     o2 4289   4.689   6.058   3.211  0.0991 -0.2156  0.2741
  718poe    c23 4290   4.803   6.058   3.294  0.1865  0.2745  0.1557
  718poe    c23 4291   4.735   6.050   3.431 -0.2573  0.1259 -0.0725
  718poe     o2 4292   4.635   5.950   3.422 -0.2003  0.0606  0.0158
  718poe    c23 4293   4.576   5.936   3.549  0.5577  0.4638  0.4224
  718poe    c23 4294   4.488   5.810   3.543  0.0770  0.8108  0.1348
  718poe     o2 4295   4.425   5.811   3.417  0.2440 -0.2251  0.0369
  718poe    c31 4296   4.324   5.715   3.397  0.2045 -0.3861  0.9677
  719poe    c31 4297   2.375   5.004   1.905 -0.2694 -0.2749 -0.2065
  719poe     o2 4298   2.463   4.915   1.841  0.0614 -0.2141  0.1586
  719poe    c23 4299   2.555   4.978   1.755  0.0525 -0.4395 -0.0172
  719poe    c23 4300   2.682   4.892   1.738  0.1797 -0.2981  0.2017
  719poe     o2 4301   2.646   4.772   1.673 -0.6743  0.2562 -0.3757
  719poe    c23 4302   2.730   4.665   1.711 -0.2921  0.7523  0.2085
  719poe    c23 4303   2.633   4.545   1.703  0.1934  0.4006 -0.5109
  719poe     o2 4304   2.527   4.593   1.782 -0.2152 -0.0527 -0.7716
  719poe    c23 4305   2.425   4.498   1.768 -0.4728  0.0845  0.0771
  719poe    c23 4306   2.311   4.528   1.867 -0.4618 -0.0324  0.1248
  719poe     o2 4307   2.281   4.662   1.837  0.0442  0.1553  0.4295
  719poe    c31 4308   2.156   4.701   1.890  0.0862 -0.0662  0.6961
  720poe    c31 4309   5.672   2.700   1.707  0.2574  0.1306  0.4920
  720poe     o2 4310   5.686   2.722   1.569  0.2510 -0.1883  0.4392
  720poe    c23 4311   5.609   2.636   1.489  0.4215 -0.6164  0.7378
  720poe    c23 4312   5.670   2.599   1.353 -0.1515 -0.1371  0.3486
  720poe     o2 4313   5.706   2.718   1.285 -0.4247 -0.2292  0.0396
  720poe    c23 4314   5.741   2.708   1.149 -1.0449 -0.0329 -0.1371
  720poe    c23 4315   5.785   2.849   1.106  0.4852 -0.3804  0.2206
  720poe     o2 4316   5.872   2.898   1.205  0.4911 -0.2590  0.1564
  720poe    c23 4317   5.918   3.025   1.163  0.3474 -0.1942  0.1934
  720poe    c23 4318   6.072   3.031   1.170  0.3792 -0.1160 -0.5581
  720poe     o2 4319   6.109   2.999   1.302 -0.1302  0.3184 -0.3096
  720poe    c31 4320   6.189   3.096   1.365  0.0407 -0.5844  0.8954
  721poe    c31 4321   4.061   0.289   6.465  0.1266 -0.0084 -0.3525
  721poe     o2 4322   4.081   0.281   6.605  0.8062 -0.2950 -0.4621
  721poe    c23 4323   4.005   0.169   6.646  0.3563  0.1163 -0.1583
  721poe    c23 4324   4.053   0.107   6.778  0.5042  0.5022 -0.0290
  721poe     o2 4325   4.039   0.216   6.867 -0.1766  0.4370 -0.0523
  721poe    c23 4326   4.111   0.210   6.988  0.1039 -0.0849 -0.2407
  721poe    c23 4327   4.119   0.353   7.045 -0.3421 -0.1687  0.0375
  721poe     o2 4328   4.151   0.429   6.930 -0.5364 -0.0704  0.0473
  721poe    c23 4329   4.184   0.561   6.969  0.2559 -0.1920 -0.1885
  721poe    c23 4330   4.210   0.647   6.844 -0.0749 -0.6818 -0.5989
  721poe     o2 4331   4.117   0.583   6.759 -0.5672 -0.6117 -0.1202
  721poe    c31 4332   4.138   0.638   6.630  0.1576 -0.3454  0.1050
  722poe    c31 4333   1.379   4.361   3.297  0.6190  0.2375 -0.4209
  722poe     o2 4334   1.473   4.357   3.402 -0.1284 -0.1132  0.2539
  722poe    c23 4335   1.509   4.490   3.434 -0.2802  0.1627 -0.6857
  722poe    c23 4336   1.659   4.520   3.420 -0.1575 -0.1729 -0.1300
  722poe     o2 4337   1.719   4.409   3.484  0.0728  0.1647  0.2415
  722poe    c23 4338   1.860   4.406   3.490  0.1155  0.1185 -0.6585
  722poe    c23 4339   1.898   4.292   3.585 -0.1543 -0.1101 -0.8221
  722poe     o2 4340   1.817   4.184   3.544 -0.0283 -0.2968 -0.5810
  722poe    c23 4341   1.756   4.140   3.663  0.2799 -0.0908 -0.3463
  722poe    c23 4342   1.643   4.045   3.621  0.2681 -0.2538  0.0497
  722poe     o2 4343   1.552   4.123   3.548  0.2016 -0.3418  0.0376
  722poe    c31 4344   1.435   4.047   3.525 -0.1854  0.1586  0.3333
  723poe    c31 4345   2.332   3.608   2.098 -0.0144  0.1944  0.3812
  723poe     o2 4346   2.432   3.638   2.192  0.1722 -0.0182  0.2525
  723poe    c23 4347   2.372   3.692   2.308  0.0092 -0.3198  0.3106
  723poe    c23 4348   2.474   3.755   2.404 -0.4058  0.4031  0.2829
  723poe     o2 4349   2.598   3.687   2.400 -0.4483  0.3540 -0.1782
  723poe    c23 4350   2.714   3.760   2.430  0.1189 -0.4274 -0.4354
  723poe    c23 4351   2.830   3.659   2.439  0.0367 -0.5044 -0.2544
  723poe     o2 4352   2.827   3.577   2.325  0.2558  0.0054 -0.6293
  723poe    c23 4353   2.797   3.442   2.351  0.3384  0.0784 -0.1550
  723poe    c23 4354   2.721   3.372   2.237  0.4144  0.8647 -0.6962
  723poe     o2 4355   2.592   3.425   2.216 -0.1807 -0.2662  0.0036
  723poe    c31 4356   2.536   3.320   2.140 -0.4927  0.1044 -0.2807
  724poe    c31 4357   0.626   3.889   0.457 -0.0740  0.3403  0.1419
  724poe     o2 4358   0.520   3.827   0.525  0.0221  0.2838  0.2411
  724poe    c23 4359   0.518   3.687   0.508  0.8427  0.2657  0.2628
  724poe    c23 4360   0.423   3.611   0.603  0.5037  0.4351  0.0594
  724poe     o2 4361   0.319   3.706   0.617  0.0494  0.0053 -0.3350
  724poe    c23 4362   0.203   3.648   0.672 -0.0496  0.0130 -0.5369
  724poe    c23 4363   0.090   3.747   0.638 -0.0828 -0.0234 -0.5333
  724poe     o2 4364   0.154   3.872   0.635  0.0927 -0.1069 -0.2581
  724poe    c23 4365   0.081   3.983   0.589  0.0416 -0.2010 -0.4020
  724poe    c23 4366   0.179   4.102   0.597  0.4440 -0.5136 -0.6233
  724poe     o2 4367   0.310   4.060   0.568  0.6817 -0.2449  0.0303
  724poe    c31 4368   0.395   4.172   0.567  0.0913  0.2099  0.1323
  725poe    c31 4369   6.408   4.301   5.165  0.0727 -0.0845  0.3831
  725poe     o2 4370   6.467   4.414   5.104 -0.0819 -0.0045  0.3817
  725poe    c23 4371   6.374   4.457   5.006 -0.0028 -0.0284  0.2970
  725poe    c23 4372   6.435   4.525   4.882  0.2696 -0.0309  0.4283
  725poe     o2 4373   6.513   4.454   4.788 -0.2433 -0.2236  0.1465
  725poe    c23 4374   6.575   4.552   4.707  0.4150 -0.2817  0.5735
  725poe    c23 4375   6.703   4.489   4.652  0.0517 -0.4302 -0.1079
  725poe     o2 4376   6.650   4.376   4.587 -0.4070  0.1011 -0.6726
  725poe    c23 4377   6.746   4.313   4.505 -0.0715  0.4959 -0.5865
  725poe    c23 4378   6.676   4.195   4.436  0.6050 -0.2471 -0.0251
  725poe     o2 4379   6.613   4.127   4.542  0.3570 -0.4186 -0.2765
  725poe    c31 4380   6.581   3.995   4.504 -0.1998 -0.2568 -0.3805
  726poe    c31 4381   0.396   0.412   5.087 -0.1083  0.1726 -0.3147
  726poe     o2 4382   0.308   0.348   5.177  0.2582 -0.7357 -0.5903
  726poe    c23 4383   0.188   0.300   5.123 -0.0972 -0.2341 -0.2546
  726poe    c23 4384   0.078   0.408   5.119  0.5546  0.4419 -0.0780
  726poe     o2 4385   0.031   0.453   5.244 -0.2190 -0.2985 -0.0940
  726poe    c23 4386  -0.092   0.522   5.234  0.0358  0.1468 -0.1834
  726poe    c23 4387  -0.114   0.615   5.355 -0.3146  0.2142 -0.2977
  726poe     o2 4388  -0.044   0.556   5.462 -0.0901  0.4153 -0.3319
  726poe    c23 4389  -0.031   0.651   5.566 -0.3492  0.0181  0.0695
  726poe    c23 4390   0.027   0.583   5.691  0.4973  0.3780 -0.1222
  726poe     o2 4391   0.108   0.479   5.639  0.4441  0.2857 -0.0184
  726poe    c31 4392   0.177   0.409   5.740  0.2942 -0.2168 -0.2582
  727poe    c31 4393   5.491   5.707   1.323  0.1984 -0.3858  0.4591
  727poe     o2 4394   5.470   5.659   1.454  0.0185 -0.3706  0.4361
  727poe    c23 4395   5.591   5.674   1.524  0.0366  0.5148  0.2212
  727poe    c23 4396   5.593   5.608   1.663 -0.3401 -0.2761 -0.1440
  727poe     o2 4397   5.487   5.671   1.731  0.3644  0.4458  0.3184
  727poe    c23 4398   5.461   5.598   1.849 -0.1241  0.3142  0.1343
  727poe    c23 4399   5.309   5.608   1.866 -0.0907  0.9951  0.0264
  727poe     o2 4400   5.261   5.569   1.739  0.0183 -0.1297  0.3226
  727poe    c23 4401   5.123   5.595   1.722  0.0942  0.2484  0.2750
  727poe    c23 4402   5.085   5.566   1.576  0.2206  0.0428  0.2821
  727poe     o2 4403   5.197   5.615   1.505  0.1427 -0.5331 -0.2498
  727poe    c31 4404   5.187   5.576   1.370 -0.2630 -0.2153 -0.3151
  728poe    c31 4405   5.359   4.092   2.589 -0.2172  0.2011  0.5766
  728poe     o2 4406   5.469   4.046   2.663 -0.3214 -0.5988  0.2428
  728poe    c23 4407   5.572   4.002   2.577  0.1593  0.6573  0.1474
  728poe    c23 4408   5.685   3.944   2.665  0.4957  0.3403 -0.4881
  728poe     o2 4409   5.718   4.037   2.766 -0.2432 -0.1334  0.1972
  728poe    c23 4410   5.836   4.018   2.841 -0.6037 -0.0145  0.7968
  728poe    c23 4411   5.864   3.888   2.919  0.1858 -0.0401  0.4788
  728poe     o2 4412   5.751   3.846   2.992  0.3663 -0.4531  0.5205
  728poe    c23 4413   5.776   3.708   3.008  0.2383 -0.5582 -0.1389
  728poe    c23 4414   5.640   3.636   3.021 -0.3263  0.4049 -0.6324
  728poe     o2 4415   5.606   3.582   2.895 -0.0519  0.0613 -0.5609
  728poe    c31 4416   5.466   3.568   2.895 -0.0960  0.4939 -0.4514
  729poe    c31 4417   1.383   4.731   5.612  0.0795 -0.1264 -0.7004
  729poe     o2 4418   1.462   4.681   5.718 -0.2685  0.1737 -0.2992
  729poe    c23 4419   1.493   4.786   5.807 -0.8897 -0.0636  0.2030
  729poe    c23 4420   1.643   4.787   5.839 -0.8474 -0.4545  0.0131
  729poe     o2 4421   1.674   4.671   5.914  0.2819 -0.3406 -0.2532
  729poe    c23 4422   1.811   4.650   5.940  0.1820  0.1596  0.7430
  729poe    c23 4423   1.842   4.513   6.003  0.5074 -0.0304  0.1795
  729poe     o2 4424   1.781   4.414   5.924  0.1341  0.0727  0.3350
  729poe    c23 4425   1.830   4.286   5.958  0.3473  0.0975  0.1200
  729poe    c23 4426   1.769   4.190   5.854 -0.1928  0.5198  0.0428
  729poe     o2 4427   1.629   4.208   5.855 -0.2942 -0.2480  0.5674
  729poe    c31 4428   1.563   4.118   5.769  0.0382  0.5262 -0.5220
  730poe    c31 4429   2.154   2.091   2.319  0.2331  0.8216  1.1756
  730poe     o2 4430   2.254   2.014   2.256 -0.4943  0.7358  0.0923
  730poe    c23 4431   2.186   1.910   2.190  0.6928  0.2134 -0.3320
  730poe    c23 4432   2.288   1.811   2.130  0.3785 -0.3062 -0.0071
  730poe     o2 4433   2.378   1.739   2.211  0.0378 -0.0505  0.6115
  730poe    c23 4434   2.315   1.629   2.273  0.8692 -0.5663  0.5693
  730poe    c23 4435   2.398   1.603   2.400  0.8073 -0.9572  0.5301
  730poe     o2 4436   2.534   1.617   2.365  0.6189 -0.3234  0.0297
  730poe    c23 4437   2.631   1.625   2.467  0.3593 -0.5229  0.2926
  730poe    c23 4438   2.756   1.637   2.378 -0.2650 -0.2267 -0.5636
  730poe     o2 4439   2.745   1.744   2.288 -0.2346  0.5740  0.3631
  730poe    c31 4440   2.866   1.759   2.218 -0.3472  0.7210  0.1968
  731poe    c31 4441   6.065   3.879   1.588 -0.3424 -0.1461  0.8885
  731poe     o2 4442   6.093   3.895   1.451 -0.7958  0.3066  0.8474
  731poe    c23 4443   5.980   3.936   1.378 -0.1596  0.0794 -0.2854
  731poe    c23 4444   6.006   3.943   1.226 -0.1317  0.4167 -0.2660
  731poe     o2 4445   6.090   4.049   1.185 -0.0114  0.5210  0.2428
  731poe    c23 4446   6.169   4.032   1.070 -0.0134 -0.1835  0.3429
  731poe    c23 4447   6.198   4.164   0.997 -0.8594 -0.2105 -0.0577
  731poe     o2 4448   6.287   4.237   1.080 -0.5199 -0.4416 -0.2179
  731poe    c23 4449   6.320   4.355   1.011  0.4276 -0.6778 -0.1794
  731poe    c23 4450   6.424   4.438   1.090  0.1811 -0.2125 -0.3407
  731poe     o2 4451   6.377   4.432   1.223  0.5711  0.3581 -0.1752
  731poe    c31 4452   6.445   4.513   1.317 -0.1084  0.1235  0.5361
  732poe    c31 4453   4.095   1.824   2.667 -0.0062  0.2393  0.3036
  732poe     o2 4454   3.955   1.841   2.659 -0.0520 -0.5783 -0.8323
  732poe    c23 4455   3.887   1.793   2.773  0.2166 -0.4207 -0.6058
  732poe    c23 4456   3.736   1.792   2.745  0.0469  0.1849  0.2621
  732poe     o2 4457   3.701   1.927   2.722 -0.2854  0.0781  0.1292
  732poe    c23 4458   3.561   1.940   2.715 -0.2738 -0.0563 -0.4548
  732poe    c23 4459   3.536   2.075   2.644 -0.0555  0.5262  0.5456
  732poe     o2 4460   3.615   2.080   2.527 -0.5783  0.4540  0.1881
  732poe    c23 4461   3.576   2.194   2.454 -0.4299  0.4907  0.1655
  732poe    c23 4462   3.683   2.224   2.348 -0.2431 -0.1668  0.1652
  732poe     o2 4463   3.809   2.225   2.411 -0.1973  0.4914  0.0726
  732poe    c31 4464   3.903   2.310   2.349  0.2348 -0.2841 -0.3538
  733poe    c31 4465   1.824   6.600   6.461  0.3906 -0.3918  0.0777
  733poe     o2 4466   1.838   6.559   6.595 -0.4999  0.0181  0.3028
  733poe    c23 4467   1.836   6.672   6.679 -0.4430  0.3032 -0.0769
  733poe    c23 4468   1.848   6.625   6.825 -0.3327 -0.0781 -0.2087
  733poe     o2 4469   1.735   6.558   6.875 -0.4446  0.2176 -0.0666
  733poe    c23 4470   1.751   6.525   7.011 -0.0672  0.1517 -0.1256
  733poe    c23 4471   1.672   6.393   7.004 -0.0082  0.0723  0.6171
  733poe     o2 4472   1.738   6.299   6.922  0.4873  0.6140  0.3858
  733poe    c23 4473   1.689   6.168   6.943  0.8553  0.5056  0.5727
  733poe    c23 4474   1.786   6.053   6.910  0.3122  0.0801  0.4515
  733poe     o2 4475   1.827   6.093   6.781  0.2535 -0.2744  0.3201
  733poe    c31 4476   1.873   5.985   6.703  0.3144 -0.1503  0.1828
  734poe    c31 4477   5.973   4.466   1.106 -0.0842  0.3878 -0.2454
  734poe     o2 4478   6.053   4.465   1.223 -0.3798  0.6578 -0.0397
  734poe    c23 4479   5.990   4.391   1.326  0.0155  0.4496  0.0509
  734poe    c23 4480   6.081   4.350   1.443 -0.5109  0.0472  0.3222
  734poe     o2 4481   6.197   4.281   1.401 -0.3027  0.4907  0.1694
  734poe    c23 4482   6.276   4.227   1.504 -0.0516  0.0911 -0.2285
  734poe    c23 4483   6.344   4.104   1.442 -0.0608 -0.0983  0.1294
  734poe     o2 4484   6.411   4.154   1.328  0.7076 -0.2836  0.4917
  734poe    c23 4485   6.482   4.043   1.277  0.3865 -0.0218 -0.5647
  734poe    c23 4486   6.557   4.061   1.144  0.0807  0.7617 -0.6320
  734poe     o2 4487   6.632   4.180   1.140  1.0168  0.1902 -0.3610
  734poe    c31 4488   6.677   4.195   1.007  1.0375  0.0002 -0.3755
  735poe    c31 4489   5.844   4.662   4.500 -0.2844  0.6861  0.1751
  735poe     o2 4490   5.781   4.664   4.626 -0.6106  0.1022  0.0240
  735poe    c23 4491   5.688   4.559   4.640  0.0796 -0.4592  0.4676
  735poe    c23 4492   5.588   4.591   4.752 -0.5263 -0.2275 -0.1314
  735poe     o2 4493   5.657   4.678   4.839 -0.7415 -0.0202 -0.1674
  735poe    c23 4494   5.565   4.742   4.924  0.1548  0.3927  0.5040
  735poe    c23 4495   5.588   4.892   4.898 -0.3094  0.1900 -1.1560
  735poe     o2 4496   5.727   4.916   4.901 -0.2371 -0.2935 -0.2885
  735poe    c23 4497   5.761   5.028   4.822 -0.0711 -0.4557 -0.4484
  735poe    c23 4498   5.910   5.014   4.786  0.0471 -0.1108 -0.0831
  735poe     o2 4499   5.946   4.886   4.742 -0.1621 -0.1646 -0.0962
  735poe    c31 4500   6.078   4.893   4.695 -0.1283 -0.3796 -0.0366
  736poe    c31 4501   2.269   6.471   0.914  0.1679  0.6804  0.3016
  736poe     o2 4502   2.276   6.519   0.781 -0.0163  0.4432  0.2053
  736poe    c23 4503   2.156   6.495   0.712  0.0813  0.1542  0.1355
  736poe    c23 4504   2.155   6.517   0.559  0.5658  0.0599  0.1167
  736poe     o2 4505   2.197   6.646   0.524  0.6644 -0.1222 -0.4376
  736poe    c23 4506   2.205   6.643   0.383  0.4250 -0.3864 -0.4467
  736poe    c23 4507   2.173   6.783   0.329  0.0237 -0.3458 -0.1103
  736poe     o2 4508   2.232   6.874   0.419 -0.7788  0.3963 -0.3267
  736poe    c23 4509   2.242   7.012   0.389  0.7081  0.2834 -0.3753
  736poe    c23 4510   2.286   7.075   0.522 -0.2846  0.1293  0.0309
  736poe     o2 4511   2.201   7.025   0.623  0.0530 -0.6414 -0.0635
  736poe    c31 4512   2.219   7.082   0.751 -0.1664 -0.4190 -0.1333
  737poe    c31 4513   2.956   3.373   4.415 -0.0110 -0.1340  0.0161
  737poe     o2 4514   3.068   3.418   4.342  0.0843 -0.0519  0.2128
  737poe    c23 4515   3.159   3.491   4.421  0.0342  0.3181 -0.0702
  737poe    c23 4516   3.215   3.593   4.320  0.0471  0.1924 -0.1900
  737poe     o2 4517   3.243   3.514   4.207 -0.2078  0.1483 -0.2239
  737poe    c23 4518   3.308   3.579   4.099  0.1095 -0.3531 -0.3412
  737poe    c23 4519   3.388   3.468   4.029  0.7057  0.0825 -0.3528
  737poe     o2 4520   3.292   3.375   3.984  0.3181 -0.0350  0.6950
  737poe    c23 4521   3.323   3.238   3.977 -0.4906 -0.1683 -0.6176
  737poe    c23 4522   3.335   3.165   4.112 -0.1968 -0.0430 -0.5762
  737poe     o2 4523   3.243   3.210   4.209  0.3607  0.1003 -0.1078
  737poe    c31 4524   3.223   3.106   4.301 -0.4808  0.5250  0.2030
  738poe    c31 4525   6.627   6.314   6.459  0.1751 -0.0019 -0.3405
  738poe     o2 4526   6.609   6.189   6.521  0.3033  0.1454 -0.0085
  738poe    c23 4527   6.564   6.205   6.654  0.3835  0.2422  0.0074
  738poe    c23 4528   6.449   6.104   6.674  0.2076  0.4429  0.0206
  738poe     o2 4529   6.492   5.993   6.597 -0.5919  0.2339 -0.1325
  738poe    c23 4530   6.427   5.870   6.617  0.0521 -0.1322 -0.2542
  738poe    c23 4531   6.530   5.762   6.578  0.2122  0.1706 -0.6880
  738poe     o2 4532   6.584   5.808   6.457  0.0337  0.3248 -0.7094
  738poe    c23 4533   6.720   5.773   6.462 -0.0672  0.0488  0.1781
  738poe    c23 4534   6.796   5.852   6.354 -0.6243  0.1953 -0.1077
  738poe     o2 4535   6.781   5.990   6.376  0.6051  0.3060  0.1057
  738poe    c31 4536   6.840   6.068   6.275  0.3393  0.0027 -0.2841
  739poe    c31 4537   5.679   1.496   5.432 -0.3906 -0.1991  0.0787
  739poe     o2 4538   5.655   1.389   5.521 -0.2518 -0.4165 -0.1440
  739poe    c23 4539   5.650   1.260   5.464  0.0096 -0.4033 -0.1971
  739poe    c23 4540   5.558   1.173   5.553  0.3990 -0.5129  0.1015
  739poe     o2 4541   5.605   1.175   5.686  0.1337 -0.2860  0.1936
  739poe    c23 4542   5.514   1.084   5.741  0.0829 -0.1766  0.2917
  739poe    c23 4543   5.515   1.123   5.889 -0.2407 -0.0720  0.2683
  739poe     o2 4544   5.535   1.263   5.893  0.3681 -0.1646  0.5734
  739poe    c23 4545   5.490   1.318   6.015  0.1896 -0.6171  0.7147
  739poe    c23 4546   5.569   1.439   6.068  0.3437  0.1337 -1.1481
  739poe     o2 4547   5.552   1.535   5.967 -1.0291  0.4185 -0.6646
  739poe    c31 4548   5.620   1.656   5.994  0.1072 -0.3098 -0.1531
  740poe    c31 4549   4.753   1.519   0.339 -0.0479 -0.3070  0.7017
  740poe     o2 4550   4.764   1.510   0.199 -0.3364  0.1704  0.6479
  740poe    c23 4551   4.648   1.451   0.144  0.0765  0.0080 -0.0648
  740poe    c23 4552   4.670   1.460  -0.008 -0.0427  0.2362 -0.0695
  740poe     o2 4553   4.718   1.589  -0.042  0.2016  0.2546  0.3389
  740poe    c23 4554   4.719   1.604  -0.182 -0.0495 -0.0267  0.3053
  740poe    c23 4555   4.731   1.751  -0.227 -0.4851  0.2096  0.9441
  740poe     o2 4556   4.843   1.802  -0.159 -0.1810  0.1889  0.4607
  740poe    c23 4557   4.817   1.919  -0.086  0.1806  0.5409  0.0321
  740poe    c23 4558   4.888   1.899   0.049 -0.4833 -0.4970  0.2343
  740poe     o2 4559   4.835   1.800   0.134  0.1462 -0.6470  0.4636
  740poe    c31 4560   4.865   1.831   0.268 -0.2782  0.2123  0.3666
  741poe    c31 4561   1.167   3.743   2.548 -0.4917 -0.0963 -0.3485
  741poe     o2 4562   1.288   3.813   2.527 -0.1840 -0.4317  0.2663
  741poe    c23 4563   1.328   3.862   2.652  0.8064 -0.2599 -0.1111
  741poe    c23 4564   1.423   3.983   2.661 -0.0583  0.4009  0.2893
  741poe     o2 4565   1.551   3.940   2.620 -0.4224 -0.1542 -0.3004
  741poe    c23 4566   1.618   4.062   2.598  0.0471 -0.2806  0.3870
  741poe    c23 4567   1.757   4.009   2.558 -0.0223 -0.2075  0.0458
  741poe     o2 4568   1.755   3.908   2.460  0.6074  0.0975 -0.2939
  741poe    c23 4569   1.884   3.860   2.429  0.4439 -0.0976 -0.6737
  741poe    c23 4570   1.850   3.780   2.301  0.3627 -0.2370 -0.5646
  741poe     o2 4571   1.723   3.720   2.315  0.3571 -0.0356  0.3586
  741poe    c31 4572   1.673   3.660   2.197 -0.2214  0.4180  0.3753
  742poe    c31 4573   5.137   4.827   5.340 -0.2698  0.7887  0.5991
  742poe     o2 4574   5.276   4.833   5.360 -0.0532  0.2268 -0.6854
  742poe    c23 4575   5.347   4.727   5.300  0.3298  0.0694  0.0305
  742poe    c23 4576   5.497   4.753   5.324  0.2971  0.1814  0.1158
  742poe     o2 4577   5.513   4.891   5.303 -0.0455  0.2930  0.5640
  742poe    c23 4578   5.637   4.930   5.359  0.5158 -0.6748  0.0201
  742poe    c23 4579   5.620   5.078   5.395  0.5022 -0.7090  0.1549
  742poe     o2 4580   5.501   5.086   5.471  0.2606 -0.2638 -0.2683
  742poe    c23 4581   5.470   5.218   5.510  0.5177 -0.3391  0.1881
  742poe    c23 4582   5.325   5.204   5.560  0.7559 -0.8198  0.7548
  742poe     o2 4583   5.252   5.127   5.467  0.0206  0.2769  0.4055
  742poe    c31 4584   5.117   5.141   5.507  0.0818  0.3647  0.5807
  743poe    c31 4585   3.790   6.355   0.306 -0.0974  0.1410  0.1112
  743poe     o2 4586   3.841   6.483   0.337  0.0202  0.1796 -0.2313
  743poe    c23 4587   3.841   6.496   0.477 -0.3048  0.6321 -0.2713
  743poe    c23 4588   3.928   6.619   0.509  0.2347  0.1409  0.1776
  743poe     o2 4589   3.871   6.727   0.437 -0.0147 -0.1798 -0.1106
  743poe    c23 4590   3.954   6.840   0.425  0.1495 -0.3759 -0.8638
  743poe    c23 4591   3.877   6.933   0.330 -0.2920  0.2952  0.1321
  743poe     o2 4592   3.847   6.851   0.218 -0.0275  0.0299  0.2545
  743poe    c23 4593   3.755   6.907   0.128  0.5528  0.4984 -0.0532
  743poe    c23 4594   3.721   6.790   0.034 -0.0483  0.3184  0.3883
  743poe     o2 4595   3.719   6.664   0.098  0.0659  0.1864  0.1325
  743poe    c31 4596   3.666   6.566   0.011 -0.1391  0.1417  0.3067
  744poe    c31 4597   1.171   3.661   2.203  0.4831 -0.6680  0.8326
  744poe     o2 4598   1.215   3.637   2.071  0.1035  0.3485  0.5052
  744poe    c23 4599   1.321   3.724   2.040  0.4072 -0.1654  0.0863
  744poe    c23 4600   1.303   3.767   1.894  0.3352 -0.0063  0.1427
  744poe     o2 4601   1.267   3.653   1.820  0.6060 -0.1257  0.1947
  744poe    c23 4602   1.230   3.678   1.686  0.2499 -0.8559  0.1480
  744poe    c23 4603   1.184   3.538   1.641 -0.4436 -0.5409 -0.1411
  744poe     o2 4604   1.114   3.483   1.749 -0.4469 -0.0217  0.1269
  744poe    c23 4605   1.091   3.344   1.740  0.4254 -0.1452 -0.2633
  744poe    c23 4606   1.077   3.293   1.885  0.2898 -0.2133 -0.3005
  744poe     o2 4607   1.185   3.357   1.949 -0.1454  0.2937 -0.0564
  744poe    c31 4608   1.271   3.274   2.024  0.4382  1.0364  0.1037
  745poe    c31 4609   4.873   3.968   3.402 -0.2205 -0.5537 -0.5525
  745poe     o2 4610   4.733   3.960   3.387 -0.3128  0.1933 -0.1292
  745poe    c23 4611   4.675   3.832   3.397 -0.0459  0.1219  0.5710
  745poe    c23 4612   4.524   3.853   3.375  0.0134 -0.1871 -0.1470
  745poe     o2 4613   4.482   3.973   3.435  0.2689 -0.1028 -0.1360
  745poe    c23 4614   4.342   3.989   3.426  0.3398  0.3840 -0.4376
  745poe    c23 4615   4.321   4.140   3.448 -0.2201  0.2720 -0.1709
  745poe     o2 4616   4.346   4.178   3.581  0.1389 -0.3636 -0.0526
  745poe    c23 4617   4.351   4.315   3.615  0.3209 -0.3712 -0.0428
  745poe    c23 4618   4.410   4.346   3.753 -0.0779  1.2748 -0.2221
  745poe     o2 4619   4.549   4.344   3.725  0.0088  0.6856  0.2385
  745poe    c31 4620   4.622   4.373   3.842  0.2763 -0.2196  0.3079
  746poe    c31 4621   1.902   3.631   4.248  0.0485 -0.8053  0.1560
  746poe     o2 4622   1.773   3.680   4.279  0.2368 -0.2647  0.0970
  746poe    c23 4623   1.722   3.751   4.169  1.0078  0.7746  0.3966
  746poe    c23 4624   1.587   3.816   4.207  0.1734 -0.7040  0.0309
  746poe     o2 4625   1.526   3.724   4.294  0.0659 -0.5226  0.1478
  746poe    c23 4626   1.415   3.781   4.360 -0.1812 -0.3894 -0.3794
  746poe    c23 4627   1.365   3.672   4.456  0.1212 -0.2469 -0.0607
  746poe     o2 4628   1.481   3.615   4.513  0.1451 -0.1192  0.0202
  746poe    c23 4629   1.430   3.521   4.604  0.1682 -0.3771 -0.2320
  746poe    c23 4630   1.491   3.538   4.745  0.0528  0.6470 -0.3045
  746poe     o2 4631   1.631   3.547   4.742  0.1024 -0.0919 -0.2713
  746poe    c31 4632   1.682   3.562   4.873 -0.0172  0.4533 -0.2872
  747poe    c31 4633   4.509   1.876   4.656  0.1038 -0.5675  0.1705
  747poe     o2 4634   4.466   1.843   4.786  0.0907 -0.1575  0.2703
  747poe    c23 4635   4.351   1.763   4.798  0.2077 -0.3061  0.4171
  747poe    c23 4636   4.340   1.697   4.936  0.2694 -0.2969  0.4263
  747poe     o2 4637   4.369   1.800   5.028 -0.3076  0.0605  0.2087
  747poe    c23 4638   4.363   1.763   5.164 -0.2898  0.0242  0.2000
  747poe    c23 4639   4.424   1.884   5.236 -0.3267  0.1692 -0.0098
  747poe     o2 4640   4.542   1.941   5.184 -0.3377  0.2837  0.0891
  747poe    c23 4641   4.668   1.882   5.207 -0.0430  0.8044 -0.1622
  747poe    c23 4642   4.759   1.946   5.101  0.3002 -0.2122 -0.4991
  747poe     o2 4643   4.687   1.944   4.980 -0.2891  0.8595 -0.1823
  747poe    c31 4644   4.759   2.016   4.882 -0.2681 -0.2270 -0.9834
  748poe    c31 4645   6.322   1.986   4.524  0.1754  0.8252 -0.0195
  748poe     o2 4646   6.186   2.020   4.511  0.2344  0.9990 -0.1756
  748poe    c23 4647   6.117   2.081   4.617 -0.6409 -0.9620  0.4317
  748poe    c23 4648   5.989   2.150   4.566  0.1184 -0.1324 -0.3711
  748poe     o2 4649   6.009   2.247   4.465  0.4175  0.1069 -0.0865
  748poe    c23 4650   5.925   2.360   4.469  0.2164 -0.0303 -0.3758
  748poe    c23 4651   5.918   2.439   4.337 -0.9019 -0.5908 -0.6618
  748poe     o2 4652   6.042   2.454   4.271 -0.5720 -0.0752  0.0691
  748poe    c23 4653   6.029   2.476   4.133  0.2273 -0.1541 -0.0203
  748poe    c23 4654   6.174   2.504   4.090  0.1650  0.0413 -0.1076
  748poe     o2 4655   6.261   2.409   4.146 -0.1594 -0.3122 -0.2030
  748poe    c31 4656   6.397   2.443   4.134 -0.2523  0.2724  0.3726
  749poe    c31 4657   5.439   1.233   4.609  0.3851  0.0099 -0.8630
  749poe     o2 4658   5.431   1.093   4.619  0.5583  0.0862  0.5174
  749poe    c23 4659   5.539   1.039   4.693  0.5444  0.0651  0.5225
  749poe    c23 4660   5.535   0.890   4.653  0.2814  0.3052 -0.3786
  749poe     o2 4661   5.409   0.832   4.678  0.3675  0.3608  0.1984
  749poe    c23 4662   5.401   0.696   4.642 -0.8167  0.3960  0.2883
  749poe    c23 4663   5.267   0.676   4.568 -0.9076 -0.4048  0.6594
  749poe     o2 4664   5.246   0.797   4.500  0.3906 -0.2438  0.5255
  749poe    c23 4665   5.124   0.787   4.431  0.2851  0.1422  0.6503
  749poe    c23 4666   5.097   0.935   4.397 -0.4672 -0.1502 -0.0518
  749poe     o2 4667   5.159   1.013   4.497  0.5299 -0.2697 -0.5640
  749poe    c31 4668   5.143   1.145   4.448  0.0537 -0.0498  0.1761
  750poe    c31 4669   4.928   6.146   6.104  0.0688  0.3739 -0.6473
  750poe     o2 4670   4.932   6.202   6.233  0.0860 -0.0367 -0.4664
  750poe    c23 4671   4.803   6.252   6.261  0.1761 -0.2524  0.3397
  750poe    c23 4672   4.789   6.240   6.414  0.0072 -0.1006  0.3355
  750poe     o2 4673   4.907   6.295   6.468  0.5102 -0.1240 -0.7223
  750poe    c23 4674   4.920   6.267   6.606  0.3329  0.2147 -0.6358
  750poe    c23 4675   4.991   6.131   6.616 -0.5038 -0.2545 -0.9429
  750poe     o2 4676   5.091   6.145   6.517  0.5420  0.2441  0.1428
  750poe    c23 4677   5.163   6.024   6.523 -0.0255 -0.1154 -0.1538
  750poe    c23 4678   5.257   6.055   6.404  0.4426  0.6047  0.3970
  750poe     o2 4679   5.189   6.126   6.303  0.2743 -0.1077 -0.0009
  750poe    c31 4680   5.298   6.161   6.221  0.8301 -0.3544  0.6254
  751poe    c31 4681   6.841   1.472   5.072 -0.0265 -0.6364  0.1039
  751poe     o2 4682   6.980   1.455   5.079  0.0628 -0.0571 -0.1836
  751poe    c23 4683   7.040   1.544   5.170 -0.1691  0.1028 -0.1872
  751poe    c23 4684   7.194   1.557   5.168 -0.1730  0.1823  0.0325
  751poe     o2 4685   7.256   1.432   5.183 -0.3726 -0.0183 -0.7695
  751poe    c23 4686   7.384   1.437   5.125  0.1125  0.0959  0.2832
  751poe    c23 4687   7.458   1.302   5.118 -0.0812  0.0392 -0.9335
  751poe     o2 4688   7.370   1.195   5.091 -0.3933 -0.0046  0.2028
  751poe    c23 4689   7.447   1.079   5.111 -0.4032  0.0242  0.4065
  751poe    c23 4690   7.355   0.958   5.085 -0.2268 -0.0011 -0.0954
  751poe     o2 4691   7.227   0.994   5.131 -0.3321 -0.0829 -0.3214
  751poe    c31 4692   7.157   0.872   5.122 -0.1172 -0.1760 -0.7745
  752poe    c31 4693   1.403   1.017   6.163 -0.1264 -0.4239 -0.6197
  752poe     o2 4694   1.314   0.961   6.256  0.5594  0.0618  0.3410
  752poe    c23 4695   1.210   0.888   6.195  0.5463 -0.1439  0.6069
  752poe    c23 4696   1.138   0.806   6.303  0.0580 -0.1585  0.2736
  752poe     o2 4697   1.166   0.871   6.425  0.0222 -0.1907  0.2994
  752poe    c23 4698   1.108   0.822   6.544  0.6099  0.3352  0.8118
  752poe    c23 4699   1.111   0.942   6.640 -0.1360  0.7253  0.3653
  752poe     o2 4700   1.225   1.014   6.599 -0.1110  0.4459 -0.0598
  752poe    c23 4701   1.232   1.139   6.663 -0.1471  0.2869  0.2541
  752poe    c23 4702   1.326   1.216   6.568 -0.2759 -0.1091 -0.1943
  752poe     o2 4703   1.271   1.197   6.439  0.7340 -0.2754 -0.6093
  752poe    c31 4704   1.297   1.299   6.345  0.5208 -0.0172 -0.3898
  753poe    c31 4705   2.841   0.833   4.656  0.0357  0.0133  0.4297
  753poe     o2 4706   2.945   0.822   4.751  0.5812  0.0597 -0.1516
  753poe    c23 4707   2.957   0.932   4.838  0.1456 -0.2652  0.3264
  753poe    c23 4708   3.100   0.921   4.895  0.2159 -0.2155  0.1609
  753poe     o2 4709   3.097   0.802   4.971 -0.0827 -0.1699  0.2228
  753poe    c23 4710   3.226   0.754   5.000  0.3082  0.2492 -0.7733
  753poe    c23 4711   3.199   0.604   5.026 -0.4031  0.6028  0.5982
  753poe     o2 4712   3.134   0.559   4.909  0.5491  0.0359  0.2786
  753poe    c23 4713   3.078   0.430   4.916  1.0227 -0.1859  0.0354
  753poe    c23 4714   3.011   0.413   4.778 -0.2985  0.4100  0.5795
  753poe     o2 4715   2.953   0.537   4.746  0.4665  0.5941 -0.1426
  753poe    c31 4716   2.885   0.520   4.624 -0.7689 -0.7801  0.6942
  754poe    c31 4717   0.709   2.070   5.910  0.0688  0.9458  0.2346
  754poe     o2 4718   0.596   2.008   5.967  0.5286 -0.0859  0.0465
  754poe    c23 4719   0.590   1.868   5.953 -0.5221 -0.0455  0.0124
  754poe    c23 4720   0.466   1.822   5.874 -0.4195 -0.6096  0.1710
  754poe     o2 4721   0.353   1.875   5.941 -0.1260  0.0904  0.1268
  754poe    c23 4722   0.235   1.840   5.871 -0.0080 -0.1920  0.0662
  754poe    c23 4723   0.135   1.957   5.875  0.6315  0.3492  0.5169
  754poe     o2 4724   0.134   1.992   6.011 -0.1048  0.1775  0.5604
  754poe    c23 4725   0.056   2.109   6.025  0.0517  0.3835 -0.2536
  754poe    c23 4726   0.039   2.131   6.176 -0.2403 -0.4233 -0.1650
  754poe     o2 4727   0.160   2.182   6.226 -0.0852 -0.6023 -0.3579
  754poe    c31 4728   0.139   2.191   6.365  0.3342  0.0198 -0.3324
  755poe    c31 4729   0.386   0.736   2.443  0.3442  0.1121 -0.0712
  755poe     o2 4730   0.392   0.615   2.515  0.3711 -0.0538 -0.3490
  755poe    c23 4731   0.340   0.506   2.443  0.4547 -0.0574 -0.4050
  755poe    c23 4732   0.306   0.401   2.550  0.1419  0.7690  0.3188
  755poe     o2 4733   0.411   0.337   2.619 -0.1672 -0.3433 -0.2193
  755poe    c23 4734   0.357   0.266   2.729  0.0720  0.4163  0.4013
  755poe    c23 4735   0.475   0.190   2.793 -0.1635 -0.3642 -0.0740
  755poe     o2 4736   0.585   0.272   2.823 -0.3889 -0.1338  0.1191
  755poe    c23 4737   0.687   0.190   2.875 -0.2134  0.4311  0.6910
  755poe    c23 4738   0.805   0.289   2.881 -0.0528  0.2451  0.6041
  755poe     o2 4739   0.794   0.385   2.779  0.0389 -0.3389  0.0331
  755poe    c31 4740   0.915   0.453   2.753 -0.4114  0.3462 -0.2995
  756poe    c31 4741   4.649   3.781   5.402 -0.3396 -0.0924 -0.0090
  756poe     o2 4742   4.630   3.833   5.531  0.3079  0.7293 -0.2346
  756poe    c23 4743   4.493   3.848   5.558  0.3001  0.0862  0.1234
  756poe    c23 4744   4.487   3.966   5.657  0.0689  0.2047 -0.0293
  756poe     o2 4745   4.573   3.958   5.769  0.3836  0.2378 -0.2667
  756poe    c23 4746   4.578   4.091   5.816  0.2448  0.1807 -0.0875
  756poe    c23 4747   4.636   4.083   5.958  0.0654  0.3661 -0.0048
  756poe     o2 4748   4.748   3.998   5.950 -0.6215 -0.5573  0.0006
  756poe    c23 4749   4.828   4.006   6.066 -0.4790 -0.4240 -0.1058
  756poe    c23 4750   4.948   3.909   6.062  0.0963  0.2931 -0.4018
  756poe     o2 4751   4.888   3.802   5.991 -0.1880  0.3421 -0.2369
  756poe    c31 4752   4.987   3.708   5.957  0.1440  0.6553 -0.1517
  757poe    c31 4753   3.953   2.310   6.606  0.1296 -0.1238 -0.2790
  757poe     o2 4754   4.053   2.410   6.600  0.2797 -0.2969 -0.6416
  757poe    c23 4755   4.110   2.400   6.472 -0.4253 -0.3852 -0.9580
  757poe    c23 4756   4.180   2.537   6.461 -0.2522 -0.4264 -0.3948
  757poe     o2 4757   4.246   2.557   6.584 -0.1460  0.2197 -0.5542
  757poe    c23 4758   4.337   2.664   6.595  0.4194 -0.2498 -0.6129
  757poe    c23 4759   4.389   2.683   6.739 -0.4179  0.2700 -0.3691
  757poe     o2 4760   4.293   2.705   6.840  0.0126 -0.4122  0.1965
  757poe    c23 4761   4.328   2.707   6.976 -0.3268  0.0003  0.2796
  757poe    c23 4762   4.200   2.724   7.059 -0.4609  0.8771 -0.1004
  757poe     o2 4763   4.126   2.609   7.093  0.6348  0.1681 -0.0790
  757poe    c31 4764   4.011   2.642   7.168  0.4320  0.0927 -0.3539
  758poe    c31 4765   3.544   6.799   4.609  0.1740 -0.1754 -0.0808
  758poe     o2 4766   3.490   6.737   4.723 -0.7299  0.3473 -0.2139
  758poe    c23 4767   3.351   6.746   4.738 -0.7468  0.1751 -0.2565
  758poe    c23 4768   3.299   6.755   4.883  0.6604  0.2592  0.2499
  758poe     o2 4769   3.276   6.626   4.934  0.4367  0.2238  0.0604
  758poe    c23 4770   3.154   6.565   4.898  0.3908  0.0933  0.4329
  758poe    c23 4771   3.110   6.510   5.035 -0.1122 -0.0936  0.1984
  758poe     o2 4772   3.211   6.427   5.088  0.4579  0.5282  0.0927
  758poe    c23 4773   3.190   6.367   5.213 -0.0159 -0.0801 -0.2778
  758poe    c23 4774   3.310   6.274   5.240 -0.1636 -0.4293 -0.7998
  758poe     o2 4775   3.418   6.364   5.230 -0.3347 -0.0593  0.4137
  758poe    c31 4776   3.534   6.323   5.299  0.1697 -0.4585 -0.6415
  759poe    c31 4777   3.130   5.326   0.308  0.1915 -0.6298 -0.2111
  759poe     o2 4778   3.231   5.329   0.406 -0.5133 -0.2741  0.5197
  759poe    c23 4779   3.266   5.196   0.439 -0.5701 -0.3807  0.1552
  759poe    c23 4780   3.392   5.170   0.524 -0.2198  0.1783 -0.1760
  759poe     o2 4781   3.501   5.189   0.438 -0.0777  0.0287 -0.0307
  759poe    c23 4782   3.614   5.214   0.518 -0.1873  0.1040  0.1000
  759poe    c23 4783   3.749   5.221   0.443 -0.3124  0.4047 -0.0988
  759poe     o2 4784   3.740   5.314   0.338  0.1654  0.6175  0.0453
  759poe    c23 4785   3.864   5.326   0.272  0.3767  0.2705  0.3782
  759poe    c23 4786   3.855   5.453   0.186  0.7019 -0.0750 -0.1759
  759poe     o2 4787   3.721   5.457   0.142  0.4273  0.2662  0.6769
  759poe    c31 4788   3.711   5.516   0.015 -0.0438 -0.4594  0.3725
  760poe    c31 4789   0.416   1.640   3.367 -0.1488  0.3808  0.2047
  760poe     o2 4790   0.551   1.657   3.402 -0.1336  0.3335  0.1686
  760poe    c23 4791   0.606   1.554   3.480 -0.0422  0.3053  0.0679
  760poe    c23 4792   0.736   1.598   3.551 -0.0780  0.5476 -0.0173
  760poe     o2 4793   0.802   1.674   3.452  0.3817  0.0246 -0.1181
  760poe    c23 4794   0.920   1.734   3.499  0.0382  0.6078  0.0066
  760poe    c23 4795   1.017   1.768   3.384  0.2713  0.6952  0.2277
  760poe     o2 4796   0.950   1.856   3.296  0.3083  0.3232 -0.1759
  760poe    c23 4797   1.013   1.876   3.171 -0.0836  0.8669 -0.2873
  760poe    c23 4798   0.905   1.915   3.068 -0.2494  0.2649 -0.3465
  760poe     o2 4799   0.811   1.810   3.059 -0.2414  0.1839  0.4345
  760poe    c31 4800   0.696   1.847   2.987  0.0951  0.3073 -0.0433
  761poe    c31 4801   2.799   1.255   3.286 -0.0469 -0.1861  0.3235
  761poe     o2 4802   2.763   1.387   3.250 -0.0496 -0.3077 -0.1211
  761poe    c23 4803   2.671   1.445   3.340  0.5505  0.2320  0.1522
  761poe    c23 4804   2.652   1.597   3.322 -1.0798  0.0514  0.1877
  761poe     o2 4805   2.605   1.601   3.189  0.1235  0.0837 -0.2443
  761poe    c23 4806   2.590   1.732   3.139 -0.4130 -0.0530 -0.4499
  761poe    c23 4807   2.592   1.701   2.988  0.0350 -0.3912 -0.3787
  761poe     o2 4808   2.695   1.609   2.961  0.4471 -0.2578  0.7032
  761poe    c23 4809   2.725   1.596   2.824 -0.3152  0.5746  0.4435
  761poe    c23 4810   2.867   1.536   2.835 -0.3948  0.2649 -0.1791
  761poe     o2 4811   2.871   1.441   2.940 -0.0781  0.2632 -0.1920
  761poe    c31 4812   3.000   1.386   2.931 -0.1314  0.0821  0.1411
  762poe    c31 4813   0.920   5.375   5.909  0.1864 -0.0425 -0.3549
  762poe     o2 4814   0.810   5.394   5.823  0.1625  0.9644 -0.1139
  762poe    c23 4815   0.850   5.453   5.702 -0.1340  0.0231 -0.6810
  762poe    c23 4816   0.845   5.349   5.588 -0.1527 -0.7242 -0.0094
  762poe     o2 4817   0.715   5.301   5.564 -0.0474 -0.7724 -0.4903
  762poe    c23 4818   0.704   5.180   5.492 -0.1221 -0.5246 -0.9034
  762poe    c23 4819   0.558   5.143   5.461 -0.6109  0.5162  0.0867
  762poe     o2 4820   0.486   5.133   5.582 -0.2303 -0.2329  0.2557
  762poe    c23 4821   0.391   5.030   5.567 -0.1043 -0.3256  0.0820
  762poe    c23 4822   0.293   5.060   5.683 -0.1805  0.2365 -0.1256
  762poe     o2 4823   0.270   5.198   5.700 -0.0110  0.2465  0.0186
  762poe    c31 4824   0.135   5.224   5.729 -0.0485 -0.2317  0.2882
  763poe    c31 4825   1.244   1.240   4.608  0.2896  0.4571  0.0588
  763poe     o2 4826   1.224   1.107   4.565  0.1226  0.4271  0.2282
  763poe    c23 4827   1.172   1.043   4.680  0.2693  0.1263  0.1305
  763poe    c23 4828   1.144   0.903   4.623  0.2136  0.2568 -0.1661
  763poe     o2 4829   1.066   0.914   4.506 -0.2304 -0.1736  0.0854
  763poe    c23 4830   1.008   0.792   4.467 -0.2893  0.0228 -0.4461
  763poe    c23 4831   0.893   0.815   4.367 -0.1288  0.4292 -0.5374
  763poe     o2 4832   0.943   0.868   4.246  0.0721 -0.0642 -0.6710
  763poe    c23 4833   0.841   0.898   4.153 -0.3364  1.1564  0.1602
  763poe    c23 4834   0.888   0.999   4.046  1.0905 -0.0258 -0.3550
  763poe     o2 4835   0.919   1.121   4.109 -0.0436 -0.0990  0.3759
  763poe    c31 4836   0.926   1.226   4.015 -0.1273 -0.1265  0.3380
  764poe    c31 4837   3.066   4.775   0.523 -0.0913 -0.2886  0.0078
  764poe     o2 4838   3.144   4.659   0.503  0.0399 -0.1237 -0.4310
  764poe    c23 4839   3.150   4.611   0.370  0.2823  0.0395 -0.4795
  764poe    c23 4840   3.200   4.466   0.355  0.1585 -0.0221 -0.3007
  764poe     o2 4841   3.155   4.410   0.476 -0.5404  0.1322 -0.4833
  764poe    c23 4842   3.218   4.287   0.506  0.1920  0.5581 -0.2528
  764poe    c23 4843   3.168   4.260   0.649  0.1332 -0.1772 -0.4090
  764poe     o2 4844   3.182   4.375   0.728  0.5836 -0.4451 -0.0960
  764poe    c23 4845   3.175   4.340   0.865 -0.3956 -0.2756 -0.0928
  764poe    c23 4846   3.212   4.457   0.957 -0.6334  0.2288 -0.6298
  764poe     o2 4847   3.349   4.490   0.947 -0.5623  0.0953 -0.1306
  764poe    c31 4848   3.388   4.585   1.044 -0.4496  0.0225 -0.1056
  765poe    c31 4849   4.496   6.564   4.769 -0.2983 -0.0138  0.2185
  765poe     o2 4850   4.570   6.520   4.880  0.2670  0.1553 -0.0869
  765poe    c23 4851   4.618   6.395   4.835  0.5399  0.2941 -0.1845
  765poe    c23 4852   4.661   6.331   4.969 -0.1160 -0.0025 -0.1113
  765poe     o2 4853   4.751   6.413   5.040 -0.0728 -0.0580 -0.1024
  765poe    c23 4854   4.801   6.353   5.157  0.4955  0.3245 -0.1432
  765poe    c23 4855   4.889   6.452   5.235  0.1318 -0.2215  0.9822
  765poe     o2 4856   4.806   6.553   5.290 -0.2555  0.0364 -0.0569
  765poe    c23 4857   4.885   6.639   5.369  0.2217 -0.7299  0.3079
  765poe    c23 4858   4.818   6.728   5.476  0.3833 -0.1602 -0.0660
  765poe     o2 4859   4.731   6.815   5.407 -0.0231 -0.1658  0.4348
  765poe    c31 4860   4.712   6.928   5.489  0.2212  0.0871  0.1482
  766poe    c31 4861   6.574   1.998   0.576  0.0216  0.5570 -0.1521
  766poe     o2 4862   6.695   1.964   0.641 -0.3042 -0.1752  0.0875
  766poe    c23 4863   6.798   2.059   0.620 -0.3833 -0.1137 -0.0256
  766poe    c23 4864   6.899   2.029   0.733  0.0124 -0.0297 -0.3580
  766poe     o2 4865   6.908   1.889   0.733 -0.1053 -0.0435 -0.9586
  766poe    c23 4866   7.004   1.840   0.824 -0.5008 -0.1649 -0.6019
  766poe    c23 4867   6.968   1.693   0.853  0.0296 -0.2005 -0.1120
  766poe     o2 4868   6.912   1.632   0.739 -0.0925  0.1944 -0.2643
  766poe    c23 4869   6.981   1.510   0.723  0.0400  0.2546 -0.1545
  766poe    c23 4870   6.931   1.415   0.612  0.7499 -0.0783 -0.1937
  766poe     o2 4871   6.903   1.485   0.493 -0.3984 -0.1176  0.0422
  766poe    c31 4872   6.881   1.395   0.388 -1.1312 -0.0256  0.1132
  767poe    c31 4873   2.725   5.523   0.144  0.3475  0.1679  0.2568
  767poe     o2 4874   2.784   5.505   0.017  0.3300  0.0229  0.2701
  767poe    c23 4875   2.836   5.373   0.023  0.6706  0.1728  0.6936
  767poe    c23 4876   2.920   5.335  -0.100  0.4960 -0.0607  0.6465
  767poe     o2 4877   2.832   5.370  -0.204  0.6786 -0.6271  0.2982
  767poe    c23 4878   2.908   5.392  -0.321 -0.1906  0.3878 -0.0931
  767poe    c23 4879   2.849   5.512  -0.398  0.0975  0.4874 -0.1602
  767poe     o2 4880   2.852   5.614  -0.300  0.2286  0.6409 -0.3251
  767poe    c23 4881   2.780   5.719  -0.359 -0.8676  0.0981  0.0308
  767poe    c23 4882   2.736   5.806  -0.240 -0.1385  0.1780  0.2464
  767poe     o2 4883   2.666   5.737  -0.139 -0.2142 -0.5649 -0.3061
  767poe    c31 4884   2.643   5.829  -0.035 -0.0607  0.0512 -0.8173
  768poe    c31 4885   4.712   3.738   0.499  0.5429  0.2207  0.5799
  768poe     o2 4886   4.616   3.687   0.589  0.8228  0.3174  0.9347
  768poe    c23 4887   4.609   3.550   0.558  0.1243  0.6094 -0.2218
  768poe    c23 4888   4.478   3.495   0.617  0.6159 -0.2555  0.0796
  768poe     o2 4889   4.450   3.573   0.731 -0.6440 -0.5488 -0.0088
  768poe    c23 4890   4.327   3.539   0.789 -0.8912  0.0813 -0.1557
  768poe    c23 4891   4.347   3.555   0.941  0.2295  0.0520 -0.2941
  768poe     o2 4892   4.436   3.662   0.964  0.0417  0.1433  0.0230
  768poe    c23 4893   4.433   3.715   1.094  0.9224  0.7475 -0.1932
  768poe    c23 4894   4.528   3.635   1.185  0.1199  0.1514  0.1307
  768poe     o2 4895   4.664   3.636   1.151  0.0405 -0.0476 -0.1923
  768poe    c31 4896   4.724   3.565   1.257  0.2261 -0.6361 -0.6785
  769poe    c31 4897   5.766   6.470   4.846 -0.1130 -0.2571  1.1212
  769poe     o2 4898   5.800   6.606   4.861 -0.9544  0.0324  0.4802
  769poe    c23 4899   5.799   6.678   4.740  0.8187  0.0975  0.4898
  769poe    c23 4900   5.831   6.821   4.786 -0.2868  0.4749  0.1095
  769poe     o2 4901   5.744   6.850   4.894 -0.6426 -0.1849  0.0023
  769poe    c23 4902   5.764   6.981   4.941  0.1508 -0.3038  0.0220
  769poe    c23 4903   5.640   7.016   5.026  0.6382 -0.0423  0.6390
  769poe     o2 4904   5.620   6.908   5.114  0.3128  0.0279  0.6562
  769poe    c23 4905   5.513   6.928   5.203  0.0488  0.5320  0.2280
  769poe    c23 4906   5.486   6.795   5.275  0.5017  0.1316 -0.3357
  769poe     o2 4907   5.435   6.689   5.196  0.6917 -0.1628 -0.0647
  769poe    c31 4908   5.375   6.600   5.287  0.0375 -0.1232 -0.4591
  770poe    c31 4909   5.593   1.040   3.063 -0.8160  0.7351  0.5365
  770poe     o2 4910   5.572   1.101   2.938  0.3350 -0.6006 -0.3414
  770poe    c23 4911   5.467   1.195   2.946  0.3387 -0.6551  0.3569
  770poe    c23 4912   5.456   1.282   2.820 -0.6506 -0.4167  0.5986
  770poe     o2 4913   5.374   1.395   2.800  0.0725  0.0205  0.0299
  770poe    c23 4914   5.409   1.496   2.892 -0.2196  0.1914 -0.0438
  770poe    c23 4915   5.335   1.630   2.887 -0.4683  0.0588  0.0839
  770poe     o2 4916   5.315   1.670   2.754  0.4678  0.5793  0.0950
  770poe    c23 4917   5.426   1.698   2.671  0.6697 -0.4962 -0.0111
  770poe    c23 4918   5.371   1.761   2.541  0.3723  0.0623  0.3821
  770poe     o2 4919   5.248   1.702   2.503  0.5122  0.2310 -0.3310
  770poe    c31 4920   5.211   1.742   2.373 -0.7359  0.3948  0.0666
  771poe    c31 4921   0.119   0.965   3.404 -0.3828  0.0579 -0.3497
  771poe     o2 4922   0.189   0.990   3.284 -0.2284  0.3339 -0.2016
  771poe    c23 4923   0.228   1.125   3.297 -0.5587  0.3985  0.1343
  771poe    c23 4924   0.261   1.186   3.159  0.2722 -0.0166  0.1418
  771poe     o2 4925   0.315   1.077   3.088  0.0771 -0.2050  0.2800
  771poe    c23 4926   0.361   1.112   2.960 -0.6539 -0.5533 -0.0852
  771poe    c23 4927   0.401   0.980   2.891 -0.2273 -0.1929 -0.5387
  771poe     o2 4928   0.295   0.888   2.907 -0.0573 -0.2338  0.3817
  771poe    c23 4929   0.326   0.771   2.834 -0.0990 -0.0270  0.0304
  771poe    c23 4930   0.203   0.680   2.823  0.3587 -0.6355 -0.1207
  771poe     o2 4931   0.183   0.646   2.958 -0.0753  0.2075  0.0339
  771poe    c31 4932   0.064   0.570   2.959 -0.1954  0.3641 -1.1502
  772poe    c31 4933   4.801   4.104   1.993  0.2640 -0.0457  0.3537
  772poe     o2 4934   4.660   4.093   1.991  0.2387  0.3048 -0.1691
  772poe    c23 4935   4.630   4.056   1.858  0.3497  0.2639 -0.1830
  772poe    c23 4936   4.496   4.126   1.831  0.2592  0.2730  0.2832
  772poe     o2 4937   4.488   4.260   1.874  0.4360  0.3662  0.0266
  772poe    c23 4938   4.356   4.307   1.857 -0.0310 -0.6813  0.7022
  772poe    c23 4939   4.348   4.420   1.962 -0.7082 -0.5005  0.4596
  772poe     o2 4940   4.410   4.370   2.078  0.6860  0.2243  0.0491
  772poe    c23 4941   4.432   4.460   2.184 -0.0682  0.0165  0.3892
  772poe    c23 4942   4.505   4.368   2.283  0.5773  0.2139  0.1050
  772poe     o2 4943   4.607   4.298   2.216  0.0760  0.2219 -0.6710
  772poe    c31 4944   4.705   4.254   2.306 -0.6105 -0.1445 -0.0898
  773poe    c31 4945   0.989   3.152   0.473  0.3315  0.1759  0.3219
  773poe     o2 4946   0.861   3.104   0.441  0.4631  0.5281 -0.7753
  773poe    c23 4947   0.754   3.188   0.478  0.2707 -0.0816  0.0634
  773poe    c23 4948   0.628   3.117   0.424 -0.1527  0.1806  0.6957
  773poe     o2 4949   0.590   3.031   0.529  0.2942 -0.4029  0.3813
  773poe    c23 4950   0.476   2.957   0.493  0.4406 -0.4185 -0.0585
  773poe    c23 4951   0.397   2.903   0.614  0.0899  0.3290  0.0497
  773poe     o2 4952   0.481   2.794   0.646 -0.3210 -0.1881 -0.6160
  773poe    c23 4953   0.447   2.717   0.759 -0.0389  0.5054 -0.0527
  773poe    c23 4954   0.560   2.617   0.786 -0.3548  0.1728  0.0484
  773poe     o2 4955   0.680   2.692   0.787  0.1097 -0.5427 -0.5961
  773poe    c31 4956   0.790   2.621   0.840  0.1348 -0.0062  0.0831
  774poe    c31 4957   2.832   6.764   6.565 -0.0321 -0.0423 -0.1922
  774poe     o2 4958   2.707   6.709   6.529 -0.0411 -0.0884 -0.0930
  774poe    c23 4959   2.685   6.593   6.605 -0.4913  0.2651  0.3157
  774poe    c23 4960   2.560   6.529   6.541 -0.1375 -0.3429  0.2253
  774poe     o2 4961   2.482   6.647   6.536 -0.2042 -0.3996 -0.0580
  774poe    c23 4962   2.346   6.619   6.515 -0.3944 -0.1856  0.8614
  774poe    c23 4963   2.285   6.756   6.551  0.1952  0.2566  0.1947
  774poe     o2 4964   2.372   6.857   6.504  0.3412 -0.0527 -0.2144
  774poe    c23 4965   2.314   6.985   6.520  0.1422 -0.2401  0.6325
  774poe    c23 4966   2.417   7.091   6.477 -0.7635  0.4035  0.0296
  774poe     o2 4967   2.549   7.042   6.485 -0.6873  0.5569 -0.2592
  774poe    c31 4968   2.637   7.149   6.457 -0.1132  0.1490 -0.0247
  775poe    c31 4969   2.821   2.257   3.674  0.3384 -0.1544 -0.5613
  775poe     o2 4970   2.910   2.148   3.688  0.5681  0.0278 -0.5833
  775poe    c23 4971   2.833   2.031   3.705 -0.0615  0.5187  0.0014
  775poe    c23 4972   2.900   1.921   3.789  0.0414  0.5368 -0.0581
  775poe     o2 4973   3.041   1.920   3.774  0.0428  0.7159 -0.0625
  775poe    c23 4974   3.084   1.791   3.813 -0.2163  0.5945 -0.1731
  775poe    c23 4975   3.236   1.780   3.792 -0.1903  0.1259  0.2562
  775poe     o2 4976   3.306   1.902   3.806 -0.0846  0.1448 -0.3896
  775poe    c23 4977   3.429   1.870   3.744  0.2745 -0.1313  0.4378
  775poe    c23 4978   3.511   1.999   3.733  0.1070 -0.0586  0.0065
  775poe     o2 4979   3.425   2.093   3.673 -0.1035  0.1183  0.5816
  775poe    c31 4980   3.493   2.214   3.648 -0.2591  0.0306 -0.2943
  776poe    c31 4981   6.357   0.162   5.630  0.1261  0.4042 -0.0326
  776poe     o2 4982   6.339   0.062   5.728  0.2776  0.2034 -0.2088
  776poe    c23 4983   6.470   0.020   5.756  0.1090 -0.2692 -0.1200
  776poe    c23 4984   6.471  -0.093   5.861 -0.2920 -0.0984  0.0680
  776poe     o2 4985   6.369  -0.176   5.813 -0.6714  0.7377 -0.5962
  776poe    c23 4986   6.366  -0.296   5.887  0.6341  0.3897 -1.0682
  776poe    c23 4987   6.298  -0.408   5.806  0.1515  0.1980 -0.4102
  776poe     o2 4988   6.165  -0.381   5.766 -0.0612  0.0638  0.1995
  776poe    c23 4989   6.104  -0.489   5.700  0.3288  0.0055 -0.0713
  776poe    c23 4990   5.990  -0.419   5.624  0.1626  0.0093  0.1765
  776poe     o2 4991   5.951  -0.299   5.686  0.1015  0.1624 -0.1542
  776poe    c31 4992   5.819  -0.257   5.660  0.0180 -0.2276 -0.3723
  777poe    c31 4993   0.820   3.171   5.753  0.7283 -0.1997  0.4481
  777poe     o2 4994   0.735   3.119   5.853  0.2698 -0.3737 -0.0278
  777poe    c23 4995   0.604   3.082   5.815  0.1674  0.1274 -0.1715
  777poe    c23 4996   0.538   3.004   5.930 -0.1397 -0.0008 -0.4339
  777poe     o2 4997   0.564   3.071   6.051 -0.1327 -0.5081 -0.1549
  777poe    c23 4998   0.452   3.138   6.106  0.4595  0.4285 -0.0693
  777poe    c23 4999   0.509   3.216   6.226  0.4627 -0.7305  0.7017
  777poe     o2 5000   0.632   3.262   6.175 -0.1735  0.0123 -0.1876
  777poe    c23 5001   0.668   3.395   6.204  0.2086 -0.0712 -0.2730
  777poe    c23 5002   0.817   3.400   6.165  0.2713  0.3952  0.0129
  777poe     o2 5003   0.845   3.323   6.050 -0.7086 -0.5041  0.3583
  777poe    c31 5004   0.983   3.328   6.025 -0.7106  0.4034  0.4970
  778poe    c31 5005   3.569   2.918   2.907  0.1336 -0.2405 -0.4824
  778poe     o2 5006   3.494   2.834   2.992  0.1888  0.3116  0.1227
  778poe    c23 5007   3.568   2.750   3.077  0.3452  0.6052  0.2796
  778poe    c23 5008   3.463   2.656   3.141  0.3346  0.2259 -0.2937
  778poe     o2 5009   3.352   2.719   3.198  0.2254 -0.6736  0.5103
  778poe    c23 5010   3.239   2.636   3.214  0.0009 -0.5110 -0.1829
  778poe    c23 5011   3.120   2.731   3.195  0.2720 -0.0328  0.4537
  778poe     o2 5012   3.160   2.804   3.082 -0.5102  0.0883  0.2486
  778poe    c23 5013   3.054   2.868   3.014 -0.4358  0.0431  0.0874
  778poe    c23 5014   3.109   3.007   2.980 -0.3471 -0.0133  0.0001
  778poe     o2 5015   3.239   2.988   2.929 -0.5604  0.1363 -0.6134
  778poe    c31 5016   3.244   3.013   2.790  0.0208 -0.6636 -0.7438
  779poe    c31 5017   3.052   4.538   4.367  0.7108  0.5797  0.1169
  779poe     o2 5018   3.048   4.413   4.301  0.0770  0.2060  0.8471
  779poe    c23 5019   3.172   4.348   4.313  0.3958  0.4749 -0.7368
  779poe    c23 5020   3.166   4.211   4.243  0.0389 -0.0813  0.3502
  779poe     o2 5021   3.040   4.151   4.261 -0.2762  0.3748 -0.3038
  779poe    c23 5022   3.035   4.021   4.205  0.1696  0.1752  0.1187
  779poe    c23 5023   2.887   3.983   4.218  0.1578  0.2374  0.1686
  779poe     o2 5024   2.814   4.102   4.205  0.5531  0.4169 -0.4235
  779poe    c23 5025   2.757   4.117   4.076  1.1743 -0.2595 -0.7838
  779poe    c23 5026   2.729   4.266   4.050  0.6890 -0.1766  0.1562
  779poe     o2 5027   2.838   4.349   4.083  0.5284 -0.0730  0.4242
  779poe    c31 5028   2.859   4.475   4.024  0.1734 -0.0179  0.4105
  780poe    c31 5029   5.908   4.936   2.586  0.2987  0.1646 -0.3779
  780poe     o2 5030   5.768   4.932   2.573  0.2947  0.3494 -0.3952
  780poe    c23 5031   5.701   5.016   2.664 -0.0271  0.6476 -0.9015
  780poe    c23 5032   5.560   4.955   2.680  0.3609 -0.2630 -0.9020
  780poe     o2 5033   5.519   4.902   2.557  0.1526 -0.0688 -0.9174
  780poe    c23 5034   5.389   4.847   2.565  0.2090 -0.0283  0.3633
  780poe    c23 5035   5.368   4.792   2.423 -0.0101  0.8407  0.0588
  780poe     o2 5036   5.453   4.683   2.397 -0.4257  0.4279  0.4320
  780poe    c23 5037   5.421   4.594   2.292 -0.0327  0.3450  0.3822
  780poe    c23 5038   5.521   4.477   2.303  0.0829  0.4402  0.3487
  780poe     o2 5039   5.643   4.513   2.242  0.3168 -0.2569  0.3893
  780poe    c31 5040   5.746   4.418   2.252 -0.5189 -1.2271 -0.0443
  781poe    c31 5041   2.025   0.656   6.190 -0.1020  0.1370  0.9636
  781poe     o2 5042   1.925   0.567   6.148  0.0354  0.3032  0.2716
  781poe    c23 5043   1.970   0.440   6.189 -0.9930 -0.0318  0.4067
  781poe    c23 5044   1.895   0.332   6.109  0.0758 -0.5373  0.0526
  781poe     o2 5045   1.768   0.377   6.067  0.2753  0.3023  0.3239
  781poe    c23 5046   1.737   0.328   5.938  0.1138  0.2073  0.3975
  781poe    c23 5047   1.765   0.437   5.833 -0.3984 -0.2109 -0.1799
  781poe     o2 5048   1.734   0.562   5.890 -0.0749 -0.0141 -0.4331
  781poe    c23 5049   1.732   0.671   5.799  0.5744  0.2384 -0.1470
  781poe    c23 5050   1.705   0.803   5.873  0.7598  0.1606  0.0614
  781poe     o2 5051   1.773   0.801   5.997 -0.1624 -0.6812  0.5719
  781poe    c31 5052   1.789   0.933   6.042 -0.2733 -0.2369 -0.6566
  782poe    c31 5053   6.878   1.166   1.737 -0.3158 -0.1808 -0.3432
  782poe     o2 5054   6.815   1.042   1.761  0.4547 -0.4707  0.2204
  782poe    c23 5055   6.718   1.039   1.863 -0.5498  0.6331 -0.6747
  782poe    c23 5056   6.615   0.926   1.844 -0.0139  0.0788 -0.3226
  782poe     o2 5057   6.667   0.795   1.845  0.1402  0.1415 -0.1017
  782poe    c23 5058   6.570   0.693   1.862  0.2589  0.2039  1.0425
  782poe    c23 5059   6.642   0.557   1.849  1.0755  0.7034  0.1948
  782poe     o2 5060   6.717   0.549   1.730 -0.2354 -0.4422 -0.5891
  782poe    c23 5061   6.765   0.421   1.696 -0.0185 -0.4412 -0.2926
  782poe    c23 5062   6.853   0.447   1.572  0.6803  0.5218  0.3916
  782poe     o2 5063   6.941   0.548   1.618  0.6549  0.8857 -0.3400
  782poe    c31 5064   7.031   0.565   1.511 -0.3025 -0.0472 -1.3270
  783poe    c31 5065   5.993   0.369   3.555  0.4798 -0.1787  1.0194
  783poe     o2 5066   5.863   0.316   3.535  0.5190 -0.0607  0.4171
  783poe    c23 5067   5.772   0.326   3.642 -0.3025 -0.0359 -0.2757
  783poe    c23 5068   5.634   0.286   3.588 -0.3180  0.1699 -0.3884
  783poe     o2 5069   5.644   0.155   3.535 -0.0175  0.2492 -0.5300
  783poe    c23 5070   5.527   0.107   3.472 -0.2958 -0.3195  0.4058
  783poe    c23 5071   5.586  -0.014   3.396 -0.5312 -0.0102 -0.2816
  783poe     o2 5072   5.702   0.029   3.329 -0.1242  0.2364  0.5607
  783poe    c23 5073   5.677   0.074   3.198  0.3466  0.5249  0.5655
  783poe    c23 5074   5.786   0.172   3.151  0.4369  0.2339  0.1591
  783poe     o2 5075   5.821   0.252   3.262  0.3978 -0.0115  0.3508
  783poe    c31 5076   5.869   0.379   3.224 -0.7754  0.2623 -0.2931
  784poe    c31 5077   0.782   2.002   0.533 -0.2829  0.0584  0.0263
  784poe     o2 5078   0.819   1.961   0.404 -0.3557  0.3052 -0.0722
  784poe    c23 5079   0.703   1.915   0.337 -0.2411  0.0950 -0.1278
  784poe    c23 5080   0.673   1.991   0.206  0.1555  0.1219 -0.2039
  784poe     o2 5081   0.765   1.951   0.106 -0.0266  0.3800 -0.4749
  784poe    c23 5082   0.746   2.027  -0.011 -0.7329 -0.0408 -0.6383
  784poe    c23 5083   0.857   2.002  -0.115  0.1874 -0.3780  0.4025
  784poe     o2 5084   0.981   2.035  -0.057  0.1696  0.9833 -0.2984
  784poe    c23 5085   1.093   2.021  -0.141 -0.0025 -0.5142 -0.3027
  784poe    c23 5086   1.213   2.075  -0.061 -0.1297 -0.0558 -0.4202
  784poe     o2 5087   1.213   2.013   0.066  0.0179  0.6910 -0.0520
  784poe    c31 5088   1.336   2.037   0.131  0.1392 -0.0844  0.0058
  785poe    c31 5089   2.194   4.123   6.279  0.1341 -0.8480 -0.9714
  785poe     o2 5090   2.306   4.158   6.358 -0.6602  0.0786 -0.2153
  785poe    c23 5091   2.315   4.298   6.365 -0.0529  0.0222  0.2300
  785poe    c23 5092   2.454   4.331   6.422  0.1520  0.1856 -0.3592
  785poe     o2 5093   2.472   4.244   6.532  0.1742  0.6220 -0.0140
  785poe    c23 5094   2.600   4.278   6.582  0.0708  0.0063  0.6855
  785poe    c23 5095   2.649   4.161   6.669  0.1937 -0.4475  0.0165
  785poe     o2 5096   2.684   4.049   6.590 -0.2597 -0.4063 -0.2472
  785poe    c23 5097   2.714   3.940   6.674 -0.6833 -0.1896  0.1953
  785poe    c23 5098   2.764   3.818   6.594 -0.1224  0.3059 -0.2235
  785poe     o2 5099   2.657   3.771   6.514 -0.4513  0.5411  0.0765
  785poe    c31 5100   2.715   3.680   6.423 -1.0703 -0.1854  0.3979
  786poe    c31 5101   2.809   3.990   3.277  0.6347  0.7246 -0.9290
  786poe     o2 5102   2.805   4.105   3.360  0.4889  0.3927 -0.4735
  786poe    c23 5103   2.828   4.074   3.496 -0.0077  0.1118 -0.4487
  786poe    c23 5104   2.821   4.210   3.568  0.4397 -0.2486  0.2905
  786poe     o2 5105   2.711   4.292   3.535  0.4428 -0.4221 -0.1717
  786poe    c23 5106   2.714   4.415   3.604  0.2959 -0.3397 -0.3126
  786poe    c23 5107   2.610   4.516   3.551  0.3641  0.1498  0.4597
  786poe     o2 5108   2.624   4.523   3.411 -0.2797  0.4565  0.4051
  786poe    c23 5109   2.535   4.593   3.328  0.0975  0.2553 -0.1761
  786poe    c23 5110   2.410   4.512   3.289  0.3915 -0.2858 -0.0015
  786poe     o2 5111   2.446   4.399   3.212 -0.4295 -0.4486 -0.1613
  786poe    c31 5112   2.382   4.401   3.086  0.1257 -0.3109 -0.4440
  787poe    c31 5113   5.516   4.781   0.489  0.0300 -0.5358 -0.3678
  787poe     o2 5114   5.559   4.681   0.578 -0.0937 -0.3382 -0.0823
  787poe    c23 5115   5.686   4.631   0.541  0.0813 -0.1418  0.2462
  787poe    c23 5116   5.721   4.498   0.612 -0.4398 -0.4763 -0.1111
  787poe     o2 5117   5.666   4.527   0.738 -0.1598  0.2846 -0.1592
  787poe    c23 5118   5.669   4.424   0.834 -0.1542  0.5950  0.1777
  787poe    c23 5119   5.612   4.468   0.970 -0.1023 -0.1850  0.4565
  787poe     o2 5120   5.496   4.541   0.937  0.0900  0.1397  0.4927
  787poe    c23 5121   5.456   4.632   1.037 -0.2199  0.2038  0.3123
  787poe    c23 5122   5.350   4.706   0.954 -0.1306  0.5340  0.4934
  787poe     o2 5123   5.382   4.742   0.822 -0.3155  0.0745  0.3209
  787poe    c31 5124   5.451   4.865   0.821 -0.6678  0.2717  0.3110
  788poe    c31 5125   6.026   5.923   0.017 -0.1995 -0.7842  0.1386
  788poe     o2 5126   6.012   5.883   0.151  0.1186 -0.7760  0.1747
  788poe    c23 5127   6.033   5.993   0.236 -0.3354 -0.1654 -0.4954
  788poe    c23 5128   5.943   5.967   0.357 -0.4041 -0.8938 -0.7030
  788poe     o2 5129   5.969   5.832   0.390  0.2043 -0.5195  0.3778
  788poe    c23 5130   5.878   5.786   0.487  0.1256  0.0492  0.5808
  788poe    c23 5131   5.918   5.638   0.477  0.1267  0.1142 -0.5614
  788poe     o2 5132   5.902   5.595   0.344 -0.8779 -0.6496 -0.2072
  788poe    c23 5133   5.914   5.460   0.305 -1.0660 -0.6910 -0.1203
  788poe    c23 5134   6.028   5.470   0.202 -0.7611 -0.0264  0.2757
  788poe     o2 5135   6.011   5.584   0.122  0.6738  0.2219  0.2943
  788poe    c31 5136   6.127   5.609   0.046  0.2943 -0.6775 -0.6100
  789poe    c31 5137   4.001   0.382   2.637 -0.1756 -0.4012  0.2397
  789poe     o2 5138   4.125   0.318   2.621  0.0674  0.0804  0.1934
  789poe    c23 5139   4.238   0.403   2.624 -0.0287  0.2077  0.1817
  789poe    c23 5140   4.340   0.320   2.703  0.1602  0.4361  0.1788
  789poe     o2 5141   4.353   0.204   2.624 -0.0787  0.3744  0.2285
  789poe    c23 5142   4.460   0.129   2.677  0.1171 -0.0492 -0.7302
  789poe    c23 5143   4.451   0.001   2.592  0.2662 -0.8915  0.5000
  789poe     o2 5144   4.316  -0.038   2.588  0.0157  0.0145 -0.0715
  789poe    c23 5145   4.311  -0.178   2.574  0.3972 -0.0266  0.2046
  789poe    c23 5146   4.176  -0.245   2.543  0.4382  0.0121 -0.0551
  789poe     o2 5147   4.093  -0.175   2.453 -0.2908  0.2234  0.7621
  789poe    c31 5148   3.980  -0.254   2.423  0.1615 -0.1898  0.0927
  790poe    c31 5149   3.543   5.883   6.060 -0.2429  0.2671 -0.2099
  790poe     o2 5150   3.671   5.928   6.098 -0.1984 -0.1130  0.0912
  790poe    c23 5151   3.775   5.868   6.025 -0.1859  0.2506 -0.1897
  790poe    c23 5152   3.903   5.942   6.070  0.0931 -0.2441 -0.1579
  790poe     o2 5153   3.950   5.904   6.197 -0.4952  0.8221  0.3971
  790poe    c23 5154   4.067   5.964   6.248  0.0692  0.2467 -0.2056
  790poe    c23 5155   4.043   6.091   6.331 -0.4843  0.2643 -0.3928
  790poe     o2 5156   3.950   6.078   6.437 -0.0832  0.5223 -0.0063
  790poe    c23 5157   3.992   6.176   6.529  0.3385 -0.0365  0.4058
  790poe    c23 5158   3.865   6.238   6.590 -0.0671 -0.1473 -0.3212
  790poe     o2 5159   3.793   6.126   6.635  0.1860 -0.2540 -0.1818
  790poe    c31 5160   3.693   6.183   6.717  0.2897  0.6082 -0.6483
  791poe    c31 5161   5.220   3.437   0.534 -0.0342  0.3673  0.1563
  791poe     o2 5162   5.190   3.494   0.660 -0.6347  0.0776  0.1443
  791poe    c23 5163   5.096   3.598   0.648  0.1422  0.7815  0.1220
  791poe    c23 5164   5.066   3.646   0.792 -0.3938  0.6280  0.0628
  791poe     o2 5165   5.174   3.620   0.879 -0.7989  0.0506  0.3983
  791poe    c23 5166   5.196   3.729   0.966 -0.1960 -0.0438  0.3626
  791poe    c23 5167   5.280   3.669   1.080  0.5265  0.0907 -0.0872
  791poe     o2 5168   5.370   3.567   1.042 -0.0337 -0.4801  0.0969
  791poe    c23 5169   5.420   3.489   1.149  0.5535  0.1114  0.2631
  791poe    c23 5170   5.535   3.394   1.112  0.1523 -0.4164  0.3659
  791poe     o2 5171   5.510   3.304   1.006 -0.5704 -0.2906  0.4221
  791poe    c31 5172   5.633   3.236   0.992 -0.0218  0.7272  0.1805
  792poe    c31 5173   3.382   2.153   4.037 -0.3025  0.4472  0.3146
  792poe     o2 5174   3.351   2.094   4.161  0.0281  0.7323  0.5358
  792poe    c23 5175   3.426   1.979   4.191 -0.4110  0.4109  0.4171
  792poe    c23 5176   3.426   1.976   4.345  0.1101  0.5444  0.4230
  792poe     o2 5177   3.288   1.988   4.371  0.0278  0.8322 -0.1447
  792poe    c23 5178   3.277   1.980   4.511 -0.4113 -0.6684 -0.2454
  792poe    c23 5179   3.140   2.035   4.556  0.0530  0.4387 -0.1545
  792poe     o2 5180   3.104   2.138   4.466  0.5232  0.2711 -0.5387
  792poe    c23 5181   2.981   2.200   4.496  0.6495  0.1113  0.3483
  792poe    c23 5182   2.967   2.307   4.605 -0.5710 -0.1162  0.4392
  792poe     o2 5183   2.987   2.250   4.733 -0.5637  0.0023  0.4912
  792poe    c31 5184   3.081   2.312   4.817 -0.4638 -0.0218  0.3982
  793poe    c31 5185   2.601   4.390   2.709 -0.1668  0.9873 -0.0724
  793poe     o2 5186   2.695   4.342   2.616 -0.1027  0.0744  0.4518
  793poe    c23 5187   2.654   4.215   2.571 -0.2290  0.3361 -0.1882
  793poe    c23 5188   2.662   4.206   2.417 -0.0971  0.1746 -0.1726
  793poe     o2 5189   2.797   4.244   2.402  0.0590 -0.4105 -0.2553
  793poe    c23 5190   2.826   4.257   2.264  0.4563 -0.3045 -0.1608
  793poe    c23 5191   2.970   4.312   2.255  0.3708  0.0106  0.3333
  793poe     o2 5192   2.972   4.399   2.366 -0.2896  0.4736 -0.0168
  793poe    c23 5193   3.100   4.453   2.387  0.0963 -0.4309 -0.0105
  793poe    c23 5194   3.075   4.552   2.502  0.3307 -0.1293 -0.2174
  793poe     o2 5195   3.001   4.481   2.599  0.3750 -0.0421 -0.1181
  793poe    c31 5196   2.990   4.575   2.703 -0.4507 -0.2543 -0.0012
  794poe    c31 5197   5.786   1.518   1.122  0.6053 -0.2879  0.3933
  794poe     o2 5198   5.718   1.548   1.002 -0.1088  0.3617  0.9446
  794poe    c23 5199   5.586   1.595   1.019 -0.3626 -0.0231  0.0534
  794poe    c23 5200   5.498   1.576   0.894  0.2273 -0.5089 -0.2944
  794poe     o2 5201   5.586   1.605   0.787  0.0059 -0.0754 -0.3612
  794poe    c23 5202   5.513   1.617   0.666 -0.1475  0.4512 -0.2173
  794poe    c23 5203   5.631   1.626   0.567  0.4450  0.2887  0.4608
  794poe     o2 5204   5.739   1.705   0.610  1.0226 -0.3810  0.2625
  794poe    c23 5205   5.809   1.772   0.508  0.7629 -0.5237 -0.0103
  794poe    c23 5206   5.884   1.899   0.550  0.1857 -0.0504 -0.3950
  794poe     o2 5207   5.975   1.885   0.658 -0.4599  0.5869  0.2426
  794poe    c31 5208   6.074   1.985   0.662  0.0426  0.1189 -0.3466
  795poe    c31 5209   4.010   0.017   3.481 -0.2140  0.3918  0.4907
  795poe     o2 5210   4.090  -0.094   3.514 -0.2258  0.0964 -0.4421
  795poe    c23 5211   4.046  -0.204   3.437 -0.2452 -0.1364 -0.1022
  795poe    c23 5212   4.113  -0.332   3.490 -0.2861  0.0433  0.3969
  795poe     o2 5213   4.094  -0.353   3.628  0.6114 -0.0441  0.5083
  795poe    c23 5214   4.165  -0.472   3.656  0.9347  0.0161 -0.0257
  795poe    c23 5215   4.115  -0.528   3.791  1.2116  0.7327  0.3758
  795poe     o2 5216   4.102  -0.428   3.891 -0.0382  0.5742  0.3856
  795poe    c23 5217   4.109  -0.484   4.020  0.7771  0.6167  0.3690
  795poe    c23 5218   4.037  -0.427   4.144 -0.2722 -0.3294  0.2158
  795poe     o2 5219   4.093  -0.304   4.182 -0.1523 -0.2974 -0.0581
  795poe    c31 5220   4.071  -0.285   4.320  0.2335  0.4283 -0.0876
  796poe    c31 5221   5.596   1.451   3.810 -0.0940 -0.3048 -0.2480
  796poe     o2 5222   5.478   1.482   3.737 -0.0421  0.1640 -0.1375
  796poe    c23 5223   5.468   1.621   3.716 -0.1456  0.1474 -0.1968
  796poe    c23 5224   5.319   1.658   3.708 -0.2051  0.0041  0.1974
  796poe     o2 5225   5.264   1.566   3.616  0.2315  0.2218 -0.2938
  796poe    c23 5226   5.125   1.577   3.596  0.1307 -0.3538  0.0613
  796poe    c23 5227   5.087   1.483   3.480  0.2357 -0.6647  0.2780
  796poe     o2 5228   5.166   1.367   3.498  0.4224 -0.4922  0.5703
  796poe    c23 5229   5.181   1.288   3.382  0.4159  0.2076  0.0852
  796poe    c23 5230   5.312   1.211   3.409  0.3838  0.0810 -0.1161
  796poe     o2 5231   5.407   1.304   3.456  0.6474 -0.1623 -0.1721
  796poe    c31 5232   5.527   1.234   3.480  0.4150 -0.5356 -0.0841
  797poe    c31 5233   6.776   5.083   5.534  0.2532  0.1688 -0.0625
  797poe     o2 5234   6.664   5.160   5.495 -0.2736 -0.1912  0.7141
  797poe    c23 5235   6.626   5.131   5.363  0.0884  0.4479  0.4630
  797poe    c23 5236   6.488   5.198   5.355  0.3263  0.7720 -1.1827
  797poe     o2 5237   6.483   5.319   5.428  0.2859  0.0498  0.0318
  797poe    c23 5238   6.356   5.375   5.405  0.2689  0.0251  0.0642
  797poe    c23 5239   6.363   5.519   5.460 -0.1831  0.2293 -0.4112
  797poe     o2 5240   6.411   5.508   5.592 -1.3276  0.2491  0.0241
  797poe    c23 5241   6.426   5.642   5.632  0.1183  0.0325  0.2844
  797poe    c23 5242   6.478   5.662   5.776  0.2747  0.2509  0.1988
  797poe     o2 5243   6.613   5.625   5.782  0.1463 -0.1198  0.8516
  797poe    c31 5244   6.685   5.711   5.868 -0.0166  0.4860  0.3906
  798poe    c31 5245   6.691   2.929   6.582  0.2532 -0.0287  0.1125
  798poe     o2 5246   6.829   2.959   6.590  0.3040 -0.2528  0.0892
  798poe    c23 5247   6.864   3.033   6.476  0.0006  0.1125  0.2288
  798poe    c23 5248   7.006   3.093   6.470  0.0821 -0.0598  0.4272
  798poe     o2 5249   6.998   3.203   6.557  0.1453  0.4083 -0.1520
  798poe    c23 5250   7.094   3.299   6.518  0.1722  0.3596 -0.2045
  798poe    c23 5251   7.064   3.441   6.570 -0.0014  0.3385 -0.2472
  798poe     o2 5252   7.031   3.420   6.706  0.2609 -0.0781 -0.2450
  798poe    c23 5253   7.127   3.485   6.785  0.0222 -0.1432  0.1002
  798poe    c23 5254   7.073   3.432   6.919 -0.5240  0.3859  0.0910
  798poe     o2 5255   7.050   3.293   6.917  0.2957  0.2456  0.1527
  798poe    c31 5256   6.991   3.257   7.040 -0.7252  0.5461 -0.2349
  799poe    c31 5257   0.601   2.173   5.507  0.1403 -0.1791 -0.3085
  799poe     o2 5258   0.626   2.294   5.574 -0.0266 -0.1020 -0.3864
  799poe    c23 5259   0.517   2.301   5.664  0.0678  0.5499 -0.3161
  799poe    c23 5260   0.556   2.393   5.781 -0.5639  0.1457  0.2207
  799poe     o2 5261   0.615   2.503   5.715  0.5148 -0.6451 -0.1652
  799poe    c23 5262   0.691   2.594   5.791 -0.4881  0.8916 -0.9364
  799poe    c23 5263   0.810   2.665   5.724  0.8818 -0.3215  0.1447
  799poe     o2 5264   0.891   2.569   5.658  0.0727 -0.8436 -0.1007
  799poe    c23 5265   1.020   2.622   5.680 -0.4450  0.5171 -0.2007
  799poe    c23 5266   1.127   2.545   5.600 -0.9622 -0.2640 -0.1611
  799poe     o2 5267   1.125   2.406   5.619  0.5028 -0.2555  0.2028
  799poe    c31 5268   1.202   2.325   5.533  0.5541 -0.1912  0.1884
  800poe    c31 5269   5.205   3.563   4.226  0.6430 -0.1844  0.4634
  800poe     o2 5270   5.325   3.636   4.236  0.1494  0.7372 -0.1581
  800poe    c23 5271   5.407   3.615   4.123  0.0132  0.3316 -0.1833
  800poe    c23 5272   5.554   3.654   4.147  0.1916 -0.3317 -0.1792
  800poe     o2 5273   5.576   3.793   4.155  0.1672 -0.2963 -0.7203
  800poe    c23 5274   5.701   3.822   4.214 -0.2389  0.1341 -0.0606
  800poe    c23 5275   5.728   3.972   4.239  0.6375 -0.1401  0.6929
  800poe     o2 5276   5.624   4.021   4.321  0.1572 -0.2697  0.1650
  800poe    c23 5277   5.639   4.161   4.323  0.0202 -0.2569  0.3884
  800poe    c23 5278   5.540   4.214   4.427 -0.2608  0.4998 -0.2535
  800poe     o2 5279   5.414   4.162   4.391 -0.1403  0.3196 -0.4124
  800poe    c31 5280   5.320   4.192   4.492  0.4582  0.6004  0.0622
  801poe    c31 5281   0.869   4.222   6.321 -0.7529  0.3944  0.0730
  801poe     o2 5282   0.853   4.175   6.453  0.4766  0.1337  0.1439
  801poe    c23 5283   0.955   4.222   6.538  0.4613  0.4653 -0.0170
  801poe    c23 5284   0.908   4.181   6.679 -0.0822 -0.1109 -0.3597
  801poe     o2 5285   0.887   4.041   6.680  0.0338 -0.1282  0.1118
  801poe    c23 5286   0.824   4.013   6.803  0.1863 -0.8046  0.0367
  801poe    c23 5287   0.760   3.875   6.781  0.1789 -0.8130  0.1122
  801poe     o2 5288   0.707   3.869   6.651  0.1477 -0.2932  0.0996
  801poe    c23 5289   0.627   3.753   6.652  0.0085 -0.1978  0.0278
  801poe    c23 5290   0.477   3.784   6.674  0.0383 -0.0030 -0.0403
  801poe     o2 5291   0.409   3.857   6.575 -0.0412 -0.5666 -0.4058
  801poe    c31 5292   0.280   3.865   6.631 -0.0216  0.7557 -0.5184
  802poe    c31 5293   1.960   4.669   4.490 -0.1312 -0.3623  0.2699
  802poe     o2 5294   1.907   4.538   4.491  0.0135 -0.4280 -0.3052
  802poe    c23 5295   1.772   4.543   4.451  0.1267  0.2357 -0.6301
  802poe    c23 5296   1.688   4.415   4.472  0.3468  0.1716 -0.1330
  802poe     o2 5297   1.639   4.391   4.602 -0.0219 -0.3539 -0.3653
  802poe    c23 5298   1.555   4.279   4.616 -0.6408  0.0901 -0.4618
  802poe    c23 5299   1.507   4.251   4.760 -0.2387  0.1250 -0.3208
  802poe     o2 5300   1.608   4.264   4.858 -0.2670 -0.0118 -0.2726
  802poe    c23 5301   1.582   4.193   4.976 -0.1370  0.1452 -0.1488
  802poe    c23 5302   1.709   4.195   5.063 -0.2620 -0.0932  0.0402
  802poe     o2 5303   1.786   4.313   5.062 -0.0145 -0.2478  0.4906
  802poe    c31 5304   1.902   4.307   5.142  0.7727  0.0941 -0.6027
  803poe    c31 5305   5.600   3.162   4.371 -0.2567  0.1289  0.6001
  803poe     o2 5306   5.555   3.043   4.431 -0.2419 -0.3149 -0.2625
  803poe    c23 5307   5.655   2.944   4.421  0.1076  0.0405 -0.2948
  803poe    c23 5308   5.608   2.802   4.456 -0.0826  0.2416  0.2697
  803poe     o2 5309   5.574   2.796   4.593 -0.0136  0.0824  0.2793
  803poe    c23 5310   5.537   2.661   4.616  0.2475 -0.0064  0.1861
  803poe    c23 5311   5.508   2.626   4.763  0.1041 -0.0033  0.1583
  803poe     o2 5312   5.416   2.716   4.821 -0.0721 -0.0837  0.0043
  803poe    c23 5313   5.395   2.685   4.957 -0.4341 -0.3275 -0.1057
  803poe    c23 5314   5.310   2.807   4.998  0.2042  0.0240  0.1920
  803poe     o2 5315   5.354   2.921   4.926 -0.1049 -0.3046 -0.5316
  803poe    c31 5316   5.300   3.043   4.969 -0.3504 -0.2946 -0.8669
  804poe    c31 5317   3.737   4.122   2.504  0.3503  0.1099  0.0695
  804poe     o2 5318   3.725   3.981   2.501 -0.5968  0.1842 -0.0935
  804poe    c23 5319   3.637   3.963   2.610  0.0684 -0.1348  0.3976
  804poe    c23 5320   3.579   3.822   2.592 -0.2372  0.0879 -0.4356
  804poe     o2 5321   3.693   3.743   2.565 -0.2748 -0.0842 -0.1009
  804poe    c23 5322   3.681   3.603   2.576  0.0983 -0.0671  0.5522
  804poe    c23 5323   3.802   3.540   2.648  0.1744 -0.4334  0.1091
  804poe     o2 5324   3.915   3.614   2.609 -0.0825  0.0299  0.2386
  804poe    c23 5325   4.019   3.582   2.699  0.1326 -0.7942 -0.2999
  804poe    c23 5326   4.158   3.591   2.634  0.3918  0.1021  0.3659
  804poe     o2 5327   4.172   3.718   2.575  0.1515  0.0347  0.1640
  804poe    c31 5328   4.284   3.710   2.491  0.2777  1.3469  0.1859
  805poe    c31 5329   5.449   4.006   6.864  0.0328  0.2729 -0.3265
  805poe     o2 5330   5.561   4.023   6.948  0.3836  0.0234 -0.7354
  805poe    c23 5331   5.633   4.139   6.913  0.1960  0.3522 -0.0482
  805poe    c23 5332   5.742   4.152   7.021 -0.2173  0.4359  0.3602
  805poe     o2 5333   5.699   4.110   7.149  0.0831 -0.4015  0.1911
  805poe    c23 5334   5.805   4.154   7.231 -0.1932 -0.1699  0.4266
  805poe    c23 5335   5.786   4.130   7.381 -0.0060  0.0515  0.4856
  805poe     o2 5336   5.794   3.997   7.428  0.0591  0.1223  0.6769
  805poe    c23 5337   5.782   3.985   7.568 -0.1732  0.1529  0.6603
  805poe    c23 5338   5.638   3.987   7.623 -0.3177  0.0063  0.2831
  805poe     o2 5339   5.642   4.028   7.757 -0.3074 -0.1674  0.3369
  805poe    c31 5340   5.517   4.011   7.820 -0.3705  0.2866  0.3409
  806poe    c31 5341   1.192   6.572   1.248 -0.5795 -0.4901  0.3195
  806poe     o2 5342   1.215   6.666   1.145  0.0740 -0.7498  0.2224
  806poe    c23 5343   1.343   6.721   1.167 -0.2597  0.0270  0.2482
  806poe    c23 5344   1.371   6.827   1.059 -0.0884 -0.2724 -0.0038
  806poe     o2 5345   1.249   6.899   1.055 -0.0517 -0.2302 -0.4081
  806poe    c23 5346   1.234   6.995   0.953  0.9890  0.3717 -0.0065
  806poe    c23 5347   1.217   6.952   0.806  1.0934 -0.3536  0.1895
  806poe     o2 5348   1.105   6.870   0.788 -0.1188  1.2991 -0.0651
  806poe    c23 5349   1.033   6.903   0.672  0.1514  0.3992 -0.5028
  806poe    c23 5350   0.883   6.929   0.700  0.1287  0.3129 -0.5429
  806poe     o2 5351   0.870   7.045   0.779 -0.0468 -0.0504 -0.0347
  806poe    c31 5352   0.739   7.041   0.831 -0.0444 -0.0923 -0.0324
  807poe    c31 5353   3.946   3.455   5.480 -0.1006 -0.4566  0.0494
  807poe     o2 5354   3.827   3.409   5.541 -0.0032 -0.0676  0.5407
  807poe    c23 5355   3.827   3.420   5.681 -0.0620  0.6412  0.4876
  807poe    c23 5356   3.707   3.353   5.751 -0.0327  0.0511 -0.0239
  807poe     o2 5357   3.591   3.406   5.690  0.0397 -0.0989 -0.2940
  807poe    c23 5358   3.475   3.419   5.768  0.0758 -0.4998 -0.1687
  807poe    c23 5359   3.367   3.494   5.687 -0.1677 -0.6160  0.0453
  807poe     o2 5360   3.357   3.437   5.558  0.4702 -0.1115 -0.2312
  807poe    c23 5361   3.286   3.515   5.465 -0.3604 -1.0357 -0.3871
  807poe    c23 5362   3.277   3.419   5.344  0.3268 -1.1668 -0.3384
  807poe     o2 5363   3.412   3.399   5.309  0.5997 -0.1503  0.0761
  807poe    c31 5364   3.429   3.324   5.191  0.7799 -0.1288  0.0881
  808poe    c31 5365   1.124   2.233   2.954 -0.0756 -1.0725  0.6170
  808poe     o2 5366   1.108   2.330   3.055  0.0761  0.0630 -0.4191
  808poe    c23 5367   1.234   2.392   3.068 -0.1462  0.5522 -0.5935
  808poe    c23 5368   1.210   2.538   3.110 -0.2707  0.5156 -0.5360
  808poe     o2 5369   1.139   2.567   3.228  0.0938 -0.3394 -0.0974
  808poe    c23 5370   1.180   2.697   3.266 -0.7176  0.0758 -0.5990
  808poe    c23 5371   1.070   2.774   3.340 -0.3084 -0.3040  0.4369
  808poe     o2 5372   0.951   2.755   3.266  0.1994 -1.2013 -0.1679
  808poe    c23 5373   0.838   2.819   3.320  0.4852 -0.2682 -0.6493
  808poe    c23 5374   0.719   2.725   3.291  0.3031  0.0076 -0.8086
  808poe     o2 5375   0.765   2.596   3.327 -0.2708  0.0421  0.0656
  808poe    c31 5376   0.668   2.536   3.411 -0.2223  0.3799  0.3680
  809poe    c31 5377   0.080   3.517   5.404  0.3748  0.0840  0.3241
  809poe     o2 5378   0.152   3.539   5.285 -0.2604  0.3068 -0.0220
  809poe    c23 5379   0.272   3.465   5.286 -0.4477  0.0061  0.0619
  809poe    c23 5380   0.373   3.519   5.183 -0.0577 -0.3308  0.2667
  809poe     o2 5381   0.293   3.530   5.068  0.3976 -0.3760 -0.0575
  809poe    c23 5382   0.369   3.568   4.956  0.2443 -0.4256 -0.1789
  809poe    c23 5383   0.293   3.522   4.830 -0.3672 -0.1128  0.0736
  809poe     o2 5384   0.153   3.535   4.845 -0.3118  0.4319  0.1298
  809poe    c23 5385   0.080   3.416   4.830 -0.0432  0.3087 -0.2107
  809poe    c23 5386  -0.044   3.427   4.920  0.1717 -0.0560  0.1350
  809poe     o2 5387  -0.004   3.442   5.054 -0.0844 -0.0013  0.2069
  809poe    c31 5388  -0.105   3.386   5.135 -0.4289  0.0400 -0.1900
  810poe    c31 5389   2.563   5.848   5.855 -0.4070  0.2689  0.4770
  810poe     o2 5390   2.495   5.814   5.973 -0.0998  0.1650  0.6243
  810poe    c23 5391   2.518   5.677   5.997 -0.2131  0.0083 -0.1537
  810poe    c23 5392   2.478   5.659   6.144  0.5778  1.0782  0.2017
  810poe     o2 5393   2.348   5.715   6.148  0.1357  0.0668  0.3575
  810poe    c23 5394   2.281   5.697   6.271 -0.0979 -0.1974  0.1908
  810poe    c23 5395   2.165   5.798   6.278 -0.0051 -0.0623 -0.1758
  810poe     o2 5396   2.222   5.926   6.262  0.4075 -0.2154  0.0474
  810poe    c23 5397   2.154   6.021   6.342  0.8508  0.2370 -0.1056
  810poe    c23 5398   2.257   6.131   6.374  0.2375  0.5992  0.6652
  810poe     o2 5399   2.375   6.088   6.440  0.3804  0.0482  0.0587
  810poe    c31 5400   2.368   6.086   6.580 -0.1587 -0.2258  0.0348
  811poe    c31 5401   0.949   6.387   5.045  0.2093  0.2036 -0.4799
  811poe     o2 5402   0.895   6.409   5.173 -0.0016 -0.4831 -0.4457
  811poe    c23 5403   0.760   6.370   5.180  0.1022 -0.8416 -0.3899
  811poe    c23 5404   0.704   6.425   5.313 -0.2796 -0.3697 -0.7395
  811poe     o2 5405   0.781   6.536   5.354 -1.1217  0.1384 -0.5088
  811poe    c23 5406   0.768   6.544   5.494 -0.0707  0.3179 -0.4147
  811poe    c23 5407   0.871   6.655   5.522  0.1134 -0.0263  0.2902
  811poe     o2 5408   0.993   6.618   5.461 -0.0552 -0.0220 -0.0479
  811poe    c23 5409   1.083   6.726   5.476  0.0965 -0.2467  0.6913
  811poe    c23 5410   1.175   6.708   5.353 -0.7958  0.6112 -0.1252
  811poe     o2 5411   1.095   6.670   5.243  0.7355 -1.3720 -0.6260
  811poe    c31 5412   1.123   6.729   5.118 -0.6446  0.8561  0.0491
  812poe    c31 5413   5.129   2.159   3.728  0.3057  0.6962 -0.5692
  812poe     o2 5414   5.196   2.202   3.844 -0.2407 -0.4102  0.1673
  812poe    c23 5415   5.309   2.122   3.870 -0.1501 -0.1333  0.6395
  812poe    c23 5416   5.376   2.157   4.004  0.1701 -0.1077  0.4740
  812poe     o2 5417   5.347   2.295   4.011  0.5311  0.0300 -0.6116
  812poe    c23 5418   5.415   2.351   4.121  0.2273  0.1292 -0.4758
  812poe    c23 5419   5.368   2.498   4.125  0.0240  0.0592 -0.2648
  812poe     o2 5420   5.229   2.497   4.097 -0.1090  0.1342  0.3835
  812poe    c23 5421   5.157   2.482   4.217 -0.0442  0.0848  0.4165
  812poe    c23 5422   5.021   2.416   4.184 -0.2552  0.5358  0.3686
  812poe     o2 5423   5.046   2.316   4.087 -0.2019  0.4066  0.5140
  812poe    c31 5424   4.929   2.238   4.088 -0.1364  0.2832 -0.3519
  813poe    c31 5425   2.502   2.799   4.464 -0.6546 -1.0449  0.2279
  813poe     o2 5426   2.510   2.861   4.590  0.1023 -0.6807  0.0085
  813poe    c23 5427   2.391   2.867   4.666 -0.2945  0.2262 -0.6644
  813poe    c23 5428   2.413   2.934   4.803 -0.4206 -0.3925 -0.3363
  813poe     o2 5429   2.469   3.061   4.777 -0.0882 -0.4645  0.0329
  813poe    c23 5430   2.468   3.138   4.895 -0.0659 -0.0072 -0.2621
  813poe    c23 5431   2.500   3.281   4.850  0.1395  0.2008  0.5317
  813poe     o2 5432   2.605   3.276   4.757 -0.4457  0.0889 -0.1311
  813poe    c23 5433   2.657   3.405   4.735 -0.1232 -0.0311 -0.0825
  813poe    c23 5434   2.611   3.476   4.607  0.4827  0.4442 -0.0431
  813poe     o2 5435   2.643   3.391   4.499 -0.4899  0.0597 -0.0479
  813poe    c31 5436   2.643   3.446   4.369  0.3283  0.1904 -0.0008
  814poe    c31 5437   6.189   6.596   5.198  0.3456 -0.3319  0.1206
  814poe     o2 5438   6.267   6.563   5.311 -0.2258  0.6346  0.8070
  814poe    c23 5439   6.303   6.687   5.368  0.0502  0.9441 -0.0183
  814poe    c23 5440   6.394   6.667   5.491 -0.2940  0.0485  0.0983
  814poe     o2 5441   6.500   6.589   5.441 -0.2259  0.0289  0.2744
  814poe    c23 5442   6.601   6.552   5.533  0.4439 -0.1011 -0.4991
  814poe    c23 5443   6.706   6.492   5.437  0.7739 -0.2207 -0.0650
  814poe     o2 5444   6.643   6.397   5.353 -0.4944  0.3887  0.1735
  814poe    c23 5445   6.723   6.348   5.248 -0.5550  0.1917  0.2188
  814poe    c23 5446   6.612   6.310   5.147 -0.2968 -0.2525  0.0991
  814poe     o2 5447   6.524   6.421   5.144  0.1950  0.1332 -0.3553
  814poe    c31 5448   6.441   6.403   5.032 -0.3050  0.0266  0.0277
  815poe    c31 5449   6.062   3.697   6.257 -0.9106  0.9780 -0.5975
  815poe     o2 5450   5.944   3.634   6.302 -0.0077 -0.0693  0.4056
  815poe    c23 5451   5.844   3.734   6.299 -0.6702 -0.7423 -0.0934
  815poe    c23 5452   5.728   3.679   6.384 -0.1390 -0.8334  0.5794
  815poe     o2 5453   5.786   3.616   6.496  0.6893  0.0420  0.6492
  815poe    c23 5454   5.695   3.534   6.565  0.1540  0.0132 -0.0800
  815poe    c23 5455   5.756   3.456   6.683 -0.0618 -0.5207 -0.3179
  815poe     o2 5456   5.874   3.404   6.627  0.5341  0.3959  0.0751
  815poe    c23 5457   5.930   3.298   6.701  0.4678  0.0343 -0.3886
  815poe    c23 5458   6.002   3.196   6.611 -0.0539 -0.3785 -0.3421
  815poe     o2 5459   5.898   3.131   6.542 -0.6929  0.4726 -0.1921
  815poe    c31 5460   5.954   3.021   6.474 -0.2753  0.2712  0.4752
  816poe    c31 5461   6.030   3.782   5.524  0.1450  0.9074 -0.1332
  816poe     o2 5462   6.021   3.644   5.550  0.1295  0.9217 -0.0610
  816poe    c23 5463   6.104   3.613   5.660 -0.1396  0.1494 -0.0677
  816poe    c23 5464   6.034   3.527   5.767  0.2289 -0.0867 -0.0163
  816poe     o2 5465   5.934   3.599   5.836 -0.2465 -0.4830 -0.2948
  816poe    c23 5466   5.896   3.518   5.945  0.0931  0.0752  0.2367
  816poe    c23 5467   5.749   3.530   5.988 -0.1602 -0.1472 -0.5559
  816poe     o2 5468   5.652   3.468   5.906 -0.3607 -0.3361 -0.1771
  816poe    c23 5469   5.522   3.480   5.960 -0.2956  0.3689 -0.1631
  816poe    c23 5470   5.427   3.429   5.850 -0.0937 -0.1973 -0.0809
  816poe     o2 5471   5.475   3.481   5.727  0.2673  0.4646  0.3309
  816poe    c31 5472   5.372   3.491   5.631  0.1445 -0.2749  0.3767
  817poe    c31 5473   3.371   1.475   2.902 -0.1718  0.2171 -0.1268
  817poe     o2 5474   3.422   1.426   3.024 -0.6590 -0.3024 -0.1266
  817poe    c23 5475   3.398   1.288   3.039 -0.3314 -0.3307  0.1417
  817poe    c23 5476   3.481   1.245   3.163 -0.0495 -0.1353  0.0219
  817poe     o2 5477   3.458   1.353   3.251  0.2658 -0.4170  0.4512
  817poe    c23 5478   3.547   1.350   3.360  0.2170 -0.1725  0.4974
  817poe    c23 5479   3.565   1.499   3.397 -0.5529  0.2024 -0.5706
  817poe     o2 5480   3.583   1.575   3.279 -0.2571  0.0513 -0.6245
  817poe    c23 5481   3.615   1.709   3.305 -0.2382 -0.0861  0.0906
  817poe    c23 5482   3.608   1.766   3.162  0.0665 -0.1140  0.0637
  817poe     o2 5483   3.479   1.745   3.109  0.0291 -0.2204  0.1945
  817poe    c31 5484   3.465   1.842   3.008 -0.0016 -0.0586  0.3538
  818poe    c31 5485   3.493   3.768   4.938  0.4806 -0.4534  0.1427
  818poe     o2 5486   3.361   3.718   4.944  0.1921  0.2679 -0.1382
  818poe    c23 5487   3.296   3.790   5.046 -0.2586  0.1868 -0.3669
  818poe    c23 5488   3.147   3.751   5.048 -0.0687 -0.5356  0.2147
  818poe     o2 5489   3.133   3.615   5.013  0.0694 -0.5411  0.1801
  818poe    c23 5490   2.997   3.581   5.004 -0.0451  0.1094 -0.8462
  818poe    c23 5491   3.008   3.429   4.977  0.7309 -0.0284  0.1498
  818poe     o2 5492   3.087   3.404   4.863  0.5745 -1.0909  0.2719
  818poe    c23 5493   3.150   3.279   4.879  0.1189 -1.3296  0.2300
  818poe    c23 5494   3.284   3.301   4.806  0.1374 -0.3205  0.5563
  818poe     o2 5495   3.335   3.429   4.834 -0.0512 -0.0969 -0.0868
  818poe    c31 5496   3.472   3.430   4.800 -0.3385  0.3109 -1.2709
  819poe    c31 5497   0.674   1.635   0.673  0.0802  0.5737 -0.4316
  819poe     o2 5498   0.612   1.588   0.791  0.4068 -0.2170 -0.5682
  819poe    c23 5499   0.537   1.470   0.775 -0.2083  0.0944 -0.0006
  819poe    c23 5500   0.523   1.413   0.918 -0.3573  0.1798  0.0193
  819poe     o2 5501   0.471   1.524   0.988 -0.4638  0.0677  0.1197
  819poe    c23 5502   0.346   1.510   1.051 -0.3883 -0.8465  0.0742
  819poe    c23 5503   0.298   1.628   1.137 -0.0304 -0.2289 -0.5644
  819poe     o2 5504   0.359   1.750   1.100 -0.1152  0.0748  0.2617
  819poe    c23 5505   0.462   1.798   1.183  0.0345  0.0236  0.1057
  819poe    c23 5506   0.580   1.867   1.111 -0.0907 -0.3728 -0.4916
  819poe     o2 5507   0.627   1.789   1.004 -0.5488  0.0560 -1.0135
  819poe    c31 5508   0.764   1.818   0.992 -0.4527  0.4311  0.6792
  820poe    c31 5509   6.836   3.689   4.586  0.0983 -0.4488  0.1654
  820poe     o2 5510   6.953   3.750   4.535 -0.0484 -0.3278 -0.0252
  820poe    c23 5511   7.054   3.654   4.512  0.2066  0.1494 -0.9391
  820poe    c23 5512   7.177   3.710   4.439  0.5101 -0.0071 -0.5443
  820poe     o2 5513   7.142   3.763   4.313  0.0669  0.2827 -0.3020
  820poe    c23 5514   7.156   3.674   4.205 -0.5146 -0.6851  0.3957
  820poe    c23 5515   7.084   3.740   4.085  0.1880  0.0242  0.3566
  820poe     o2 5516   7.126   3.873   4.105 -0.1200  0.1775 -0.0152
  820poe    c23 5517   7.054   3.952   4.013 -0.0298  0.0046 -0.2372
  820poe    c23 5518   7.093   4.098   4.045 -0.1775  0.0061 -0.0564
  820poe     o2 5519   7.087   4.123   4.183 -0.2187  0.2654 -0.1047
  820poe    c31 5520   7.065   4.259   4.212  0.7412  0.2712  0.6298
  821poe    c31 5521   0.579   0.741   1.774  0.3686  0.0687 -0.0532
  821poe     o2 5522   0.513   0.838   1.695  0.2991  0.3089  0.2965
  821poe    c23 5523   0.401   0.897   1.756  0.1250  0.4525 -0.1617
  821poe    c23 5524   0.304   0.936   1.643 -0.1661  0.3730  0.0617
  821poe     o2 5525   0.384   1.013   1.557 -0.2702  0.7774  0.3259
  821poe    c23 5526   0.314   1.054   1.442 -0.1743  0.1175  0.0273
  821poe    c23 5527   0.369   0.958   1.335 -0.3287 -0.2310  0.2602
  821poe     o2 5528   0.497   0.911   1.370 -0.0148  0.2144 -0.2713
  821poe    c23 5529   0.500   0.776   1.328  0.0005 -0.0090  0.4323
  821poe    c23 5530   0.643   0.725   1.351  0.1425  0.2550  0.1424
  821poe     o2 5531   0.685   0.753   1.483 -0.0635  0.5310  0.1506
  821poe    c31 5532   0.812   0.702   1.517 -0.3354 -0.2995 -0.0397
  822poe    c31 5533   2.322   6.864   1.762  0.1843 -0.0053  0.8580
  822poe     o2 5534   2.440   6.789   1.779 -0.0131 -0.5700 -0.1574
  822poe    c23 5535   2.394   6.699   1.878 -0.2705 -0.1783  0.0792
  822poe    c23 5536   2.506   6.596   1.899  0.4635  0.5869  0.0042
  822poe     o2 5537   2.548   6.559   1.770 -0.2432 -0.4099  0.0361
  822poe    c23 5538   2.654   6.467   1.759 -0.1935 -0.3842  0.2896
  822poe    c23 5539   2.704   6.483   1.614  0.4907  0.2716  0.5866
  822poe     o2 5540   2.695   6.621   1.588 -0.2438  0.1284  0.0385
  822poe    c23 5541   2.785   6.673   1.493 -0.0495 -0.4790 -0.1154
  822poe    c23 5542   2.704   6.793   1.438  0.4496 -0.1970 -0.2425
  822poe     o2 5543   2.616   6.844   1.535  0.6228 -0.0615 -0.1549
  822poe    c31 5544   2.562   6.972   1.511  0.3588 -0.1263  0.0825
  823poe    c31 5545   6.413   4.771   5.238  0.2281 -0.2220  0.2876
  823poe     o2 5546   6.463   4.651   5.293  0.6903  0.0875  0.5507
  823poe    c23 5547   6.422   4.626   5.425 -0.0197 -0.6018  0.2081
  823poe    c23 5548   6.539   4.556   5.496 -0.0016 -0.5667  0.2124
  823poe     o2 5549   6.577   4.452   5.409  0.1171  0.2868 -0.7738
  823poe    c23 5550   6.686   4.384   5.466 -0.2576 -0.2217 -0.6601
  823poe    c23 5551   6.742   4.280   5.368 -0.1708 -0.2888 -0.5403
  823poe     o2 5552   6.804   4.351   5.263 -0.4425  0.5031 -0.1684
  823poe    c23 5553   6.889   4.272   5.184 -0.8034  0.2089 -0.2673
  823poe    c23 5554   6.905   4.332   5.043  0.3499  0.0930 -0.2021
  823poe     o2 5555   6.955   4.463   5.052  0.0928  0.1523  0.4136
  823poe    c31 5556   6.979   4.521   4.926 -0.1092 -0.4272  0.1040
  824poe    c31 5557   0.057   4.583   0.051 -0.1766  0.6849  0.0574
  824poe     o2 5558   0.097   4.675  -0.048  0.0866 -0.1585 -0.6365
  824poe    c23 5559  -0.002   4.719  -0.138  0.0880 -0.1926 -0.6544
  824poe    c23 5560   0.075   4.800  -0.244 -0.1504  0.7511 -0.1218
  824poe     o2 5561   0.175   4.866  -0.170  0.0549  0.0745  0.2129
  824poe    c23 5562   0.272   4.931  -0.249 -0.1768 -0.6259 -0.6534
  824poe    c23 5563   0.380   4.987  -0.156 -0.9026  0.0967 -0.2313
  824poe     o2 5564   0.411   4.878  -0.072 -0.0798  0.7338  0.3156
  824poe    c23 5565   0.484   4.902   0.046  0.7918  0.1642 -0.0953
  824poe    c23 5566   0.474   4.768   0.122 -0.1043  0.4468  0.3064
  824poe     o2 5567   0.344   4.719   0.141  0.1488 -0.3808 -0.0613
  824poe    c31 5568   0.337   4.636   0.255 -0.5040 -1.2416 -0.7143
  825poe    c31 5569   4.515   3.915   2.944  0.3927  0.4691  0.0897
  825poe     o2 5570   4.463   4.008   2.852 -0.5918  0.4806  0.6519
  825poe    c23 5571   4.332   3.976   2.809 -0.2343  0.3376 -0.3696
  825poe    c23 5572   4.268   4.104   2.753 -0.0700  0.5509 -0.0706
  825poe     o2 5573   4.370   4.181   2.693  0.0850  0.0340 -0.4732
  825poe    c23 5574   4.316   4.299   2.639 -0.0693  0.4136  0.4873
  825poe    c23 5575   4.414   4.417   2.658  0.0323  0.4790 -0.4051
  825poe     o2 5576   4.539   4.412   2.592  0.3714 -0.2831  0.2686
  825poe    c23 5577   4.632   4.514   2.623 -0.0162 -0.0464  0.6612
  825poe    c23 5578   4.775   4.484   2.574 -0.1510  0.1893  0.1163
  825poe     o2 5579   4.823   4.362   2.626  0.1802  0.1593 -0.2582
  825poe    c31 5580   4.962   4.371   2.650  0.1676 -0.8251  0.2390
  826poe    c31 5581   1.411   4.709   0.352  0.4682  0.1144 -0.2206
  826poe     o2 5582   1.417   4.574   0.392 -0.0792  0.1513 -0.0162
  826poe    c23 5583   1.551   4.530   0.392  0.0085  0.4211 -0.0769
  826poe    c23 5584   1.580   4.430   0.279 -0.3771  0.0881  0.1167
  826poe     o2 5585   1.501   4.315   0.299  0.2650 -0.4779 -0.5504
  826poe    c23 5586   1.541   4.204   0.221  0.5547 -0.3955 -0.5203
  826poe    c23 5587   1.425   4.149   0.137  0.1991 -0.1543 -0.1871
  826poe     o2 5588   1.330   4.106   0.232  0.3529  0.1460  0.1064
  826poe    c23 5589   1.212   4.044   0.184 -0.0653  0.6699  0.4525
  826poe    c23 5590   1.125   4.004   0.304 -0.1672  0.2135  0.2297
  826poe     o2 5591   1.148   4.092   0.413 -0.1440  0.3149  0.1428
  826poe    c31 5592   1.041   4.068   0.502 -0.4746  0.0397 -0.3196
  827poe    c31 5593   6.010   0.670   3.747 -0.0999  0.5525 -0.2318
  827poe     o2 5594   5.960   0.640   3.876  0.6863  0.0676 -0.0329
  827poe    c23 5595   5.989   0.505   3.905  0.3897  0.0390  0.1377
  827poe    c23 5596   5.943   0.473   4.048 -0.1318  0.7683  0.1395
  827poe     o2 5597   5.992   0.582   4.124  0.2083  0.3840  0.4728
  827poe    c23 5598   5.920   0.609   4.242 -0.2390 -0.2729  0.3533
  827poe    c23 5599   5.992   0.727   4.308 -0.3746 -0.2106  0.3898
  827poe     o2 5600   6.004   0.822   4.205  0.3868 -0.1417  0.5380
  827poe    c23 5601   6.113   0.908   4.232 -0.0752  0.6270 -0.0136
  827poe    c23 5602   6.115   0.991   4.102 -0.1759  0.0985 -0.3563
  827poe     o2 5603   6.137   0.899   3.998  0.7072  0.2767 -0.3346
  827poe    c31 5604   6.167   0.981   3.888 -0.0537  0.2661 -0.5541
  828poe    c31 5605   6.730   0.768   0.718 -0.2705 -0.9228 -0.3003
  828poe     o2 5606   6.673   0.841   0.612  0.0462  0.0274  0.1631
  828poe    c23 5607   6.639   0.746   0.512  0.2719  0.1795 -0.0581
  828poe    c23 5608   6.567   0.820   0.398 -0.4967  0.1692  0.4131
  828poe     o2 5609   6.612   0.954   0.401 -0.0574  0.0507 -0.4742
  828poe    c23 5610   6.544   1.026   0.301 -0.1846  0.4527 -0.1016
  828poe    c23 5611   6.599   1.170   0.309 -0.0043  0.4096 -0.5165
  828poe     o2 5612   6.610   1.206   0.445 -0.6581  0.1851 -0.3994
  828poe    c23 5613   6.487   1.258   0.488 -0.4429  0.1239  0.3119
  828poe    c23 5614   6.505   1.260   0.641  0.0297  0.1452  0.2577
  828poe     o2 5615   6.548   1.130   0.676 -0.0036  0.1061  0.1552
  828poe    c31 5616   6.498   1.102   0.805  0.8171 -0.8341  0.2778
  829poe    c31 5617   0.918   2.246   4.716 -0.3424 -0.2311  0.1183
  829poe     o2 5618   0.907   2.202   4.850  0.4270 -0.6443  0.0488
  829poe    c23 5619   0.985   2.290   4.927 -0.8300 -0.1006  0.7245
  829poe    c23 5620   0.962   2.251   5.074 -0.2040  0.4115  0.9624
  829poe     o2 5621   0.916   2.118   5.076  0.5834  0.1124 -0.0660
  829poe    c23 5622   0.880   2.094   5.210  0.8301 -0.7249 -0.1427
  829poe    c23 5623   0.801   1.962   5.206 -0.3374 -0.0427 -0.0920
  829poe     o2 5624   0.762   1.941   5.072  0.4344  0.2480 -0.3677
  829poe    c23 5625   0.773   1.810   5.020 -0.3781  0.0323 -0.0113
  829poe    c23 5626   0.758   1.819   4.867 -0.4612  0.2471  0.0077
  829poe     o2 5627   0.830   1.931   4.820  0.1185 -0.0393  0.2006
  829poe    c31 5628   0.817   1.916   4.680 -0.3269 -0.1764  0.2536
  830poe    c31 5629   3.390   3.892   1.663  0.5166  0.1256 -0.5944
  830poe     o2 5630   3.452   3.967   1.766 -0.0433 -0.1679 -0.0386
  830poe    c23 5631   3.505   4.073   1.690 -0.3141  0.2021  0.2841
  830poe    c23 5632   3.475   4.208   1.757  0.3326  0.4697  0.0377
  830poe     o2 5633   3.513   4.191   1.891  0.0719 -0.1080  0.0433
  830poe    c23 5634   3.499   4.302   1.977 -0.2970  0.3129 -0.5528
  830poe    c23 5635   3.480   4.235   2.114 -0.5086  0.8119 -0.3356
  830poe     o2 5636   3.382   4.134   2.100 -0.2578  0.4325  0.5573
  830poe    c23 5637   3.342   4.079   2.224  0.1178 -0.2257  0.3910
  830poe    c23 5638   3.222   3.983   2.210 -0.1103  0.0207  0.6441
  830poe     o2 5639   3.105   4.041   2.158  0.2631 -0.2585 -0.5404
  830poe    c31 5640   2.999   3.948   2.148 -0.3985  0.4488 -0.2418
  831poe    c31 5641   6.083   5.404   5.669 -0.5908  0.0399 -0.4280
  831poe     o2 5642   6.002   5.458   5.770  0.4325  0.4410  0.1893
  831poe    c23 5643   6.028   5.400   5.896 -0.4048 -0.0279  0.1514
  831poe    c23 5644   5.893   5.408   5.971 -0.3351 -0.1240  0.2869
  831poe     o2 5645   5.848   5.540   5.988  0.3544  0.1071  0.3559
  831poe    c23 5646   5.708   5.554   5.998  0.3263  0.2651 -0.2416
  831poe    c23 5647   5.673   5.679   6.081 -0.2586  0.2609 -0.4759
  831poe     o2 5648   5.770   5.767   6.030  0.4136 -0.2050 -0.0188
  831poe    c23 5649   5.763   5.903   6.066 -0.2831 -0.1842 -0.2205
  831poe    c23 5650   5.878   5.988   6.007 -0.2063 -0.0777  0.0811
  831poe     o2 5651   5.988   5.900   5.995 -0.0905  0.0669  0.0910
  831poe    c31 5652   6.112   5.967   5.988 -0.0173 -0.0546  0.2288
  832poe    c31 5653   3.775   2.522   6.368  0.0015  0.9049  0.7038
  832poe     o2 5654   3.635   2.517   6.382 -0.0744 -0.4933 -0.3198
  832poe    c23 5655   3.583   2.394   6.426 -0.2488 -0.3351 -0.0719
  832poe    c23 5656   3.451   2.410   6.502 -0.3445 -0.0945 -0.2888
  832poe     o2 5657   3.372   2.501   6.429 -0.6699 -0.0253  0.1489
  832poe    c23 5658   3.315   2.601   6.511 -0.3441  0.3409 -0.0724
  832poe    c23 5659   3.396   2.732   6.523 -0.4315  0.4002 -0.1243
  832poe     o2 5660   3.425   2.782   6.394 -0.6953  0.2231 -0.2515
  832poe    c23 5661   3.542   2.860   6.407 -0.5896  0.0777 -0.3305
  832poe    c23 5662   3.602   2.873   6.266  0.1616 -0.2740 -0.0481
  832poe     o2 5663   3.588   2.747   6.204 -0.3863 -0.2840  0.0910
  832poe    c31 5664   3.668   2.758   6.089 -0.1982  0.0028  0.2499
  833poe    c31 5665   6.768   3.752   5.708  0.2491 -0.0188 -0.8793
  833poe     o2 5666   6.879   3.834   5.739  0.4269 -0.5067 -0.1915
  833poe    c23 5667   6.884   3.955   5.666 -0.3678 -0.2592  0.1512
  833poe    c23 5668   7.032   3.993   5.648 -0.4742  0.0771 -0.0074
  833poe     o2 5669   7.078   4.047   5.770  0.3201 -0.5811 -0.0093
  833poe    c23 5670   7.182   4.138   5.745 -0.2570  0.0306 -0.2261
  833poe    c23 5671   7.228   4.194   5.881 -0.2511 -0.0368 -0.2000
  833poe     o2 5672   7.272   4.082   5.954  0.3317 -0.3114 -0.9578
  833poe    c23 5673   7.305   4.126   6.084  0.1110 -0.4417 -0.8564
  833poe    c23 5674   7.330   3.999   6.168  0.2688  0.1241 -0.0385
  833poe     o2 5675   7.228   3.907   6.139  0.3809  0.0915 -0.3340
  833poe    c31 5676   7.230   3.793   6.222  0.9205  0.3000 -0.0557
  834poe    c31 5677   4.992   3.602   3.358 -0.2886 -0.4803  0.5469
  834poe     o2 5678   5.092   3.613   3.457  0.0480  0.3234  0.1235
  834poe    c23 5679   5.042   3.674   3.574 -0.2266 -0.0340  0.1916
  834poe    c23 5680   5.154   3.739   3.656  0.2972 -0.2306 -0.3623
  834poe     o2 5681   5.258   3.643   3.663  0.1821 -0.3061  0.3747
  834poe    c23 5682   5.381   3.700   3.701  0.2216 -0.1470  0.0082
  834poe    c23 5683   5.469   3.575   3.727 -0.9078 -0.8498  0.5241
  834poe     o2 5684   5.461   3.503   3.606  0.1695  0.0799 -0.1234
  834poe    c23 5685   5.544   3.389   3.607 -0.1515 -0.1556 -0.1841
  834poe    c23 5686   5.546   3.317   3.471 -0.0478 -0.4367 -0.0341
  834poe     o2 5687   5.422   3.270   3.422 -0.1414 -0.2367  0.0128
  834poe    c31 5688   5.444   3.190   3.308  0.2150 -0.3527  0.1614
  835poe    c31 5689   2.876   0.681   1.235  0.0124  0.3691 -0.7892
  835poe     o2 5690   2.761   0.756   1.266 -0.1272 -0.3628  0.5205
  835poe    c23 5691   2.721   0.728   1.399 -0.8534 -0.3447  0.3115
  835poe    c23 5692   2.645   0.853   1.446  0.0091  0.2263  0.2137
  835poe     o2 5693   2.721   0.968   1.414  0.0623  0.1397  0.0303
  835poe    c23 5694   2.652   1.081   1.463  0.3506  0.1169  0.4883
  835poe    c23 5695   2.713   1.211   1.409 -0.3829  0.4484  0.4502
  835poe     o2 5696   2.715   1.218   1.268  0.3945 -0.2431  0.4197
  835poe    c23 5697   2.746   1.345   1.214 -0.0821 -0.2649  0.0951
  835poe    c23 5698   2.726   1.343   1.062  0.6704 -0.6365 -0.0038
  835poe     o2 5699   2.595   1.308   1.022  0.5551 -0.3313  0.1047
  835poe    c31 5700   2.591   1.308   0.882 -0.4071 -0.5836  0.1300
  836poe    c31 5701   1.473   1.402   5.135  0.0177  0.0375  0.8726
  836poe     o2 5702   1.388   1.289   5.131  0.3953 -0.2326  0.1948
  836poe    c23 5703   1.428   1.193   5.036  0.1510  0.1268 -0.2751
  836poe    c23 5704   1.331   1.074   5.043  0.1201  0.1633 -0.0779
  836poe     o2 5705   1.205   1.116   5.090  0.0087 -0.2008 -0.0429
  836poe    c23 5706   1.110   1.019   5.126 -0.5934 -0.0729 -1.2087
  836poe    c23 5707   0.992   1.086   5.199  0.0370 -0.2574  0.0236
  836poe     o2 5708   1.040   1.143   5.318  0.4154 -0.1963 -0.1558
  836poe    c23 5709   0.939   1.192   5.404  0.0748 -0.2501 -0.5212
  836poe    c23 5710   0.844   1.304   5.358 -0.0274  0.0831  0.4751
  836poe     o2 5711   0.908   1.423   5.319  0.3543 -0.2600  0.0396
  836poe    c31 5712   0.821   1.530   5.288  0.1960 -0.3836  0.0572
  837poe    c31 5713   3.291   1.194   6.045  0.0610  0.6890  0.1237
  837poe     o2 5714   3.422   1.233   6.083  0.3407  0.1908 -0.3107
  837poe    c23 5715   3.468   1.327   5.989  0.3171  0.4791 -0.0320
  837poe    c23 5716   3.602   1.393   6.027  0.1293  0.3883  0.8147
  837poe     o2 5717   3.694   1.287   6.042 -0.2048  0.0091  0.2424
  837poe    c23 5718   3.814   1.333   6.100 -0.1776 -0.0691  0.2480
  837poe    c23 5719   3.917   1.223   6.132 -0.4027 -0.2211  0.4473
  837poe     o2 5720   3.869   1.150   6.243  0.0769 -0.4757  0.4875
  837poe    c23 5721   3.956   1.057   6.304  0.3828 -0.6181 -0.1560
  837poe    c23 5722   3.868   1.011   6.421  0.3390 -0.0616  0.0360
  837poe     o2 5723   3.745   0.965   6.367  0.1171  0.4730  0.0847
  837poe    c31 5724   3.651   0.925   6.463  0.1195 -0.7458 -0.3998
  838poe    c31 5725   1.886   0.375   0.454  0.1164 -0.5419  0.5161
  838poe     o2 5726   1.759   0.365   0.393  0.4738 -0.2841 -0.2862
  838poe    c23 5727   1.677   0.271   0.458  0.5408  0.1237  0.4003
  838poe    c23 5728   1.528   0.310   0.456  0.4660 -0.1610  0.3605
  838poe     o2 5729   1.506   0.371   0.331 -0.3525 -0.3743  0.3939
  838poe    c23 5730   1.368   0.391   0.311 -0.1942 -0.1973 -0.5556
  838poe    c23 5731   1.338   0.460   0.176  0.2840 -0.0679 -0.5983
  838poe     o2 5732   1.436   0.561   0.173 -0.2391  0.4710  0.1682
  838poe    c23 5733   1.486   0.589   0.044 -0.1067 -0.4999  0.0051
  838poe    c23 5734   1.615   0.660   0.087 -0.2166  0.0139 -0.5091
  838poe     o2 5735   1.707   0.594   0.171  0.0333  0.4949 -0.4009
  838poe    c31 5736   1.828   0.667   0.159 -0.0251  0.6159 -0.2655
  839poe    c31 5737   1.124   0.273   3.524 -0.1543 -0.2733  0.3957
  839poe     o2 5738   1.012   0.215   3.461 -0.3521  0.2773  0.2415
  839poe    c23 5739   1.011   0.256   3.326  0.4114  0.2009  0.2118
  839poe    c23 5740   0.895   0.186   3.254  0.7727  0.0341 -0.2174
  839poe     o2 5741   0.917   0.056   3.205  0.5748  0.0408 -0.3267
  839poe    c23 5742   0.914  -0.047   3.301  0.2703 -0.1281 -0.5174
  839poe    c23 5743   0.939  -0.190   3.249  0.5750 -0.2194 -0.1225
  839poe     o2 5744   1.075  -0.198   3.212  0.5436 -0.2670 -0.2283
  839poe    c23 5745   1.091  -0.328   3.159 -0.0157 -0.2864 -0.3571
  839poe    c23 5746   1.241  -0.347   3.127 -0.0315 -0.6216 -0.2346
  839poe     o2 5747   1.312  -0.348   3.249 -0.8801 -0.1146  0.2761
  839poe    c31 5748   1.363  -0.475   3.282 -0.1388 -0.0096 -0.4276
  840poe    c31 5749   4.440   2.295   6.849 -0.0910 -0.5482 -0.0455
  840poe     o2 5750   4.578   2.315   6.871 -0.1344 -0.2301 -0.0580
  840poe    c23 5751   4.597   2.252   6.996  0.0984 -0.2419 -0.0996
  840poe    c23 5752   4.743   2.282   7.035 -0.0134  0.4802 -0.2205
  840poe     o2 5753   4.821   2.249   6.922  0.4549 -0.2744  0.3192
  840poe    c23 5754   4.950   2.302   6.943  0.4865 -0.2629  0.0930
  840poe    c23 5755   5.047   2.252   6.835  0.1605  0.0531 -0.3510
  840poe     o2 5756   5.003   2.296   6.709 -0.4639 -0.1865 -0.2175
  840poe    c23 5757   5.095   2.253   6.612 -0.1803 -0.1796  0.0487
  840poe    c23 5758   5.048   2.124   6.544  0.0767 -0.1540 -0.1821
  840poe     o2 5759   4.924   2.132   6.476  0.3367  0.2718 -0.6101
  840poe    c31 5760   4.902   2.029   6.382 -0.6064 -0.3103  0.2283
  841poe    c31 5761   4.899   3.227   4.303 -0.0524  0.8148 -0.1526
  841poe     o2 5762   4.896   3.087   4.289 -0.0399  0.8268 -0.2792
  841poe    c23 5763   4.768   3.060   4.235  0.0528  0.0494 -0.1269
  841poe    c23 5764   4.741   2.909   4.225 -1.2045  0.2165  0.4334
  841poe     o2 5765   4.783   2.851   4.346  0.0487 -0.3619 -0.2545
  841poe    c23 5766   4.785   2.710   4.337 -0.2651 -0.3928  0.1248
  841poe    c23 5767   4.917   2.684   4.414 -0.4634 -0.5307  0.4197
  841poe     o2 5768   5.016   2.771   4.365 -0.1121 -0.9694  0.3471
  841poe    c23 5769   5.145   2.754   4.420  0.4875  0.0921 -0.6745
  841poe    c23 5770   5.237   2.869   4.376 -0.2069  0.8504 -0.1698
  841poe     o2 5771   5.160   2.985   4.398 -0.4787  0.6803 -0.2081
  841poe    c31 5772   5.232   3.098   4.352 -0.2667  0.6936  0.1457
  842poe    c31 5773   3.786   1.828   0.390 -0.6564 -0.3124  0.3101
  842poe     o2 5774   3.818   1.946   0.459 -0.1307  0.0166 -0.4831
  842poe    c23 5775   3.796   2.065   0.387  0.8319  0.3160 -0.3023
  842poe    c23 5776   3.798   2.184   0.485 -0.0595 -0.2620  0.4345
  842poe     o2 5777   3.896   2.162   0.584  0.1472 -0.2339  0.2385
  842poe    c23 5778   3.934   2.279   0.654 -0.2431 -0.0124  0.0812
  842poe    c23 5779   4.050   2.228   0.741 -0.2986 -0.4777 -0.1139
  842poe     o2 5780   4.023   2.105   0.805  0.5106 -0.6153 -0.0248
  842poe    c23 5781   4.055   2.094   0.942  0.0515 -0.2729  0.1120
  842poe    c23 5782   4.072   1.948   0.986  0.2836 -0.3500 -0.2276
  842poe     o2 5783   3.955   1.878   0.952 -0.1766  0.2128  0.1848
  842poe    c31 5784   3.980   1.741   0.934 -0.3239  0.2326 -0.1827
  843poe    c31 5785   5.215   4.676   1.504 -0.0174  0.1593 -0.2233
  843poe     o2 5786   5.221   4.807   1.557 -0.2488  0.1812 -0.2523
  843poe    c23 5787   5.353   4.844   1.588 -0.2726 -0.0279  0.1115
  843poe    c23 5788   5.356   4.973   1.672  0.1366  0.4628 -0.6456
  843poe     o2 5789   5.245   5.043   1.621 -0.3167 -0.0126 -0.3257
  843poe    c23 5790   5.278   5.174   1.580 -0.3441  0.1258  0.0906
  843poe    c23 5791   5.339   5.198   1.440  0.1184 -0.0919  0.2542
  843poe     o2 5792   5.230   5.202   1.351  0.3094  0.5970  0.0484
  843poe    c23 5793   5.287   5.199   1.222 -0.1909  0.0127 -0.1632
  843poe    c23 5794   5.191   5.179   1.104 -0.2842  0.2443 -0.1273
  843poe     o2 5795   5.193   5.041   1.074 -0.0473  0.2467 -0.1210
  843poe    c31 5796   5.082   5.003   0.996  0.1946  0.3689 -0.5318
  844poe    c31 5797   6.448   6.782   0.479  0.1948  0.7340  0.6322
  844poe     o2 5798   6.496   6.771   0.347 -0.3549 -0.7065  0.5339
  844poe    c23 5799   6.637   6.766   0.351 -0.2736  0.7886  0.1286
  844poe    c23 5800   6.708   6.833   0.232  0.0722 -0.4387 -0.3714
  844poe     o2 5801   6.622   6.802   0.125 -0.4320  0.0678 -0.1217
  844poe    c23 5802   6.684   6.842   0.004 -0.0580 -0.2633 -0.0424
  844poe    c23 5803   6.586   6.816  -0.112  0.0363  0.4490 -0.2831
  844poe     o2 5804   6.454   6.823  -0.064 -0.0599  0.0636 -0.4888
  844poe    c23 5805   6.397   6.951  -0.075 -0.6830 -0.1411  0.2493
  844poe    c23 5806   6.262   6.930  -0.004 -0.8130  0.6809  0.2545
  844poe     o2 5807   6.288   6.866   0.119 -0.0894  0.2669 -0.1109
  844poe    c31 5808   6.168   6.840   0.187  0.1801 -0.0264  0.2603
  845poe    c31 5809   1.460   6.027   3.610  0.0311 -0.4224  0.1391
  845poe     o2 5810   1.396   6.024   3.736  0.0655 -0.0204  0.1665
  845poe    c23 5811   1.259   6.056   3.727  0.2309  0.6023 -0.1671
  845poe    c23 5812   1.210   6.087   3.870 -0.0568 -0.6750  0.0215
  845poe     o2 5813   1.299   6.017   3.954  0.2756 -0.4610 -0.1500
  845poe    c23 5814   1.264   6.032   4.090  0.0210 -0.2972 -0.2324
  845poe    c23 5815   1.386   5.982   4.169 -0.3467  0.2422  0.6944
  845poe     o2 5816   1.495   6.042   4.103 -0.4290  0.2368  0.5551
  845poe    c23 5817   1.623   5.991   4.131 -0.3093  0.3315  0.1852
  845poe    c23 5818   1.712   6.052   4.020 -0.4855 -0.0894 -0.1937
  845poe     o2 5819   1.634   6.033   3.904  0.0299 -0.6215 -0.4546
  845poe    c31 5820   1.719   6.098   3.812 -0.7340  0.1671 -0.6119
  846poe    c31 5821   5.350   6.899   3.030  0.0996  0.6208  0.7311
  846poe     o2 5822   5.454   6.815   2.985 -0.2849  0.1955  0.6263
  846poe    c23 5823   5.402   6.684   2.987  0.4602 -0.1041  0.4307
  846poe    c23 5824   5.507   6.584   2.934 -0.2098 -0.8046  0.4187
  846poe     o2 5825   5.515   6.601   2.794  0.2141 -0.0980  0.5284
  846poe    c23 5826   5.640   6.568   2.738  0.0578 -0.1770  0.2242
  846poe    c23 5827   5.621   6.530   2.590 -0.7568  0.1293  0.2471
  846poe     o2 5828   5.538   6.637   2.551 -0.6668  0.0240 -0.2494
  846poe    c23 5829   5.495   6.646   2.417 -0.2899  0.1312 -0.3638
  846poe    c23 5830   5.415   6.777   2.407 -0.3677  0.1199  0.0641
  846poe     o2 5831   5.336   6.803   2.521 -0.0742 -0.6773  0.4587
  846poe    c31 5832   5.236   6.902   2.508  0.0554 -0.5196  0.6638
  847poe    c31 5833   1.510   4.676   1.130 -0.1564  0.5902 -0.3257
  847poe     o2 5834   1.418   4.594   1.062  0.3292 -0.0355 -0.2294
  847poe    c23 5835   1.430   4.606   0.922  0.3582 -0.3102 -0.2518
  847poe    c23 5836   1.348   4.494   0.855 -0.3205  0.1681 -0.2296
  847poe     o2 5837   1.225   4.498   0.924 -0.1323 -0.2274  0.1302
  847poe    c23 5838   1.132   4.402   0.878  0.2064 -0.6659  0.3533
  847poe    c23 5839   1.018   4.449   0.970  0.7184  0.6071  0.3511
  847poe     o2 5840   1.059   4.400   1.096  0.0005  0.7651  0.6503
  847poe    c23 5841   0.958   4.390   1.194 -0.2578 -0.6465  0.2654
  847poe    c23 5842   0.875   4.513   1.237  0.0809 -0.2991 -0.0648
  847poe     o2 5843   0.943   4.617   1.303  0.0279 -0.1130 -0.3023
  847poe    c31 5844   0.927   4.615   1.443  0.6115  0.2687 -0.2287
  848poe    c31 5845   3.137   5.043   5.147 -0.5612  0.1389 -0.3190
  848poe     o2 5846   3.069   4.921   5.124 -0.3738 -0.0291  0.0156
  848poe    c23 5847   2.944   4.946   5.065 -0.1016 -0.1438 -0.6140
  848poe    c23 5848   2.864   4.817   5.041  0.1680 -0.6328  1.0074
  848poe     o2 5849   2.952   4.713   5.004  0.2559 -0.0634 -0.4770
  848poe    c23 5850   2.875   4.614   4.940 -0.4235  0.0839  0.0884
  848poe    c23 5851   2.978   4.503   4.912  0.1114  0.5861  0.0310
  848poe     o2 5852   3.103   4.560   4.882  0.2983  0.0270 -0.2777
  848poe    c23 5853   3.196   4.470   4.827  0.1012 -0.2331 -0.1852
  848poe    c23 5854   3.311   4.526   4.741  0.3347 -0.0076  0.2726
  848poe     o2 5855   3.414   4.581   4.820 -0.0086 -0.3311  0.9576
  848poe    c31 5856   3.515   4.635   4.738 -0.2157 -0.5842  0.5369
  849poe    c31 5857   4.564   4.000   4.215 -0.3333 -0.0387 -0.5641
  849poe     o2 5858   4.657   4.075   4.292 -0.2627 -0.5661 -0.1327
  849poe    c23 5859   4.760   3.991   4.340 -0.1586 -0.2638  0.1703
  849poe    c23 5860   4.848   4.082   4.428  0.3228 -0.1159 -0.4501
  849poe     o2 5861   4.778   4.189   4.488  0.3932 -0.4027  0.1589
  849poe    c23 5862   4.850   4.238   4.599  0.1243  0.0833  0.1238
  849poe    c23 5863   4.757   4.337   4.670 -0.2903 -0.0500 -0.2316
  849poe     o2 5864   4.678   4.414   4.582  0.0692  0.1592 -0.3704
  849poe    c23 5865   4.624   4.526   4.648 -0.3722 -0.0941 -0.3018
  849poe    c23 5866   4.561   4.619   4.542 -0.0653  0.2507 -0.1872
  849poe     o2 5867   4.443   4.562   4.487 -0.0028  0.0097 -0.0739
  849poe    c31 5868   4.415   4.627   4.365 -0.5150  0.2920  0.1911
  850poe    c31 5869   3.610   3.631   0.516  0.5319 -0.0189  0.5004
  850poe     o2 5870   3.604   3.502   0.573 -0.3723 -0.4225 -0.4676
  850poe    c23 5871   3.720   3.429   0.539 -0.1100 -0.0157 -0.4570
  850poe    c23 5872   3.696   3.280   0.571 -0.3005  0.0068 -0.4946
  850poe     o2 5873   3.628   3.265   0.694  0.0289 -0.5341 -0.3792
  850poe    c23 5874   3.637   3.127   0.723 -0.3026 -0.4422  0.1832
  850poe    c23 5875   3.545   3.106   0.845  0.0727  0.1733  0.5808
  850poe     o2 5876   3.411   3.139   0.819  0.2482  0.4489 -0.0032
  850poe    c23 5877   3.341   3.163   0.939  0.3958  0.4524  0.0817
  850poe    c23 5878   3.190   3.174   0.910  0.3189  0.5821  0.5281
  850poe     o2 5879   3.163   3.279   0.821 -0.1007 -0.3695 -0.4939
  850poe    c31 5880   3.026   3.266   0.788 -0.3504  0.5364  0.1422
  851poe    c31 5881   5.162   5.769   3.013 -0.2996  0.3742 -0.0359
  851poe     o2 5882   5.214   5.677   2.919  0.1069  0.5132  0.0539
  851poe    c23 5883   5.224   5.547   2.972  0.2261  0.1471 -0.8510
  851poe    c23 5884   5.242   5.442   2.861  0.0471 -0.6526 -0.1330
  851poe     o2 5885   5.365   5.463   2.795  0.2358  0.0119  0.4215
  851poe    c23 5886   5.394   5.348   2.719  0.1677 -0.1180  0.5924
  851poe    c23 5887   5.535   5.370   2.662 -0.3582  0.1491 -0.6316
  851poe     o2 5888   5.518   5.479   2.574  0.1269  0.9414  0.2365
  851poe    c23 5889   5.636   5.508   2.502  0.1357  0.0884 -0.1042
  851poe    c23 5890   5.613   5.630   2.411  0.2152  0.2582  0.1025
  851poe     o2 5891   5.568   5.726   2.504  0.4553  0.5140 -0.0440
  851poe    c31 5892   5.540   5.860   2.470 -0.0938  0.5266  0.4627
  852poe    c31 5893   2.975   0.272   1.288  0.0142  0.7395  0.1825
  852poe     o2 5894   2.940   0.283   1.425  0.0364 -0.8427  0.3413
  852poe    c23 5895   2.801   0.305   1.430  0.1505  0.0239 -0.0527
  852poe    c23 5896   2.768   0.354   1.572  0.2577  0.0889 -0.0500
  852poe     o2 5897   2.864   0.445   1.621  0.0794  0.4105 -0.2994
  852poe    c23 5898   2.878   0.464   1.760 -0.1526 -0.2460 -0.1837
  852poe    c23 5899   2.965   0.355   1.827 -0.1965 -0.1123  0.0926
  852poe     o2 5900   3.079   0.342   1.746  0.1561  0.2114  0.5332
  852poe    c23 5901   3.179   0.258   1.801 -0.1191 -0.3440  0.1924
  852poe    c23 5902   3.287   0.250   1.692 -0.4509  0.9093 -0.2525
  852poe     o2 5903   3.237   0.230   1.561 -0.5997  0.2180 -0.0941
  852poe    c31 5904   3.339   0.198   1.469 -0.5043  0.2240  0.0099
  853poe    c31 5905   3.153   0.521   6.572  0.2984  0.0161 -0.2774
  853poe     o2 5906   3.132   0.387   6.612  0.2502  0.2016  0.3241
  853poe    c23 5907   3.044   0.338   6.514  0.1383  0.2571  0.3958
  853poe    c23 5908   3.044   0.186   6.542 -0.3903  0.1783 -0.0027
  853poe     o2 5909   3.173   0.156   6.591 -0.4105  0.4244  0.2058
  853poe    c23 5910   3.204   0.024   6.628 -0.0919  0.4732  0.1148
  853poe    c23 5911   3.290   0.032   6.755  0.4708  0.0910 -0.2371
  853poe     o2 5912   3.231   0.138   6.827 -0.8193 -1.0053  0.3506
  853poe    c23 5913   3.286   0.174   6.951  0.0915 -0.0466 -0.3229
  853poe    c23 5914   3.230   0.313   6.987 -0.0276  0.0022 -0.6914
  853poe     o2 5915   3.280   0.384   6.877  0.6606  0.1042 -0.3181
  853poe    c31 5916   3.289   0.524   6.893 -0.1280  0.1119  0.0894
  854poe    c31 5917   0.284   6.372   2.552  0.2669  0.0506  0.2408
  854poe     o2 5918   0.194   6.296   2.630  0.1289 -0.4841 -0.4366
  854poe    c23 5919   0.251   6.274   2.757 -0.4531 -0.0967 -0.1020
  854poe    c23 5920   0.158   6.173   2.826 -0.0307 -0.2210  0.2924
  854poe     o2 5921   0.025   6.218   2.812  0.0949  0.3088  0.7763
  854poe    c23 5922  -0.059   6.106   2.831  0.5123 -0.1072  0.1929
  854poe    c23 5923  -0.187   6.133   2.912 -0.0065 -0.4668 -0.4953
  854poe     o2 5924  -0.242   6.244   2.846  0.1336  0.3763  0.7604
  854poe    c23 5925  -0.369   6.294   2.879 -0.4166 -0.2734 -0.3082
  854poe    c23 5926  -0.411   6.391   2.767 -0.0253  0.1683 -0.0751
  854poe     o2 5927  -0.297   6.461   2.724 -0.1125  0.6057  0.3934
  854poe    c31 5928  -0.339   6.560   2.633 -1.0254  0.3700  0.5489
  855poe    c31 5929   3.752   0.810   4.709  0.0787  0.0188 -0.3334
  855poe     o2 5930   3.686   0.686   4.701 -0.0807  0.0383  0.5298
  855poe    c23 5931   3.564   0.673   4.771 -0.1852  0.6743  0.4730
  855poe    c23 5932   3.491   0.551   4.710  0.3047  0.5420  0.1400
  855poe     o2 5933   3.584   0.446   4.708 -0.3827 -0.0616 -0.3336
  855poe    c23 5934   3.523   0.318   4.712  0.2659 -0.3554  0.4765
  855poe    c23 5935   3.638   0.216   4.713  0.1095 -0.5730 -1.0698
  855poe     o2 5936   3.727   0.250   4.817 -1.0875 -0.6368  0.0150
  855poe    c23 5937   3.808   0.137   4.841  0.1972  0.1156 -0.6364
  855poe    c23 5938   3.873   0.147   4.980 -0.0085  0.1489 -0.5411
  855poe     o2 5939   4.000   0.207   4.969  0.3540 -0.5300 -0.1415
  855poe    c31 5940   4.025   0.260   5.097  1.1226  0.2884 -0.6202
  856poe    c31 5941   0.671   5.719   3.859 -0.0994  0.3492  0.3044
  856poe     o2 5942   0.794   5.768   3.908  0.4704 -1.0153  0.3110
  856poe    c23 5943   0.867   5.841   3.811 -0.1027  0.2657  0.8130
  856poe    c23 5944   0.952   5.741   3.731 -0.9155 -0.1854  0.5041
  856poe     o2 5945   1.030   5.675   3.828 -0.3299  0.4860  0.4867
  856poe    c23 5946   1.107   5.567   3.780 -0.0060  0.5246  0.9111
  856poe    c23 5947   1.165   5.501   3.906  0.0472 -0.3245  0.4492
  856poe     o2 5948   1.068   5.498   4.008 -0.2372  0.5839  0.2214
  856poe    c23 5949   0.966   5.401   4.017  0.1522  0.1359 -0.0855
  856poe    c23 5950   0.863   5.440   4.125 -0.2937 -0.2561 -0.3630
  856poe     o2 5951   0.795   5.560   4.094 -0.2185 -0.1729 -0.2057
  856poe    c31 5952   0.706   5.593   4.198 -0.5692 -0.2298 -0.4895
  857poe    c31 5953   1.454   1.439   0.547 -0.4755 -0.1121  0.6652
  857poe     o2 5954   1.338   1.398   0.479 -0.3205  0.0524  0.2979
  857poe    c23 5955   1.244   1.503   0.464 -0.6261 -0.1254  0.9532
  857poe    c23 5956   1.125   1.458   0.378  0.1901  0.0422 -0.2764
  857poe     o2 5957   1.198   1.393   0.275  0.1434 -0.1506 -0.1877
  857poe    c23 5958   1.119   1.342   0.170 -0.1772 -0.2546  0.1005
  857poe    c23 5959   1.202   1.229   0.107  0.5685  0.2669  0.1272
  857poe     o2 5960   1.287   1.179   0.207  0.3202  0.1893  0.3027
  857poe    c23 5961   1.353   1.060   0.170 -0.0680  0.0852 -0.0561
  857poe    c23 5962   1.422   1.008   0.297 -0.1433  0.2279  0.0430
  857poe     o2 5963   1.454   1.122   0.374  0.3530  0.0173  0.1512
  857poe    c31 5964   1.495   1.082   0.502  0.4896 -0.6657 -0.1029
  858poe    c31 5965   5.199   2.355   5.368 -0.1502 -1.1298  0.0368
  858poe     o2 5966   5.134   2.439   5.276  0.6252 -0.4700  0.0795
  858poe    c23 5967   5.069   2.353   5.185  0.3343 -0.3906  0.2126
  858poe    c23 5968   5.025   2.429   5.058  0.4156 -0.3446  0.2119
  858poe     o2 5969   4.949   2.547   5.075  0.9440  0.0217  0.0334
  858poe    c23 5970   4.879   2.594   4.962 -0.0403  0.3150  0.7563
  858poe    c23 5971   4.763   2.687   5.002 -0.1859  0.0542  0.9406
  858poe     o2 5972   4.802   2.795   5.083  0.0258  0.2165  0.6249
  858poe    c23 5973   4.693   2.880   5.107 -0.1687  0.0314  0.4015
  858poe    c23 5974   4.756   2.992   5.192  0.3508 -0.4063  0.5983
  858poe     o2 5975   4.866   2.932   5.256  0.9366  0.1694  0.1517
  858poe    c31 5976   4.928   3.026   5.342  0.0880  0.1868  0.7630
  859poe    c31 5977   4.852   2.785   2.731 -0.2621 -0.0479  0.0077
  859poe     o2 5978   4.869   2.919   2.692  0.2378 -0.0770  0.1108
  859poe    c23 5979   4.746   2.977   2.655  0.4931  0.5025  0.1679
  859poe    c23 5980   4.795   3.102   2.579 -0.2945  0.6633 -0.0820
  859poe     o2 5981   4.890   3.155   2.668  0.3427 -0.3085 -0.1687
  859poe    c23 5982   4.940   3.284   2.639  0.0727 -0.0900  0.3229
  859poe    c23 5983   5.068   3.320   2.716  0.4025  0.2062 -0.3523
  859poe     o2 5984   5.149   3.209   2.686 -0.2014 -0.2031 -0.4686
  859poe    c23 5985   5.280   3.259   2.678 -0.2018 -0.2068 -0.4991
  859poe    c23 5986   5.389   3.152   2.696  0.3422  0.4812  0.4244
  859poe     o2 5987   5.386   3.086   2.821  0.6611  0.2161  0.2932
  859poe    c31 5988   5.493   2.998   2.845  0.2243 -0.4981 -0.3422
  860poe    c31 5989   1.415   3.704   6.397  0.1610 -0.4389 -0.4331
  860poe     o2 5990   1.326   3.713   6.506 -0.0612  0.3462 -0.6750
  860poe    c23 5991   1.280   3.837   6.553  0.4944  0.1163  0.5244
  860poe    c23 5992   1.203   3.810   6.684 -0.7604  0.2727 -0.1581
  860poe     o2 5993   1.153   3.680   6.664 -0.8544  0.3396 -0.3695
  860poe    c23 5994   1.069   3.651   6.774 -0.2120  0.3620  0.1323
  860poe    c23 5995   0.984   3.528   6.739 -0.1191  0.4224 -0.3045
  860poe     o2 5996   1.059   3.416   6.699 -0.3528  0.1065  0.1386
  860poe    c23 5997   1.072   3.324   6.805  0.3685 -0.1898 -0.1946
  860poe    c23 5998   1.147   3.203   6.748  0.4267 -0.1601 -0.1810
  860poe     o2 5999   1.279   3.226   6.703  0.5830  0.0918  0.4033
  860poe    c31 6000   1.303   3.151   6.586  0.1778 -0.2095  0.5092
  861poe    c31 6001   5.233   4.216   3.178 -0.2564 -0.0657 -0.0381
  861poe     o2 6002   5.262   4.278   3.301 -0.6034 -0.0248  0.0247
  861poe    c23 6003   5.167   4.248   3.400 -0.5316 -0.2286  0.0334
  861poe    c23 6004   5.161   4.367   3.497 -0.1564 -0.2557  0.0873
  861poe     o2 6005   5.286   4.421   3.537 -0.3499 -0.1043  0.4997
  861poe    c23 6006   5.357   4.354   3.638 -0.3541 -0.2355  0.4165
  861poe    c23 6007   5.500   4.406   3.665 -0.3843  0.2557 -0.3374
  861poe     o2 6008   5.587   4.381   3.557  0.0627  0.7032 -0.0838
  861poe    c23 6009   5.720   4.359   3.596  0.0449  0.7108 -0.0186
  861poe    c23 6010   5.798   4.333   3.466  0.5185 -0.0084  0.4026
  861poe     o2 6011   5.757   4.424   3.367 -0.0341 -0.6383  0.0532
  861poe    c31 6012   5.852   4.441   3.264 -0.1707  0.4129  0.0926
  862poe    c31 6013   3.336   2.784   0.412 -0.1166 -0.5121  0.5419
  862poe     o2 6014   3.366   2.701   0.522 -0.3805 -0.8016  0.3953
  862poe    c23 6015   3.270   2.723   0.622  0.2807  0.6501  0.7345
  862poe    c23 6016   3.287   2.638   0.750  0.5508 -0.4795 -0.0423
  862poe     o2 6017   3.279   2.501   0.716 -0.2298 -0.3462 -0.4283
  862poe    c23 6018   3.216   2.436   0.825 -0.1142  0.0061 -0.1484
  862poe    c23 6019   3.192   2.286   0.799  0.2979 -0.2977  1.1546
  862poe     o2 6020   3.286   2.237   0.706 -0.3935  0.2949  0.1256
  862poe    c23 6021   3.248   2.105   0.674 -0.3728  0.3053  0.0578
  862poe    c23 6022   3.381   2.058   0.613 -0.6699 -0.2978 -0.1334
  862poe     o2 6023   3.441   2.148   0.522 -0.7811 -0.0205  0.0662
  862poe    c31 6024   3.419   2.119   0.386 -0.1382  0.0582 -0.0602
  863poe    c31 6025   5.490   0.569   0.412 -0.1588 -0.0881 -0.0154
  863poe     o2 6026   5.548   0.671   0.333  0.2027 -0.4690 -0.2452
  863poe    c23 6027   5.455   0.776   0.332  0.5398 -0.1606  0.5597
  863poe    c23 6028   5.521   0.865   0.225 -0.1648 -0.2901  0.0115
  863poe     o2 6029   5.651   0.899   0.266 -0.2487  0.2411 -0.1500
  863poe    c23 6030   5.716   1.008   0.204  0.0956  0.4227  0.5152
  863poe    c23 6031   5.867   0.979   0.218 -0.0050 -0.1514  0.4544
  863poe     o2 6032   5.897   0.845   0.188  0.1843  0.1466 -0.7841
  863poe    c23 6033   6.033   0.808   0.187  0.2865  0.4084  0.5682
  863poe    c23 6034   6.076   0.660   0.181  0.2129  0.3997  0.2333
  863poe     o2 6035   6.044   0.597   0.303  0.6809  0.0299  0.1661
  863poe    c31 6036   6.078   0.461   0.290 -0.1116 -0.1792  0.2336
  864poe    c31 6037   0.894   0.328   5.367 -0.0977 -0.2068  0.5301
  864poe     o2 6038   0.993   0.424   5.339 -0.0231 -0.4216  0.0504
  864poe    c23 6039   0.978   0.547   5.406 -0.0105 -0.6593  0.4962
  864poe    c23 6040   1.122   0.599   5.413  0.0282 -0.6823 -0.0559
  864poe     o2 6041   1.199   0.548   5.306  0.4988 -0.2773  0.0829
  864poe    c23 6042   1.330   0.598   5.292  0.4551 -0.2295 -0.1485
  864poe    c23 6043   1.374   0.564   5.148  0.3703  0.3333 -0.3080
  864poe     o2 6044   1.414   0.429   5.148 -0.2204  0.1544 -0.4305
  864poe    c23 6045   1.449   0.357   5.032  0.6949 -0.2729  0.0993
  864poe    c23 6046   1.505   0.215   5.052 -0.1584 -0.6470 -0.1217
  864poe     o2 6047   1.422   0.120   5.114 -0.4437 -0.2330  0.1325
  864poe    c31 6048   1.503   0.005   5.119 -0.4863 -0.2587  0.2348
  865poe    c31 6049   1.906   0.072   5.614  0.2308  0.0835 -0.1925
  865poe     o2 6050   1.833  -0.047   5.635  0.0956  0.2390  0.2231
  865poe    c23 6051   1.839  -0.138   5.527 -0.8339  0.1858  0.2046
  865poe    c23 6052   1.851  -0.276   5.595  0.1513  0.5494  0.7936
  865poe     o2 6053   1.748  -0.275   5.692 -0.1698 -0.1325  0.4647
  865poe    c23 6054   1.737  -0.390   5.772  0.3872 -0.1509  0.5188
  865poe    c23 6055   1.616  -0.378   5.867 -0.3254  0.1834 -0.4111
  865poe     o2 6056   1.608  -0.251   5.928  0.7129  0.0686 -0.0196
  865poe    c23 6057   1.542  -0.264   6.052 -0.2315  0.4541 -0.4782
  865poe    c23 6058   1.472  -0.131   6.087 -0.0675  0.3318  0.3429
  865poe     o2 6059   1.561  -0.027   6.120  0.4039  0.1421 -0.3007
  865poe    c31 6060   1.491   0.081   6.178 -0.1163 -0.0564 -0.5566
  866poe    c31 6061   4.133   2.837   1.266  0.3373 -0.1464 -0.2872
  866poe     o2 6062   4.169   2.952   1.194  0.1066  0.0117 -0.1506
  866poe    c23 6063   4.050   3.005   1.140  0.1919 -0.4907 -0.8423
  866poe    c23 6064   4.075   3.123   1.043 -0.2547  0.1791 -0.1517
  866poe     o2 6065   4.166   3.080   0.945 -0.0514  0.0362  0.0979
  866poe    c23 6066   4.185   3.182   0.849 -0.6267  0.0833  0.0300
  866poe    c23 6067   4.194   3.109   0.714  0.0704  0.1850  0.0172
  866poe     o2 6068   4.285   3.004   0.736 -0.0453  0.1465  0.3124
  866poe    c23 6069   4.297   2.945   0.608 -0.0621  0.2971  0.2404
  866poe    c23 6070   4.413   2.845   0.590 -0.5184 -0.1559 -0.2220
  866poe     o2 6071   4.414   2.744   0.688 -0.0424  0.2877  0.2409
  866poe    c31 6072   4.489   2.631   0.648 -0.0354  0.4155 -0.1136
  867poe    c31 6073   4.932   1.162   0.091  0.2144 -0.2671  0.4651
  867poe     o2 6074   4.800   1.117   0.070  0.2704 -0.2928  0.1613
  867poe    c23 6075   4.791   1.118  -0.071 -0.8453 -0.8364  0.2171
  867poe    c23 6076   4.794   0.973  -0.122 -0.2338 -0.5548 -0.5548
  867poe     o2 6077   4.712   0.903  -0.032 -0.0383 -0.8369 -0.5939
  867poe    c23 6078   4.718   0.762  -0.027  0.4668 -0.7913  0.3363
  867poe    c23 6079   4.620   0.719   0.084 -0.7776  0.1670 -0.3566
  867poe     o2 6080   4.640   0.821   0.179 -0.2285 -0.5067  0.2685
  867poe    c23 6081   4.588   0.794   0.307 -0.4704  0.1402  0.3125
  867poe    c23 6082   4.602   0.917   0.399 -0.1497  0.2796  0.0796
  867poe     o2 6083   4.643   1.025   0.318  0.4808  0.1464  0.2139
  867poe    c31 6084   4.733   1.097   0.399  0.4027  0.3314  0.1358
  868poe    c31 6085   1.817   4.598   2.519 -0.0464  0.3704  0.9889
  868poe     o2 6086   1.931   4.661   2.465 -0.1009  0.5333  1.0626
  868poe    c23 6087   2.046   4.636   2.542  0.2617 -0.2549  0.2912
  868poe    c23 6088   2.176   4.643   2.459 -0.2783  0.1123 -0.5399
  868poe     o2 6089   2.149   4.762   2.388 -0.3353  0.3456 -0.1311
  868poe    c23 6090   2.264   4.807   2.320 -0.2993 -0.5656 -0.6931
  868poe    c23 6091   2.233   4.949   2.269  0.3314 -0.4674 -0.8178
  868poe     o2 6092   2.126   4.942   2.177 -0.0061 -0.0159 -0.4703
  868poe    c23 6093   2.097   5.071   2.130  0.1022  0.0331 -0.4020
  868poe    c23 6094   2.006   5.076   2.006 -0.4280  0.0766 -0.0091
  868poe     o2 6095   2.062   5.020   1.890 -0.0949  0.6054 -0.1051
  868poe    c31 6096   1.990   5.027   1.769 -0.1472  0.1459 -0.1000
  869poe    c31 6097   2.045   1.031   3.043 -0.1651 -0.4233 -0.5730
  869poe     o2 6098   2.034   1.166   3.004  0.2980 -0.1755  0.1513
  869poe    c23 6099   1.943   1.170   2.897  0.8196  0.6689 -0.2665
  869poe    c23 6100   1.892   1.315   2.906 -0.7476  0.0925  0.4380
  869poe     o2 6101   2.009   1.393   2.912 -0.2336 -0.6103 -0.2707
  869poe    c23 6102   1.972   1.529   2.916 -0.0699 -0.5765  0.2917
  869poe    c23 6103   2.083   1.618   2.974 -0.4759  0.0171  0.1672
  869poe     o2 6104   2.095   1.565   3.104  0.1999 -0.0903  0.0640
  869poe    c23 6105   2.180   1.657   3.169 -0.1071  0.0764  0.2317
  869poe    c23 6106   2.195   1.635   3.321 -0.1603  0.3220  0.2720
  869poe     o2 6107   2.239   1.505   3.354  0.0235  0.3027 -0.0425
  869poe    c31 6108   2.267   1.488   3.491 -0.6328 -0.0177  0.0549
  870poe    c31 6109   1.801   6.856   1.325 -0.3190 -0.1491 -1.1249
  870poe     o2 6110   1.932   6.904   1.343 -0.1918 -0.7179 -0.4941
  870poe    c23 6111   1.977   6.860   1.470 -0.0378 -0.5296 -0.4827
  870poe    c23 6112   2.123   6.905   1.454 -0.0831 -0.1451  0.1446
  870poe     o2 6113   2.130   7.041   1.418  0.0951 -0.1115  0.3022
  870poe    c23 6114   2.253   7.071   1.356 -0.2896 -0.0078 -0.4162
  870poe    c23 6115   2.217   7.200   1.279  0.0035  0.2602 -0.1071
  870poe     o2 6116   2.106   7.158   1.202 -0.2585  0.5259  0.1200
  870poe    c23 6117   2.071   7.246   1.098  0.0511  0.1086 -0.3452
  870poe    c23 6118   1.939   7.201   1.032  0.4397 -0.8053 -0.5151
  870poe     o2 6119   1.871   7.163   1.150  0.4134 -0.3948 -0.3966
  870poe    c31 6120   1.741   7.147   1.097  0.0229 -0.0312  0.4447
  871poe    c31 6121   6.720   1.597   2.689  0.2134  0.4258 -0.5416
  871poe     o2 6122   6.625   1.522   2.617  0.4891 -0.3359 -0.1296
  871poe    c23 6123   6.651   1.531   2.479  0.3740 -0.1946 -0.1433
  871poe    c23 6124   6.515   1.503   2.412  0.2589 -0.2674  0.1175
  871poe     o2 6125   6.460   1.399   2.490  0.1956  0.4249  0.9979
  871poe    c23 6126   6.330   1.361   2.452  0.7743 -0.3797 -0.2180
  871poe    c23 6127   6.308   1.223   2.518  0.6553 -0.2791 -0.0473
  871poe     o2 6128   6.320   1.252   2.655  0.2186  0.0238 -0.0683
  871poe    c23 6129   6.266   1.153   2.739 -0.4131  0.1930 -0.2726
  871poe    c23 6130   6.253   1.194   2.887  0.3994  0.2927 -0.2252
  871poe     o2 6131   6.376   1.227   2.947  0.4335  0.3457 -0.3256
  871poe    c31 6132   6.371   1.268   3.082  0.3552  0.2467 -0.2983
  872poe    c31 6133   3.207   2.790   1.307 -0.3070 -0.1172 -0.2474
  872poe     o2 6134   3.348   2.774   1.304 -0.2464  0.3412 -0.0261
  872poe    c23 6135   3.407   2.813   1.182 -0.0455  0.0808 -0.0126
  872poe    c23 6136   3.552   2.855   1.214  0.0751  0.1053 -0.5899
  872poe     o2 6137   3.611   2.747   1.282  0.4032  0.1518 -0.7965
  872poe    c23 6138   3.749   2.775   1.287  0.3038  0.5089  0.2272
  872poe    c23 6139   3.807   2.654   1.363 -0.2364  0.1435  0.0632
  872poe     o2 6140   3.728   2.616   1.473 -0.0661  0.3619  0.2617
  872poe    c23 6141   3.755   2.481   1.498  0.3195  0.4685  0.4216
  872poe    c23 6142   3.629   2.425   1.566  0.1483 -0.1088 -0.3552
  872poe     o2 6143   3.511   2.465   1.500  0.2340  0.4412 -0.1779
  872poe    c31 6144   3.398   2.436   1.580  0.3311  0.7857  0.0899
  873poe    c31 6145   6.893   6.154   4.840  0.5435  0.6369 -0.5872
  873poe     o2 6146   6.902   6.153   4.700 -0.2624 -0.4566 -0.6408
  873poe    c23 6147   6.879   6.283   4.649 -0.3755 -0.2378 -0.0414
  873poe    c23 6148   6.862   6.300   4.497 -0.2227  0.2506 -0.0054
  873poe     o2 6149   6.982   6.265   4.431 -0.1603  0.6575 -0.1126
  873poe    c23 6150   6.967   6.269   4.290 -0.4634  0.0504 -0.1028
  873poe    c23 6151   7.087   6.198   4.226 -0.4102  0.0578 -0.0118
  873poe     o2 6152   7.127   6.088   4.304 -0.1078 -0.0457 -0.3070
  873poe    c23 6153   7.232   6.023   4.236 -0.1588 -0.5058  0.0485
  873poe    c23 6154   7.281   5.897   4.309  0.1721 -0.3086  0.1684
  873poe     o2 6155   7.281   5.932   4.446  0.3598  0.2489  0.0275
  873poe    c31 6156   7.343   5.849   4.541 -0.4208 -0.3565  0.0197
  874poe    c31 6157   5.369   2.597   3.459 -1.0697 -0.3244  0.2432
  874poe     o2 6158   5.378   2.523   3.339 -0.2710 -0.0618  0.1370
  874poe    c23 6159   5.292   2.414   3.365 -0.4988  0.0660 -0.0751
  874poe    c23 6160   5.353   2.304   3.276  0.1162  0.4929 -0.1935
  874poe     o2 6161   5.371   2.351   3.145 -0.2178 -0.0407 -0.4340
  874poe    c23 6162   5.448   2.261   3.068 -0.2627  0.1136 -0.6604
  874poe    c23 6163   5.597   2.298   3.082 -0.2015 -0.2368 -0.3669
  874poe     o2 6164   5.601   2.438   3.102  0.1693 -0.2595 -0.2721
  874poe    c23 6165   5.722   2.475   3.163  0.0454  0.0387 -0.2028
  874poe    c23 6166   5.723   2.629   3.169 -0.2247  0.0394 -0.1560
  874poe     o2 6167   5.593   2.677   3.190 -0.1134  0.0230  0.6050
  874poe    c31 6168   5.586   2.817   3.200  0.7596  0.0958  0.2306
  875poe    c31 6169   3.950   4.491   4.236 -0.4183  0.2046  0.0968
  875poe     o2 6170   3.851   4.432   4.155  0.0043 -0.1348 -0.1765
  875poe    c23 6171   3.855   4.487   4.025 -0.5421  0.3068 -0.0076
  875poe    c23 6172   3.790   4.401   3.915 -0.3488 -0.5299  0.5238
  875poe     o2 6173   3.839   4.275   3.876  0.0227 -0.1789 -0.1488
  875poe    c23 6174   3.909   4.296   3.755  0.1510  0.6263  0.0635
  875poe    c23 6175   3.948   4.167   3.682 -0.3750  0.4977  0.0033
  875poe     o2 6176   3.842   4.077   3.706 -0.0694  0.1388  0.0228
  875poe    c23 6177   3.845   3.951   3.643  0.4305  0.0426  0.2304
  875poe    c23 6178   3.926   3.834   3.702  0.2052 -0.3101 -0.1565
  875poe     o2 6179   3.872   3.790   3.824  0.0458 -0.0747 -0.1419
  875poe    c31 6180   3.958   3.709   3.901 -0.3090 -0.2067  0.1182
  876poe    c31 6181   0.723   4.330   4.793 -0.1805 -0.1418 -0.1455
  876poe     o2 6182   0.667   4.201   4.789  0.2651 -0.3589  0.4335
  876poe    c23 6183   0.663   4.177   4.650 -0.8808  0.2613  0.3499
  876poe    c23 6184   0.612   4.040   4.601 -0.2627 -0.0709  0.6280
  876poe     o2 6185   0.675   3.927   4.658  0.1226 -0.4176 -0.4605
  876poe    c23 6186   0.610   3.806   4.628 -0.2582 -0.2711 -0.2333
  876poe    c23 6187   0.688   3.686   4.684  0.0585 -0.1601 -0.4326
  876poe     o2 6188   0.708   3.724   4.819  0.3912  0.0667 -0.5432
  876poe    c23 6189   0.771   3.627   4.899  0.1022  0.0968 -0.2738
  876poe    c23 6190   0.783   3.678   5.043 -0.0947 -0.6950  0.0304
  876poe     o2 6191   0.829   3.810   5.024 -0.3865 -0.5987 -0.0106
  876poe    c31 6192   0.865   3.848   5.155 -0.0432  0.3515 -0.3710
  877poe    c31 6193   3.119   6.390   3.390 -0.3471 -0.0164 -0.2552
  877poe     o2 6194   3.211   6.298   3.335 -0.0455 -0.2107  0.5598
  877poe    c23 6195   3.167   6.254   3.209  0.3087  0.0449  0.3471
  877poe    c23 6196   3.273   6.150   3.169  0.2186 -0.0572  0.3730
  877poe     o2 6197   3.396   6.208   3.208  0.4129 -0.2336  0.0282
  877poe    c23 6198   3.500   6.113   3.217  0.2834 -0.3770  0.0131
  877poe    c23 6199   3.580   6.120   3.348 -0.2517 -0.1940  0.3345
  877poe     o2 6200   3.480   6.148   3.444 -0.1934  0.3523  0.2370
  877poe    c23 6201   3.543   6.198   3.560  0.1081  0.3708  0.0686
  877poe    c23 6202   3.444   6.271   3.653  0.1304  0.1946  0.2335
  877poe     o2 6203   3.377   6.371   3.579 -0.3781 -0.3401 -0.0365
  877poe    c31 6204   3.327   6.468   3.669 -0.3097  0.0824 -0.4492
  878poe    c31 6205   3.310   5.972   3.910 -0.8562 -0.1233 -0.4372
  878poe     o2 6206   3.320   5.939   4.047  0.0119 -0.2584 -0.5274
  878poe    c23 6207   3.313   5.800   4.072  0.0172 -0.1445  0.1354
  878poe    c23 6208   3.308   5.768   4.222 -0.1909  0.2665  0.2186
  878poe     o2 6209   3.236   5.874   4.281 -0.0280  0.3131  0.3350
  878poe    c23 6210   3.257   5.885   4.420 -0.0612 -0.1106  0.3744
  878poe    c23 6211   3.139   5.948   4.496  0.1560  0.4763  0.2298
  878poe     o2 6212   3.081   6.057   4.428 -0.1474 -0.0650 -0.4021
  878poe    c23 6213   2.961   6.097   4.491  0.2694  0.3888  0.1220
  878poe    c23 6214   2.889   6.206   4.410  0.1519  0.2802  0.0802
  878poe     o2 6215   2.850   6.157   4.283 -0.4363  0.3569  0.2274
  878poe    c31 6216   2.793   6.249   4.193  0.1296 -0.1941 -0.7087
  879poe    c31 6217   0.450   4.460   2.361 -0.4904  0.1734  0.0133
  879poe     o2 6218   0.505   4.333   2.386 -0.2406  0.2487 -0.1422
  879poe    c23 6219   0.588   4.309   2.275 -0.4675 -0.6793 -0.1211
  879poe    c23 6220   0.691   4.202   2.315  0.1837 -0.0009  0.0320
  879poe     o2 6221   0.619   4.091   2.362  0.0800  0.0576  0.0114
  879poe    c23 6222   0.708   3.998   2.419 -0.5886 -0.2591  0.5492
  879poe    c23 6223   0.645   3.920   2.537 -0.6912 -0.4856  0.3466
  879poe     o2 6224   0.604   4.013   2.635  0.2986  0.4109 -0.0575
  879poe    c23 6225   0.544   3.948   2.745  0.4175 -0.1494 -0.3209
  879poe    c23 6226   0.492   4.055   2.843 -0.1129 -0.5449 -0.1665
  879poe     o2 6227   0.391   4.131   2.780  0.1344  0.1610  0.2795
  879poe    c31 6228   0.322   4.196   2.884  0.0917  0.3391  0.1391
  880poe    c31 6229   6.023   3.526   1.984  0.3588  0.0763 -0.6001
  880poe     o2 6230   5.903   3.541   1.911  0.2040 -0.5888 -0.4870
  880poe    c23 6231   5.926   3.529   1.772 -0.5465  0.5863 -0.7225
  880poe    c23 6232   5.804   3.577   1.692 -1.0109 -0.1806 -0.4837
  880poe     o2 6233   5.699   3.520   1.767 -0.0813 -0.1782  0.8358
  880poe    c23 6234   5.581   3.484   1.700  0.1728  0.1789  0.1856
  880poe    c23 6235   5.471   3.452   1.803  0.4300 -0.2136  0.3405
  880poe     o2 6236   5.522   3.367   1.904  0.5035  0.1146  0.5840
  880poe    c23 6237   5.486   3.387   2.038 -0.1245  0.1085  0.4215
  880poe    c23 6238   5.530   3.525   2.090  0.5530  0.1304 -0.2025
  880poe     o2 6239   5.670   3.534   2.075  0.7185 -0.8245  0.6791
  880poe    c31 6240   5.717   3.651   2.137  0.1043 -0.2576  0.0774
  881poe    c31 6241   0.698   6.673   4.661  0.6518  0.6247 -0.8043
  881poe     o2 6242   0.827   6.644   4.610  0.6352 -0.1364 -0.4263
  881poe    c23 6243   0.925   6.691   4.699  0.2008  0.1712 -0.1073
  881poe    c23 6244   1.050   6.603   4.684 -0.1359 -0.2948 -0.1727
  881poe     o2 6245   1.050   6.564   4.548  0.4580  0.5984 -0.4375
  881poe    c23 6246   1.163   6.494   4.500  0.3151  0.4947 -0.6232
  881poe    c23 6247   1.111   6.427   4.371  0.8053  0.1159 -0.6267
  881poe     o2 6248   1.020   6.515   4.310  0.3593  0.3035  0.2896
  881poe    c23 6249   0.980   6.476   4.180  0.6756  0.7126  0.0672
  881poe    c23 6250   0.857   6.565   4.153  0.2206 -0.0856 -0.5447
  881poe     o2 6251   0.790   6.605   4.270  0.5325 -0.2326 -0.3128
  881poe    c31 6252   0.732   6.732   4.248 -0.6158 -0.5217  0.9332
  882poe    c31 6253   0.571   0.975   4.544 -0.7469  0.5432  0.4283
  882poe     o2 6254   0.536   1.103   4.497  0.3909  0.7584  0.1258
  882poe    c23 6255   0.618   1.131   4.386  0.5559  0.1950  0.1033
  882poe    c23 6256   0.616   1.282   4.358  0.0145  0.1999  0.1619
  882poe     o2 6257   0.486   1.324   4.321  0.0054  0.4027  0.4197
  882poe    c23 6258   0.455   1.454   4.366 -0.0331  0.5613 -0.0576
  882poe    c23 6259   0.316   1.464   4.430  0.4463  1.2963  0.8869
  882poe     o2 6260   0.318   1.357   4.522 -0.0806  0.4279 -0.0872
  882poe    c23 6261   0.205   1.367   4.605 -0.0481  0.4743 -0.0476
  882poe    c23 6262   0.221   1.254   4.708 -0.1087 -0.0529 -0.6137
  882poe     o2 6263   0.261   1.135   4.644 -0.7485 -0.5066 -0.1840
  882poe    c31 6264   0.255   1.021   4.727 -0.3702 -0.0522  0.4755
  883poe    c31 6265   5.222   1.744   6.211  0.0859  0.0211  0.6021
  883poe     o2 6266   5.219   1.861   6.290  0.0587  0.5894 -0.2273
  883poe    c23 6267   5.303   1.967   6.252  0.5747  0.2130 -0.1372
  883poe    c23 6268   5.250   2.078   6.160 -0.1695 -0.1857 -0.1927
  883poe     o2 6269   5.166   2.167   6.232  0.3509  0.3849 -0.2822
  883poe    c23 6270   5.134   2.267   6.139  0.0330  0.2077 -0.3652
  883poe    c23 6271   5.051   2.384   6.196  0.3128  0.0775  0.3182
  883poe     o2 6272   4.913   2.368   6.170  0.3941  0.0594 -0.1188
  883poe    c23 6273   4.847   2.433   6.276  0.0297 -0.3831 -0.0708
  883poe    c23 6274   4.697   2.444   6.244  0.0016 -0.2167  0.1168
  883poe     o2 6275   4.664   2.316   6.196 -0.1707  0.1933 -0.8892
  883poe    c31 6276   4.528   2.298   6.161 -0.1781 -0.4369 -0.5674
  884poe    c31 6277   2.047   2.357   1.007 -0.5973  0.3218  0.7465
  884poe     o2 6278   1.917   2.332   0.957 -0.1592 -0.0459 -0.2518
  884poe    c23 6279   1.814   2.291   1.044 -0.2973  0.2726 -0.2638
  884poe    c23 6280   1.688   2.349   0.977 -0.2301  0.1578 -0.4894
  884poe     o2 6281   1.695   2.301   0.845 -0.1892 -0.3999 -0.2875
  884poe    c23 6282   1.595   2.347   0.757 -0.4404  0.3767  0.3992
  884poe    c23 6283   1.644   2.278   0.629  0.0961  0.4138  0.5800
  884poe     o2 6284   1.779   2.297   0.592 -0.0624 -0.3659 -0.4484
  884poe    c23 6285   1.784   2.251   0.459 -0.1885 -0.0707 -0.5565
  884poe    c23 6286   1.922   2.271   0.392  0.2130  0.2212  0.3411
  884poe     o2 6287   1.946   2.401   0.345  0.4219  0.0924  0.0894
  884poe    c31 6288   2.067   2.401   0.273  0.5345  0.6739  0.2739
  885poe    c31 6289   6.325   1.840   1.623  0.3355 -0.0757 -0.2100
  885poe     o2 6290   6.272   1.736   1.544 -0.3682 -0.0664  0.2428
  885poe    c23 6291   6.232   1.777   1.415  0.8381 -0.3150 -0.2278
  885poe    c23 6292   6.176   1.664   1.327 -0.2101  0.0231 -0.0194
  885poe     o2 6293   6.261   1.574   1.259 -0.1722 -0.1714  0.2864
  885poe    c23 6294   6.188   1.489   1.174  0.6989 -0.0001 -0.6634
  885poe    c23 6295   6.283   1.374   1.135  0.5478 -0.3906  0.0810
  885poe     o2 6296   6.372   1.344   1.240  0.4705  0.4565  0.3992
  885poe    c23 6297   6.456   1.237   1.204 -0.8649 -0.3489 -0.4216
  885poe    c23 6298   6.538   1.204   1.330 -0.0050  0.2419 -0.8209
  885poe     o2 6299   6.601   1.322   1.377 -0.3884  0.0170  0.2860
  885poe    c31 6300   6.700   1.292   1.472 -0.2118  0.3401  0.2055
  886poe    c31 6301   5.174   6.740   4.065  0.4296 -0.5518 -0.3685
  886poe     o2 6302   5.218   6.606   4.059  0.5271 -0.5059 -0.6636
  886poe    c23 6303   5.352   6.585   4.099  0.4200 -0.0483 -0.0643
  886poe    c23 6304   5.390   6.440   4.064  0.1539 -0.2047  0.2802
  886poe     o2 6305   5.282   6.355   4.092 -0.0940 -0.0388 -0.1610
  886poe    c23 6306   5.321   6.219   4.095 -0.2708 -0.0921 -0.2865
  886poe    c23 6307   5.199   6.133   4.131 -0.0598 -0.4791 -0.4885
  886poe     o2 6308   5.093   6.153   4.040 -0.0978 -0.7028 -0.4957
  886poe    c23 6309   4.987   6.061   4.053 -0.4934 -0.2061 -0.1405
  886poe    c23 6310   4.860   6.109   3.980 -0.1267  0.1645 -0.5377
  886poe     o2 6311   4.819   6.240   4.015 -0.5338 -0.0879 -0.0701
  886poe    c31 6312   4.713   6.264   3.925 -0.3064  0.4751 -0.1939
  887poe    c31 6313   3.783   4.321   2.877 -1.2282  0.5786 -0.4469
  887poe     o2 6314   3.751   4.184   2.878  0.6796  0.0922 -0.6561
  887poe    c23 6315   3.866   4.110   2.910  0.0362 -0.4628  0.4328
  887poe    c23 6316   3.865   3.956   2.918 -0.7748 -0.5448 -0.8805
  887poe     o2 6317   3.785   3.906   3.022 -0.0897  0.4239  0.1440
  887poe    c23 6318   3.807   3.767   3.041 -0.7305  0.2447 -0.3911
  887poe    c23 6319   3.765   3.718   3.181  0.5585  0.0820 -0.0499
  887poe     o2 6320   3.636   3.773   3.199  0.3362 -0.3744 -0.2443
  887poe    c23 6321   3.585   3.724   3.321 -0.1408 -0.2395 -0.3873
  887poe    c23 6322   3.449   3.790   3.350 -0.0401  0.1233 -0.7309
  887poe     o2 6323   3.458   3.921   3.299  0.6410  0.2323 -0.3449
  887poe    c31 6324   3.357   4.015   3.330  0.0584 -0.5256  0.0934
  888poe    c31 6325   4.919   0.299   6.035 -0.9784 -0.0153  0.0317
  888poe     o2 6326   4.923   0.392   6.141  0.3534  0.1011 -0.1012
  888poe    c23 6327   4.797   0.456   6.134  0.1087 -0.3647 -0.0192
  888poe    c23 6328   4.812   0.606   6.166  0.0192 -0.3713  0.0528
  888poe     o2 6329   4.897   0.621   6.278 -0.1317 -0.0721  0.1276
  888poe    c23 6330   4.919   0.756   6.312  0.1724 -0.1346  0.1819
  888poe    c23 6331   5.005   0.755   6.440  0.2655 -0.0404  0.1204
  888poe     o2 6332   5.112   0.665   6.424  0.2813  0.0127 -0.0799
  888poe    c23 6333   5.116   0.573   6.531 -0.3220 -0.2619 -0.2929
  888poe    c23 6334   5.181   0.443   6.478  0.1593  0.0154 -0.3838
  888poe     o2 6335   5.090   0.379   6.392  0.2519 -0.0622 -0.4234
  888poe    c31 6336   5.088   0.239   6.409  0.0940 -0.0253 -0.1401
  889poe    c31 6337   3.731   4.962   6.237  0.5396 -0.1987 -0.3166
  889poe     o2 6338   3.673   5.035   6.342  0.0061 -0.1865 -0.6184
  889poe    c23 6339   3.657   4.952   6.454  0.0999  0.6731  0.0454
  889poe    c23 6340   3.523   5.000   6.514 -0.0680 -0.2900  0.4713
  889poe     o2 6341   3.517   5.140   6.502  0.0226 -0.3156  0.0990
  889poe    c23 6342   3.435   5.200   6.600 -0.2950  0.1743 -0.4554
  889poe    c23 6343   3.405   5.351   6.588  0.6414  0.3850 -0.2655
  889poe     o2 6344   3.366   5.355   6.453  0.3009  0.3078 -0.1719
  889poe    c23 6345   3.318   5.482   6.413 -0.1258  0.2417  0.1248
  889poe    c23 6346   3.325   5.492   6.260  0.2514  0.6123  0.1641
  889poe     o2 6347   3.456   5.495   6.208  0.0778 -0.4372 -0.3506
  889poe    c31 6348   3.443   5.545   6.077 -0.2624 -0.2867 -0.2602
  890poe    c31 6349   6.552   3.588   0.201 -0.3101  0.2150 -0.3808
  890poe     o2 6350   6.485   3.634   0.316  1.3584  0.9772  0.3261
  890poe    c23 6351   6.528   3.568   0.433  0.1540  0.0707  0.2803
  890poe    c23 6352   6.468   3.650   0.548 -0.2833 -0.2400  0.2761
  890poe     o2 6353   6.335   3.677   0.513 -0.2618 -0.0868  0.3118
  890poe    c23 6354   6.280   3.751   0.620  0.6796  0.3326  0.5125
  890poe    c23 6355   6.177   3.852   0.566  0.5114 -0.0898  0.0366
  890poe     o2 6356   6.224   3.896   0.441 -0.3920 -0.0757 -0.3089
  890poe    c23 6357   6.134   3.955   0.350 -1.0197 -0.4350  0.0776
  890poe    c23 6358   6.230   3.994   0.237 -0.4201  0.0270  0.7363
  890poe     o2 6359   6.311   3.880   0.216 -0.1574  0.3797 -0.2253
  890poe    c31 6360   6.375   3.896   0.091 -0.3927  0.0740 -0.3854
  891poe    c31 6361   2.012   5.416   6.002 -0.5304  0.1583 -0.0880
  891poe     o2 6362   2.020   5.440   5.863  0.2530 -0.0972 -0.0951
  891poe    c23 6363   2.156   5.457   5.832  0.0827  0.7593 -0.3841
  891poe    c23 6364   2.159   5.437   5.679  0.6946  0.0813 -0.2868
  891poe     o2 6365   2.111   5.315   5.626  0.3688  0.3480 -0.6055
  891poe    c23 6366   2.211   5.216   5.627 -0.3897 -0.4297 -0.1879
  891poe    c23 6367   2.156   5.088   5.562  0.0352 -0.5235 -0.3672
  891poe     o2 6368   2.016   5.099   5.570  0.0586 -0.5621  0.1680
  891poe    c23 6369   1.969   4.983   5.505  0.0555 -0.7937  0.5879
  891poe    c23 6370   1.821   4.971   5.548 -0.0885 -0.1384  0.2890
  891poe     o2 6371   1.779   5.105   5.558  0.5682  0.1375 -0.5298
  891poe    c31 6372   1.641   5.111   5.530  0.4548 -0.1170 -0.0420
  892poe    c31 6373   1.737   3.350   4.362 -0.5127 -1.0510 -0.3652
  892poe     o2 6374   1.627   3.437   4.352  0.2601  0.0221  0.2875
  892poe    c23 6375   1.530   3.388   4.262 -0.0680  0.2307  0.5232
  892poe    c23 6376   1.425   3.299   4.331  0.2599 -0.5623  0.0191
  892poe     o2 6377   1.470   3.168   4.359  0.2331 -0.6201 -0.2115
  892poe    c23 6378   1.388   3.111   4.458  0.6533 -0.2304  0.3607
  892poe    c23 6379   1.436   2.970   4.500  0.3214 -0.3863  0.2212
  892poe     o2 6380   1.412   2.870   4.404 -0.0071  0.0378 -0.1482
  892poe    c23 6381   1.462   2.742   4.435 -0.4543 -0.1877 -0.3479
  892poe    c23 6382   1.442   2.646   4.316 -0.6451 -0.1917 -0.3118
  892poe     o2 6383   1.318   2.671   4.255 -0.7545  0.1028  0.0262
  892poe    c31 6384   1.258   2.571   4.176  0.3094 -0.1092 -0.5327
  893poe    c31 6385   2.481   6.195   4.662 -0.2113 -0.1102 -0.3843
  893poe     o2 6386   2.345   6.216   4.634 -0.3072 -0.2084  0.0116
  893poe    c23 6387   2.290   6.324   4.706  0.1948  0.2690 -0.3168
  893poe    c23 6388   2.137   6.304   4.701  0.0766  1.1327 -0.3446
  893poe     o2 6389   2.098   6.233   4.586  0.4568  0.0177  0.2038
  893poe    c23 6390   2.001   6.133   4.609 -0.2956  0.6667 -0.1327
  893poe    c23 6391   2.022   6.026   4.500  0.1928  0.0889  0.5260
  893poe     o2 6392   2.160   5.997   4.504 -0.0393 -1.0899  0.2797
  893poe    c23 6393   2.183   5.913   4.392  0.0503 -0.0069 -0.5354
  893poe    c23 6394   2.334   5.908   4.365  0.0087  0.2408 -0.8154
  893poe     o2 6395   2.390   6.031   4.404  0.4455 -0.2373  0.0957
  893poe    c31 6396   2.526   6.031   4.367  0.1589  0.1541 -0.9856
  894poe    c31 6397   1.428   4.918   3.304 -0.2620  0.4634  0.2126
  894poe     o2 6398   1.485   5.021   3.226  0.4484  0.0324  0.1479
  894poe    c23 6399   1.499   5.140   3.300 -0.4523  0.1781  0.0968
  894poe    c23 6400   1.621   5.216   3.245 -0.2958  0.1542  0.4085
  894poe     o2 6401   1.612   5.182   3.109  0.5201 -0.1346  0.4204
  894poe    c23 6402   1.717   5.223   3.025  0.3257 -0.0468  0.2199
  894poe    c23 6403   1.682   5.170   2.884 -0.2371  0.1716  0.2775
  894poe     o2 6404   1.621   5.044   2.899  0.1045 -0.0538 -0.2003
  894poe    c23 6405   1.546   4.986   2.795 -0.5468  0.4247 -0.0094
  894poe    c23 6406   1.478   4.856   2.842  0.8103 -0.1912  0.2990
  894poe     o2 6407   1.421   4.874   2.970 -0.4115  0.2188 -0.2844
  894poe    c31 6408   1.384   4.755   3.037  0.5560  0.3345  0.4848
  895poe    c31 6409   0.165   6.026   1.986 -0.3115 -0.7730 -0.0201
  895poe     o2 6410   0.259   6.049   1.883  0.2758 -0.0678  0.6681
  895poe    c23 6411   0.350   5.944   1.865  0.2494 -0.0194  0.2430
  895poe    c23 6412   0.434   5.972   1.739  0.1895 -0.1138  0.1816
  895poe     o2 6413   0.344   6.007   1.637 -0.0764 -0.3273  0.3405
  895poe    c23 6414   0.406   6.044   1.516 -0.7254 -0.5466 -0.0648
  895poe    c23 6415   0.321   6.153   1.447 -0.1717 -0.1458 -0.1202
  895poe     o2 6416   0.311   6.244   1.554  0.2773  0.0507 -0.2417
  895poe    c23 6417   0.263   6.373   1.522 -0.2615 -0.0219  0.2516
  895poe    c23 6418   0.225   6.411   1.666 -0.2756  0.5259  0.1028
  895poe     o2 6419   0.153   6.302   1.717 -0.3413  0.4662 -0.1172
  895poe    c31 6420   0.065   6.342   1.820 -0.1250  0.4636  0.0695
  896poe    c31 6421   4.664   4.934   3.400  0.0445 -0.2824  0.1242
  896poe     o2 6422   4.796   4.914   3.353 -0.0187  0.1461 -0.2415
  896poe    c23 6423   4.862   5.035   3.323  0.3635 -0.0326 -0.1248
  896poe    c23 6424   5.014   5.016   3.308  0.3043 -0.4283 -0.2532
  896poe     o2 6425   5.064   4.936   3.204 -0.3787 -0.0759 -0.8554
  896poe    c23 6426   5.200   4.964   3.180 -0.3504  0.2251 -0.3297
  896poe    c23 6427   5.239   4.889   3.052  0.2682  0.4140 -0.2528
  896poe     o2 6428   5.154   4.777   3.041 -0.0587  0.6018  0.3111
  896poe    c23 6429   5.163   4.709   2.917  0.0171  0.3508  0.4534
  896poe    c23 6430   5.070   4.587   2.934  0.4905  0.0414  0.8466
  896poe     o2 6431   4.952   4.635   2.995  0.0309  0.1138 -0.0804
  896poe    c31 6432   4.848   4.543   2.971  0.1146 -0.0755  0.2793
  897poe    c31 6433   6.751   6.408   3.205  0.8470 -0.9201  0.4324
  897poe     o2 6434   6.714   6.476   3.323  0.6734 -0.8605  0.3446
  897poe    c23 6435   6.816   6.456   3.419  0.6238 -0.3265  0.5123
  897poe    c23 6436   6.894   6.579   3.469  0.1515  0.1753  0.0384
  897poe     o2 6437   6.805   6.664   3.538 -0.2641  0.4239 -0.7975
  897poe    c23 6438   6.871   6.783   3.574  0.4236 -0.2500  0.2256
  897poe    c23 6439   6.772   6.886   3.631  0.1260 -0.6447  0.4283
  897poe     o2 6440   6.670   6.928   3.543  0.1852 -0.7419  0.3124
  897poe    c23 6441   6.572   6.998   3.616  0.1647 -0.5050  0.0608
  897poe    c23 6442   6.459   7.057   3.530  0.2912  0.0547  0.2668
  897poe     o2 6443   6.421   6.940   3.459 -0.4465  0.0854  0.5979
  897poe    c31 6444   6.304   6.964   3.384  0.0480 -0.3972 -0.3475
  898poe    c31 6445   1.107   0.478   6.787  0.2367  0.9189  0.1521
  898poe     o2 6446   1.147   0.369   6.707  0.4409  0.5470  0.7573
  898poe    c23 6447   1.255   0.401   6.623 -0.2015 -0.3182 -0.4505
  898poe    c23 6448   1.319   0.292   6.536  0.1507 -0.5176  0.0500
  898poe     o2 6449   1.350   0.168   6.596  0.6697 -0.2615  0.3154
  898poe    c23 6450   1.336   0.065   6.501 -0.8003  0.0069  0.2125
  898poe    c23 6451   1.409  -0.058   6.558 -0.1815  0.5673  0.6509
  898poe     o2 6452   1.374  -0.066   6.694  0.1616  0.5960  0.7413
  898poe    c23 6453   1.435  -0.174   6.762 -0.6610 -0.4894 -0.2125
  898poe    c23 6454   1.379  -0.179   6.905 -0.8730 -0.3910 -0.2904
  898poe     o2 6455   1.376  -0.044   6.944 -0.4960 -0.3880 -0.2663
  898poe    c31 6456   1.375  -0.019   7.083  0.1459 -0.1954 -0.2920
  899poe    c31 6457   4.877   3.655   2.695 -0.1356 -0.0503 -0.0992
  899poe     o2 6458   4.778   3.672   2.596 -0.3826  0.0109  0.1566
  899poe    c23 6459   4.733   3.804   2.575 -0.0213  0.1043 -0.0324
  899poe    c23 6460   4.633   3.837   2.462 -0.1630  0.3548  0.1647
  899poe     o2 6461   4.700   3.831   2.338 -0.1590 -0.2914  0.1958
  899poe    c23 6462   4.620   3.777   2.236 -0.2141 -0.1880  0.1843
  899poe    c23 6463   4.689   3.761   2.099 -0.3695  0.4131  0.0330
  899poe     o2 6464   4.793   3.665   2.108 -0.3316  0.4507 -0.0029
  899poe    c23 6465   4.835   3.619   1.982 -0.1881 -0.0655  0.2325
  899poe    c23 6466   4.898   3.479   1.991 -0.0532 -0.0429 -0.3403
  899poe     o2 6467   4.951   3.467   2.121 -0.5982 -0.1018 -0.1220
  899poe    c31 6468   4.966   3.335   2.168 -0.5136 -0.1068 -0.1630
  900poe    c31 6469   6.735   6.875   2.108 -0.5129  0.2257 -0.0858
  900poe     o2 6470   6.828   6.892   2.213 -0.4135 -0.2040 -0.1025
  900poe    c23 6471   6.802   6.813   2.327 -0.5342 -0.0285 -0.0098
  900poe    c23 6472   6.906   6.834   2.439 -0.5749  0.6144 -0.0892
  900poe     o2 6473   7.032   6.821   2.377 -0.5936  0.0868 -0.0212
  900poe    c23 6474   7.128   6.806   2.480 -0.6299  0.7743  0.1196
  900poe    c23 6475   7.273   6.823   2.433 -0.5698 -0.4704 -0.1774
  900poe     o2 6476   7.298   6.948   2.374 -0.0905 -0.5898 -0.2325
  900poe    c23 6477   7.437   6.966   2.358 -0.2103  0.0844 -0.5765
  900poe    c23 6478   7.478   7.061   2.244 -0.4691  0.5927 -0.2471
  900poe     o2 6479   7.449   7.025   2.111  0.4406  0.0453 -0.3048
  900poe    c31 6480   7.485   7.137   2.034  0.1222  0.1203 -0.3435
  901poe    c31 6481   3.876   0.449   1.269 -0.6908  0.6464 -0.0543
  901poe     o2 6482   3.863   0.522   1.149  0.1619  0.4147 -0.3006
  901poe    c23 6483   3.742   0.595   1.152 -0.4759 -0.6118 -0.3725
  901poe    c23 6484   3.742   0.644   1.006 -0.0046 -0.2786 -0.2621
  901poe     o2 6485   3.873   0.679   0.967 -0.1122  0.2282 -0.1816
  901poe    c23 6486   3.879   0.720   0.833  0.0290  1.1570  0.1011
  901poe    c23 6487   4.018   0.786   0.820  0.4976  0.1420 -0.1589
  901poe     o2 6488   4.109   0.703   0.888  0.1978  0.2637  0.4006
  901poe    c23 6489   4.236   0.758   0.859  0.2961 -0.1679 -0.0019
  901poe    c23 6490   4.358   0.692   0.925  0.5443 -0.0920 -0.3812
  901poe     o2 6491   4.377   0.707   1.064 -0.7719 -0.2679 -0.1736
  901poe    c31 6492   4.459   0.607   1.119  0.0665  0.2932 -0.3864
  902poe    c31 6493   2.722   2.080   4.737  0.6755  0.1725  0.6158
  902poe     o2 6494   2.625   2.183   4.738  0.3601 -0.1112 -0.1108
  902poe    c23 6495   2.668   2.291   4.818 -0.3182  0.0666  0.0244
  902poe    c23 6496   2.556   2.393   4.794 -0.0876  0.2836 -0.1411
  902poe     o2 6497   2.439   2.334   4.847 -0.1087 -0.1938 -0.7157
  902poe    c23 6498   2.324   2.409   4.819 -0.1636  0.0177  0.0587
  902poe    c23 6499   2.208   2.357   4.907  0.5481 -0.5420  0.6795
  902poe     o2 6500   2.207   2.217   4.893  0.5050 -0.4648 -0.1569
  902poe    c23 6501   2.070   2.184   4.889  0.4063 -0.1403  0.4552
  902poe    c23 6502   2.049   2.046   4.824  0.2972 -0.0730  0.3481
  902poe     o2 6503   2.087   2.042   4.688  0.1970 -0.0988  0.3206
  902poe    c31 6504   2.015   1.951   4.609 -0.0046  0.3742 -0.0486
  903poe    c31 6505   0.475   5.971   0.745  0.9485  0.2636  0.7407
  903poe     o2 6506   0.447   6.107   0.720  0.3724 -0.0532 -0.4103
  903poe    c23 6507   0.309   6.127   0.741  0.5819  0.1784  0.7725
  903poe    c23 6508   0.267   6.272   0.711  0.2046 -0.0159  0.3594
  903poe     o2 6509   0.366   6.322   0.624 -0.3456  0.4357 -0.0140
  903poe    c23 6510   0.328   6.436   0.549 -0.8786  0.4944  0.3399
  903poe    c23 6511   0.431   6.468   0.439 -0.8726 -0.1555  0.1497
  903poe     o2 6512   0.552   6.507   0.500 -0.5443 -0.5446 -0.2469
  903poe    c23 6513   0.625   6.567   0.396 -0.1029 -0.6263  0.0160
  903poe    c23 6514   0.766   6.582   0.457 -0.1138  0.0957 -0.1279
  903poe     o2 6515   0.833   6.462   0.490  0.3810  0.2104 -0.7064
  903poe    c31 6516   0.965   6.490   0.530  0.1176  0.2211  0.1841
  904poe    c31 6517   4.359   4.786   3.241  0.5393  0.1203  0.3103
  904poe     o2 6518   4.324   4.921   3.257 -0.1810 -0.0181 -0.0470
  904poe    c23 6519   4.215   4.962   3.178 -0.2496  0.5001  0.3099
  904poe    c23 6520   4.236   4.968   3.026  0.3844 -0.2928  0.3618
  904poe     o2 6521   4.327   5.070   2.991  0.1321 -0.2301 -0.1217
  904poe    c23 6522   4.317   5.084   2.851  0.2841 -0.3207 -0.1414
  904poe    c23 6523   4.352   5.230   2.814 -0.1076 -0.0101  0.6993
  904poe     o2 6524   4.491   5.234   2.834  0.0213  0.1184 -0.1834
  904poe    c23 6525   4.542   5.351   2.774 -0.8171  0.2942 -0.5741
  904poe    c23 6526   4.696   5.350   2.773 -0.8049  0.1141  0.3759
  904poe     o2 6527   4.726   5.347   2.911  0.1102 -0.6439  0.1750
  904poe    c31 6528   4.862   5.337   2.946  0.3127  0.6142 -0.1806
  905poe    c31 6529   2.195   1.981   0.237 -0.6032  0.1601 -0.1687
  905poe     o2 6530   2.333   1.981   0.266 -0.5045 -0.2047 -0.6287
  905poe    c23 6531   2.396   1.964   0.141  0.1373 -0.0414 -0.3323
  905poe    c23 6532   2.546   1.994   0.159  0.1712 -0.4397  0.0650
  905poe     o2 6533   2.574   1.957   0.292  0.2782 -0.3847  0.0573
  905poe    c23 6534   2.712   1.966   0.320  0.1790  0.1942  0.3633
  905poe    c23 6535   2.731   1.852   0.422  0.1106 -0.4862 -0.3777
  905poe     o2 6536   2.650   1.847   0.538  0.1681  0.5339 -0.2853
  905poe    c23 6537   2.676   1.726   0.605 -0.7970  0.0566 -0.7478
  905poe    c23 6538   2.583   1.703   0.726  0.0384  0.0216 -0.1025
  905poe     o2 6539   2.463   1.649   0.674 -0.1656  0.3843 -0.0082
  905poe    c31 6540   2.362   1.678   0.768 -0.4322 -0.2730 -0.0919
  906poe    c31 6541   1.644   0.597   1.399  0.0006  0.3659  0.1763
  906poe     o2 6542   1.626   0.734   1.424  0.0925  0.5217 -0.5812
  906poe    c23 6543   1.722   0.787   1.513 -0.0456  0.3468 -0.3244
  906poe    c23 6544   1.699   0.939   1.512 -0.3917  0.3010  0.3251
  906poe     o2 6545   1.713   1.001   1.386  0.0733 -0.0756  0.1895
  906poe    c23 6546   1.713   1.142   1.376  0.4783 -0.1042 -0.2555
  906poe    c23 6547   1.759   1.188   1.237  0.0544  0.7044 -0.1306
  906poe     o2 6548   1.704   1.111   1.132  0.0852 -0.0995  0.4389
  906poe    c23 6549   1.740   1.152   1.002  0.7366 -0.9060  0.3569
  906poe    c23 6550   1.658   1.100   0.883  0.0677  0.7864  0.0494
  906poe     o2 6551   1.540   1.174   0.862 -0.1757  0.4535  0.2327
  906poe    c31 6552   1.429   1.117   0.928  0.3261 -0.1197  0.5874
  907poe    c31 6553   2.222   3.434   3.462 -0.6576 -0.0535 -0.5854
  907poe     o2 6554   2.239   3.518   3.574  0.0884  0.2048 -0.8850
  907poe    c23 6555   2.372   3.532   3.621 -0.1056  0.2632 -0.3485
  907poe    c23 6556   2.383   3.506   3.772  0.3424 -0.0395 -0.4332
  907poe     o2 6557   2.287   3.582   3.841  0.3474 -0.2090 -0.2372
  907poe    c23 6558   2.287   3.553   3.979  0.8326  0.5702 -0.0624
  907poe    c23 6559   2.222   3.677   4.043  0.1005  0.4241 -0.5034
  907poe     o2 6560   2.107   3.691   3.963 -0.2669  0.4075  0.0138
  907poe    c23 6561   2.057   3.823   3.957 -0.3754  0.3647 -0.0111
  907poe    c23 6562   1.964   3.834   3.835 -0.1894  0.5664 -0.1346
  907poe     o2 6563   2.008   3.755   3.727  0.0619  0.2215  0.2189
  907poe    c31 6564   1.971   3.813   3.604 -0.1873  0.0220  0.2014
  908poe    c31 6565   0.828   3.700   0.809  0.6181 -0.1505  0.0915
  908poe     o2 6566   0.857   3.768   0.929  0.0271 -0.1099  0.2165
  908poe    c23 6567   0.995   3.794   0.943 -0.0294  0.6466 -0.5348
  908poe    c23 6568   0.995   3.892   1.062 -0.1306 -0.2843  0.2412
  908poe     o2 6569   0.911   3.847   1.165 -0.2301 -0.2769  0.1628
  908poe    c23 6570   0.903   3.935   1.275  0.3560 -0.4954  0.3839
  908poe    c23 6571   0.813   3.875   1.385 -0.5198  0.2438  0.0843
  908poe     o2 6572   0.684   3.844   1.336 -0.3821  0.2425 -0.2873
  908poe    c23 6573   0.621   3.786   1.448 -0.0663  0.7066  0.1378
  908poe    c23 6574   0.478   3.741   1.414 -0.0710  0.9019 -0.1005
  908poe     o2 6575   0.487   3.629   1.329  0.1317  0.5718  0.3542
  908poe    c31 6576   0.352   3.598   1.305  0.1752  0.2176  0.5639
  909poe    c31 6577   5.389   6.132   0.272  0.0245 -0.3309  0.1037
  909poe     o2 6578   5.271   6.069   0.227  0.0754 -0.2042 -0.2148
  909poe    c23 6579   5.241   6.116   0.097  0.5777  0.6235 -0.0410
  909poe    c23 6580   5.090   6.104   0.069  0.4962 -0.2356  0.7120
  909poe     o2 6581   5.055   5.979   0.126  0.0734 -0.4176  0.0618
  909poe    c23 6582   5.014   5.890   0.025 -0.3161  0.4086 -0.5293
  909poe    c23 6583   5.012   5.752   0.094  0.0679  0.6522 -0.0232
  909poe     o2 6584   5.098   5.768   0.205 -0.2668 -0.3545  0.3987
  909poe    c23 6585   5.098   5.666   0.302  0.1155 -0.5320  0.2142
  909poe    c23 6586   5.226   5.699   0.381 -0.0074 -0.0817  0.2310
  909poe     o2 6587   5.237   5.837   0.410  0.0023 -0.0682  0.1614
  909poe    c31 6588   5.338   5.858   0.506 -0.1669  0.1515  0.2903
  910poe    c31 6589   1.147   5.695   2.813 -0.0401  0.3213  0.1809
  910poe     o2 6590   1.183   5.658   2.944 -0.1523  0.0737  0.1427
  910poe    c23 6591   1.323   5.669   2.956 -0.1185 -0.7562  0.5882
  910poe    c23 6592   1.340   5.686   3.108  0.5585  0.1143  0.4256
  910poe     o2 6593   1.240   5.607   3.169  0.5094 -0.0563  0.1289
  910poe    c23 6594   1.277   5.587   3.304  0.5220  0.3324  0.1843
  910poe    c23 6595   1.174   5.477   3.335 -0.1502  0.7440 -0.5360
  910poe     o2 6596   1.044   5.530   3.337 -0.2306  0.5350  0.2212
  910poe    c23 6597   0.939   5.442   3.302 -0.0406  0.2927  0.2602
  910poe    c23 6598   0.835   5.521   3.222 -0.2444 -0.0579  0.1739
  910poe     o2 6599   0.886   5.598   3.115 -0.0579  0.1659  0.4202
  910poe    c31 6600   0.794   5.609   3.008  0.7912 -0.5501 -0.3996
  911poe    c31 6601   0.139   2.703   5.611 -0.6201  0.2481  0.0400
  911poe     o2 6602   0.098   2.663   5.481 -0.2158  0.1482 -0.0591
  911poe    c23 6603   0.200   2.595   5.412 -0.0486 -0.0909  0.4163
  911poe    c23 6604   0.148   2.598   5.267  0.0058  0.1503  0.4016
  911poe     o2 6605   0.015   2.553   5.264 -0.1091  0.5138 -0.3556
  911poe    c23 6606  -0.048   2.553   5.138 -0.1614  0.7576 -0.3293
  911poe    c23 6607  -0.199   2.541   5.163 -0.1997  0.5394 -0.6541
  911poe     o2 6608  -0.225   2.621   5.276  0.4633 -0.4238  0.1965
  911poe    c23 6609  -0.362   2.616   5.309  0.3234  0.4209 -0.2301
  911poe    c23 6610  -0.378   2.706   5.433 -0.5877  0.6143 -0.4831
  911poe     o2 6611  -0.263   2.713   5.514 -0.4949  0.0040 -0.5543
  911poe    c31 6612  -0.289   2.789   5.629  0.0750 -0.3682 -0.1741
  912poe    c31 6613   2.717   2.505   5.321 -0.0281 -0.0007 -0.0666
  912poe     o2 6614   2.809   2.429   5.396  0.4336  0.5231 -0.1029
  912poe    c23 6615   2.845   2.477   5.524  0.3181 -0.5507  0.3348
  912poe    c23 6616   2.960   2.390   5.577  0.9468 -0.0526 -0.1994
  912poe     o2 6617   2.933   2.253   5.555 -0.4717  0.0780  0.5869
  912poe    c23 6618   3.036   2.175   5.610 -0.1641  0.0954  0.0426
  912poe    c23 6619   2.949   2.050   5.632 -0.0110 -0.1133 -0.5045
  912poe     o2 6620   2.895   2.004   5.511 -0.2497 -0.2880 -0.3333
  912poe    c23 6621   2.877   1.864   5.506 -0.4157 -0.2727 -0.2001
  912poe    c23 6622   2.913   1.809   5.366  0.0385 -0.2354 -0.1012
  912poe     o2 6623   3.050   1.788   5.341  0.1298  0.2130  0.0042
  912poe    c31 6624   3.072   1.711   5.224  0.7578  0.4934 -0.0649
  913poe    c31 6625   1.915   2.744   4.450  0.3632 -0.3064 -0.0581
  913poe     o2 6626   1.832   2.652   4.516  0.3578 -0.2576  0.0026
  913poe    c23 6627   1.899   2.545   4.579  0.5947  0.0569  0.2939
  913poe    c23 6628   1.811   2.489   4.692  0.4894  0.3605  0.3633
  913poe     o2 6629   1.780   2.581   4.794 -0.8382  0.1155  0.2091
  913poe    c23 6630   1.723   2.528   4.912 -0.4040  0.0002  0.3699
  913poe    c23 6631   1.748   2.634   5.020  0.6888  0.4301 -0.2785
  913poe     o2 6632   1.698   2.759   4.977  0.2834  0.2745 -0.2670
  913poe    c23 6633   1.708   2.847   5.087  0.0336 -0.0374  0.0078
  913poe    c23 6634   1.634   2.981   5.069  0.3930  0.1293 -0.2384
  913poe     o2 6635   1.716   3.053   4.980  0.2960 -0.0942 -0.5108
  913poe    c31 6636   1.663   3.180   4.952 -0.2697 -0.0904  0.5112
  914poe    c31 6637   5.991   2.576   1.566  0.2811  0.7765  0.2657
  914poe     o2 6638   5.996   2.441   1.608 -0.0187  0.7059  0.0821
  914poe    c23 6639   6.005   2.357   1.496  0.5197  0.0651  0.6019
  914poe    c23 6640   6.014   2.207   1.529  0.1493 -0.1213 -0.1249
  914poe     o2 6641   5.912   2.164   1.616  0.3244  0.0905  0.1854
  914poe    c23 6642   5.901   2.024   1.623  0.0941  0.0961 -0.0714
  914poe    c23 6643   5.806   1.975   1.734  0.5407  0.2328  0.3752
  914poe     o2 6644   5.688   2.043   1.695  0.1604 -0.2929  0.6053
  914poe    c23 6645   5.576   1.997   1.768 -0.4561  0.1422 -0.0505
  914poe    c23 6646   5.462   2.082   1.709 -0.3914  0.0071 -0.3751
  914poe     o2 6647   5.504   2.214   1.734 -0.0467 -0.2321  0.3411
  914poe    c31 6648   5.395   2.304   1.744  0.0880 -0.0540  0.2012
  915poe    c31 6649   5.063   1.142   2.611  0.0414  0.2687  0.3180
  915poe     o2 6650   4.928   1.107   2.631  0.0695 -0.4019 -0.6292
  915poe    c23 6651   4.922   0.990   2.708  0.3888 -0.1603 -0.2330
  915poe    c23 6652   4.770   0.974   2.728  0.3890 -0.2321 -0.2870
  915poe     o2 6653   4.712   1.102   2.739  0.5535 -0.1940  0.1553
  915poe    c23 6654   4.578   1.091   2.697  0.6744  0.1278 -0.3308
  915poe    c23 6655   4.515   1.231   2.693  0.0989 -0.1395 -0.6998
  915poe     o2 6656   4.589   1.295   2.592  0.1010  0.1735 -0.5019
  915poe    c23 6657   4.526   1.419   2.569 -0.6542 -0.0782  0.1599
  915poe    c23 6658   4.582   1.494   2.446 -0.5106  0.4807  0.5613
  915poe     o2 6659   4.716   1.538   2.448 -0.2497 -0.2756  0.0206
  915poe    c31 6660   4.760   1.584   2.322  0.2427 -0.8173 -0.0102
  916poe    c31 6661   6.412   6.241   1.101  0.5390 -0.0325 -0.4093
  916poe     o2 6662   6.472   6.356   1.046  0.0687  0.3415 -0.1570
  916poe    c23 6663   6.428   6.467   1.121 -0.0842 -0.0079  0.2744
  916poe    c23 6664   6.423   6.569   1.006  0.0456  0.0243  0.2970
  916poe     o2 6665   6.551   6.570   0.948 -0.0783 -0.3984  0.0055
  916poe    c23 6666   6.550   6.640   0.826  0.6938 -0.2380  0.0806
  916poe    c23 6667   6.667   6.589   0.740  0.7100  0.2800 -0.2098
  916poe     o2 6668   6.673   6.449   0.754 -0.0369  0.2282 -0.3603
  916poe    c23 6669   6.638   6.395   0.628 -0.3033  0.0052 -0.1926
  916poe    c23 6670   6.583   6.257   0.666  0.1235 -0.1184 -0.0167
  916poe     o2 6671   6.495   6.281   0.773 -0.0932  0.5742 -0.3491
  916poe    c31 6672   6.385   6.193   0.764  0.6006 -0.3361  0.0358
  917poe    c31 6673   1.106   2.695   4.533 -0.3455 -0.4929  0.2468
  917poe     o2 6674   1.118   2.792   4.431 -0.6392 -0.1959  0.4907
  917poe    c23 6675   0.994   2.855   4.410 -0.3832  0.2311  0.2415
  917poe    c23 6676   1.026   2.964   4.306 -0.7915  0.0214 -0.1064
  917poe     o2 6677   1.126   2.925   4.214 -0.5251  0.2751  0.0737
  917poe    c23 6678   1.122   2.998   4.093  0.0005  0.1145 -0.0420
  917poe    c23 6679   1.245   2.975   4.003 -0.0421  0.1462 -0.1076
  917poe     o2 6680   1.360   3.035   4.058 -0.1865  0.2820  0.0474
  917poe    c23 6681   1.469   2.979   3.988 -0.3225  0.5408 -0.3762
  917poe    c23 6682   1.601   3.018   4.057 -0.2990  0.2013 -0.2266
  917poe     o2 6683   1.630   2.926   4.160 -0.2337  0.3986 -0.0671
  917poe    c31 6684   1.714   2.983   4.257  0.0235  0.0720 -0.0983
  918poe    c31 6685   4.380   3.365   5.014  0.4321 -0.1206  0.6496
  918poe     o2 6686   4.320   3.283   4.917  0.2554  0.4535  0.2709
  918poe    c23 6687   4.294   3.364   4.805 -0.6980 -0.0382  0.1227
  918poe    c23 6688   4.219   3.274   4.705  0.1083 -0.3567 -0.2039
  918poe     o2 6689   4.166   3.157   4.763  0.2467 -0.3560 -0.0749
  918poe    c23 6690   4.105   3.079   4.663  0.0619 -0.1660 -0.1124
  918poe    c23 6691   4.040   2.956   4.730 -0.3852  0.3621  0.4243
  918poe     o2 6692   4.127   2.876   4.807  0.1083  0.3726 -0.1208
  918poe    c23 6693   4.059   2.767   4.865  0.2647  0.1404 -0.3724
  918poe    c23 6694   4.129   2.655   4.944  0.0892  0.0826 -0.2994
  918poe     o2 6695   4.203   2.694   5.058 -0.1839 -0.0121 -0.0894
  918poe    c31 6696   4.267   2.589   5.128  0.1463  0.4346  0.2914
  919poe    c31 6697   4.054   2.694   4.426 -0.5221 -0.5793  0.0470
  919poe     o2 6698   4.165   2.657   4.347 -0.2810 -0.3963  0.2964
  919poe    c23 6699   4.288   2.666   4.414 -0.0928 -0.4499 -0.0387
  919poe    c23 6700   4.409   2.626   4.328 -0.4406 -0.4402 -0.5349
  919poe     o2 6701   4.408   2.493   4.280 -0.7056 -0.3168 -0.8769
  919poe    c23 6702   4.540   2.451   4.251 -0.5606 -0.6159  0.1866
  919poe    c23 6703   4.525   2.328   4.161 -0.8871 -0.2649 -0.2467
  919poe     o2 6704   4.440   2.237   4.228 -0.3440 -0.4801  0.1666
  919poe    c23 6705   4.400   2.139   4.135 -0.2508  0.2570 -0.6648
  919poe    c23 6706   4.304   2.040   4.203  0.7146 -0.0603  0.2625
  919poe     o2 6707   4.214   2.104   4.291  0.0011 -0.3343 -0.2505
  919poe    c31 6708   4.105   2.025   4.331 -0.5085 -0.0711 -1.0959
  920poe    c31 6709   6.148   0.733   0.978  0.1914  0.0149 -0.3115
  920poe     o2 6710   6.208   0.628   0.905 -0.1929 -0.6246  0.2765
  920poe    c23 6711   6.235   0.661   0.771  0.4622 -0.0449  0.5428
  920poe    c23 6712   6.238   0.527   0.696 -0.5343  0.0807  0.2566
  920poe     o2 6713   6.336   0.453   0.766 -0.9195 -0.5952  0.0922
  920poe    c23 6714   6.347   0.325   0.707 -0.5160 -0.2074 -0.6793
  920poe    c23 6715   6.446   0.235   0.783 -0.6463  0.1205 -0.1084
  920poe     o2 6716   6.396   0.185   0.905 -0.3519 -0.0267 -0.0463
  920poe    c23 6717   6.487   0.102   0.973 -0.5440 -0.0959  0.1282
  920poe    c23 6718   6.464   0.104   1.125  0.0166 -0.2675  0.2183
  920poe     o2 6719   6.473   0.239   1.165  0.0085 -0.0809 -0.4154
  920poe    c31 6720   6.476   0.241   1.305  0.0043 -0.2334 -0.4131
  921poe    c31 6721   2.891   0.493   0.874 -0.2148  0.4126 -0.2923
  921poe     o2 6722   2.802   0.579   0.942 -0.4095  0.0354 -0.0644
  921poe    c23 6723   2.670   0.531   0.928 -0.4665  0.3115 -0.4888
  921poe    c23 6724   2.564   0.612   1.005  0.3444  0.4447  0.5014
  921poe     o2 6725   2.551   0.744   0.957  0.1286  0.1489 -0.2721
  921poe    c23 6726   2.490   0.830   1.052  0.3285 -0.0089  0.0013
  921poe    c23 6727   2.555   0.969   1.041 -0.1495  0.2227  0.1058
  921poe     o2 6728   2.686   0.970   1.094  0.0676 -0.7107 -0.4027
  921poe    c23 6729   2.788   0.950   0.999  0.5018 -0.6276  0.0415
  921poe    c23 6730   2.922   1.010   1.046  0.0295  0.0267  0.5631
  921poe     o2 6731   2.943   0.967   1.179  0.1595 -0.5061  0.3739
  921poe    c31 6732   3.057   1.022   1.240 -0.1601 -0.0717  0.5823
  922poe    c31 6733   4.629   4.885   5.611 -0.6012  0.6343 -0.8223
  922poe     o2 6734   4.724   4.817   5.533 -0.3977 -0.1651  0.1179
  922poe    c23 6735   4.679   4.808   5.400 -0.0784 -0.5717  0.0323
  922poe    c23 6736   4.780   4.728   5.317 -0.0131  0.0116 -0.4611
  922poe     o2 6737   4.786   4.588   5.335  0.5607  0.0937  0.0389
  922poe    c23 6738   4.871   4.530   5.238 -0.0586 -0.1112 -0.3898
  922poe    c23 6739   4.844   4.380   5.216 -0.5260 -0.1275  0.2594
  922poe     o2 6740   4.816   4.316   5.338 -0.7915 -0.3339  0.0909
  922poe    c23 6741   4.889   4.197   5.360 -0.3469  0.0019  0.4342
  922poe    c23 6742   4.819   4.107   5.463 -0.2556 -0.1965  0.3234
  922poe     o2 6743   4.814   4.173   5.588  0.5572  0.2807  0.1118
  922poe    c31 6744   4.898   4.112   5.683  0.3470 -0.3206 -0.0828
  923poe    c31 6745   1.935   5.607   1.919 -0.0902  0.0088 -0.1628
  923poe     o2 6746   1.870   5.732   1.910  0.4674  0.3082 -0.0604
  923poe    c23 6747   1.756   5.722   1.828  0.4774  0.7208 -0.1308
  923poe    c23 6748   1.708   5.866   1.801 -0.1712  0.4708 -0.3420
  923poe     o2 6749   1.722   5.935   1.923 -0.3169 -0.0807 -0.0074
  923poe    c23 6750   1.663   6.063   1.931 -0.6322 -0.2391  0.2337
  923poe    c23 6751   1.709   6.109   2.071 -0.2011 -0.6772  0.2405
  923poe     o2 6752   1.845   6.077   2.085 -0.1004 -0.1209  0.5390
  923poe    c23 6753   1.931   6.154   2.004 -0.1501 -0.1285  0.4799
  923poe    c23 6754   2.069   6.087   1.997 -0.3137 -0.4724  0.5283
  923poe     o2 6755   2.045   5.949   1.982 -0.0803 -0.4503 -0.0879
  923poe    c31 6756   2.161   5.878   2.017  0.5072  0.6534  0.2245
  924poe    c31 6757   2.645   2.420   2.440  0.4449 -0.5924 -0.0955
  924poe     o2 6758   2.580   2.403   2.316  0.0724 -0.0641  0.0256
  924poe    c23 6759   2.556   2.268   2.281  0.1436 -0.2020  0.4938
  924poe    c23 6760   2.509   2.248   2.136 -0.4528  0.2647  0.6177
  924poe     o2 6761   2.389   2.315   2.105 -0.3990 -0.0717 -0.3782
  924poe    c23 6762   2.339   2.301   1.974 -0.1393  0.1146 -0.4981
  924poe    c23 6763   2.228   2.407   1.960 -0.2912  0.0673  0.2964
  924poe     o2 6764   2.267   2.540   1.933 -0.4381  0.0205 -0.1463
  924poe    c23 6765   2.148   2.613   1.915 -0.4725  0.0427  0.1802
  924poe    c23 6766   2.197   2.751   1.866 -0.1505 -0.4072 -0.7703
  924poe     o2 6767   2.322   2.780   1.924 -0.4599  0.4485 -0.5263
  924poe    c31 6768   2.348   2.917   1.907 -0.1195  0.3791 -0.5665
  925poe    c31 6769   5.849   1.141   4.935 -0.0414  0.1370  0.0642
  925poe     o2 6770   5.930   1.254   4.960  0.0300  0.0655  0.1614
  925poe    c23 6771   5.861   1.361   4.899 -0.3592  0.1228  0.6952
  925poe    c23 6772   5.967   1.473   4.901 -0.3954  0.1656  0.2826
  925poe     o2 6773   6.076   1.422   4.828 -0.3513  0.9334 -0.1978
  925poe    c23 6774   6.187   1.505   4.854  0.0316  0.3756 -0.0400
  925poe    c23 6775   6.313   1.426   4.893 -0.5268 -0.1196  0.7824
  925poe     o2 6776   6.258   1.326   4.975 -0.5851 -0.2652  0.5623
  925poe    c23 6777   6.347   1.226   5.018  0.3083  0.1833 -0.2115
  925poe    c23 6778   6.283   1.102   5.083  0.7370 -0.2703 -0.6410
  925poe     o2 6779   6.179   1.047   5.005 -0.2400  0.1499  0.3277
  925poe    c31 6780   6.135   0.922   5.054 -0.6207  0.1844  0.0822
  926poe    c31 6781   0.684   3.100   1.760 -0.3334 -0.3032  0.1206
  926poe     o2 6782   0.591   3.205   1.750  0.1463  0.1314  0.1575
  926poe    c23 6783   0.644   3.335   1.737 -0.1236  0.2477  0.1969
  926poe    c23 6784   0.527   3.434   1.725 -0.3273 -0.0163  0.0059
  926poe     o2 6785   0.450   3.453   1.842  0.0445  0.8491  0.1119
  926poe    c23 6786   0.319   3.490   1.805 -0.2288 -0.2450 -0.0581
  926poe    c23 6787   0.257   3.519   1.943  0.4439  0.1796  0.1617
  926poe     o2 6788   0.273   3.405   2.026  0.6191 -0.3090 -0.5357
  926poe    c23 6789   0.183   3.420   2.133  0.3346 -0.3931 -0.7605
  926poe    c23 6790   0.202   3.293   2.218 -0.3739 -0.0743 -0.1055
  926poe     o2 6791   0.340   3.269   2.234 -0.3143  0.1358 -0.3042
  926poe    c31 6792   0.359   3.158   2.319  0.2738  0.6255  0.2188
  927poe    c31 6793   6.375   1.943   3.845 -0.7563  0.1046 -0.2527
  927poe     o2 6794   6.448   1.874   3.944 -0.1776  0.4098 -0.4624
  927poe    c23 6795   6.552   1.799   3.887  0.1271  0.3056  0.2277
  927poe    c23 6796   6.641   1.727   3.990  0.1984  0.3224  0.1777
  927poe     o2 6797   6.725   1.810   4.067  0.2537 -0.4744  1.0054
  927poe    c23 6798   6.833   1.852   3.987 -0.5219  0.1897  0.2731
  927poe    c23 6799   6.915   1.951   4.071  0.2155  0.1960 -0.4313
  927poe     o2 6800   6.828   2.038   4.141  0.0975 -0.1247 -0.1763
  927poe    c23 6801   6.891   2.155   4.188  0.0006 -0.0517 -0.2260
  927poe    c23 6802   6.781   2.231   4.264 -0.2208 -0.9943  0.4063
  927poe     o2 6803   6.723   2.144   4.359 -1.0235 -0.2906  0.5729
  927poe    c31 6804   6.648   2.204   4.462 -0.8842  0.3831  0.2840
  928poe    c31 6805   2.270   2.847   5.668 -0.1604  0.5425  0.4163
  928poe     o2 6806   2.149   2.908   5.708 -0.3538  0.4953 -0.0847
  928poe    c23 6807   2.178   3.038   5.756  0.1424  0.4348 -0.2101
  928poe    c23 6808   2.063   3.140   5.774 -0.7656 -0.6224  0.0923
  928poe     o2 6809   2.025   3.184   5.646  0.2412  0.7653  0.2505
  928poe    c23 6810   1.910   3.264   5.661  0.0081  0.4549  0.1251
  928poe    c23 6811   1.915   3.368   5.549 -0.0403  0.4323  0.1021
  928poe     o2 6812   1.945   3.290   5.435 -0.0784  0.0455  0.3580
  928poe    c23 6813   1.907   3.363   5.321  0.6436 -0.5744 -0.2863
  928poe    c23 6814   1.893   3.266   5.203 -0.3463 -0.0921 -0.5776
  928poe     o2 6815   2.015   3.199   5.177 -0.3310 -0.2543 -0.1017
  928poe    c31 6816   2.033   3.174   5.039  0.2861  0.0860 -0.0877
  929poe    c31 6817   1.621   2.670   1.559  0.7577  0.4130 -0.3053
  929poe     o2 6818   1.612   2.534   1.593  0.0378  0.4967 -0.1417
  929poe    c23 6819   1.667   2.506   1.720 -0.0886  0.3237 -0.1256
  929poe    c23 6820   1.703   2.357   1.734  0.0050  0.3664  0.0858
  929poe     o2 6821   1.589   2.280   1.703  0.4688 -0.4188  0.2993
  929poe    c23 6822   1.614   2.143   1.679 -0.2124 -0.3825 -0.6968
  929poe    c23 6823   1.586   2.137   1.528 -0.1589 -0.7301 -0.6940
  929poe     o2 6824   1.463   2.201   1.501  0.2518  0.3542 -0.0760
  929poe    c23 6825   1.430   2.224   1.365  0.1583  0.5557 -0.0193
  929poe    c23 6826   1.330   2.340   1.369  0.2276  0.6124  0.0906
  929poe     o2 6827   1.395   2.437   1.448  0.5515  0.0181  0.5641
  929poe    c31 6828   1.314   2.553   1.457  0.0101 -0.2800 -0.3487
  930poe    c31 6829   5.138   0.228   0.325 -0.1244 -0.4731  0.2448
  930poe     o2 6830   5.179   0.101   0.281  0.2227 -0.2852  0.0221
  930poe    c23 6831   5.149   0.081   0.145 -0.6261 -0.3643  0.2151
  930poe    c23 6832   5.216  -0.040   0.077  0.0232 -0.1094  0.3960
  930poe     o2 6833   5.355  -0.053   0.098  0.0264 -0.6868  0.0494
  930poe    c23 6834   5.412  -0.168   0.041  0.4044 -0.6522  0.3566
  930poe    c23 6835   5.564  -0.157   0.067  0.4260  0.3208 -0.1535
  930poe     o2 6836   5.583  -0.181   0.205  0.2840  0.0045 -0.1888
  930poe    c23 6837   5.716  -0.195   0.251  0.2431  0.0288 -0.0659
  930poe    c23 6838   5.701  -0.223   0.402  0.1655 -0.3050 -0.1348
  930poe     o2 6839   5.592  -0.147   0.450  0.3560 -0.0370 -0.1299
  930poe    c31 6840   5.580  -0.163   0.589  0.0831 -0.0842 -0.1587
  931poe    c31 6841   3.528   4.323   5.425  0.5461 -0.3600  0.1239
  931poe     o2 6842   3.593   4.369   5.308  0.3467  0.3456  0.2864
  931poe    c23 6843   3.516   4.382   5.191  0.9845 -0.6248 -0.2633
  931poe    c23 6844   3.600   4.467   5.094 -0.2191  0.5665 -0.3021
  931poe     o2 6845   3.653   4.571   5.172  0.2701  0.1727 -0.0968
  931poe    c23 6846   3.734   4.659   5.096  0.3940 -0.1417 -0.3273
  931poe    c23 6847   3.827   4.752   5.175  0.5390 -0.1754 -0.4589
  931poe     o2 6848   3.908   4.666   5.251 -0.2071 -0.1980  0.3181
  931poe    c23 6849   4.018   4.736   5.305 -0.3618  0.4034 -0.1324
  931poe    c23 6850   4.136   4.650   5.356 -0.7262 -0.1749 -0.2513
  931poe     o2 6851   4.080   4.555   5.443 -0.0669 -0.1112  0.2499
  931poe    c31 6852   4.122   4.585   5.574 -0.1228  0.4687  0.1349
  932poe    c31 6853   6.632   4.983   3.050 -0.3894  0.2648 -0.1140
  932poe     o2 6854   6.605   4.854   3.102  0.1371  0.1043 -0.2265
  932poe    c23 6855   6.629   4.755   3.004  0.3926  0.2457 -0.3064
  932poe    c23 6856   6.732   4.653   3.057  0.0257  0.0584  0.0426
  932poe     o2 6857   6.691   4.608   3.185 -0.3135 -0.8627 -0.3856
  932poe    c23 6858   6.803   4.558   3.253 -0.4395 -0.0844  0.4030
  932poe    c23 6859   6.757   4.570   3.400 -1.3384  0.2253  0.1034
  932poe     o2 6860   6.685   4.691   3.401 -0.1571  0.9448 -0.0496
  932poe    c23 6861   6.616   4.718   3.521 -0.0099 -0.4880  0.3783
  932poe    c23 6862   6.573   4.866   3.511  0.2243 -0.4482 -0.0782
  932poe     o2 6863   6.532   4.876   3.376 -0.0207 -0.3294  0.0035
  932poe    c31 6864   6.439   4.979   3.353  0.4729  0.2844  0.6892
  933poe    c31 6865   1.657   3.505   0.925  0.3660 -0.1776  0.8122
  933poe     o2 6866   1.704   3.555   0.802 -0.6075  0.0588  0.5226
  933poe    c23 6867   1.590   3.585   0.725  0.0030  0.6105 -0.1801
  933poe    c23 6868   1.648   3.654   0.600 -0.2492  0.8321 -0.1763
  933poe     o2 6869   1.772   3.602   0.556 -0.5153  0.2288 -0.2275
  933poe    c23 6870   1.831   3.675   0.451  0.5743 -0.0281  0.1958
  933poe    c23 6871   1.977   3.625   0.454  0.6834  0.2584 -0.2342
  933poe     o2 6872   2.011   3.611   0.590  0.0829 -0.5171 -0.1590
  933poe    c23 6873   2.146   3.585   0.623  0.1485  0.0024 -0.0157
  933poe    c23 6874   2.134   3.551   0.773 -0.2721 -0.0650 -0.0640
  933poe     o2 6875   2.018   3.475   0.799  0.1050 -0.6141  0.0360
  933poe    c31 6876   2.028   3.397   0.917 -1.2232 -0.9959 -0.0869
  934poe    c31 6877   6.498   6.391   3.836 -0.4747  0.8168 -0.1614
  934poe     o2 6878   6.481   6.392   3.976 -0.1579 -0.1864 -0.1067
  934poe    c23 6879   6.598   6.429   4.045 -0.3627  0.3356 -0.0331
  934poe    c23 6880   6.589   6.447   4.198  0.2229  0.2352  0.0153
  934poe     o2 6881   6.489   6.535   4.244  0.5288  0.2164  0.7235
  934poe    c23 6882   6.539   6.592   4.363  0.5759  0.4726  0.5805
  934poe    c23 6883   6.462   6.722   4.390  0.4036  0.4605  0.1473
  934poe     o2 6884   6.322   6.704   4.384  0.5054 -0.3250  0.0833
  934poe    c23 6885   6.251   6.824   4.407 -0.0348 -0.6310  0.0370
  934poe    c23 6886   6.106   6.776   4.392 -0.2306  0.0450 -0.2720
  934poe     o2 6887   6.101   6.700   4.273 -0.1096 -0.1352 -0.1633
  934poe    c31 6888   5.966   6.697   4.233 -0.1115  0.1989 -0.1891
  935poe    c31 6889   2.477   0.219   4.533  0.5780 -0.1839 -0.4278
  935poe     o2 6890   2.377   0.121   4.516  0.0631  0.2094  0.2925
  935poe    c23 6891   2.285   0.128   4.623  0.1279  0.2030  0.3492
  935poe    c23 6892   2.180   0.016   4.610  0.5238 -0.1546  0.1897
  935poe     o2 6893   2.249  -0.092   4.550 -0.1595 -0.2663 -0.4045
  935poe    c23 6894   2.156  -0.188   4.503 -0.2895 -0.1640 -0.3596
  935poe    c23 6895   2.145  -0.182   4.350  0.7378 -0.7370 -0.4650
  935poe     o2 6896   2.250  -0.100   4.303 -0.1050  0.5965 -0.0928
  935poe    c23 6897   2.296  -0.142   4.176 -0.1210 -0.3608  0.2079
  935poe    c23 6898   2.377  -0.021   4.125 -0.0260 -0.3628  0.3521
  935poe     o2 6899   2.470   0.024   4.221 -0.2042  0.4301  0.1585
  935poe    c31 6900   2.576   0.103   4.172  0.3222 -0.5964 -0.3872
  936poe    c31 6901   6.035   2.599   0.151 -0.1481 -0.4347 -0.1039
  936poe     o2 6902   5.901   2.591   0.108 -0.0745 -0.4700 -0.3275
  936poe    c23 6903   5.862   2.699   0.026  0.3244 -0.5077 -0.5676
  936poe    c23 6904   5.737   2.639  -0.040 -0.4143  0.3360  0.0438
  936poe     o2 6905   5.648   2.580   0.052 -0.1671  0.1158  0.1412
  936poe    c23 6906   5.523   2.534   0.006 -0.0818 -0.0479  0.0718
  936poe    c23 6907   5.442   2.511   0.135 -0.5302  0.2190 -0.1591
  936poe     o2 6908   5.533   2.426   0.202 -0.3527  0.3663 -0.2120
  936poe    c23 6909   5.461   2.352   0.298 -0.2435  0.3038 -0.1785
  936poe    c23 6910   5.549   2.255   0.380 -0.1754  0.1730 -0.4060
  936poe     o2 6911   5.646   2.325   0.454  0.0819 -0.1149 -0.4695
  936poe    c31 6912   5.732   2.222   0.496 -0.3592 -0.5702 -0.6786
  937poe    c31 6913   3.197   5.699   1.985  0.4307 -0.4545  0.1570
  937poe     o2 6914   3.221   5.830   1.939 -0.2079 -0.2058  0.5214
  937poe    c23 6915   3.092   5.886   1.939 -0.1904 -0.1616  0.2922
  937poe    c23 6916   3.094   6.038   1.919  0.4479 -0.0691  1.0065
  937poe     o2 6917   3.199   6.055   1.827 -0.4999  0.0282 -0.0800
  937poe    c23 6918   3.259   6.182   1.835  0.1165 -0.2040 -0.8790
  937poe    c23 6919   3.408   6.178   1.794  0.2592 -0.0883 -0.3710
  937poe     o2 6920   3.461   6.057   1.845 -0.2986 -0.2565 -0.1717
  937poe    c23 6921   3.575   6.009   1.776 -0.2390  0.2730 -0.4569
  937poe    c23 6922   3.588   5.858   1.807  0.1912  0.4514  0.2532
  937poe     o2 6923   3.460   5.801   1.799  0.2666  0.2696  0.3544
  937poe    c31 6924   3.469   5.665   1.764 -0.0357  0.3429 -0.0070
  938poe    c31 6925   4.448   1.925   5.752 -0.0435 -0.6508  0.2879
  938poe     o2 6926   4.372   1.914   5.871 -0.4418 -0.3889  0.0634
  938poe    c23 6927   4.346   2.042   5.924  0.2759 -0.2878  0.1897
  938poe    c23 6928   4.198   2.045   5.967  0.2808 -0.3009  0.2099
  938poe     o2 6929   4.184   1.925   6.040  0.0988 -0.0680  0.5584
  938poe    c23 6930   4.048   1.905   6.075  0.0913 -0.0260  0.5537
  938poe    c23 6931   4.054   1.761   6.130 -0.4560 -0.3451 -0.2023
  938poe     o2 6932   4.128   1.667   6.056 -0.0350 -0.2216  0.0581
  938poe    c23 6933   4.173   1.560   6.135  0.5768  0.1567  0.2259
  938poe    c23 6934   4.257   1.484   6.030 -0.0015 -0.0096 -0.1207
  938poe     o2 6935   4.322   1.586   5.958  0.5480  0.0966  0.5104
  938poe    c31 6936   4.398   1.536   5.849 -0.1300 -0.6415  0.3694
  939poe    c31 6937   5.090   4.392   4.235  0.7352 -0.0973 -0.4819
  939poe     o2 6938   5.131   4.527   4.226  0.2350  0.1201  0.4622
  939poe    c23 6939   5.255   4.549   4.289  0.5314  0.2581 -0.1673
  939poe    c23 6940   5.263   4.692   4.348  0.0004  0.3006 -0.1950
  939poe     o2 6941   5.201   4.777   4.254  0.1191  0.3727 -0.2081
  939poe    c23 6942   5.273   4.893   4.219  0.1878  0.4026  0.0302
  939poe    c23 6943   5.323   4.870   4.075  0.4364 -0.4866  0.2510
  939poe     o2 6944   5.221   4.791   4.017  0.2091 -0.1124  0.1397
  939poe    c23 6945   5.270   4.745   3.893  0.2935  0.0811  0.0998
  939poe    c23 6946   5.156   4.650   3.851  0.6956 -0.6993  0.7523
  939poe     o2 6947   5.098   4.586   3.963 -0.3134  0.1096  0.7081
  939poe    c31 6948   5.031   4.469   3.924  0.0832  0.3760 -0.8356
  940poe    c31 6949   3.314   1.078   1.011 -0.0902 -0.3877 -0.1286
  940poe     o2 6950   3.271   1.211   0.992  0.1255 -0.3301 -0.2137
  940poe    c23 6951   3.272   1.250   0.857 -0.0774 -0.6264 -0.3002
  940poe    c23 6952   3.224   1.395   0.843 -0.0602 -0.5756  0.1626
  940poe     o2 6953   3.321   1.476   0.905  0.0929 -0.7336  0.1284
  940poe    c23 6954   3.280   1.611   0.901  0.2744 -0.6666  0.4438
  940poe    c23 6955   3.405   1.696   0.927  0.3331 -0.5463 -0.2124
  940poe     o2 6956   3.436   1.662   1.060 -1.1468  0.0166  0.2951
  940poe    c23 6957   3.541   1.740   1.114 -0.5900 -0.5015 -0.0298
  940poe    c23 6958   3.583   1.669   1.244  0.0840  0.6597  0.3993
  940poe     o2 6959   3.475   1.599   1.300 -0.0477  0.5909  0.0615
  940poe    c31 6960   3.517   1.543   1.423  0.0579  0.0485 -0.2175
  941poe    c31 6961   0.923   5.807   0.207  0.2982  0.6085 -0.6350
  941poe     o2 6962   1.019   5.784   0.107  0.3537 -0.1607 -0.4153
  941poe    c23 6963   1.055   5.650   0.087  0.0388 -0.3618  0.3283
  941poe    c23 6964   1.189   5.652   0.009 -0.3336 -0.8194 -0.3372
  941poe     o2 6965   1.166   5.721  -0.112 -0.1307 -0.0884  0.0328
  941poe    c23 6966   1.264   5.692  -0.208 -0.0353 -0.5027  0.2497
  941poe    c23 6967   1.289   5.818  -0.294  0.5564 -0.7716  0.0211
  941poe     o2 6968   1.160   5.861  -0.332  0.5972 -0.4026  0.2973
  941poe    c23 6969   1.156   5.988  -0.394 -0.2335 -0.3212  0.5130
  941poe    c23 6970   1.023   6.066  -0.389 -0.1992 -0.2384  0.1362
  941poe     o2 6971   0.994   6.135  -0.270 -0.1196  0.4892 -0.2599
  941poe    c31 6972   0.877   6.213  -0.285 -0.5826 -0.1685 -0.1495
  942poe    c31 6973   5.954   5.064   5.991 -0.6599 -0.0789 -0.3107
  942poe     o2 6974   5.900   5.113   6.112  0.8409 -0.2283  0.4352
  942poe    c23 6975   5.830   5.017   6.187  0.1850  0.1986  0.3688
  942poe    c23 6976   5.734   5.075   6.293  0.3747  0.1968  0.5429
  942poe     o2 6977   5.805   5.138   6.397 -0.4463  1.3191  0.4433
  942poe    c23 6978   5.712   5.190   6.489 -0.8581  0.1842  0.6824
  942poe    c23 6979   5.741   5.336   6.531  0.2374  0.3255 -0.5000
  942poe     o2 6980   5.867   5.322   6.593  0.0244 -0.1762 -0.1717
  942poe    c23 6981   5.921   5.444   6.640  0.1017 -0.4343  0.4139
  942poe    c23 6982   6.068   5.419   6.675  0.5444  0.8907 -0.4365
  942poe     o2 6983   6.103   5.341   6.563 -0.3561 -0.4327  0.1745
  942poe    c31 6984   6.231   5.289   6.589 -0.0669  0.3356  0.3123
  943poe    c31 6985   0.192   5.732   3.313 -0.5677  0.1423 -0.3271
  943poe     o2 6986   0.101   5.794   3.401 -0.0360  0.1527  0.2263
  943poe    c23 6987  -0.014   5.820   3.323 -0.1758 -0.8287  0.0999
  943poe    c23 6988  -0.123   5.872   3.418  0.4264  0.1578  0.2654
  943poe     o2 6989  -0.131   5.779   3.524 -0.2157  0.0689  0.1468
  943poe    c23 6990  -0.236   5.811   3.613 -0.2537  0.2656  0.0340
  943poe    c23 6991  -0.239   5.715   3.733 -0.0598  0.0163 -0.1581
  943poe     o2 6992  -0.108   5.716   3.787 -0.3690  0.4078  0.6039
  943poe    c23 6993  -0.103   5.614   3.884  0.0848  0.0084  0.1613
  943poe    c23 6994   0.038   5.616   3.947  0.1249 -0.2754  0.0831
  943poe     o2 6995   0.139   5.544   3.879  0.0815 -0.6345  0.3935
  943poe    c31 6996   0.269   5.566   3.928  0.1273  0.2267 -0.0772
  944poe    c31 6997   0.501   5.719   5.863  0.6566  1.2767 -0.6214
  944poe     o2 6998   0.408   5.823   5.876 -0.0502  0.5706  0.0928
  944poe    c23 6999   0.288   5.764   5.922  0.3669 -0.1615  0.2550
  944poe    c23 7000   0.187   5.880   5.910  0.1930 -0.3313  0.0833
  944poe     o2 7001   0.216   5.962   5.800  0.0572 -0.1130  0.2093
  944poe    c23 7002   0.129   6.070   5.774  0.4101  0.2343  0.4604
  944poe    c23 7003   0.159   6.101   5.627  0.1855 -0.0026  0.3627
  944poe     o2 7004   0.299   6.124   5.626  0.1953 -0.0653  0.3313
  944poe    c23 7005   0.355   6.084   5.503  0.1163  0.1957  0.2095
  944poe    c23 7006   0.506   6.053   5.506  0.0512 -0.1384  0.1683
  944poe     o2 7007   0.525   5.951   5.602 -0.0067 -0.1535  0.1634
  944poe    c31 7008   0.655   5.899   5.590 -0.0165 -0.1875  0.2044
  945poe    c31 7009   3.976   2.011   4.679 -0.4781 -0.1485 -0.1105
  945poe     o2 7010   4.021   2.014   4.813 -0.5281  0.3000 -0.1049
  945poe    c23 7011   4.034   2.145   4.865  0.6260  0.1901 -0.0997
  945poe    c23 7012   4.082   2.135   5.011  0.1475  0.4159  0.0738
  945poe     o2 7013   4.009   2.037   5.081  0.6100 -0.1662 -0.2475
  945poe    c23 7014   4.040   2.037   5.219  0.1338 -0.9752 -0.1347
  945poe    c23 7015   3.916   2.007   5.305 -0.3814  0.2461 -0.4206
  945poe     o2 7016   3.832   1.913   5.240 -0.4695  0.1877 -0.2241
  945poe    c23 7017   3.753   1.859   5.344  0.3834 -0.5508  0.0522
  945poe    c23 7018   3.614   1.831   5.285  0.3822  0.5295 -0.4967
  945poe     o2 7019   3.619   1.729   5.187 -0.6356  0.1610 -0.1761
  945poe    c31 7020   3.486   1.709   5.144 -0.7060 -0.1846  0.1966
  946poe    c31 7021   1.175   0.045   2.071 -0.0179 -0.1705  0.0037
  946poe     o2 7022   1.247   0.103   2.177 -0.5093  0.0167  0.2366
  946poe    c23 7023   1.319   0.212   2.125  0.7000 -0.7190  0.3382
  946poe    c23 7024   1.311   0.313   2.240 -0.3341 -0.1278 -0.2423
  946poe     o2 7025   1.352   0.235   2.350  0.1700  0.4929  0.0130
  946poe    c23 7026   1.342   0.293   2.478 -0.1835 -0.1296  0.2682
  946poe    c23 7027   1.413   0.185   2.563  0.1076 -0.2216 -0.0881
  946poe     o2 7028   1.361   0.060   2.523 -0.3019 -0.1732  0.2806
  946poe    c23 7029   1.437  -0.054   2.556  0.1576 -0.0585 -0.3485
  946poe    c23 7030   1.375  -0.156   2.459 -0.1578 -0.2557  0.0578
  946poe     o2 7031   1.387  -0.100   2.331 -0.4444 -0.0116  0.1378
  946poe    c31 7032   1.367  -0.209   2.244 -0.0612 -0.4193  0.5629
  947poe    c31 7033   0.818   0.945   5.842 -0.2195  0.1509 -0.1285
  947poe     o2 7034   0.916   0.844   5.829 -0.2088  0.1806 -0.2857
  947poe    c23 7035   1.039   0.911   5.818 -0.1718  0.2123  0.3042
  947poe    c23 7036   1.136   0.810   5.752 -0.5838  0.4413 -0.6604
  947poe     o2 7037   1.100   0.687   5.811  0.3823  0.3609 -0.2299
  947poe    c23 7038   1.192   0.580   5.805  0.3777  0.3353  0.1422
  947poe    c23 7039   1.155   0.476   5.912  0.1559 -0.0747 -0.3290
  947poe     o2 7040   1.016   0.462   5.893  0.0735  0.4814 -0.1819
  947poe    c23 7041   0.973   0.348   5.964 -0.2495  0.6054 -0.1767
  947poe    c23 7042   0.830   0.329   6.019  0.1844 -0.6176  0.5672
  947poe     o2 7043   0.803   0.427   6.117 -0.0730 -1.1065  0.9898
  947poe    c31 7044   0.663   0.433   6.134 -0.1736 -0.2812  0.0165
  948poe    c31 7045   1.047   1.621   2.725  0.4195 -0.0191 -0.3696
  948poe     o2 7046   1.020   1.518   2.632 -0.1530 -0.2729  0.0711
  948poe    c23 7047   0.897   1.459   2.667 -0.4767  0.3230 -0.0480
  948poe    c23 7048   0.862   1.361   2.554  0.1356  0.1305 -0.0740
  948poe     o2 7049   0.982   1.303   2.506  0.1651  0.5396 -0.5008
  948poe    c23 7050   0.959   1.267   2.372 -0.4540 -0.0506 -0.2415
  948poe    c23 7051   1.098   1.209   2.342 -0.2317  0.1916  0.3082
  948poe     o2 7052   1.176   1.317   2.388 -0.2795  0.4924 -0.3120
  948poe    c23 7053   1.312   1.327   2.352 -0.1648 -0.3824 -0.1445
  948poe    c23 7054   1.346   1.465   2.413  0.0690 -0.3352 -0.3814
  948poe     o2 7055   1.310   1.462   2.549 -0.1081 -0.0698 -0.4228
  948poe    c31 7056   1.379   1.564   2.618  0.6907 -0.8943  0.0142
  949poe    c31 7057   1.455   1.479   1.924  0.1395  0.1819 -0.2151
  949poe     o2 7058   1.367   1.507   2.030 -0.2537 -0.6378 -0.3181
  949poe    c23 7059   1.238   1.516   1.976 -0.3614  0.2791  0.0802
  949poe    c23 7060   1.129   1.548   2.080 -0.4214  0.4063 -0.0215
  949poe     o2 7061   1.150   1.660   2.163  0.3922  0.5680 -0.4331
  949poe    c23 7062   1.031   1.666   2.239  0.6615 -0.4865  0.0896
  949poe    c23 7063   1.058   1.754   2.363  0.2415  0.1826 -0.2873
  949poe     o2 7064   1.138   1.862   2.321  0.9690 -0.2299  0.0070
  949poe    c23 7065   1.197   1.920   2.435 -0.2817  0.4036  0.3602
  949poe    c23 7066   1.301   2.019   2.379  0.2258 -0.3254  0.0002
  949poe     o2 7067   1.373   1.952   2.278 -0.1445 -0.3543 -0.2453
  949poe    c31 7068   1.467   2.049   2.238  0.1408 -0.1209  0.9519
  950poe    c31 7069   6.548   2.714   0.508  0.8410  0.3882  0.4220
  950poe     o2 7070   6.521   2.581   0.545 -0.2137  0.2997 -0.6173
  950poe    c23 7071   6.638   2.503   0.547 -0.0646  0.5322  0.7424
  950poe    c23 7072   6.637   2.387   0.648  0.1573 -0.5711 -0.4905
  950poe     o2 7073   6.500   2.352   0.652  0.2087 -0.7884 -0.6238
  950poe    c23 7074   6.454   2.312   0.779  0.4481  0.0000 -0.2815
  950poe    c23 7075   6.301   2.305   0.765  0.4706  0.1433 -0.6113
  950poe     o2 7076   6.263   2.434   0.724 -0.1737  0.1020 -0.1602
  950poe    c23 7077   6.124   2.436   0.699 -0.2336 -0.4191  0.1193
  950poe    c23 7078   6.109   2.573   0.631 -0.1604 -0.6418 -0.3459
  950poe     o2 7079   6.209   2.595   0.534 -0.1156 -0.0932 -0.1805
  950poe    c31 7080   6.176   2.707   0.455  0.8202 -0.1221 -0.6301
  951poe    c31 7081   6.696   1.789   5.435  0.2859 -0.1835  0.3126
  951poe     o2 7082   6.716   1.833   5.303 -0.3223  0.2704  0.3643
  951poe    c23 7083   6.610   1.794   5.219 -0.0194  0.1434  0.0329
  951poe    c23 7084   6.581   1.897   5.108 -0.1174 -0.4390 -0.4840
  951poe     o2 7085   6.691   1.929   5.027  0.1093  0.1123  0.0395
  951poe    c23 7086   6.659   2.046   4.956 -0.4258 -0.1949 -0.2317
  951poe    c23 7087   6.795   2.098   4.905 -0.4054  0.2137  0.2338
  951poe     o2 7088   6.869   1.989   4.856  0.1724  0.6390  0.1396
  951poe    c23 7089   6.996   2.022   4.806  0.3227 -0.0892  0.0290
  951poe    c23 7090   7.064   1.899   4.743 -0.0283 -0.3417  0.1430
  951poe     o2 7091   7.063   1.797   4.840 -0.2764 -0.6473 -0.1736
  951poe    c31 7092   7.148   1.698   4.788  0.0711 -0.3552 -0.1682
  952poe    c31 7093   4.694   6.200   5.672 -0.0351  0.1030 -0.7089
  952poe     o2 7094   4.637   6.324   5.708  0.5058  0.1814 -0.0954
  952poe    c23 7095   4.731   6.419   5.753  0.6880 -0.1576  0.2462
  952poe    c23 7096   4.672   6.557   5.785 -0.1066 -0.5971  0.6858
  952poe     o2 7097   4.588   6.588   5.676  0.4980  0.4177  0.4975
  952poe    c23 7098   4.493   6.687   5.708 -0.1023  0.1441 -0.3951
  952poe    c23 7099   4.385   6.703   5.599  0.0308 -0.3355 -0.5984
  952poe     o2 7100   4.327   6.576   5.577  0.0227 -0.4609  0.1386
  952poe    c23 7101   4.251   6.514   5.679 -0.0917 -0.0306  0.3190
  952poe    c23 7102   4.237   6.365   5.641 -0.2936 -0.2668  1.3064
  952poe     o2 7103   4.364   6.304   5.632 -0.1820  0.1296  0.0465
  952poe    c31 7104   4.352   6.166   5.605 -0.3285  0.1723 -0.1128
  953poe    c31 7105   3.073   1.629   4.354  0.7812 -0.7633 -0.1664
  953poe     o2 7106   3.042   1.730   4.261 -0.6863 -0.8922  0.1662
  953poe    c23 7107   2.939   1.823   4.291 -0.0129 -0.1328  0.1528
  953poe    c23 7108   2.928   1.937   4.188 -0.0373 -0.4631 -0.2160
  953poe     o2 7109   3.023   2.040   4.204 -0.0443 -0.5029  0.0826
  953poe    c23 7110   2.996   2.136   4.105  0.6827 -0.0558  0.3061
  953poe    c23 7111   3.024   2.278   4.156  0.0842  0.1931 -0.0492
  953poe     o2 7112   3.145   2.286   4.229 -0.1305 -0.5603  0.3957
  953poe    c23 7113   3.171   2.418   4.269 -0.3108 -0.2872 -0.3702
  953poe    c23 7114   3.315   2.399   4.319 -0.1614  0.3901 -0.5325
  953poe     o2 7115   3.300   2.349   4.450  0.0144  0.3912 -0.5124
  953poe    c31 7116   3.343   2.423   4.562 -0.0323 -0.4356  0.0616
  954poe    c31 7117   0.553   3.133   5.368 -0.1341 -0.7488  0.6531
  954poe     o2 7118   0.539   3.047   5.258 -0.1867 -0.3252  0.3263
  954poe    c23 7119   0.406   3.008   5.231 -0.2387  0.1745 -0.1487
  954poe    c23 7120   0.396   2.874   5.155 -0.8396  0.0117  0.2076
  954poe     o2 7121   0.482   2.888   5.044 -0.6940 -0.1067  0.3062
  954poe    c23 7122   0.479   2.776   4.958  0.6074 -0.1097  0.2496
  954poe    c23 7123   0.595   2.801   4.858  0.4035 -0.1159  0.0100
  954poe     o2 7124   0.692   2.874   4.929 -0.0482  0.3672  0.1380
  954poe    c23 7125   0.771   2.951   4.842 -0.1905  0.0934 -0.2339
  954poe    c23 7126   0.717   3.095   4.853  0.0398  0.1397  0.3376
  954poe     o2 7127   0.662   3.121   4.980  0.8156  0.0825  0.6906
  954poe    c31 7128   0.624   3.255   5.002 -1.2180 -0.3113 -0.1505
  955poe    c31 7129   6.474   0.032   3.990 -1.1673 -0.2354 -0.2822
  955poe     o2 7130   6.543   0.082   4.102 -0.3020 -0.4763 -0.7043
  955poe    c23 7131   6.468   0.122   4.214  0.1915 -0.0583 -0.5175
  955poe    c23 7132   6.559   0.195   4.315 -0.8031 -0.0105  0.3638
  955poe     o2 7133   6.631   0.289   4.239 -0.1530 -0.7021  0.1145
  955poe    c23 7134   6.742   0.328   4.316 -0.1875  0.1866 -0.2801
  955poe    c23 7135   6.807   0.443   4.237  0.0665  0.0703 -0.2406
  955poe     o2 7136   6.832   0.406   4.103  0.4078  0.2049 -0.2163
  955poe    c23 7137   6.925   0.500   4.056  0.3571  0.2464 -0.2347
  955poe    c23 7138   6.877   0.561   3.923 -0.1417 -0.4087 -0.3577
  955poe     o2 7139   6.853   0.458   3.830  0.1842 -0.8528  0.0436
  955poe    c31 7140   6.800   0.508   3.709  0.2573 -0.6449  0.0975
  956poe    c31 7141   5.177   0.722   3.727 -0.1046 -0.4604 -1.0816
  956poe     o2 7142   5.084   0.647   3.801 -0.2561  0.4482 -0.3197
  956poe    c23 7143   4.964   0.630   3.729 -0.6003 -0.2570  0.4028
  956poe    c23 7144   4.869   0.547   3.817 -0.5436 -0.3759  0.3524
  956poe     o2 7145   4.896   0.578   3.952 -0.2903  0.5061  0.1078
  956poe    c23 7146   4.795   0.559   4.048 -0.0989 -0.2744  0.1614
  956poe    c23 7147   4.873   0.480   4.155  0.0075 -0.4385 -0.0359
  956poe     o2 7148   5.007   0.524   4.168 -0.1411 -0.0295  0.1279
  956poe    c23 7149   5.092   0.415   4.195 -0.2035 -0.1244 -0.0541
  956poe    c23 7150   5.238   0.435   4.151 -0.1843  0.1746  0.1416
  956poe     o2 7151   5.218   0.493   4.024 -0.0448 -0.1070 -0.0090
  956poe    c31 7152   5.340   0.496   3.952 -0.2641  0.7435 -0.3589
  957poe    c31 7153   3.112   6.533   6.525  0.0990 -1.1143  0.2009
  957poe     o2 7154   3.149   6.570   6.656 -0.0093 -0.4646  0.0504
  957poe    c23 7155   3.268   6.508   6.698  0.0488 -0.3469  0.0582
  957poe    c23 7156   3.290   6.516   6.850  0.4208  0.1967 -0.0188
  957poe     o2 7157   3.209   6.416   6.908  0.5873  0.2369  0.2848
  957poe    c23 7158   3.222   6.410   7.048 -0.1656  0.0742  0.3527
  957poe    c23 7159   3.131   6.296   7.097 -0.2190  0.1278  0.3799
  957poe     o2 7160   3.007   6.309   7.032 -0.2372 -0.1430  0.3574
  957poe    c23 7161   2.930   6.194   7.060  0.0015 -0.1292  1.1090
  957poe    c23 7162   2.815   6.190   6.957  0.5159  0.0206  0.5235
  957poe     o2 7163   2.843   6.243   6.829 -0.6006 -0.6061  0.0077
  957poe    c31 7164   2.737   6.267   6.739 -0.1543  0.4465 -0.2520
  958poe    c31 7165   2.392   6.589   2.445 -0.7810  0.6675 -0.2213
  958poe     o2 7166   2.323   6.468   2.422 -0.1352  0.1602  0.4660
  958poe    c23 7167   2.373   6.392   2.314  0.0175 -0.1785  0.7698
  958poe    c23 7168   2.300   6.259   2.291  0.2114  0.0044 -1.0883
  958poe     o2 7169   2.294   6.201   2.419  0.3378  0.3010 -0.9467
  958poe    c23 7170   2.185   6.113   2.438  0.9535 -0.1495  0.7095
  958poe    c23 7171   2.156   6.093   2.588  0.0254 -0.0816  0.5432
  958poe     o2 7172   2.147   6.225   2.637  0.9894  0.2599 -0.1696
  958poe    c23 7173   2.101   6.234   2.770 -0.5935 -0.3538 -0.6485
  958poe    c23 7174   2.081   6.385   2.795  0.2267 -0.3654  0.1165
  958poe     o2 7175   2.177   6.449   2.715 -0.4806  0.5904  0.0209
  958poe    c31 7176   2.176   6.590   2.727 -0.0189  0.6410 -0.4743
  959poe    c31 7177   4.374   3.103   3.378  0.3700  0.0920  0.0160
  959poe     o2 7178   4.387   3.052   3.247  0.0109 -0.4959  0.2009
  959poe    c23 7179   4.518   3.007   3.222  0.0221 -0.2083 -0.2808
  959poe    c23 7180   4.524   2.938   3.085 -0.0734  0.0598 -0.4182
  959poe     o2 7181   4.446   3.022   3.002 -0.1057  0.0099 -0.4384
  959poe    c23 7182   4.423   2.955   2.880 -0.1478 -0.3950 -0.2084
  959poe    c23 7183   4.352   3.058   2.791 -0.0493 -0.0931  0.0573
  959poe     o2 7184   4.225   3.073   2.850  0.3147  0.0740  0.8085
  959poe    c23 7185   4.146   3.157   2.768  0.0642 -0.4243  0.5323
  959poe    c23 7186   3.998   3.173   2.806  0.1543 -1.1470  1.2209
  959poe     o2 7187   3.967   3.228   2.933  0.1408 -0.4150  0.9086
  959poe    c31 7188   3.830   3.260   2.942  0.1532 -0.1020  0.1051
  960poe    c31 7189   2.477   2.893   2.932 -0.2682 -0.3576  0.1369
  960poe     o2 7190   2.480   2.762   2.984  0.2609 -0.3030  0.2488
  960poe    c23 7191   2.458   2.767   3.123 -0.7711 -0.6989  0.1153
  960poe    c23 7192   2.382   2.640   3.164 -0.6193 -0.6394  0.5934
  960poe     o2 7193   2.458   2.528   3.125 -0.0333 -0.0636  0.0589
  960poe    c23 7194   2.397   2.411   3.173 -0.0065 -0.1802 -0.1906
  960poe    c23 7195   2.504   2.300   3.171 -0.3177 -0.4794 -0.4604
  960poe     o2 7196   2.612   2.345   3.093 -0.1261  0.4904  0.3401
  960poe    c23 7197   2.718   2.252   3.105 -0.7098 -0.2292 -0.0028
  960poe    c23 7198   2.827   2.266   2.998 -0.8731  0.1643 -0.1194
  960poe     o2 7199   2.913   2.377   2.983 -0.1512 -0.2690  0.6689
  960poe    c31 7200   2.973   2.379   2.856  0.5831  0.2488  1.0196
  961poe    c31 7201   5.952   4.793   1.344 -0.2091 -0.4356  0.0563
  961poe     o2 7202   5.966   4.724   1.466 -0.2958 -0.5181  0.0198
  961poe    c23 7203   6.068   4.768   1.553 -0.2740 -0.4773 -0.0260
  961poe    c23 7204   6.022   4.885   1.642 -0.7146 -0.0468 -0.8160
  961poe     o2 7205   5.928   4.839   1.735 -0.3927  0.3783 -0.2769
  961poe    c23 7206   5.841   4.941   1.780 -0.1574  0.2401  0.5168
  961poe    c23 7207   5.723   4.911   1.874 -0.0482 -0.1122  0.5421
  961poe     o2 7208   5.697   4.775   1.848 -0.2967  0.1500 -0.6079
  961poe    c23 7209   5.622   4.705   1.945  0.2444  0.3269 -0.0594
  961poe    c23 7210   5.584   4.565   1.893  0.4549  0.0156  0.6163
  961poe     o2 7211   5.695   4.511   1.825  0.3899  0.0685  0.4684
  961poe    c31 7212   5.672   4.377   1.789  0.9349  0.1149 -0.0620
  962poe    c31 7213   3.872   6.800   3.096  0.2196  0.3582 -0.0875
  962poe     o2 7214   3.742   6.848   3.069 -0.0963 -0.5111 -0.1419
  962poe    c23 7215   3.754   6.969   2.997 -0.2090 -0.2605  0.2562
  962poe    c23 7216   3.611   7.025   2.995 -0.1563 -0.1362 -0.2212
  962poe     o2 7217   3.510   6.934   2.956  0.2270 -0.4570 -0.4788
  962poe    c23 7218   3.382   6.991   2.936  0.1166 -0.6621 -0.3649
  962poe    c23 7219   3.296   6.877   2.880 -0.3898 -0.4341 -0.0518
  962poe     o2 7220   3.349   6.754   2.925 -0.1993 -0.4161 -0.2275
  962poe    c23 7221   3.265   6.651   2.878  0.1171 -0.6427 -0.2971
  962poe    c23 7222   3.279   6.511   2.941  0.3982 -0.1743  0.7030
  962poe     o2 7223   3.382   6.436   2.882  0.2440 -0.1151  0.3564
  962poe    c31 7224   3.331   6.365   2.771 -0.0706  0.1823  0.3080
  963poe    c31 7225   0.641   2.250   2.168 -0.0954  0.1560 -0.0768
  963poe     o2 7226   0.574   2.263   2.045  0.3770  0.4764 -0.3024
  963poe    c23 7227   0.511   2.389   2.057  0.2729  0.3904  0.0578
  963poe    c23 7228   0.489   2.438   1.913 -0.0343 -0.3516 -0.1517
  963poe     o2 7229   0.453   2.331   1.829 -0.3138 -0.4137  0.0448
  963poe    c23 7230   0.503   2.343   1.698  0.3907  0.3356  0.3778
  963poe    c23 7231   0.486   2.202   1.638 -0.1067  0.4093  0.3451
  963poe     o2 7232   0.523   2.111   1.740 -0.5704 -0.1346  0.0366
  963poe    c23 7233   0.498   1.974   1.717  0.5666 -0.2730 -0.4995
  963poe    c23 7234   0.538   1.899   1.845  0.2174  0.2918 -0.0546
  963poe     o2 7235   0.497   1.978   1.955  0.6692  0.1855  0.1930
  963poe    c31 7236   0.550   1.913   2.069  0.0262 -0.4406  0.1424
  964poe    c31 7237   2.811   1.227   4.539 -0.8799  0.2891 -0.0666
  964poe     o2 7238   2.714   1.257   4.637 -0.8166 -0.2318  0.1599
  964poe    c23 7239   2.589   1.197   4.613 -0.8090 -0.0573 -0.3241
  964poe    c23 7240   2.491   1.289   4.688 -0.9641 -0.2723 -0.2611
  964poe     o2 7241   2.512   1.301   4.827 -0.4534 -0.4320 -0.3212
  964poe    c23 7242   2.436   1.406   4.882 -0.2758 -0.4229 -0.0892
  964poe    c23 7243   2.450   1.397   5.035  0.0639 -0.5914 -0.1300
  964poe     o2 7244   2.588   1.381   5.058  0.0366 -0.5287  0.0745
  964poe    c23 7245   2.620   1.372   5.196 -0.1551 -0.7511  0.1049
  964poe    c23 7246   2.773   1.366   5.214  0.0492  0.7693 -0.8648
  964poe     o2 7247   2.816   1.266   5.124 -0.1468 -0.0371 -0.0714
  964poe    c31 7248   2.955   1.246   5.130 -0.0709  0.4651 -0.1787
  965poe    c31 7249   0.524   5.853   0.325 -0.6873  0.0195  0.4443
  965poe     o2 7250   0.486   5.769   0.218  0.4462 -0.3835  0.3418
  965poe    c23 7251   0.505   5.633   0.250  0.9188 -0.4787 -0.3205
  965poe    c23 7252   0.421   5.565   0.140  0.5380  0.2687 -0.4960
  965poe     o2 7253   0.436   5.624   0.013  0.4771 -0.5080 -0.8656
  965poe    c23 7254   0.363   5.569  -0.095  0.2028 -0.7830 -0.5443
  965poe    c23 7255   0.393   5.624  -0.235 -0.1336  0.1911 -0.2454
  965poe     o2 7256   0.404   5.764  -0.215 -0.1693  0.1752 -0.1145
  965poe    c23 7257   0.425   5.816  -0.344  0.8065  0.1799  0.0365
  965poe    c23 7258   0.429   5.970  -0.354  0.2060  0.1897 -0.1236
  965poe     o2 7259   0.509   6.041  -0.262  0.0160  0.1533  0.0716
  965poe    c31 7260   0.492   6.180  -0.284 -0.4946 -0.0078 -0.5658
  966poe    c31 7261   4.006   2.204   5.618  0.0681  0.8007 -0.0035
  966poe     o2 7262   3.923   2.169   5.726  0.4259  0.2852  0.1069
  966poe    c23 7263   3.867   2.281   5.791 -0.4077  0.1959 -0.4375
  966poe    c23 7264   3.779   2.241   5.912 -0.4419  0.1323 -0.4840
  966poe     o2 7265   3.659   2.175   5.878 -0.6864  0.3308 -0.0150
  966poe    c23 7266   3.576   2.160   5.990 -0.7057  0.1019 -0.0604
  966poe    c23 7267   3.438   2.107   5.946 -0.5848 -0.2359 -0.0403
  966poe     o2 7268   3.463   1.980   5.892 -0.0872 -0.0742 -0.1954
  966poe    c23 7269   3.345   1.910   5.858 -0.1420 -0.6028  1.0449
  966poe    c23 7270   3.389   1.774   5.801  0.2478  0.0828 -0.3270
  966poe     o2 7271   3.498   1.789   5.713  0.2318 -0.1163 -0.3793
  966poe    c31 7272   3.475   1.755   5.578  0.5087  0.0759 -0.4755
  967poe    c31 7273   2.216   3.893   3.325  0.2525  0.6945  0.5984
  967poe     o2 7274   2.147   3.965   3.226  0.4521  0.3067  0.1769
  967poe    c23 7275   2.042   4.044   3.277  0.0317  0.0000 -0.2093
  967poe    c23 7276   2.061   4.164   3.183 -0.6850  0.7496  0.5792
  967poe     o2 7277   2.042   4.116   3.052 -0.3242  0.9059  0.4670
  967poe    c23 7278   2.068   4.222   2.963 -0.0868  0.1534 -0.3785
  967poe    c23 7279   2.056   4.165   2.820  0.0817  0.4074 -0.4945
  967poe     o2 7280   2.133   4.048   2.808 -0.1248  0.2472 -0.2785
  967poe    c23 7281   2.142   4.017   2.671 -0.0097 -0.3449 -0.1421
  967poe    c23 7282   2.207   3.880   2.644  0.1300 -0.3603  0.2671
  967poe     o2 7283   2.102   3.796   2.685 -0.6230  0.2214 -0.4233
  967poe    c31 7284   2.146   3.662   2.673 -1.1135  0.0017  0.1581
  968poe    c31 7285   4.056   4.863   1.094  0.4004 -0.0539 -0.2536
  968poe     o2 7286   4.081   4.963   1.190 -0.1576 -0.4978  0.3632
  968poe    c23 7287   3.982   4.959   1.290 -0.1174  0.0683  0.4321
  968poe    c23 7288   3.992   5.079   1.385 -0.0308  0.4254 -0.0237
  968poe     o2 7289   4.127   5.107   1.414  0.0798 -0.1772  0.0503
  968poe    c23 7290   4.145   5.230   1.480  0.0979 -0.5225  0.7008
  968poe    c23 7291   4.296   5.234   1.509  0.2814 -0.0142 -0.2614
  968poe     o2 7292   4.354   5.235   1.381 -0.1635 -0.2820 -0.4657
  968poe    c23 7293   4.488   5.269   1.406 -0.2609  0.2623 -0.6635
  968poe    c23 7294   4.544   5.339   1.281  0.0083  0.4515 -0.4376
  968poe     o2 7295   4.544   5.245   1.177  0.8846 -0.4622  0.3719
  968poe    c31 7296   4.596   5.303   1.059 -0.1123  0.2912  0.2998
  969poe    c31 7297   1.308   3.207   1.286 -0.2456 -0.2027  0.0417
  969poe     o2 7298   1.290   3.235   1.149 -0.3048  0.2485  0.1402
  969poe    c23 7299   1.318   3.372   1.140 -0.8139  0.3713  0.3995
  969poe    c23 7300   1.265   3.421   1.004 -0.2578  0.2364  0.1314
  969poe     o2 7301   1.297   3.318   0.912 -0.5982 -0.3680  0.6800
  969poe    c23 7302   1.217   3.328   0.797 -0.0684 -0.1056  0.3281
  969poe    c23 7303   1.108   3.219   0.796 -0.3107  0.1323 -0.6488
  969poe     o2 7304   1.175   3.105   0.846 -0.2537  0.4549  0.0305
  969poe    c23 7305   1.080   3.002   0.860  0.5525 -0.3360 -0.2179
  969poe    c23 7306   1.124   2.905   0.971 -0.2296 -0.2828  0.1486
  969poe     o2 7307   1.180   2.958   1.090 -0.2922 -0.0899  0.0934
  969poe    c31 7308   1.203   2.855   1.184  0.7917  0.3912  0.3622
  970poe    c31 7309   0.385   2.212   2.521 -0.3850 -0.1362  0.0010
  970poe     o2 7310   0.269   2.280   2.480 -0.6689 -0.2818  0.5565
  970poe    c23 7311   0.277   2.418   2.510 -0.5040 -0.2227  0.2415
  970poe    c23 7312   0.168   2.486   2.426 -0.1122 -0.1360 -0.2055
  970poe     o2 7313   0.054   2.405   2.445 -0.1933  0.0209 -0.0128
  970poe    c23 7314  -0.065   2.481   2.441 -0.1829  0.0413  0.0599
  970poe    c23 7315  -0.160   2.385   2.367  0.0742 -0.1158 -0.0679
  970poe     o2 7316  -0.152   2.268   2.444 -0.9566 -0.0410  0.1645
  970poe    c23 7317  -0.170   2.156   2.361  1.1374  0.0617 -0.4795
  970poe    c23 7318  -0.094   2.040   2.427  0.1596  0.3123  1.1221
  970poe     o2 7319   0.045   2.060   2.441  0.2290  0.5542  0.1796
  970poe    c31 7320   0.101   1.932   2.462 -0.4466  0.2617  0.2158
  971poe    c31 7321   4.176   4.910   1.790 -0.2110 -0.1593  0.3318
  971poe     o2 7322   4.051   4.940   1.849 -0.1398  0.8348  0.0021
  971poe    c23 7323   4.057   4.878   1.976 -0.1005  0.3765 -0.2188
  971poe    c23 7324   3.931   4.869   2.064 -0.1021  0.2791 -0.2322
  971poe     o2 7325   3.905   4.990   2.130  0.0270  0.2451 -0.1187
  971poe    c23 7326   3.832   5.085   2.055 -0.7062  0.0849  0.3821
  971poe    c23 7327   3.870   5.217   2.124 -0.5251  0.2166  0.0336
  971poe     o2 7328   3.814   5.209   2.253  0.2283 -0.2553  0.3391
  971poe    c23 7329   3.861   5.312   2.337  0.1473 -0.1514  0.2568
  971poe    c23 7330   3.838   5.271   2.484 -0.4881 -0.6897  0.0135
  971poe     o2 7331   3.880   5.139   2.510  0.6750 -0.2891  0.2526
  971poe    c31 7332   3.864   5.115   2.649 -0.4894  0.5522  0.2792
  972poe    c31 7333   0.699   3.741   3.145 -0.4108 -0.7469  1.4638
  972poe     o2 7334   0.617   3.701   3.037  0.0099  0.2383  0.7546
  972poe    c23 7335   0.486   3.738   3.075 -0.5454  0.0896 -0.9400
  972poe    c23 7336   0.387   3.655   2.992 -0.2409 -0.7364 -0.4974
  972poe     o2 7337   0.426   3.525   3.029 -0.3865 -0.5358  0.3801
  972poe    c23 7338   0.357   3.429   2.952  0.3254 -0.5885 -0.2014
  972poe    c23 7339   0.451   3.334   2.876  0.5637 -0.7216  0.2535
  972poe     o2 7340   0.551   3.423   2.833 -0.4957  0.0474 -0.6928
  972poe    c23 7341   0.664   3.356   2.781  0.2506  0.4267  0.4133
  972poe    c23 7342   0.762   3.467   2.740 -0.5563  0.7217 -0.7551
  972poe     o2 7343   0.769   3.561   2.845  0.1153  0.2778 -0.3927
  972poe    c31 7344   0.836   3.674   2.796  0.0229  0.2794 -0.5174
  973poe    c31 7345   1.364   3.624   3.477  0.0970 -0.2439  0.5172
  973poe     o2 7346   1.361   3.484   3.463  0.3298 -0.1517 -0.5486
  973poe    c23 7347   1.228   3.440   3.483  0.2534  0.3018 -0.0482
  973poe    c23 7348   1.245   3.289   3.509  0.5223  0.3400  0.0085
  973poe     o2 7349   1.356   3.274   3.594  0.2294 -0.4052  0.2687
  973poe    c23 7350   1.384   3.149   3.653 -0.0658 -0.2438  0.7531
  973poe    c23 7351   1.478   3.072   3.559 -0.1512  0.2188  0.2875
  973poe     o2 7352   1.566   3.176   3.523 -0.4079  0.1501 -0.5756
  973poe    c23 7353   1.645   3.138   3.413 -0.0267 -0.3520 -0.1353
  973poe    c23 7354   1.707   3.267   3.356  0.7458 -0.5228  0.3185
  973poe     o2 7355   1.617   3.372   3.382  0.6977 -0.2472 -0.9146
  973poe    c31 7356   1.630   3.479   3.291 -0.1335  0.4872 -0.1861
  974poe    c31 7357   6.007   1.677   6.646  0.1764 -0.1106  0.2905
  974poe     o2 7358   5.868   1.676   6.623  0.2717  0.6037 -0.3636
  974poe    c23 7359   5.837   1.776   6.528 -0.1117  0.5730 -0.2715
  974poe    c23 7360   5.707   1.756   6.448  0.1314 -0.0845 -0.5085
  974poe     o2 7361   5.607   1.761   6.548  0.4458 -0.4972 -0.1662
  974poe    c23 7362   5.481   1.713   6.507  0.2046 -0.5668  0.6424
  974poe    c23 7363   5.380   1.773   6.606  0.0795 -0.5617  0.5121
  974poe     o2 7364   5.398   1.733   6.739 -0.2224 -0.8486  0.4684
  974poe    c23 7365   5.282   1.758   6.815 -0.5349  0.0639 -0.3015
  974poe    c23 7366   5.327   1.723   6.958 -0.4022  0.6133 -0.2043
  974poe     o2 7367   5.457   1.774   6.974  0.0664 -0.5836 -0.0534
  974poe    c31 7368   5.484   1.779   7.112 -0.4457 -0.2755  0.0356
  975poe    c31 7369   1.242   1.638   6.866  0.1710  0.9164  0.1218
  975poe     o2 7370   1.112   1.591   6.839  0.5765 -0.1764  0.0381
  975poe    c23 7371   1.096   1.565   6.701 -0.1885  0.9189 -0.0917
  975poe    c23 7372   0.954   1.513   6.674 -0.2422  0.6195  0.7149
  975poe     o2 7373   0.927   1.404   6.759  0.3992 -0.1423 -0.0391
  975poe    c23 7374   0.834   1.308   6.714  0.1181 -0.0025  0.2431
  975poe    c23 7375   0.790   1.227   6.838 -0.3828  0.0344  0.0924
  975poe     o2 7376   0.742   1.317   6.936 -0.0445  0.4428 -0.1113
  975poe    c23 7377   0.707   1.245   7.053 -0.4928  0.6206 -0.1338
  975poe    c23 7378   0.647   1.355   7.142 -0.2929 -0.1248  0.9346
  975poe     o2 7379   0.711   1.479   7.120 -0.2549 -0.2025  0.6122
  975poe    c31 7380   0.697   1.572   7.224 -0.6385  0.1846  0.2191
  976poe    c31 7381   4.242   2.679   5.883  0.5661  0.8401 -0.4021
  976poe     o2 7382   4.289   2.702   5.752  0.2045 -0.1398 -0.7162
  976poe    c23 7383   4.429   2.686   5.748  0.3363  0.6161  0.4244
  976poe    c23 7384   4.467   2.677   5.599 -0.1355  0.0027  0.3353
  976poe     o2 7385   4.412   2.799   5.554  0.0630 -0.1186 -0.2509
  976poe    c23 7386   4.449   2.839   5.424  0.2445  0.4021 -0.0399
  976poe    c23 7387   4.356   2.961   5.402  0.0697  0.2558 -0.1127
  976poe     o2 7388   4.228   2.915   5.441  0.3695  0.0841  0.7011
  976poe    c23 7389   4.153   2.840   5.348  0.5700  0.4347  0.2501
  976poe    c23 7390   4.044   2.762   5.424  0.3124  0.1766 -0.3790
  976poe     o2 7391   4.097   2.715   5.546  0.5711 -0.5125 -0.7518
  976poe    c31 7392   4.009   2.627   5.614  0.0047  0.4099 -0.2790
  977poe    c31 7393   2.869   0.510   2.175  0.7878 -0.3287 -0.4361
  977poe     o2 7394   2.956   0.454   2.272  0.5413  0.3718  0.2034
  977poe    c23 7395   2.963   0.313   2.265 -0.1541  0.3324  0.1929
  977poe    c23 7396   3.035   0.266   2.393 -0.0108  0.0695  0.0144
  977poe     o2 7397   3.144   0.353   2.413 -0.0761  0.2202 -0.2781
  977poe    c23 7398   3.229   0.309   2.517 -0.4162 -0.4213 -0.2684
  977poe    c23 7399   3.188   0.384   2.645 -0.0347 -0.4237 -0.1442
  977poe     o2 7400   3.203   0.512   2.588  0.0321 -0.3300  0.0863
  977poe    c23 7401   3.157   0.606   2.683 -0.5654 -0.0491 -0.4783
  977poe    c23 7402   3.099   0.727   2.607 -0.5582  0.3802  0.1919
  977poe     o2 7403   3.052   0.677   2.484 -0.1726 -0.2023  0.2784
  977poe    c31 7404   2.986   0.779   2.413  0.8994  0.3978  0.1164
  978poe    c31 7405   5.203   5.990   2.585 -0.3411 -0.1785 -0.3311
  978poe     o2 7406   5.155   6.088   2.496 -0.1049 -0.0312 -0.2943
  978poe    c23 7407   5.265   6.176   2.487  0.4105 -0.5334  0.8196
  978poe    c23 7408   5.244   6.249   2.353  0.1315 -0.1131  1.0885
  978poe     o2 7409   5.104   6.259   2.340  0.2431  0.3431  0.1060
  978poe    c23 7410   5.061   6.329   2.226 -0.3135 -0.2761 -0.0661
  978poe    c23 7411   4.910   6.359   2.233 -0.1969  0.1962  0.4688
  978poe     o2 7412   4.849   6.258   2.311  0.2624 -0.4034  0.0649
  978poe    c23 7413   4.769   6.310   2.416  0.2656 -0.1492 -0.0568
  978poe    c23 7414   4.762   6.202   2.525  0.0727  0.0666  0.1445
  978poe     o2 7415   4.895   6.161   2.552  0.1187  0.0879 -0.0435
  978poe    c31 7416   4.919   6.135   2.689  0.2220  0.3913 -0.0041
  979poe    c31 7417   1.743   6.473   1.091 -0.4372  0.1447  0.2670
  979poe     o2 7418   1.724   6.343   1.039 -0.0962  0.1366  0.1661
  979poe    c23 7419   1.779   6.237   1.114  0.3973  0.1184 -0.2134
  979poe    c23 7420   1.926   6.190   1.106  0.3303 -0.1136 -0.0889
  979poe     o2 7421   1.952   6.132   0.980  0.1139 -0.0035 -0.1860
  979poe    c23 7422   2.089   6.100   0.973  0.1722  0.1414  0.2333
  979poe    c23 7423   2.109   6.036   0.834 -0.0279  0.1982  0.1774
  979poe     o2 7424   2.036   6.109   0.739 -0.2188  0.1546  0.2895
  979poe    c23 7425   2.089   6.103   0.608 -0.3619 -0.3003  0.2517
  979poe    c23 7426   1.988   6.145   0.499  0.2801  0.3202 -0.1092
  979poe     o2 7427   1.952   6.280   0.518  0.4389  0.3991 -0.3632
  979poe    c31 7428   1.885   6.338   0.408 -0.5737 -0.5164 -0.2482
  980poe    c31 7429   4.038   1.667   1.279  0.1899  0.0195  0.2023
  980poe     o2 7430   4.010   1.605   1.403 -0.2519  0.2270  0.2097
  980poe    c23 7431   4.081   1.669   1.506  0.3701  0.5104 -0.3822
  980poe    c23 7432   4.028   1.618   1.642  0.4959 -0.2235 -0.6078
  980poe     o2 7433   4.036   1.483   1.682  0.2598 -0.2209 -0.5467
  980poe    c23 7434   4.023   1.461   1.820 -0.1786  0.0516 -0.5430
  980poe    c23 7435   3.949   1.328   1.843 -0.2737  0.0921 -0.6146
  980poe     o2 7436   4.020   1.234   1.766  0.6263  0.1710  0.0966
  980poe    c23 7437   3.921   1.143   1.721  0.4381  0.4139  0.0169
  980poe    c23 7438   3.985   1.037   1.630 -0.0907 -0.0494  0.1821
  980poe     o2 7439   4.050   1.096   1.519 -0.0094 -0.1952  0.1521
  980poe    c31 7440   4.085   1.001   1.421  0.2647 -0.4545  0.4956
  981poe    c31 7441   5.141   1.986   4.446  0.2579 -0.0042 -0.4048
  981poe     o2 7442   5.026   1.905   4.447 -0.1399  0.5601 -0.1618
  981poe    c23 7443   4.991   1.876   4.581 -0.3843 -0.0443 -0.3520
  981poe    c23 7444   4.865   1.788   4.590 -0.1788 -0.3052 -0.0098
  981poe     o2 7445   4.869   1.707   4.475 -0.0391  0.2361 -0.3912
  981poe    c23 7446   4.774   1.602   4.478 -0.2505  0.4312 -0.2068
  981poe    c23 7447   4.766   1.525   4.344  0.2929  0.3497 -0.1973
  981poe     o2 7448   4.894   1.525   4.287  0.2650  0.2638 -0.2587
  981poe    c23 7449   4.890   1.460   4.162  0.0346  0.1866 -0.2107
  981poe    c23 7450   5.028   1.435   4.099 -0.0596 -0.2451 -0.2474
  981poe     o2 7451   5.114   1.547   4.088  0.0068 -0.2725 -0.0150
  981poe    c31 7452   5.241   1.507   4.043  0.2379 -0.0461  0.4350
  982poe    c31 7453   6.439   3.519   6.087  0.1325  0.1292  0.3927
  982poe     o2 7454   6.492   3.393   6.053 -0.9183 -0.2964  0.2858
  982poe    c23 7455   6.566   3.348   6.165 -0.9910 -0.4142  0.2872
  982poe    c23 7456   6.586   3.196   6.156 -0.5644 -0.3384 -0.1032
  982poe     o2 7457   6.625   3.176   6.022  0.0409 -0.4532  0.0860
  982poe    c23 7458   6.664   3.042   6.002  0.5086 -0.3244  0.1210
  982poe    c23 7459   6.740   3.050   5.868 -0.0461  0.7025 -0.1450
  982poe     o2 7460   6.665   3.140   5.789 -0.3033  0.5335 -0.0970
  982poe    c23 7461   6.755   3.215   5.711 -0.0489  0.1045 -0.2241
  982poe    c23 7462   6.672   3.326   5.644  0.3102  0.3100 -0.3313
  982poe     o2 7463   6.604   3.378   5.755  0.1414 -0.4646 -0.0672
  982poe    c31 7464   6.542   3.498   5.714  0.1260 -0.3852  0.1849
  983poe    c31 7465   3.082   1.987   1.809  0.1623  0.3606  0.3511
  983poe     o2 7466   3.212   2.039   1.792  0.2416  0.0482 -0.0207
  983poe    c23 7467   3.233   2.072   1.657  0.3277  0.8145  0.1781
  983poe    c23 7468   3.360   2.022   1.587  0.0437  0.1932  0.1008
  983poe     o2 7469   3.453   2.050   1.690 -0.3082  0.1497  0.4343
  983poe    c23 7470   3.581   1.997   1.661 -0.4180  0.2325 -0.2132
  983poe    c23 7471   3.589   1.890   1.772 -0.6717  0.4560  0.0219
  983poe     o2 7472   3.539   1.951   1.888 -0.7630  0.0673  0.1893
  983poe    c23 7473   3.537   1.865   1.999  0.0439 -0.3552 -0.1152
  983poe    c23 7474   3.444   1.925   2.107  0.0754 -0.1979 -0.1769
  983poe     o2 7475   3.331   1.976   2.040  0.3229  0.5002 -0.0697
  983poe    c31 7476   3.253   2.046   2.135  0.4493  0.4713  0.0565
  984poe    c31 7477   1.483   2.781   6.070  0.0006 -0.5355 -0.2892
  984poe     o2 7478   1.571   2.682   6.118  0.1464  0.1182  0.8173
  984poe    c23 7479   1.505   2.557   6.123  0.8106 -0.2638  0.1671
  984poe    c23 7480   1.597   2.439   6.158  0.1918 -0.7478  0.1725
  984poe     o2 7481   1.680   2.472   6.267 -0.1386  0.3888  0.0855
  984poe    c23 7482   1.775   2.371   6.293 -0.2662  0.4141  0.6546
  984poe    c23 7483   1.868   2.399   6.412  1.0861 -0.2647 -0.2226
  984poe     o2 7484   1.956   2.509   6.403  0.3774  0.3098 -0.2405
  984poe    c23 7485   1.990   2.538   6.537 -0.4196  0.5774 -0.0928
  984poe    c23 7486   2.059   2.675   6.532  0.1372  0.3383  0.8547
  984poe     o2 7487   1.954   2.766   6.507 -0.0312 -0.1363 -0.1975
  984poe    c31 7488   2.019   2.891   6.514  0.2453 -0.3071  0.3305
  985poe    c31 7489   6.200   0.739   2.112  0.1291 -0.2039  0.3103
  985poe     o2 7490   6.118   0.624   2.103 -0.1384  0.0404 -0.4630
  985poe    c23 7491   5.982   0.659   2.093 -0.1856 -0.0046  0.0147
  985poe    c23 7492   5.897   0.532   2.115  0.8791 -0.6928  0.2233
  985poe     o2 7493   5.916   0.444   2.007  0.1043 -0.3749 -0.1794
  985poe    c23 7494   5.888   0.310   2.043 -0.6907  0.0259  0.7410
  985poe    c23 7495   5.868   0.223   1.917  0.2870  0.2426  0.4310
  985poe     o2 7496   5.986   0.231   1.840  0.6309 -0.7248  0.8372
  985poe    c23 7497   6.027   0.105   1.792 -0.4209 -0.7636 -0.0127
  985poe    c23 7498   6.141   0.132   1.692 -0.2117  0.1323  0.4519
  985poe     o2 7499   6.207   0.246   1.740 -0.2004  0.3640 -0.1089
  985poe    c31 7500   6.334   0.211   1.690 -0.0252  0.2937  0.3816
  986poe    c31 7501   4.298   3.283   1.281 -0.0654  0.3011  0.3166
  986poe     o2 7502   4.286   3.227   1.410 -0.3136 -0.4963 -0.0441
  986poe    c23 7503   4.161   3.269   1.460  0.0108 -0.0761  0.4323
  986poe    c23 7504   4.137   3.170   1.575 -0.7007 -0.3030  0.0953
  986poe     o2 7505   4.251   3.171   1.657 -0.5871  0.1145 -0.0649
  986poe    c23 7506   4.242   3.264   1.762 -0.1588  0.1371 -0.0454
  986poe    c23 7507   4.391   3.279   1.801 -0.1550 -0.4984  0.1928
  986poe     o2 7508   4.474   3.271   1.688 -0.3765 -0.5158  0.0292
  986poe    c23 7509   4.601   3.333   1.691 -1.2364  1.3260 -0.0957
  986poe    c23 7510   4.642   3.339   1.543  0.4801  0.2179  0.3099
  986poe     o2 7511   4.592   3.221   1.485  0.4182  0.3794  0.0331
  986poe    c31 7512   4.652   3.175   1.366 -0.3456 -0.3050 -0.1007
  987poe    c31 7513   0.221   4.758   1.624 -0.2056  0.4030 -0.2662
  987poe     o2 7514   0.125   4.677   1.560 -0.1855  0.3822 -0.2699
  987poe    c23 7515   0.017   4.655   1.647  0.0585 -0.3207 -0.1430
  987poe    c23 7516  -0.084   4.569   1.570 -0.6476 -0.0904  0.5198
  987poe     o2 7517  -0.021   4.461   1.505 -0.0789  0.1905  0.5992
  987poe    c23 7518  -0.102   4.357   1.454  0.4338 -0.0175  0.2015
  987poe    c23 7519  -0.020   4.319   1.329  0.2412 -0.1474  0.1137
  987poe     o2 7520   0.107   4.285   1.379  0.2765 -0.2523 -0.0484
  987poe    c23 7521   0.176   4.188   1.303  0.1684 -0.0303 -0.4322
  987poe    c23 7522   0.289   4.118   1.380 -0.2173  0.1030  0.2589
  987poe     o2 7523   0.387   4.213   1.418 -0.0885  0.2358 -0.3986
  987poe    c31 7524   0.514   4.151   1.422 -0.2457 -0.1214 -0.8358
  988poe    c31 7525   1.536   6.216   0.561 -0.2477  0.2016  0.1042
  988poe     o2 7526   1.496   6.213   0.697  0.9292 -0.0890  0.4518
  988poe    c23 7527   1.456   6.345   0.729 -0.0308 -0.2505 -0.0568
  988poe    c23 7528   1.433   6.336   0.881  0.0793  0.3701 -0.0002
  988poe     o2 7529   1.385   6.205   0.905  0.4738  0.1874 -0.1925
  988poe    c23 7530   1.450   6.155   1.020 -0.3350 -0.2633  0.0788
  988poe    c23 7531   1.422   6.005   1.033  0.3164 -0.3612  0.4101
  988poe     o2 7532   1.408   5.956   0.901 -0.2048 -0.0417  0.3439
  988poe    c23 7533   1.359   5.825   0.880 -0.2920  0.0517 -0.0470
  988poe    c23 7534   1.388   5.800   0.731  0.4977  0.3204  0.0588
  988poe     o2 7535   1.341   5.915   0.665 -0.1170 -0.0801 -0.2109
  988poe    c31 7536   1.308   5.897   0.529 -0.4529 -0.2169 -0.1107
  989poe    c31 7537   1.553   3.060   2.714  0.2084  0.5016 -0.8497
  989poe     o2 7538   1.445   3.012   2.790  0.8006 -0.2297 -0.4553
  989poe    c23 7539   1.389   2.899   2.725  0.0734 -0.0350 -0.1764
  989poe    c23 7540   1.277   2.837   2.811  0.2990  0.1586  0.2627
  989poe     o2 7541   1.197   2.949   2.839 -0.0845 -0.1650  0.4596
  989poe    c23 7542   1.071   2.932   2.901 -0.5810 -0.2982 -0.5655
  989poe    c23 7543   1.019   3.076   2.916  0.0061 -0.0729 -0.6512
  989poe     o2 7544   1.137   3.147   2.943  0.1568 -0.3782 -0.5009
  989poe    c23 7545   1.127   3.287   2.953 -0.4620 -0.4755  0.4008
  989poe    c23 7546   1.262   3.346   2.997 -0.4753  0.2121 -0.4333
  989poe     o2 7547   1.354   3.277   2.916 -0.1872  0.1375 -0.0458
  989poe    c31 7548   1.484   3.332   2.923 -0.1712 -0.0104  0.9402
  990poe    c31 7549   3.756   4.669   6.867  0.0816 -0.1026 -0.2978
  990poe     o2 7550   3.882   4.716   6.826  0.1604  0.2897  0.3695
  990poe    c23 7551   3.859   4.806   6.720 -0.2058  0.0409  0.2358
  990poe    c23 7552   3.952   4.771   6.602 -0.2465 -0.0824  0.2404
  990poe     o2 7553   4.087   4.804   6.623 -0.3584  0.6175 -0.1060
  990poe    c23 7554   4.137   4.877   6.513  0.0575  0.3638 -0.0887
  990poe    c23 7555   4.283   4.921   6.536  0.2655 -0.1025 -0.4909
  990poe     o2 7556   4.282   5.011   6.645 -0.2430 -0.2935 -0.3319
  990poe    c23 7557   4.413   5.015   6.698 -0.2758  0.1624 -0.2844
  990poe    c23 7558   4.426   5.033   6.851  0.5493 -0.2376 -0.3032
  990poe     o2 7559   4.366   4.922   6.915  0.0927  0.1211 -0.1027
  990poe    c31 7560   4.365   4.915   7.056  0.6823  0.3755 -0.0824
  991poe    c31 7561   2.549   3.281   6.466 -0.6189  0.0788 -0.0094
  991poe     o2 7562   2.561   3.141   6.459  0.1918  0.1577 -0.2926
  991poe    c23 7563   2.553   3.069   6.580 -0.2277 -0.0675 -0.4546
  991poe    c23 7564   2.569   2.919   6.548 -0.0832 -0.0018 -0.6958
  991poe     o2 7565   2.682   2.889   6.469  0.0270  0.0886 -0.5740
  991poe    c23 7566   2.672   2.759   6.415 -0.6810 -0.1173  0.0331
  991poe    c23 7567   2.816   2.711   6.386 -0.7015  0.0367 -0.3225
  991poe     o2 7568   2.886   2.815   6.320  0.1530 -0.0802  0.3874
  991poe    c23 7569   3.007   2.784   6.256 -0.3380  0.1401 -0.6686
  991poe    c23 7570   3.055   2.916   6.194 -0.2465  0.1078 -0.6680
  991poe     o2 7571   3.011   3.026   6.270  0.2056 -0.0611 -0.1555
  991poe    c31 7572   3.046   3.146   6.204 -0.7573  0.1394 -0.3257
  992poe    c31 7573   1.382   1.355   1.417  0.0894  0.7106  0.0804
  992poe     o2 7574   1.326   1.460   1.342 -0.1433  0.4537 -0.1088
  992poe    c23 7575   1.222   1.528   1.409 -0.6426 -0.3107 -0.1086
  992poe    c23 7576   1.239   1.674   1.366 -0.1005 -0.3559 -0.0566
  992poe     o2 7577   1.257   1.684   1.227 -0.1256  0.0205 -0.0357
  992poe    c23 7578   1.260   1.814   1.172 -0.0411  0.0476  0.0334
  992poe    c23 7579   1.291   1.808   1.021  0.0427 -0.4891  0.0696
  992poe     o2 7580   1.415   1.747   0.991  0.4618  0.2560  0.2454
  992poe    c23 7581   1.448   1.761   0.854  0.1820  0.4486  0.1975
  992poe    c23 7582   1.575   1.678   0.831 -0.0132  0.2008  0.0119
  992poe     o2 7583   1.554   1.540   0.855  0.4351  0.1515  0.1390
  992poe    c31 7584   1.671   1.469   0.824  0.2021 -0.1435 -0.0760
  993poe    c31 7585   2.050   1.442   0.028  0.6675  0.2571  0.7032
  993poe     o2 7586   2.072   1.572  -0.022 -0.6550  0.2088 -0.0649
  993poe    c23 7587   2.132   1.556  -0.149 -0.1930  0.2699  0.1433
  993poe    c23 7588   2.202   1.687  -0.191  0.1884  0.1130  0.2892
  993poe     o2 7589   2.093   1.775  -0.205  0.0014 -0.1733 -0.0810
  993poe    c23 7590   2.132   1.869  -0.303  0.2810  0.2872  0.4573
  993poe    c23 7591   2.017   1.965  -0.338  0.3308  0.1572 -0.0810
  993poe     o2 7592   1.962   1.993  -0.211 -0.2815 -0.0431 -0.2959
  993poe    c23 7593   1.859   2.090  -0.212  0.3676  0.6572 -0.2614
  993poe    c23 7594   1.833   2.093  -0.061  0.3795 -0.4624 -0.2285
  993poe     o2 7595   1.787   1.969  -0.012 -0.3171 -0.3080 -0.4820
  993poe    c31 7596   1.649   1.977   0.014 -0.1788  0.6283 -0.0226
  994poe    c31 7597   0.036   5.090   3.911 -0.3356 -0.0511  0.0559
  994poe     o2 7598   0.024   5.098   4.051  0.4342  0.5401  0.0946
  994poe    c23 7599  -0.106   5.141   4.082  0.1312  0.2044 -0.7065
  994poe    c23 7600  -0.152   5.091   4.220  0.2596  0.6833 -0.4884
  994poe     o2 7601  -0.031   5.101   4.292  0.0683 -0.7781  0.0767
  994poe    c23 7602  -0.035   5.092   4.432  0.4779  0.5004  0.1832
  994poe    c23 7603   0.107   5.135   4.474  0.5636  0.1578  0.2478
  994poe     o2 7604   0.193   5.084   4.375 -0.1238 -0.0117 -0.2709
  994poe    c23 7605   0.329   5.100   4.410 -0.0402 -0.6526 -0.2876
  994poe    c23 7606   0.409   5.034   4.297 -0.1581 -0.6948 -0.3464
  994poe     o2 7607   0.353   5.088   4.179  0.4146  0.3708 -0.1434
  994poe    c31 7608   0.408   5.210   4.135 -0.0969  0.5307 -0.3515
  995poe    c31 7609   5.157   2.784   0.444 -0.2320  0.6865 -0.4023
  995poe     o2 7610   5.210   2.842   0.561  0.0423 -0.2178 -0.0674
  995poe    c23 7611   5.259   2.966   0.513 -0.4630 -0.0478 -0.1476
  995poe    c23 7612   5.326   3.034   0.634 -0.2264  0.1514 -0.3922
  995poe     o2 7613   5.252   2.999   0.748  0.1741  0.0172 -0.1745
  995poe    c23 7614   5.315   3.031   0.870 -0.2680  0.0558  0.0460
  995poe    c23 7615   5.231   2.959   0.978 -0.1392 -0.2894 -0.0827
  995poe     o2 7616   5.208   2.826   0.936  0.2456 -0.4092  0.0767
  995poe    c23 7617   5.172   2.741   1.042  0.4212 -0.2942  0.2292
  995poe    c23 7618   5.021   2.725   1.068  0.3716 -0.5103 -0.1959
  995poe     o2 7619   4.968   2.682   0.944 -0.1426 -0.0570 -0.1402
  995poe    c31 7620   4.836   2.633   0.960 -0.1045 -0.1505 -0.1130
  996poe    c31 7621   0.746   5.990   4.936 -0.0884 -0.7459  0.3620
  996poe     o2 7622   0.872   5.950   4.886  0.2163 -0.5708  0.9884
  996poe    c23 7623   0.879   5.809   4.888 -0.2339 -0.6279 -0.4458
  996poe    c23 7624   1.018   5.744   4.885 -0.0858 -0.3548  0.3653
  996poe     o2 7625   1.090   5.795   4.995  0.3046  0.1654 -0.1257
  996poe    c23 7626   1.207   5.720   5.016  0.3931  0.3215 -0.0566
  996poe    c23 7627   1.300   5.794   5.114 -0.1206  0.2150  0.5153
  996poe     o2 7628   1.318   5.925   5.064 -0.3051  0.1344  0.2388
  996poe    c23 7629   1.411   6.000   5.138  0.2541 -0.1138 -0.2026
  996poe    c23 7630   1.427   6.130   5.057 -0.3610 -0.0013 -0.1498
  996poe     o2 7631   1.301   6.187   5.030 -0.4386 -0.1524 -0.1035
  996poe    c31 7632   1.313   6.310   4.963 -1.4564  0.2840  0.4886
  997poe    c31 7633   4.829   4.786   0.472 -0.5164  0.3741  0.5897
  997poe     o2 7634   4.783   4.891   0.390 -0.0910 -0.2953 -0.5370
  997poe    c23 7635   4.688   4.949   0.477  0.0674 -0.7399 -0.0665
  997poe    c23 7636   4.622   5.067   0.403  0.5338 -0.3980  0.0559
  997poe     o2 7637   4.725   5.146   0.347 -0.0830  0.4640  0.1239
  997poe    c23 7638   4.714   5.203   0.219  0.4232 -0.1990 -0.2167
  997poe    c23 7639   4.852   5.233   0.157  0.3217  0.9021  0.0735
  997poe     o2 7640   4.929   5.115   0.155 -0.5686  0.3220 -0.3203
  997poe    c23 7641   5.046   5.141   0.081 -0.0003  0.0357  0.4694
  997poe    c23 7642   5.153   5.031   0.097  0.2495  0.2039 -0.0022
  997poe     o2 7643   5.112   4.902   0.059  0.3074  0.1583  0.0907
  997poe    c31 7644   5.199   4.811   0.123  0.1819 -0.3595 -0.4653
  998poe    c31 7645   1.249   1.757   4.933 -0.1064 -0.6672 -0.1535
  998poe     o2 7646   1.347   1.774   4.833 -0.0486 -0.5121 -0.0715
  998poe    c23 7647   1.442   1.677   4.870 -0.1517 -0.4472  0.3742
  998poe    c23 7648   1.549   1.681   4.759 -0.3682  0.1064  0.1834
  998poe     o2 7649   1.464   1.695   4.647 -0.4181 -0.5664  0.1321
  998poe    c23 7650   1.513   1.641   4.526 -0.3622  0.4375 -0.3025
  998poe    c23 7651   1.406   1.655   4.416  0.0917 -0.0457 -0.8122
  998poe     o2 7652   1.399   1.795   4.403  0.6877  0.0591 -0.0717
  998poe    c23 7653   1.322   1.823   4.289  0.1561  0.1506  0.3049
  998poe    c23 7654   1.247   1.957   4.297 -0.1259  0.0110  0.0438
  998poe     o2 7655   1.160   1.950   4.408 -0.0391  0.0152  0.1125
  998poe    c31 7656   1.038   2.009   4.371  0.2300  0.5497  0.0707
  999poe    c31 7657   5.513   3.246   0.314  0.1037  0.6147 -0.0452
  999poe     o2 7658   5.604   3.151   0.263 -0.3091  0.2467 -0.1002
  999poe    c23 7659   5.638   3.199   0.135 -0.0890 -0.1922 -0.2074
  999poe    c23 7660   5.765   3.125   0.087  0.3811  0.4350  0.0434
  999poe     o2 7661   5.874   3.149   0.173  0.0219 -0.0352  0.6475
  999poe    c23 7662   5.962   3.040   0.183 -0.1876 -0.1756  0.9453
  999poe    c23 7663   6.102   3.093   0.217  0.1053 -0.5903  0.3859
  999poe     o2 7664   6.092   3.189   0.319  0.0895  0.3212 -0.4614
  999poe    c23 7665   6.195   3.192   0.415 -0.1702 -0.0574 -0.1712
  999poe    c23 7666   6.181   3.082   0.523 -0.1982  0.1232  0.0102
  999poe     o2 7667   6.052   3.073   0.579 -0.3141  0.1299 -0.2523
  999poe    c31 7668   6.061   3.091   0.719  0.1205  0.1252 -0.2787
 1000poe    c31 7669   4.938   4.231   6.858  0.1666 -0.0856  0.1778
 1000poe     o2 7670   5.046   4.321   6.865 -0.1369  0.3191 -0.1909
 1000poe    c23 7671   5.074   4.333   7.003  0.5022  0.1386 -0.2984
 1000poe    c23 7672   5.195   4.424   7.030  0.0260  0.8324 -0.4709
 1000poe     o2 7673   5.288   4.390   6.930 -0.1067  0.1230 -0.3554
 1000poe    c23 7674   5.373   4.501   6.914  0.0753  0.0927  0.3903
 1000poe    c23 7675   5.460   4.459   6.794 -0.0143  0.3823  0.2244
 1000poe     o2 7676   5.379   4.441   6.680  0.2081  0.0616  0.1153
 1000poe    c23 7677   5.438   4.428   6.552 -0.1922 -0.0264 -0.0635
 1000poe    c23 7678   5.528   4.306   6.527  0.0874  0.2271 -0.3038
 1000poe     o2 7679   5.463   4.182   6.511 -0.2990  0.4124 -0.1860
 1000poe    c31 7680   5.547   4.081   6.459 -0.0040  0.2552  0.5802
 1001poe    c31 7681   1.654   6.527   4.591 -0.3484 -0.0662 -0.2216
 1001poe     o2 7682   1.660   6.612   4.479 -0.7385  0.6565  0.3029
 1001poe    c23 7683   1.776   6.693   4.478  0.1478 -0.5779  0.1315
 1001poe    c23 7684   1.764   6.820   4.392 -0.3775 -0.2201  0.7158
 1001poe     o2 7685   1.704   6.769   4.275 -0.5147  0.7940  0.3342
 1001poe    c23 7686   1.700   6.866   4.173 -0.1236  0.0981 -0.3544
 1001poe    c23 7687   1.602   6.791   4.081  0.3201 -0.0135 -0.7380
 1001poe     o2 7688   1.522   6.700   4.154  1.1123 -0.3380 -0.2630
 1001poe    c23 7689   1.477   6.602   4.063 -0.2733  0.0878 -0.0514
 1001poe    c23 7690   1.524   6.465   4.114  0.3412  0.2841 -0.0845
 1001poe     o2 7691   1.547   6.465   4.253  0.1699  0.3288 -0.0555
 1001poe    c31 7692   1.563   6.334   4.303 -0.1994  0.2901 -0.0405
 1002poe    c31 7693   3.385   4.518   2.899  0.5262  0.2448  0.0619
 1002poe     o2 7694   3.446   4.627   2.964  0.4122  0.4170 -0.1206
 1002poe    c23 7695   3.581   4.637   2.924  0.5370  0.2724  0.2636
 1002poe    c23 7696   3.613   4.788   2.927  0.2222  0.3510 -0.1678
 1002poe     o2 7697   3.552   4.824   3.049  0.2874 -0.2281  0.0438
 1002poe    c23 7698   3.570   4.952   3.106  0.3173 -0.3560  0.3172
 1002poe    c23 7699   3.554   4.937   3.259 -0.2506  0.1913  0.3161
 1002poe     o2 7700   3.437   4.858   3.270 -0.2380  0.0979 -0.1947
 1002poe    c23 7701   3.416   4.828   3.406  0.3056 -0.2657 -0.1853
 1002poe    c23 7702   3.297   4.734   3.381 -0.1256  0.2329 -0.0280
 1002poe     o2 7703   3.317   4.658   3.264  0.2169 -0.0953  0.2401
 1002poe    c31 7704   3.231   4.546   3.263  0.0754  0.0172 -0.3525
 1003poe    c31 7705   1.063   2.089   3.667 -0.3486 -0.1776 -0.7058
 1003poe     o2 7706   1.180   2.104   3.590 -0.2645  0.1355 -0.5171
 1003poe    c23 7707   1.187   2.237   3.544 -0.3375  0.3638  0.1239
 1003poe    c23 7708   1.307   2.237   3.448 -0.5628  0.1549 -0.1604
 1003poe     o2 7709   1.433   2.200   3.502 -0.5066  0.8774  0.2220
 1003poe    c23 7710   1.542   2.201   3.412 -0.6134  0.3712  0.0828
 1003poe    c23 7711   1.673   2.188   3.492 -0.8200  0.8480  0.4996
 1003poe     o2 7712   1.648   2.086   3.585 -0.1833  0.1334 -0.1043
 1003poe    c23 7713   1.752   2.084   3.681 -0.1919 -0.4198 -0.1008
 1003poe    c23 7714   1.735   1.951   3.757 -0.3688 -0.6001 -0.4550
 1003poe     o2 7715   1.598   1.945   3.788 -0.3892  0.5874 -0.2656
 1003poe    c31 7716   1.562   1.821   3.846  0.1438  0.6134  0.1302
 1004poe    c31 7717   2.958   1.428   6.355 -0.5707 -0.5088 -0.3632
 1004poe     o2 7718   2.910   1.558   6.331  0.5236  0.0369  0.3222
 1004poe    c23 7719   2.946   1.635   6.444 -0.2993  0.3243  0.3939
 1004poe    c23 7720   2.891   1.777   6.420 -0.3411  0.2309 -0.0677
 1004poe     o2 7721   2.754   1.749   6.400 -0.3271  0.1956 -0.1155
 1004poe    c23 7722   2.700   1.871   6.353  0.1868  0.4284 -0.1057
 1004poe    c23 7723   2.552   1.834   6.334  0.1291  1.0195 -0.8553
 1004poe     o2 7724   2.539   1.718   6.255 -0.0192  0.3970  0.0725
 1004poe    c23 7725   2.400   1.694   6.257  0.1000 -0.3139  0.1691
 1004poe    c23 7726   2.356   1.552   6.217  0.2662 -0.3660  0.1705
 1004poe     o2 7727   2.398   1.509   6.090  0.4439  0.1236  0.0617
 1004poe    c31 7728   2.288   1.505   6.002  0.9392 -0.1690 -0.5545
 1005poe    c31 7729   6.562   5.886   0.226 -0.2690  0.0625 -0.5770
 1005poe     o2 7730   6.635   5.834   0.335 -0.0518 -0.0569 -0.7797
 1005poe    c23 7731   6.758   5.903   0.331 -0.3533  0.5247 -0.1997
 1005poe    c23 7732   6.841   5.875   0.458  0.3934  0.1307 -0.7630
 1005poe     o2 7733   6.826   5.735   0.472 -0.0172  0.2163 -0.2816
 1005poe    c23 7734   6.879   5.683   0.592  0.0427  0.1157 -0.3506
 1005poe    c23 7735   6.860   5.531   0.584 -0.4157  0.1609 -0.1724
 1005poe     o2 7736   6.747   5.499   0.506 -0.5448 -0.0615  0.1066
 1005poe    c23 7737   6.789   5.417   0.400 -0.1562 -0.1081  0.2978
 1005poe    c23 7738   6.686   5.421   0.286  0.0886  0.3216  0.0894
 1005poe     o2 7739   6.652   5.554   0.256 -0.7572  0.0938  0.0153
 1005poe    c31 7740   6.591   5.554   0.129 -0.0703  0.0289 -0.3187
 1006poe    c31 7741   4.774   1.634   1.307  0.9497  0.5763 -0.0736
 1006poe     o2 7742   4.840   1.571   1.414  0.0140 -0.6111 -0.1778
 1006poe    c23 7743   4.840   1.434   1.380 -0.2062 -0.5158 -0.5615
 1006poe    c23 7744   4.944   1.377   1.478  0.0365  0.3050 -0.3339
 1006poe     o2 7745   4.902   1.438   1.598  0.1549 -0.3990  0.0720
 1006poe    c23 7746   4.953   1.386   1.719 -0.0535  0.2492  0.4401
 1006poe    c23 7747   4.917   1.496   1.821  0.5667  0.5602  0.3268
 1006poe     o2 7748   4.931   1.622   1.759 -0.2193  0.1831 -0.6512
 1006poe    c23 7749   4.951   1.716   1.862  0.4092  0.3781 -0.9428
 1006poe    c23 7750   5.040   1.830   1.808  0.3459  0.9387  0.1025
 1006poe     o2 7751   4.958   1.892   1.712  0.1463  0.1521 -0.2488
 1006poe    c31 7752   5.014   2.012   1.661 -0.6939  0.1908 -1.0985
 1007poe    c31 7753   6.619   5.405   5.008  0.1737 -0.5180  0.0614
 1007poe     o2 7754   6.720   5.444   4.918 -0.7087 -0.1098 -0.7660
 1007poe    c23 7755   6.785   5.335   4.858 -0.0185 -0.2129  0.1505
 1007poe    c23 7756   6.906   5.383   4.776 -0.1375 -0.2839 -0.0695
 1007poe     o2 7757   6.999   5.426   4.873 -0.1537 -0.0680 -0.1495
 1007poe    c23 7758   7.131   5.412   4.826 -0.1725  0.1188 -0.2613
 1007poe    c23 7759   7.231   5.461   4.933 -0.3657 -0.6435  0.2792
 1007poe     o2 7760   7.193   5.595   4.959  0.0912 -0.4571 -0.0065
 1007poe    c23 7761   7.298   5.684   4.984  0.0385 -0.2831 -0.3904
 1007poe    c23 7762   7.227   5.820   4.998 -0.1353 -0.3069 -1.0225
 1007poe     o2 7763   7.101   5.808   5.060  0.2310  0.4668 -0.1016
 1007poe    c31 7764   7.070   5.937   5.108 -0.3189  0.1564  0.3904
 1008poe    c31 7765   0.368   0.946   5.965  0.0839 -0.4561 -0.3127
 1008poe     o2 7766   0.263   0.993   5.884 -0.1605 -0.2459  0.1214
 1008poe    c23 7767   0.296   0.996   5.746  0.3730 -0.4121  0.2424
 1008poe    c23 7768   0.173   0.979   5.656  0.6023 -0.1903 -0.1135
 1008poe     o2 7769   0.064   1.048   5.713  0.6269 -0.2944  0.0586
 1008poe    c23 7770  -0.060   1.040   5.648  0.2003  0.2249  0.7921
 1008poe    c23 7771  -0.162   1.138   5.709 -0.7456 -0.1645 -0.1186
 1008poe     o2 7772  -0.186   1.105   5.844 -1.0090 -0.3988 -0.2225
 1008poe    c23 7773  -0.249   1.217   5.902  0.2384  0.0244  0.3721
 1008poe    c23 7774  -0.401   1.219   5.873  0.4251 -0.1757 -0.6787
 1008poe     o2 7775  -0.460   1.343   5.905  0.4834 -0.3239  0.0148
 1008poe    c31 7776  -0.597   1.334   5.876  0.2952  0.5314  0.5985
 1009poe    c31 7777   4.685   6.388   1.727 -0.3519  0.6658  0.1952
 1009poe     o2 7778   4.550   6.426   1.726 -0.5281  0.0385 -0.4062
 1009poe    c23 7779   4.463   6.315   1.725 -0.4174 -0.0706  0.7794
 1009poe    c23 7780   4.351   6.351   1.625  0.7945  0.0021 -0.5801
 1009poe     o2 7781   4.325   6.486   1.657 -0.2004 -0.3735  0.2371
 1009poe    c23 7782   4.186   6.509   1.663 -0.1355  0.0784  0.0556
 1009poe    c23 7783   4.151   6.649   1.717 -0.4529  0.0542 -0.0845
 1009poe     o2 7784   4.197   6.741   1.621  0.0854 -0.0746  0.0478
 1009poe    c23 7785   4.178   6.880   1.637  0.1204 -0.0170 -0.3894
 1009poe    c23 7786   4.244   6.955   1.520  0.1538  0.7143  0.0921
 1009poe     o2 7787   4.379   6.928   1.491 -0.0445 -0.2866  0.0574
 1009poe    c31 7788   4.436   7.046   1.440 -0.4227  0.2943  0.9545
 1010poe    c31 7789   0.037   2.537   0.151  0.0804 -0.2038 -0.7397
 1010poe     o2 7790   0.030   2.582   0.018 -0.0635  0.0858 -0.6357
 1010poe    c23 7791  -0.105   2.614  -0.004 -0.3234 -0.1352  0.5578
 1010poe    c23 7792  -0.122   2.592  -0.156  0.2261 -0.0015  0.4773
 1010poe     o2 7793  -0.025   2.669  -0.223 -0.1464 -0.0607 -0.1353
 1010poe    c23 7794  -0.007   2.619  -0.354 -0.5160 -0.3230 -0.0855
 1010poe    c23 7795   0.144   2.629  -0.382 -0.4069 -0.2926  0.4969
 1010poe     o2 7796   0.223   2.595  -0.270 -0.3098  0.0280  0.5278
 1010poe    c23 7797   0.362   2.611  -0.282 -0.2428 -0.8631 -0.0169
 1010poe    c23 7798   0.404   2.569  -0.140 -0.0757 -0.0955  0.1655
 1010poe     o2 7799   0.320   2.629  -0.045  0.0036 -0.0298  0.1942
 1010poe    c31 7800   0.395   2.677   0.064 -0.6886 -0.0363  0.6829
 1011poe    c31 7801   1.047   5.008   3.491 -0.0246 -0.4142  0.7183
 1011poe     o2 7802   0.914   4.964   3.501 -0.1837 -0.1098 -0.0174
 1011poe    c23 7803   0.849   4.998   3.381  0.1534 -0.1184 -0.2039
 1011poe    c23 7804   0.729   4.902   3.372  0.1626 -0.1615  0.1120
 1011poe     o2 7805   0.675   4.885   3.501  0.0995  0.0300  0.1111
 1011poe    c23 7806   0.566   4.795   3.510  0.1243 -0.0423 -0.2875
 1011poe    c23 7807   0.525   4.796   3.658  0.3695  0.4510 -0.2184
 1011poe     o2 7808   0.643   4.796   3.735 -0.1047  0.3274  0.5156
 1011poe    c23 7809   0.614   4.747   3.864  1.2343 -0.4084  0.5544
 1011poe    c23 7810   0.619   4.868   3.958  0.0560 -0.0216  0.1390
 1011poe     o2 7811   0.754   4.886   3.993  0.1008 -0.2431  0.0775
 1011poe    c31 7812   0.772   4.967   4.107 -0.1517  0.4282 -0.3561
 1012poe    c31 7813   6.342   3.743   2.046  0.5020  0.6680 -0.4995
 1012poe     o2 7814   6.385   3.867   2.099 -0.1170  0.7256 -0.1107
 1012poe    c23 7815   6.522   3.884   2.131  0.0347  0.0767 -0.3903
 1012poe    c23 7816   6.555   4.034   2.134 -0.0744  0.0890  0.3948
 1012poe     o2 7817   6.497   4.104   2.242  0.2472 -0.0594  0.6642
 1012poe    c23 7818   6.483   4.235   2.194 -0.5999 -0.3346  0.1416
 1012poe    c23 7819   6.427   4.341   2.291  0.3862  0.1138  0.2342
 1012poe     o2 7820   6.322   4.278   2.361 -0.3086  0.8344 -0.1424
 1012poe    c23 7821   6.283   4.360   2.469 -0.2369  0.2297  0.3484
 1012poe    c23 7822   6.195   4.277   2.565  0.3156 -0.3542  0.3556
 1012poe     o2 7823   6.120   4.201   2.473 -0.0657  0.5726 -0.1207
 1012poe    c31 7824   6.005   4.159   2.543 -0.1216 -0.1920 -0.6523
 1013poe    c31 7825   2.454   6.496   4.973 -0.7571  0.1219 -0.0583
 1013poe     o2 7826   2.437   6.380   5.052  0.3068  0.1078  0.1691
 1013poe    c23 7827   2.386   6.431   5.173  0.3271 -0.0536  0.2449
 1013poe    c23 7828   2.301   6.321   5.239  0.8097 -0.2957  0.4704
 1013poe     o2 7829   2.377   6.207   5.273  0.8865 -0.4525 -0.2295
 1013poe    c23 7830   2.305   6.085   5.270  0.5533 -0.2489 -0.7780
 1013poe    c23 7831   2.370   5.973   5.353 -0.5146  0.1488  0.6349
 1013poe     o2 7832   2.508   5.966   5.325 -0.6148 -0.4661  0.2888
 1013poe    c23 7833   2.575   5.851   5.372  0.6701  0.2528  0.2797
 1013poe    c23 7834   2.703   5.825   5.292 -0.2507 -0.2142 -1.0763
 1013poe     o2 7835   2.776   5.945   5.294  0.1126 -0.4314  0.9231
 1013poe    c31 7836   2.900   5.930   5.228 -0.3299  0.6645 -0.2089
 1014poe    c31 7837   3.523   0.333   1.147 -0.6415  0.5869  0.3085
 1014poe     o2 7838   3.437   0.231   1.102 -0.3089  0.4248  0.0320
 1014poe    c23 7839   3.312   0.273   1.052 -0.3764  0.0038 -0.1615
 1014poe    c23 7840   3.226   0.148   1.029 -0.5159  0.1944 -0.7043
 1014poe     o2 7841   3.320   0.054   0.981 -0.1577  0.1044  0.1463
 1014poe    c23 7842   3.272  -0.078   0.988  0.2586 -0.0319  0.3887
 1014poe    c23 7843   3.372  -0.158   0.903  0.2482 -0.4131  0.7307
 1014poe     o2 7844   3.496  -0.141   0.967  0.6733 -0.4783 -0.0646
 1014poe    c23 7845   3.596  -0.143   0.867  0.0529 -0.5607 -0.6942
 1014poe    c23 7846   3.702  -0.044   0.921 -0.7271 -0.2200  0.2356
 1014poe     o2 7847   3.639   0.078   0.951  0.2729  0.2867  0.2811
 1014poe    c31 7848   3.681   0.190   0.875 -0.1711  0.1692 -0.1414
 1015poe    c31 7849   0.180   0.148   0.170  0.3791 -0.1331 -0.2219
 1015poe     o2 7850   0.270   0.204   0.262 -0.0034  0.1800 -0.0344
 1015poe    c23 7851   0.391   0.144   0.220  0.1088  0.1371  0.3424
 1015poe    c23 7852   0.499   0.210   0.307  0.2834 -0.1812  0.3655
 1015poe     o2 7853   0.441   0.197   0.435 -0.0245  0.2808  0.2721
 1015poe    c23 7854   0.527   0.260   0.526  0.4119 -0.0555  0.0976
 1015poe    c23 7855   0.432   0.327   0.628  0.0131 -0.4026 -0.0468
 1015poe     o2 7856   0.330   0.394   0.557  0.1378 -0.3446 -0.1706
 1015poe    c23 7857   0.231   0.460   0.632  0.1308  0.2876 -0.7275
 1015poe    c23 7858   0.118   0.501   0.535 -0.0729  0.4713 -0.4127
 1015poe     o2 7859   0.083   0.403   0.439  0.0509  0.3412 -0.3246
 1015poe    c31 7860  -0.027   0.446   0.363  0.2475  0.4039 -0.5773
 1016poe    c31 7861   6.361   6.651   1.915 -0.1515 -0.1711 -0.1057
 1016poe     o2 7862   6.261   6.617   1.822 -0.6032 -0.2980  0.4178
 1016poe    c23 7863   6.146   6.667   1.886 -0.4892  0.3233  0.1430
 1016poe    c23 7864   6.030   6.608   1.804 -0.2560  0.0206  0.0312
 1016poe     o2 7865   6.058   6.476   1.761 -0.3773 -0.0078  0.0414
 1016poe    c23 7866   5.946   6.393   1.740 -0.4359  0.1523 -0.2891
 1016poe    c23 7867   6.011   6.272   1.671  0.0072  0.2592 -0.0630
 1016poe     o2 7868   6.109   6.317   1.580 -0.0304 -0.3947 -0.4370
 1016poe    c23 7869   6.074   6.358   1.449 -0.3494 -0.1757 -0.2861
 1016poe    c23 7870   6.202   6.435   1.411 -0.2640 -0.1825 -0.0171
 1016poe     o2 7871   6.229   6.515   1.524 -0.5891 -0.2986  0.1421
 1016poe    c31 7872   6.359   6.565   1.506 -0.6980 -0.2265 -0.4633
 1017poe    c31 7873   2.279   0.881   0.048  0.3798  0.2133  0.5199
 1017poe     o2 7874   2.216   0.932  -0.067 -0.0617 -0.2682  0.5439
 1017poe    c23 7875   2.203   0.827  -0.160  0.4554  0.3699 -0.2677
 1017poe    c23 7876   2.102   0.859  -0.272 -0.0988  0.1843  0.1752
 1017poe     o2 7877   2.169   0.943  -0.362 -0.2499  0.0384 -0.0735
 1017poe    c23 7878   2.070   0.983  -0.455 -0.4947 -0.0397  0.1542
 1017poe    c23 7879   2.113   1.111  -0.528 -0.0346  0.1744  0.7910
 1017poe     o2 7880   2.249   1.094  -0.561 -0.3963 -0.0772 -0.6129
 1017poe    c23 7881   2.304   1.214  -0.611  0.3346 -0.0931  0.1456
 1017poe    c23 7882   2.456   1.189  -0.622  0.2427 -0.3628 -0.6096
 1017poe     o2 7883   2.499   1.099  -0.522 -0.2133  0.0842  0.0015
 1017poe    c31 7884   2.636   1.069  -0.517 -0.2048  0.1103 -0.0732
 1018poe    c31 7885   4.668   6.475   0.673  0.0311 -0.4088 -0.0785
 1018poe     o2 7886   4.607   6.552   0.774  0.4384  0.1063 -0.2245
 1018poe    c23 7887   4.701   6.636   0.837  0.7198 -0.5688  0.2678
 1018poe    c23 7888   4.659   6.680   0.978 -0.0601 -0.7004  0.0827
 1018poe     o2 7889   4.538   6.745   0.949 -0.4836 -1.3936  0.2727
 1018poe    c23 7890   4.461   6.761   1.066  0.2717  0.7411  0.5226
 1018poe    c23 7891   4.309   6.786   1.051  0.1375 -0.1600  0.2944
 1018poe     o2 7892   4.277   6.688   0.955  0.0041  0.1852 -0.0151
 1018poe    c23 7893   4.201   6.754   0.856 -0.3460 -0.0076  0.1216
 1018poe    c23 7894   4.236   6.689   0.721 -0.3313 -0.1016  0.1707
 1018poe     o2 7895   4.376   6.679   0.711 -0.3576 -0.4032  0.0880
 1018poe    c31 7896   4.399   6.689   0.572 -0.4191 -0.2530  0.0875
 1019poe    c31 7897   2.517   6.403   0.527 -0.1126 -0.6636  0.7123
 1019poe     o2 7898   2.618   6.418   0.625  0.2682  0.2752  0.1875
 1019poe    c23 7899   2.604   6.537   0.699  0.0014  0.2563  0.1670
 1019poe    c23 7900   2.681   6.523   0.832 -0.1233 -0.0464  0.2082
 1019poe     o2 7901   2.811   6.479   0.799  0.0128  0.0469  0.6152
 1019poe    c23 7902   2.887   6.469   0.917 -0.1610 -0.3194  0.6987
 1019poe    c23 7903   3.025   6.407   0.893 -0.1811  0.0049 -0.2999
 1019poe     o2 7904   3.010   6.281   0.832  0.2706 -0.0058 -0.3984
 1019poe    c23 7905   3.133   6.215   0.812  0.2842 -0.0093 -0.3001
 1019poe    c23 7906   3.124   6.091   0.722 -0.5220 -0.4393  0.3513
 1019poe     o2 7907   3.095   6.147   0.596  0.4914 -0.5284  0.0639
 1019poe    c31 7908   3.131   6.061   0.491  0.5165 -0.8093  0.3039
 1020poe    c31 7909   4.891   3.003   1.739 -0.6076 -0.4101 -0.6255
 1020poe     o2 7910   4.967   2.885   1.751  0.1780  0.2180  0.7350
 1020poe    c23 7911   4.877   2.780   1.777  0.3198 -0.2735 -0.6845
 1020poe    c23 7912   4.947   2.643   1.787  0.2716 -0.2825 -0.4747
 1020poe     o2 7913   5.074   2.676   1.837  0.0973 -0.3639  0.0279
 1020poe    c23 7914   5.162   2.572   1.875  0.2609 -0.1091  0.3553
 1020poe    c23 7915   5.280   2.631   1.954  0.4816 -0.1366  0.0477
 1020poe     o2 7916   5.301   2.759   1.900  0.0988 -0.0770  0.0384
 1020poe    c23 7917   5.399   2.840   1.961 -0.2732  0.2694  0.1800
 1020poe    c23 7918   5.395   2.979   1.894 -0.1977  0.2591  0.1553
 1020poe     o2 7919   5.262   2.992   1.849 -0.3445  0.5161  0.6634
 1020poe    c31 7920   5.244   3.129   1.819 -0.0106  0.3182 -0.4700
 1021poe    c31 7921   6.251   4.760   2.487  0.3757  0.3819  0.0834
 1021poe     o2 7922   6.304   4.847   2.390 -0.3097 -0.1821 -0.8169
 1021poe    c23 7923   6.444   4.830   2.390 -0.3214 -0.3690  0.5452
 1021poe    c23 7924   6.522   4.962   2.375  0.0240 -0.5783  0.4946
 1021poe     o2 7925   6.469   5.006   2.252 -0.2665 -0.3648  0.6932
 1021poe    c23 7926   6.531   5.126   2.211 -0.6831 -0.1670  0.6398
 1021poe    c23 7927   6.454   5.172   2.086  0.1403  0.3263  0.3075
 1021poe     o2 7928   6.316   5.147   2.096  0.0595  0.4845 -0.3591
 1021poe    c23 7929   6.246   5.133   1.975  0.2050  0.2182 -0.4128
 1021poe    c23 7930   6.123   5.047   2.009  0.1363  0.4408 -0.1031
 1021poe     o2 7931   6.153   4.971   2.124 -0.7549  0.3317  0.0681
 1021poe    c31 7932   6.074   4.855   2.130 -0.5179  0.1292 -0.6626
 1022poe    c31 7933   4.204   1.467   4.025 -0.2478  0.1065 -0.2468
 1022poe     o2 7934   4.076   1.442   3.971  0.0313 -0.3956 -0.6899
 1022poe    c23 7935   4.001   1.556   3.935 -0.3782 -0.5096 -0.2240
 1022poe    c23 7936   3.924   1.627   4.048  0.0113  0.0550 -0.3070
 1022poe     o2 7937   3.822   1.545   4.101  0.2056 -0.3420 -0.5471
 1022poe    c23 7938   3.718   1.613   4.167  0.1815 -0.5109 -0.4108
 1022poe    c23 7939   3.620   1.505   4.215  0.0086 -0.0188  0.3614
 1022poe     o2 7940   3.697   1.400   4.268 -0.0498 -0.4712 -0.4303
 1022poe    c23 7941   3.594   1.310   4.304  0.2050 -0.3942  0.5116
 1022poe    c23 7942   3.657   1.179   4.353  0.3350 -0.3058  0.5837
 1022poe     o2 7943   3.768   1.155   4.270 -0.2215  0.1596 -0.3119
 1022poe    c31 7944   3.768   1.018   4.236  0.4890  0.1496 -0.2938
 1023poe    c31 7945   2.811   4.991   0.222 -0.1657 -0.5821 -0.2348
 1023poe     o2 7946   2.684   4.950   0.175 -0.4678 -0.2072  0.2407
 1023poe    c23 7947   2.594   4.928   0.281  0.0269 -0.2023  0.6680
 1023poe    c23 7948   2.450   4.948   0.230  0.0539  0.1998  0.7488
 1023poe     o2 7949   2.454   4.875   0.109 -0.2593  0.0090  0.8525
 1023poe    c23 7950   2.330   4.865   0.043  0.0357 -0.5885  0.3760
 1023poe    c23 7951   2.370   4.846  -0.105  0.1241 -0.5545  0.3952
 1023poe     o2 7952   2.484   4.928  -0.122 -0.2542 -0.2578 -0.7848
 1023poe    c23 7953   2.531   4.932  -0.255  0.3640  0.8382 -0.5463
 1023poe    c23 7954   2.671   4.993  -0.243  0.5249  0.3067  0.3515
 1023poe     o2 7955   2.735   4.929  -0.134  0.1473 -0.0918  0.3412
 1023poe    c31 7956   2.873   4.930  -0.162  0.0172 -0.2197 -0.3232
 1024poe    c31 7957   1.708   6.890   1.752  0.5539 -0.0327  0.7059
 1024poe     o2 7958   1.799   6.994   1.722  0.3610  0.0886  0.5374
 1024poe    c23 7959   1.778   7.114   1.793 -0.0690  0.3789 -0.0689
 1024poe    c23 7960   1.811   7.105   1.943  0.0529  0.2209 -0.1046
 1024poe     o2 7961   1.947   7.110   1.980 -0.0749  0.5887  0.3251
 1024poe    c23 7962   1.969   7.066   2.113 -0.3942  0.3417  0.2974
 1024poe    c23 7963   2.115   7.025   2.138 -0.3453  0.4007  0.1119
 1024poe     o2 7964   2.198   7.139   2.146 -0.0634  0.1864  0.2452
 1024poe    c23 7965   2.324   7.082   2.174  0.1074  0.3020 -0.2681
 1024poe    c23 7966   2.399   7.209   2.217 -0.1551  0.3535  0.0406
 1024poe     o2 7967   2.376   7.301   2.113 -0.1768  0.0392 -0.2338
 1024poe    c31 7968   2.488   7.387   2.109 -0.0913 -0.0240  0.5441
 1025poe    c31 7969   1.151   1.464   3.065  0.3598 -0.3465  0.3352
 1025poe     o2 7970   1.062   1.417   2.967  0.5189 -0.5186  0.2736
 1025poe    c23 7971   0.951   1.351   3.025  0.4683 -0.1164  0.6330
 1025poe    c23 7972   0.906   1.229   2.944  0.4331 -0.0416  0.5398
 1025poe     o2 7973   1.010   1.136   2.921 -0.1912 -0.6978  0.3109
 1025poe    c23 7974   0.976   1.061   2.807 -0.1864  0.1073 -0.2329
 1025poe    c23 7975   1.063   0.934   2.810 -0.0445  0.2165  0.4957
 1025poe     o2 7976   1.094   0.900   2.944  0.2623 -0.0989  0.3490
 1025poe    c23 7977   1.138   0.767   2.946  0.9507  0.1049 -0.6312
 1025poe    c23 7978   1.240   0.744   3.059  0.0820  0.0855  0.1504
 1025poe     o2 7979   1.195   0.782   3.188 -0.5424  0.2367 -0.1095
 1025poe    c31 7980   1.147   0.673   3.262 -0.0353  0.0851 -0.0004
 1026poe    c31 7981   6.895   1.937   3.394  0.4516 -0.5349 -0.6032
 1026poe     o2 7982   6.776   1.882   3.342  0.0051  0.2121 -0.3812
 1026poe    c23 7983   6.663   1.949   3.394  0.0765  0.2598 -0.2883
 1026poe    c23 7984   6.529   1.902   3.336  0.1393 -0.6477  0.2864
 1026poe     o2 7985   6.545   1.886   3.197  0.3696 -1.0251  0.3535
 1026poe    c23 7986   6.439   1.822   3.128 -0.1504  0.3277 -0.1387
 1026poe    c23 7987   6.472   1.672   3.129  0.2239  0.4029 -0.7619
 1026poe     o2 7988   6.602   1.665   3.073  0.3950 -0.1797 -0.2994
 1026poe    c23 7989   6.663   1.538   3.089  0.2187 -0.1974  0.2525
 1026poe    c23 7990   6.807   1.563   3.042  0.1409 -0.3114 -0.0494
 1026poe     o2 7991   6.834   1.690   3.098  0.2498 -0.3099 -0.1053
 1026poe    c31 7992   6.967   1.683   3.144  0.2352 -0.3775 -0.0730
 1027poe    c31 7993   2.236   4.561   4.225  0.2413 -0.3802  0.0175
 1027poe     o2 7994   2.299   4.455   4.292  0.3073 -0.1893  0.2571
 1027poe    c23 7995   2.289   4.330   4.227 -0.5038 -0.4397  0.8388
 1027poe    c23 7996   2.385   4.234   4.299  0.2253  0.3164  0.8851
 1027poe     o2 7997   2.342   4.222   4.432 -0.5622 -0.4930  0.5632
 1027poe    c23 7998   2.421   4.119   4.487  0.4381 -0.3163 -0.5249
 1027poe    c23 7999   2.350   4.094   4.621  0.3223 -0.0556 -0.5364
 1027poe     o2 8000   2.330   4.221   4.677  0.7509 -0.2750  0.1257
 1027poe    c23 8001   2.302   4.205   4.815 -0.4774  0.2091 -0.0503
 1027poe    c23 8002   2.302   4.333   4.900 -0.0606  0.2394 -0.0946
 1027poe     o2 8003   2.203   4.428   4.865 -0.3197  0.0140  0.0304
 1027poe    c31 8004   2.183   4.525   4.964  0.0372  0.5710 -0.4403
 1028poe    c31 8005   3.500   5.121   4.609  0.3025 -0.0218  0.4064
 1028poe     o2 8006   3.572   5.234   4.651  0.1490  0.1986  0.0808
 1028poe    c23 8007   3.709   5.200   4.664  0.0760 -0.1474 -0.0582
 1028poe    c23 8008   3.802   5.318   4.698  0.5242 -0.6448  0.4631
 1028poe     o2 8009   3.718   5.412   4.760  0.3784 -0.0375 -0.6233
 1028poe    c23 8010   3.783   5.525   4.815 -0.2410  0.0313 -0.0241
 1028poe    c23 8011   3.678   5.607   4.893  0.0908  0.5522 -0.1191
 1028poe     o2 8012   3.571   5.646   4.811  0.2249  0.7790 -0.1860
 1028poe    c23 8013   3.463   5.698   4.886  0.2243 -0.3207  0.5855
 1028poe    c23 8014   3.320   5.701   4.829 -0.1658  0.2981  1.5789
 1028poe     o2 8015   3.264   5.571   4.830  0.2287  0.0863 -0.4529
 1028poe    c31 8016   3.142   5.565   4.759 -0.1578 -0.1532  0.2207
 1029poe    c31 8017   4.206   5.017   5.270 -0.0949 -0.1377 -0.5064
 1029poe     o2 8018   4.230   4.988   5.406 -0.1439  0.0832 -0.4498
 1029poe    c23 8019   4.290   5.089   5.484  0.5260 -0.4780 -0.2216
 1029poe    c23 8020   4.273   5.073   5.636 -0.7719 -0.6872 -0.3768
 1029poe     o2 8021   4.136   5.071   5.669 -0.6296  0.2412  0.3081
 1029poe    c23 8022   4.119   5.065   5.809 -0.0092  0.6365  0.4053
 1029poe    c23 8023   3.971   5.086   5.847 -0.1954  0.0125  0.0448
 1029poe     o2 8024   3.907   5.197   5.789 -0.3913 -0.4443 -0.6154
 1029poe    c23 8025   3.769   5.187   5.813 -0.4670  0.1441 -0.7894
 1029poe    c23 8026   3.702   5.312   5.754 -0.4655  0.5992  0.1584
 1029poe     o2 8027   3.777   5.331   5.635  0.0258  0.0268  0.3729
 1029poe    c31 8028   3.708   5.426   5.557  0.2566 -0.0617  0.0613
 1030poe    c31 8029   5.581   3.695   5.249 -0.5606  0.5093 -0.5404
 1030poe     o2 8030   5.718   3.726   5.241 -0.4305  0.0950  0.0235
 1030poe    c23 8031   5.744   3.745   5.103  0.0721 -0.0679  0.0926
 1030poe    c23 8032   5.891   3.776   5.070 -0.0849 -0.0834 -0.6193
 1030poe     o2 8033   5.965   3.659   5.096  0.2022  0.1400 -0.4273
 1030poe    c23 8034   6.100   3.679   5.060  0.2407  0.8166  0.0785
 1030poe    c23 8035   6.194   3.616   5.165 -0.0238 -0.3561 -0.3839
 1030poe     o2 8036   6.144   3.485   5.188 -0.0159 -0.2665  0.1444
 1030poe    c23 8037   6.217   3.408   5.281  0.3041  0.3606  0.4270
 1030poe    c23 8038   6.144   3.275   5.309  0.3782  0.0409 -0.8314
 1030poe     o2 8039   6.009   3.288   5.269  0.3667  0.3460 -0.6934
 1030poe    c31 8040   5.951   3.161   5.290  0.4903  0.4139  0.1216
 1031poe    c31 8041   2.869   6.181   4.869  0.1912  0.1067  0.0761
 1031poe     o2 8042   3.002   6.163   4.827  0.0672 -0.3107 -0.1323
 1031poe    c23 8043   3.088   6.109   4.925  0.4572  0.4751 -0.0340
 1031poe    c23 8044   3.225   6.095   4.857  0.0444  0.0873 -0.7986
 1031poe     o2 8045   3.288   6.222   4.857  0.4970 -0.1339  0.0835
 1031poe    c23 8046   3.426   6.221   4.829  0.4848  0.0887  0.0214
 1031poe    c23 8047   3.481   6.365   4.838 -1.1511  0.7241  0.1536
 1031poe     o2 8048   3.485   6.426   4.965  0.3428  0.0460  0.4468
 1031poe    c23 8049   3.593   6.516   4.952  0.1262  0.2395 -0.0666
 1031poe    c23 8050   3.610   6.604   5.078  0.7614 -0.1818  0.1505
 1031poe     o2 8051   3.483   6.633   5.130  0.6859 -0.4321  0.1101
 1031poe    c31 8052   3.487   6.705   5.252 -0.5039 -0.9700  0.4846
 1032poe    c31 8053   2.512   6.034   3.969 -0.3526 -0.2305  0.3653
 1032poe     o2 8054   2.467   5.910   3.919 -0.3795  0.1212 -0.5060
 1032poe    c23 8055   2.326   5.900   3.917 -0.4115  0.4649 -0.1834
 1032poe    c23 8056   2.271   5.757   3.905 -0.7716  0.6456 -0.7285
 1032poe     o2 8057   2.321   5.693   3.789  0.4895  0.2191  0.0281
 1032poe    c23 8058   2.230   5.710   3.682  0.2425 -0.1168  0.1808
 1032poe    c23 8059   2.230   5.574   3.610  0.2947  0.1980 -0.4242
 1032poe     o2 8060   2.368   5.549   3.594  0.3662  0.6530 -0.5355
 1032poe    c23 8061   2.376   5.427   3.523  0.1784  0.6228 -0.5058
 1032poe    c23 8062   2.525   5.392   3.512 -0.2173 -1.0597 -0.8448
 1032poe     o2 8063   2.577   5.391   3.643 -0.2019 -0.8087 -0.8470
 1032poe    c31 8064   2.687   5.302   3.649  0.1800 -0.3104 -0.3293
 1033poe    c31 8065   3.456   0.830   3.826 -0.0227  0.1851 -0.0751
 1033poe     o2 8066   3.549   0.726   3.808  0.3252  0.3934  0.4822
 1033poe    c23 8067   3.593   0.674   3.932  0.5188  0.0359  0.2681
 1033poe    c23 8068   3.658   0.536   3.914  0.2607 -0.0647  0.1061
 1033poe     o2 8069   3.731   0.552   3.795  0.1308  0.1038  0.0480
 1033poe    c23 8070   3.743   0.423   3.739 -0.4489  0.1576 -0.1980
 1033poe    c23 8071   3.788   0.443   3.593  0.3751  0.7637  0.1343
 1033poe     o2 8072   3.696   0.539   3.545 -0.0997 -0.0588 -0.6345
 1033poe    c23 8073   3.726   0.590   3.417  0.6421  0.3817 -0.2954
 1033poe    c23 8074   3.621   0.700   3.390  0.4696  0.3583  0.2672
 1033poe     o2 8075   3.594   0.771   3.509 -0.5259  0.5171 -0.0409
 1033poe    c31 8076   3.490   0.863   3.488 -0.5884  0.3708 -0.3949
 1034poe    c31 8077   6.210   2.294   2.541 -0.1991  0.1561  0.2982
 1034poe     o2 8078   6.090   2.225   2.570 -0.2341  0.1174  0.0629
 1034poe    c23 8079   6.125   2.091   2.543 -0.3707 -0.0061  0.4947
 1034poe    c23 8080   5.998   2.016   2.587 -0.3875 -0.0600  0.3527
 1034poe     o2 8081   5.880   2.069   2.530 -0.1658 -0.0373 -0.0886
 1034poe    c23 8082   5.756   2.027   2.583 -0.0036  0.5501  0.7796
 1034poe    c23 8083   5.642   2.131   2.582 -0.6630 -0.1679  0.2245
 1034poe     o2 8084   5.676   2.264   2.612  0.1091 -0.3811  0.3172
 1034poe    c23 8085   5.551   2.324   2.636  0.0640 -0.0291 -0.7429
 1034poe    c23 8086   5.577   2.476   2.645 -0.0514 -0.0276 -0.4097
 1034poe     o2 8087   5.658   2.506   2.756 -0.4134  0.2197 -0.2104
 1034poe    c31 8088   5.628   2.639   2.792  0.0478  0.1943  0.2778
 1035poe    c31 8089   5.019   1.555   1.036  0.0690 -0.1019 -0.6914
 1035poe     o2 8090   5.025   1.667   0.950  0.1331  0.2461 -0.2419
 1035poe    c23 8091   4.899   1.731   0.944 -0.0490 -0.0093  0.6928
 1035poe    c23 8092   4.904   1.874   0.887  0.1769 -0.2728  0.0451
 1035poe     o2 8093   4.990   1.974   0.938 -0.1643  0.1347 -0.1709
 1035poe    c23 8094   4.959   2.099   0.882  0.1831  0.0732 -0.4992
 1035poe    c23 8095   5.064   2.209   0.910 -0.0932  0.1266  0.3634
 1035poe     o2 8096   5.195   2.167   0.881 -0.0322  0.3442  0.3238
 1035poe    c23 8097   5.300   2.246   0.933  0.3028 -0.1539  0.4166
 1035poe    c23 8098   5.428   2.174   0.889  0.1207 -0.5899  0.5935
 1035poe     o2 8099   5.394   2.039   0.910 -0.5680 -0.5030  0.0525
 1035poe    c31 8100   5.512   1.966   0.884 -0.0447  0.3184  0.0971
 1036poe    c31 8101   5.882   1.099   2.578 -0.1817 -0.4152  0.2357
 1036poe     o2 8102   5.909   1.096   2.440 -0.1718  0.0557  0.2269
 1036poe    c23 8103   5.883   1.219   2.374 -0.0708 -0.1115 -0.1287
 1036poe    c23 8104   5.938   1.238   2.232  0.4344  0.6001  0.1550
 1036poe     o2 8105   5.861   1.334   2.164  0.4956  0.4811 -0.0858
 1036poe    c23 8106   5.872   1.330   2.024 -0.4108  0.0060 -0.1500
 1036poe    c23 8107   5.755   1.408   1.960 -0.6588 -0.0684  0.2151
 1036poe     o2 8108   5.754   1.540   2.010  0.3242  0.0074  0.0374
 1036poe    c23 8109   5.665   1.619   1.935  0.2416 -0.1670 -0.0482
 1036poe    c23 8110   5.668   1.758   2.002  0.3136 -0.0704 -0.2502
 1036poe     o2 8111   5.798   1.801   2.034  0.2816 -0.4216  0.3673
 1036poe    c31 8112   5.775   1.929   2.087 -0.3137 -0.2830 -0.2148
 1037poe    c31 8113   2.185   0.906   0.428 -0.4744  0.1380 -0.1536
 1037poe     o2 8114   2.136   1.029   0.475  0.3703  0.4123  0.0244
 1037poe    c23 8115   2.007   1.048   0.422  0.1150  0.3242  0.5973
 1037poe    c23 8116   2.003   1.201   0.405 -0.0751  0.2560  0.0025
 1037poe     o2 8117   2.052   1.256   0.525 -0.2457 -0.0431  0.2108
 1037poe    c23 8118   2.063   1.396   0.519  0.2314 -0.0716  0.3555
 1037poe    c23 8119   2.122   1.435   0.656  0.2555  0.5974  0.1619
 1037poe     o2 8120   2.192   1.324   0.708 -0.6472 -0.0518  0.0246
 1037poe    c23 8121   2.143   1.300   0.838  0.0560 -0.1058  0.2835
 1037poe    c23 8122   2.191   1.156   0.865  0.1841 -0.1454 -0.1462
 1037poe     o2 8123   2.159   1.075   0.754 -0.5242  0.0005 -0.0494
 1037poe    c31 8124   2.191   0.944   0.795  0.1723  0.0950 -0.2770
 1038poe    c31 8125   6.871   4.253   6.178 -0.0429 -0.7267 -0.5544
 1038poe     o2 8126   6.808   4.130   6.207 -0.1425 -0.4405  0.4663
 1038poe    c23 8127   6.809   4.044   6.096  0.3649  0.1515  0.0020
 1038poe    c23 8128   6.726   3.923   6.142 -0.3546  0.7310  0.2426
 1038poe     o2 8129   6.771   3.886   6.271  0.1518 -0.0424 -0.1491
 1038poe    c23 8130   6.712   3.768   6.319  0.3529  0.0595  0.3542
 1038poe    c23 8131   6.783   3.735   6.451  0.3466  0.0728  0.3611
 1038poe     o2 8132   6.783   3.852   6.529 -0.7536  0.0659  0.3772
 1038poe    c23 8133   6.820   3.826   6.662 -0.1607 -0.9193  0.0218
 1038poe    c23 8134   6.811   3.952   6.750 -0.3553 -0.6923 -0.3219
 1038poe     o2 8135   6.899   4.054   6.707 -0.9277  0.1335  0.4296
 1038poe    c31 8136   6.890   4.172   6.784 -0.2215  0.4894 -0.0282
 1039poe    c31 8137   0.211   2.250   3.930 -0.2203 -0.3971  0.3354
 1039poe     o2 8138   0.321   2.296   4.006 -0.2407 -0.3516  0.3371
 1039poe    c23 8139   0.274   2.404   4.084  0.1756  0.0163  0.0851
 1039poe    c23 8140   0.399   2.411   4.173  0.1060  0.3384  0.1596
 1039poe     o2 8141   0.507   2.395   4.084 -0.0551 -0.8684  0.1554
 1039poe    c23 8142   0.621   2.419   4.163  0.1651  0.1226 -0.4344
 1039poe    c23 8143   0.752   2.359   4.109  0.1263  0.2331 -0.6524
 1039poe     o2 8144   0.755   2.219   4.126 -0.1947  0.2737 -0.2186
 1039poe    c23 8145   0.857   2.153   4.054  0.2784  0.5178  0.2225
 1039poe    c23 8146   0.823   2.003   4.039 -0.3791  0.7484 -0.6885
 1039poe     o2 8147   0.693   1.957   4.008 -0.2979  0.2089 -0.2367
 1039poe    c31 8148   0.675   1.820   4.035  0.5995  0.1122 -0.0803
 1040poe    c31 8149   2.419   2.994   4.136 -0.2316 -0.0206  0.6855
 1040poe     o2 8150   2.406   2.869   4.073 -0.3521  0.1065  0.4569
 1040poe    c23 8151   2.518   2.792   4.109 -0.0512  0.0442 -0.5990
 1040poe    c23 8152   2.554   2.693   3.996 -0.2677 -0.7434  0.0158
 1040poe     o2 8153   2.427   2.653   3.950 -0.2683 -0.5429 -0.1560
 1040poe    c23 8154   2.419   2.513   3.935  0.2254 -0.6112  0.1859
 1040poe    c23 8155   2.291   2.486   3.854 -0.1508 -0.4966  0.7372
 1040poe     o2 8156   2.181   2.524   3.934  0.0438  0.3092  0.6297
 1040poe    c23 8157   2.061   2.543   3.861  0.4516 -0.1996 -0.1953
 1040poe    c23 8158   1.946   2.564   3.961  0.2864 -0.0795 -0.4127
 1040poe     o2 8159   1.932   2.683   4.036 -0.1374 -0.0087 -0.5978
 1040poe    c31 8160   1.821   2.665   4.121  0.2399 -0.4077 -0.1802
 1041poe    c31 8161   4.199   5.871   1.367 -0.3517  0.0302  0.4448
 1041poe     o2 8162   4.235   5.777   1.268  0.7328  0.2354  0.6359
 1041poe    c23 8163   4.187   5.653   1.314  0.1802  0.3917  0.4946
 1041poe    c23 8164   4.219   5.537   1.218 -0.0663  0.6061  0.1547
 1041poe     o2 8165   4.183   5.573   1.087 -0.2266 -0.1664 -0.0224
 1041poe    c23 8166   4.232   5.489   0.985 -0.2476  0.0665 -0.2271
 1041poe    c23 8167   4.263   5.581   0.866  0.0598  0.3611  0.0807
 1041poe     o2 8168   4.318   5.697   0.925 -0.3378  0.7681 -0.3423
 1041poe    c23 8169   4.386   5.779   0.832  0.5171  0.4028 -0.0473
 1041poe    c23 8170   4.444   5.881   0.932  0.3213  0.9550 -0.4928
 1041poe     o2 8171   4.354   5.916   1.034  0.0286 -0.2482 -0.3270
 1041poe    c31 8172   4.401   6.039   1.083 -0.2742 -0.0001 -0.6616
 1042poe    c31 8173   6.005   3.250   2.870 -0.5329  0.5172  0.2193
 1042poe     o2 8174   5.935   3.294   2.755 -0.0698 -0.0762 -0.3021
 1042poe    c23 8175   5.801   3.329   2.781  0.1372  0.7491 -0.3298
 1042poe    c23 8176   5.742   3.369   2.644 -0.4937 -0.1681 -0.3293
 1042poe     o2 8177   5.782   3.274   2.547 -0.0424  0.4035 -0.7141
 1042poe    c23 8178   5.747   3.305   2.414 -0.6422  0.2454 -0.5995
 1042poe    c23 8179   5.764   3.174   2.335 -0.4504 -0.3455  0.4008
 1042poe     o2 8180   5.896   3.130   2.360 -0.0791  0.1523 -0.6177
 1042poe    c23 8181   5.928   3.019   2.280 -0.8900  0.0820 -0.8602
 1042poe    c23 8182   5.867   2.885   2.326 -0.4757 -0.0214 -0.6050
 1042poe     o2 8183   5.895   2.849   2.460 -0.5403  0.2370 -0.5203
 1042poe    c31 8184   5.837   2.730   2.507 -0.2492  0.2878 -0.0239
 1043poe    c31 8185   4.372   4.104   6.277 -0.4453 -0.6537  0.6159
 1043poe     o2 8186   4.431   4.117   6.404 -0.0052 -0.2063  0.3717
 1043poe    c23 8187   4.326   4.155   6.490 -0.1381  0.6132 -0.1407
 1043poe    c23 8188   4.408   4.205   6.610  0.3651 -0.2280 -0.1244
 1043poe     o2 8189   4.493   4.098   6.646  0.4559 -0.1027  0.0372
 1043poe    c23 8190   4.559   4.105   6.770  0.1750  0.4544  0.1579
 1043poe    c23 8191   4.628   3.969   6.791 -0.4830  0.0915 -0.0139
 1043poe     o2 8192   4.740   3.957   6.705 -0.2939 -0.0260  0.2493
 1043poe    c23 8193   4.811   3.836   6.713  0.5426  0.4166 -0.3588
 1043poe    c23 8194   4.886   3.794   6.585  0.3107  0.7070 -0.5890
 1043poe     o2 8195   4.809   3.782   6.467  0.0808  0.3678 -0.4081
 1043poe    c31 8196   4.886   3.770   6.349 -0.3729 -0.5628 -0.6244
 1044poe    c31 8197   3.671   6.362   0.921 -0.1363  0.4016  0.3412
 1044poe     o2 8198   3.724   6.337   1.049  0.9826  0.0460 -0.1831
 1044poe    c23 8199   3.865   6.331   1.050  1.0004  0.5534  0.6346
 1044poe    c23 8200   3.916   6.258   1.176 -0.1193 -0.5113  0.4912
 1044poe     o2 8201   3.842   6.296   1.289  0.0130 -0.1770  0.4673
 1044poe    c23 8202   3.896   6.252   1.412 -0.5978 -0.9673  0.4608
 1044poe    c23 8203   3.811   6.275   1.538 -0.8261 -0.2054  0.1723
 1044poe     o2 8204   3.839   6.389   1.616  0.4647 -0.8487  0.6784
 1044poe    c23 8205   3.765   6.396   1.735 -0.0527  0.2643  0.3037
 1044poe    c23 8206   3.818   6.510   1.825  0.1656  0.1440  0.3259
 1044poe     o2 8207   3.932   6.478   1.901  0.1486 -0.5472  0.0679
 1044poe    c31 8208   3.959   6.567   2.007  0.0799  0.2359 -0.5665
 1045poe    c31 8209   4.317   5.711   6.181 -0.0907 -0.6372  0.2414
 1045poe     o2 8210   4.443   5.658   6.148 -0.0306 -0.4564  0.1772
 1045poe    c23 8211   4.551   5.740   6.188 -0.0004 -0.6341  0.4586
 1045poe    c23 8212   4.686   5.687   6.135 -0.3173 -0.4333 -0.5514
 1045poe     o2 8213   4.699   5.572   6.215 -0.2853 -0.1674 -0.1758
 1045poe    c23 8214   4.810   5.493   6.181  0.0420  0.4356 -0.5233
 1045poe    c23 8215   4.773   5.343   6.191  0.6428  0.3394  0.4193
 1045poe     o2 8216   4.653   5.322   6.119  0.7816  0.6361  0.0959
 1045poe    c23 8217   4.584   5.200   6.133  0.1410  0.9447 -0.3250
 1045poe    c23 8218   4.437   5.241   6.112 -0.0210  0.4560 -0.1480
 1045poe     o2 8219   4.403   5.365   6.169 -1.3069  0.1064 -0.1157
 1045poe    c31 8220   4.339   5.359   6.294 -0.8144 -0.4332  0.1131
 1046poe    c31 8221   0.823   4.104   3.577  0.0717  0.4920  0.0684
 1046poe     o2 8222   0.738   4.170   3.488 -0.1760  0.1246  0.0288
 1046poe    c23 8223   0.738   4.099   3.366  0.1410 -0.3134  0.2823
 1046poe    c23 8224   0.719   4.199   3.250 -0.0185 -0.1858  0.4172
 1046poe     o2 8225   0.613   4.282   3.292  0.2699  0.3119  0.1757
 1046poe    c23 8226   0.587   4.402   3.222 -0.4592  0.1200  0.1036
 1046poe    c23 8227   0.452   4.447   3.280 -0.3720  0.4518  0.0507
 1046poe     o2 8228   0.472   4.432   3.419 -0.1084  0.3305 -0.0001
 1046poe    c23 8229   0.354   4.404   3.491 -0.1413 -0.2210 -0.2617
 1046poe    c23 8230   0.394   4.371   3.636 -0.0150  0.5974 -0.1056
 1046poe     o2 8231   0.506   4.285   3.634 -0.2118  0.3112  0.7050
 1046poe    c31 8232   0.544   4.237   3.761 -0.4357 -0.3874  0.5074
 1047poe    c31 8233   5.766   1.663   2.365 -0.6568 -0.2422  0.1882
 1047poe     o2 8234   5.869   1.663   2.269 -0.4541 -0.5360  0.4047
 1047poe    c23 8235   5.983   1.729   2.319 -0.5549 -0.0163 -0.0457
 1047poe    c23 8236   6.104   1.680   2.238 -0.3455 -0.2100  0.3768
 1047poe     o2 8237   6.048   1.652   2.111  0.4054  0.0671 -0.0227
 1047poe    c23 8238   6.146   1.670   2.011  0.3773  0.1463 -0.0364
 1047poe    c23 8239   6.126   1.586   1.883  0.0703 -0.2479  0.2674
 1047poe     o2 8240   6.007   1.618   1.814  0.3522 -0.1483 -0.1754
 1047poe    c23 8241   6.001   1.544   1.695 -0.1258 -0.2637 -0.0799
 1047poe    c23 8242   5.885   1.583   1.601 -0.1502  1.0539  0.4829
 1047poe     o2 8243   5.757   1.557   1.653 -0.1325  0.2495  0.1385
 1047poe    c31 8244   5.675   1.490   1.561  0.9107 -0.4138 -0.3223
 1048poe    c31 8245   0.484   6.472   6.251 -0.3965  0.3783  0.0215
 1048poe     o2 8246   0.566   6.553   6.333 -0.1382  0.0921  0.0494
 1048poe    c23 8247   0.519   6.543   6.465 -0.0296  0.4353  0.1162
 1048poe    c23 8248   0.626   6.603   6.557  0.0649  0.0335  0.2710
 1048poe     o2 8249   0.756   6.571   6.513 -0.1359 -0.1797 -0.1714
 1048poe    c23 8250   0.858   6.638   6.585 -0.0955  0.0790 -0.4666
 1048poe    c23 8251   0.988   6.557   6.569 -0.2062 -0.1369 -0.2754
 1048poe     o2 8252   1.029   6.559   6.435 -0.4929  0.3065 -0.3585
 1048poe    c23 8253   1.136   6.477   6.393 -0.3436  0.0429  0.5109
 1048poe    c23 8254   1.121   6.439   6.244  0.0208 -0.3245  0.5670
 1048poe     o2 8255   1.030   6.333   6.220  0.4516 -0.4707 -0.4380
 1048poe    c31 8256   1.041   6.298   6.084 -0.0217 -0.0105 -0.5991
 1049poe    c31 8257   1.913   4.516   2.134 -0.7575 -0.0743 -0.3153
 1049poe     o2 8258   1.901   4.642   2.195  0.5490 -0.2240  0.2798
 1049poe    c23 8259   1.821   4.724   2.113 -0.4957 -1.0128  0.4891
 1049poe    c23 8260   1.760   4.836   2.200 -0.1127 -0.0844 -0.4125
 1049poe     o2 8261   1.852   4.875   2.300 -0.1490  0.2590 -0.5129
 1049poe    c23 8262   1.781   4.971   2.374 -0.0528 -0.0187 -0.0564
 1049poe    c23 8263   1.878   5.033   2.477 -0.2793 -0.0656  0.1862
 1049poe     o2 8264   1.933   4.948   2.575 -0.2546 -0.4526 -0.1588
 1049poe    c23 8265   2.041   4.988   2.656 -0.2566 -0.4031 -0.1800
 1049poe    c23 8266   2.026   5.110   2.749 -0.3894 -0.3377 -0.2870
 1049poe     o2 8267   2.151   5.174   2.762 -0.5000 -0.2133  0.1706
 1049poe    c31 8268   2.121   5.296   2.827 -0.4067 -0.0562 -0.0796
 1050poe    c31 8269   5.109   4.483   5.491  0.0688 -0.2130 -0.2685
 1050poe     o2 8270   4.980   4.527   5.527  0.1061 -0.2456 -0.0949
 1050poe    c23 8271   4.959   4.511   5.665  0.2077  0.2553 -0.0205
 1050poe    c23 8272   4.808   4.519   5.697  0.2011 -0.4880  0.1532
 1050poe     o2 8273   4.736   4.441   5.605 -0.4104  0.2723 -0.0219
 1050poe    c23 8274   4.608   4.425   5.661 -0.3997  1.0935  0.2485
 1050poe    c23 8275   4.513   4.382   5.548  0.4497  0.1858 -0.1275
 1050poe     o2 8276   4.549   4.428   5.420  0.1173  0.1339 -0.2407
 1050poe    c23 8277   4.451   4.401   5.322  0.0785  0.4259 -0.2829
 1050poe    c23 8278   4.471   4.446   5.176 -0.9226  0.3772 -0.4398
 1050poe     o2 8279   4.470   4.586   5.157 -0.3733  0.4664  0.1625
 1050poe    c31 8280   4.480   4.618   5.020  0.6023 -0.2994  0.0410
 1051poe    c31 8281   0.768   2.502   6.653  0.1391 -0.1053 -0.2835
 1051poe     o2 8282   0.886   2.576   6.634  0.1454  0.2792  1.1852
 1051poe    c23 8283   0.869   2.716   6.641  0.4029  0.3828 -0.0357
 1051poe    c23 8284   0.991   2.789   6.582  0.3902 -0.0358 -0.5908
 1051poe     o2 8285   1.104   2.716   6.623  0.0878 -0.2648 -0.1545
 1051poe    c23 8286   1.224   2.750   6.557  0.1176  0.0360  0.0543
 1051poe    c23 8287   1.320   2.630   6.554  0.2164  0.1180 -0.1200
 1051poe     o2 8288   1.238   2.523   6.513  0.4406 -0.1852  0.2108
 1051poe    c23 8289   1.304   2.399   6.492  0.3430 -0.1468 -0.3472
 1051poe    c23 8290   1.189   2.317   6.430  0.1974  0.0060 -0.2819
 1051poe     o2 8291   1.073   2.352   6.502  0.0731 -0.3196 -0.3197
 1051poe    c31 8292   0.958   2.284   6.457  0.1008 -0.7618  0.2698
 1052poe    c31 8293   5.439   0.907   6.616 -0.2517  0.1261 -0.1456
 1052poe     o2 8294   5.554   0.970   6.668  0.2333 -0.0196 -1.0209
 1052poe    c23 8295   5.678   0.926   6.616  0.3438 -1.1657  0.1734
 1052poe    c23 8296   5.791   1.017   6.667 -0.0348 -0.3205 -0.4754
 1052poe     o2 8297   5.732   1.142   6.695  0.1826 -0.2797 -0.1943
 1052poe    c23 8298   5.817   1.252   6.720  0.2610 -0.2506 -0.5755
 1052poe    c23 8299   5.727   1.377   6.707  0.2134 -0.2086  0.0999
 1052poe     o2 8300   5.602   1.347   6.764  0.2725  0.3171  0.5092
 1052poe    c23 8301   5.496   1.437   6.738  0.2901  0.2353  0.1423
 1052poe    c23 8302   5.381   1.358   6.803  0.0756  0.2952 -0.1661
 1052poe     o2 8303   5.387   1.226   6.754 -0.2883  0.2075  0.0204
 1052poe    c31 8304   5.296   1.139   6.816 -0.0891 -0.2639 -0.3395
 1053poe    c31 8305   6.740   2.511   2.769 -0.7544 -0.4631  0.2911
 1053poe     o2 8306   6.649   2.592   2.840 -0.5396  0.0988 -0.0710
 1053poe    c23 8307   6.708   2.675   2.938 -0.7362 -0.1169  0.2321
 1053poe    c23 8308   6.608   2.785   2.978 -0.4214  0.2395  0.0498
 1053poe     o2 8309   6.572   2.860   2.864 -0.6054  0.0451 -0.0215
 1053poe    c23 8310   6.465   2.948   2.893 -0.3041  0.1933  0.6745
 1053poe    c23 8311   6.423   3.016   2.761  0.9060 -0.0849  0.1333
 1053poe     o2 8312   6.527   3.080   2.689  0.1477  0.4304 -0.5174
 1053poe    c23 8313   6.489   3.145   2.570  0.1080  0.2598 -0.5982
 1053poe    c23 8314   6.602   3.150   2.465  0.0721  0.2310 -0.6385
 1053poe     o2 8315   6.646   3.016   2.477 -0.3097  0.1533 -0.0733
 1053poe    c31 8316   6.713   2.968   2.363 -0.5486 -0.5553  0.0850
 1054poe    c31 8317   2.624   4.152   1.149  0.2049  0.5633  0.3067
 1054poe     o2 8318   2.614   4.128   1.288  0.5657 -0.1609  0.2112
 1054poe    c23 8319   2.563   4.241   1.355  0.3098 -0.0686 -0.1345
 1054poe    c23 8320   2.537   4.199   1.501  0.4583 -0.2016 -0.1451
 1054poe     o2 8321   2.485   4.069   1.512  0.2054 -0.1108 -0.2645
 1054poe    c23 8322   2.470   4.029   1.646  0.0801  0.4975 -0.0952
 1054poe    c23 8323   2.427   3.882   1.660  0.8962  0.3415  0.9268
 1054poe     o2 8324   2.511   3.803   1.579  0.0086  0.5269 -0.1974
 1054poe    c23 8325   2.641   3.771   1.622 -0.0385  0.3263 -0.2041
 1054poe    c23 8326   2.719   3.765   1.489 -0.3160 -0.4495 -0.3370
 1054poe     o2 8327   2.712   3.886   1.418  0.3172 -0.1762  0.0555
 1054poe    c31 8328   2.834   3.930   1.363  0.1842  0.4356  0.2421
 1055poe    c31 8329   4.503   0.960   3.614 -0.0213  0.9001  0.1972
 1055poe     o2 8330   4.397   0.891   3.677  0.3479  0.2354  0.1070
 1055poe    c23 8331   4.310   0.879   3.568  0.4966 -0.1903  0.0360
 1055poe    c23 8332   4.239   0.745   3.598 -0.1243  0.2549  0.5834
 1055poe     o2 8333   4.190   0.756   3.730  0.2368  0.8894  0.6671
 1055poe    c23 8334   4.111   0.652   3.781  0.2898  0.4305 -0.1744
 1055poe    c23 8335   4.035   0.705   3.904 -0.2583 -0.4939 -0.1036
 1055poe     o2 8336   4.135   0.789   3.955 -0.6585  0.1051 -0.2961
 1055poe    c23 8337   4.075   0.904   4.012  0.0543  0.2084  0.2709
 1055poe    c23 8338   4.193   0.994   4.054 -0.0586  0.4267  0.1208
 1055poe     o2 8339   4.291   0.989   3.953 -0.0031 -0.1445  0.1965
 1055poe    c31 8340   4.339   1.117   3.917 -0.1268 -0.3122 -0.6057
 1056poe    c31 8341   5.232   1.805   5.243 -0.9617  0.3901  0.0087
 1056poe     o2 8342   5.196   1.669   5.248  0.0121  0.0987 -0.6663
 1056poe    c23 8343   5.296   1.595   5.315 -0.3250 -0.3605 -0.6665
 1056poe    c23 8344   5.249   1.449   5.308  0.2149 -0.5650 -0.0888
 1056poe     o2 8345   5.113   1.471   5.338  0.4807  0.0037  0.7298
 1056poe    c23 8346   5.046   1.348   5.349 -0.0227  0.1520 -0.4939
 1056poe    c23 8347   4.902   1.379   5.393  0.0020  0.0621 -0.3499
 1056poe     o2 8348   4.845   1.470   5.302 -0.4888 -0.1089 -0.2169
 1056poe    c23 8349   4.704   1.464   5.307 -0.4754 -0.2013  0.0607
 1056poe    c23 8350   4.642   1.450   5.167 -0.0538  0.3037 -0.1799
 1056poe     o2 8351   4.707   1.543   5.083 -0.6162  0.9778  0.1129
 1056poe    c31 8352   4.687   1.525   4.944  0.4340 -0.0280  0.0717
 1057poe    c31 8353   2.817   0.366   5.204 -0.0047 -0.8234 -0.6042
 1057poe     o2 8354   2.766   0.281   5.304  0.6433 -0.1990  0.2790
 1057poe    c23 8355   2.669   0.194   5.249 -0.0655  0.5138  0.3890
 1057poe    c23 8356   2.577   0.142   5.361  0.0510 -0.4297  0.0521
 1057poe     o2 8357   2.541   0.248   5.446 -0.2235 -0.1613 -0.3921
 1057poe    c23 8358   2.465   0.197   5.553  0.5300 -0.5535 -0.0309
 1057poe    c23 8359   2.434   0.319   5.642  0.3230 -0.3465 -0.3855
 1057poe     o2 8360   2.550   0.370   5.704  0.0920  0.3889 -0.5470
 1057poe    c23 8361   2.526   0.487   5.779 -0.3390 -0.0772  0.0468
 1057poe    c23 8362   2.661   0.551   5.816 -0.4312 -0.0202  0.2859
 1057poe     o2 8363   2.721   0.604   5.700 -0.0338  0.0274  0.5112
 1057poe    c31 8364   2.753   0.740   5.725 -0.4451  0.2376 -0.0815
 1058poe    c31 8365   1.163   4.778   6.460 -0.1731  0.1706 -0.4455
 1058poe     o2 8366   1.280   4.729   6.523 -0.3567 -0.4498 -0.5838
 1058poe    c23 8367   1.233   4.670   6.642 -0.3811  1.0485  0.1696
 1058poe    c23 8368   1.345   4.675   6.747 -0.1522 -0.5142  0.0194
 1058poe     o2 8369   1.472   4.647   6.691  0.2103 -0.4179  0.7800
 1058poe    c23 8370   1.580   4.627   6.778  0.2228 -0.8005  0.6759
 1058poe    c23 8371   1.708   4.633   6.692 -0.2320  0.1918  0.0600
 1058poe     o2 8372   1.707   4.738   6.597  0.5933  0.1523  0.0001
 1058poe    c23 8373   1.774   4.690   6.483  0.0668 -0.6960  0.0329
 1058poe    c23 8374   1.705   4.735   6.352 -0.0961 -0.8513  0.0645
 1058poe     o2 8375   1.568   4.738   6.385  0.0200  0.0201  0.5094
 1058poe    c31 8376   1.480   4.797   6.292  0.6859 -0.1633 -0.2448
 1059poe    c31 8377   0.027   5.279   0.860  0.4243  0.6238  0.1482
 1059poe     o2 8378  -0.111   5.305   0.876  0.3746  0.3836  0.1097
 1059poe    c23 8379  -0.138   5.401   0.976  0.0227 -0.0028  0.3897
 1059poe    c23 8380  -0.290   5.424   0.976  0.0028 -0.1125 -0.2346
 1059poe     o2 8381  -0.343   5.294   0.964  0.3702 -0.2410 -0.4844
 1059poe    c23 8382  -0.484   5.301   0.967  0.3818 -0.2054  0.1733
 1059poe    c23 8383  -0.528   5.154   0.975  0.4272 -0.2410 -0.1662
 1059poe     o2 8384  -0.453   5.092   0.874  0.0889 -0.3679 -0.3422
 1059poe    c23 8385  -0.516   4.966   0.869  0.1897 -0.4129 -0.5047
 1059poe    c23 8386  -0.540   4.919   0.724  0.0123  0.0148 -0.6154
 1059poe     o2 8387  -0.416   4.916   0.657 -0.1088  0.2557 -0.8522
 1059poe    c31 8388  -0.343   4.798   0.680  0.1825  0.5311 -0.3562
 1060poe    c31 8389   3.044   6.568   4.335  0.1853  0.7402  0.1401
 1060poe     o2 8390   3.048   6.656   4.224  0.3387  0.3263 -0.1840
 1060poe    c23 8391   3.058   6.579   4.107 -0.2252 -0.3131  0.1784
 1060poe    c23 8392   3.136   6.655   3.998 -0.2129  0.0477  0.4407
 1060poe     o2 8393   3.239   6.723   4.067  0.2563 -0.2619  0.0543
 1060poe    c23 8394   3.278   6.823   3.976 -0.1600 -0.1988 -0.0566
 1060poe    c23 8395   3.372   6.921   4.048  0.0356 -0.5566  0.1756
 1060poe     o2 8396   3.305   6.980   4.157  0.1189 -0.3328  0.1075
 1060poe    c23 8397   3.394   7.063   4.228 -0.3814 -0.2464  0.6477
 1060poe    c23 8398   3.307   7.171   4.295 -1.0716 -0.0406 -0.5662
 1060poe     o2 8399   3.240   7.109   4.402 -0.2167  0.1421  0.0748
 1060poe    c31 8400   3.162   7.190   4.487 -0.7060 -0.3730  0.1217
 1061poe    c31 8401   3.308   0.950   0.231  0.6888  0.3880 -0.6018
 1061poe     o2 8402   3.216   1.057   0.228  0.4881  0.2343 -0.1305
 1061poe    c23 8403   3.168   1.106   0.351 -0.3225 -0.5998 -0.1129
 1061poe    c23 8404   3.033   1.174   0.322 -0.0776 -0.2167 -0.3611
 1061poe     o2 8405   3.048   1.249   0.204  0.1321 -0.1112 -0.2669
 1061poe    c23 8406   2.926   1.296   0.151  0.1939  0.2479 -0.0912
 1061poe    c23 8407   2.928   1.245   0.006 -0.5099 -0.0149 -0.0120
 1061poe     o2 8408   3.057   1.265  -0.047 -0.5650 -0.1805 -0.2086
 1061poe    c23 8409   3.066   1.374  -0.135  0.0794 -0.1133 -0.0653
 1061poe    c23 8410   3.192   1.388  -0.224 -0.1242  0.2515 -0.3011
 1061poe     o2 8411   3.311   1.421  -0.156 -0.1566  0.2176 -0.2260
 1061poe    c31 8412   3.401   1.477  -0.249  0.4529  0.6382  0.6100
 1062poe    c31 8413   0.182   0.316   4.681  0.7214 -0.0701  0.2874
 1062poe     o2 8414   0.235   0.196   4.630  0.3285  0.1631 -0.7022
 1062poe    c23 8415   0.349   0.227   4.553  0.6220 -0.1287 -0.3921
 1062poe    c23 8416   0.372   0.102   4.467 -0.7245 -0.3934 -0.3926
 1062poe     o2 8417   0.353  -0.019   4.537 -0.1204  0.0796  0.6099
 1062poe    c23 8418   0.366  -0.127   4.448  0.0844  0.4436  0.1956
 1062poe    c23 8419   0.338  -0.255   4.528  0.2289  0.4968  0.3309
 1062poe     o2 8420   0.208  -0.248   4.582  0.1158 -0.1375  0.1444
 1062poe    c23 8421   0.192  -0.270   4.721 -0.0243 -0.1322  0.1296
 1062poe    c23 8422   0.270  -0.187   4.824 -0.0047 -0.0380  0.0388
 1062poe     o2 8423   0.272  -0.049   4.793 -0.6179 -0.0959 -0.2796
 1062poe    c31 8424   0.294   0.028   4.909  0.0869  0.5534 -0.8338
 1063poe    c31 8425   3.050   0.655   3.966 -0.2912 -0.2715 -1.3187
 1063poe     o2 8426   2.944   0.747   3.963 -0.6057 -0.5731 -0.0707
 1063poe    c23 8427   2.829   0.681   4.011 -0.6694  0.0141  0.6068
 1063poe    c23 8428   2.716   0.754   3.936 -0.1590 -0.1780 -0.3657
 1063poe     o2 8429   2.722   0.895   3.933 -0.3276 -0.1575  0.1796
 1063poe    c23 8430   2.653   0.940   4.047 -0.0833  0.2357  0.1748
 1063poe    c23 8431   2.733   1.050   4.119  0.1498 -0.1421  0.4970
 1063poe     o2 8432   2.863   0.998   4.112  0.2258  0.1069  0.0350
 1063poe    c23 8433   2.953   1.081   4.182 -0.0758 -0.1514  0.7365
 1063poe    c23 8434   3.091   1.023   4.146  0.1186  0.7481 -0.0239
 1063poe     o2 8435   3.108   1.009   4.007  0.5573  0.4878  0.0568
 1063poe    c31 8436   3.243   1.006   3.966  0.5842  0.1214  0.1678
 1064poe    c31 8437   6.565   2.687   3.829  0.1808 -0.0689  0.5122
 1064poe     o2 8438   6.445   2.761   3.831  0.1715 -0.0571 -0.3807
 1064poe    c23 8439   6.476   2.893   3.791  0.0028  0.0745 -0.0811
 1064poe    c23 8440   6.362   2.995   3.804 -0.0465  0.0432 -0.2670
 1064poe     o2 8441   6.245   2.963   3.733 -0.6481  0.3094  0.5922
 1064poe    c23 8442   6.229   3.052   3.625  0.0219 -0.1735  0.0924
 1064poe    c23 8443   6.158   2.979   3.509  0.0407  0.0002 -0.0298
 1064poe     o2 8444   6.054   2.894   3.553  0.0880  0.1115  0.2990
 1064poe    c23 8445   6.041   2.783   3.467 -0.0380  0.0438  0.4061
 1064poe    c23 8446   5.947   2.673   3.519  0.3733 -0.4916  0.0263
 1064poe     o2 8447   5.995   2.626   3.643 -0.2096  0.2419  0.5422
 1064poe    c31 8448   5.919   2.510   3.667  0.2494 -0.1157  0.2941
 1065poe    c31 8449   4.341   1.372   0.884 -0.6085  0.4599 -0.0974
 1065poe     o2 8450   4.467   1.321   0.845 -0.6075 -0.1585  0.6830
 1065poe    c23 8451   4.548   1.424   0.794 -0.9136 -0.0633  0.3872
 1065poe    c23 8452   4.671   1.348   0.742 -1.1677 -0.2540  0.0578
 1065poe     o2 8453   4.714   1.252   0.836 -0.4017 -0.3014 -0.3284
 1065poe    c23 8454   4.829   1.180   0.799 -0.1696 -0.1078  0.0108
 1065poe    c23 8455   4.853   1.079   0.912 -0.2942 -0.1710 -0.0192
 1065poe     o2 8456   4.731   1.022   0.954 -0.1186 -0.0537  0.6654
 1065poe    c23 8457   4.730   0.982   1.089 -0.1447 -0.0341  0.6708
 1065poe    c23 8458   4.581   0.959   1.117 -0.3180  0.4984  0.1981
 1065poe     o2 8459   4.495   1.046   1.045 -0.1309  0.6811  0.1948
 1065poe    c31 8460   4.361   1.023   1.084 -0.0108 -0.4510 -0.0272
 1066poe    c31 8461   5.618   5.834   2.049 -0.0701 -0.0568 -0.0092
 1066poe     o2 8462   5.757   5.817   2.038 -0.0710  0.3137 -0.6527
 1066poe    c23 8463   5.822   5.924   1.973 -0.4756  0.4183 -0.8885
 1066poe    c23 8464   5.945   5.880   1.891  0.3528  0.5251  0.2629
 1066poe     o2 8465   6.055   5.834   1.966  0.4600 -0.1405 -0.2915
 1066poe    c23 8466   6.177   5.857   1.901  0.5517  0.2794  0.0216
 1066poe    c23 8467   6.271   5.738   1.928  0.2502  0.1347  0.4326
 1066poe     o2 8468   6.243   5.708   2.063 -0.4038  0.2596  0.3301
 1066poe    c23 8469   6.328   5.609   2.117 -0.1173  0.1665 -0.2770
 1066poe    c23 8470   6.306   5.624   2.269  0.1616 -0.4599 -0.1736
 1066poe     o2 8471   6.175   5.669   2.295  0.3782  0.0270  0.0948
 1066poe    c31 8472   6.133   5.664   2.430  0.1271  0.1431  0.0213
 1067poe    c31 8473   6.667   0.627   4.652 -0.6100 -0.0034 -0.1808
 1067poe     o2 8474   6.562   0.537   4.683 -0.1284 -0.3983  0.3238
 1067poe    c23 8475   6.494   0.495   4.567 -0.3763  0.1989  0.2483
 1067poe    c23 8476   6.432   0.357   4.597  0.3929 -0.2874 -0.3781
 1067poe     o2 8477   6.371   0.380   4.722  0.1239 -0.2491 -0.5166
 1067poe    c23 8478   6.280   0.278   4.757  0.1700 -0.0867  0.0748
 1067poe    c23 8479   6.210   0.305   4.892 -0.3633  0.2337 -0.2642
 1067poe     o2 8480   6.133   0.424   4.896 -0.0831  0.3970  0.4100
 1067poe    c23 8481   5.993   0.420   4.879 -0.1124 -0.2421  0.7848
 1067poe    c23 8482   5.913   0.552   4.882  0.0755 -0.1194  0.3878
 1067poe     o2 8483   5.966   0.651   4.797 -0.4897 -0.3869 -0.2864
 1067poe    c31 8484   5.870   0.754   4.785 -0.0507  0.0754  0.0767
 1068poe    c31 8485   1.563   3.520   0.007 -0.4202  0.5360 -0.0528
 1068poe     o2 8486   1.600   3.587  -0.111  0.2812 -0.0903 -0.1986
 1068poe    c23 8487   1.619   3.726  -0.099 -0.0729 -0.0501 -0.0939
 1068poe    c23 8488   1.683   3.794  -0.222 -0.4416  0.2753 -0.1116
 1068poe     o2 8489   1.796   3.727  -0.273 -0.1018  0.0143  0.9455
 1068poe    c23 8490   1.824   3.783  -0.400 -0.3230 -0.2136  0.7949
 1068poe    c23 8491   1.976   3.760  -0.406 -0.2895  0.0173  0.7789
 1068poe     o2 8492   2.009   3.623  -0.398 -0.0244 -0.0039 -0.3745
 1068poe    c23 8493   2.138   3.592  -0.443  0.4347  0.1177  0.8228
 1068poe    c23 8494   2.131   3.443  -0.480 -0.5255  0.4681 -0.4526
 1068poe     o2 8495   2.044   3.385  -0.386  0.2020  0.2011  0.0604
 1068poe    c31 8496   2.076   3.249  -0.364  0.1285  0.0767 -0.5969
 1069poe    c31 8497   5.089   3.024   5.744 -0.2403 -0.3762 -0.3707
 1069poe     o2 8498   4.967   3.085   5.781  0.0594  0.1395 -0.2324
 1069poe    c23 8499   4.986   3.178   5.885 -0.4267  0.0682 -0.0803
 1069poe    c23 8500   4.846   3.227   5.927 -0.1115  1.0388 -0.1290
 1069poe     o2 8501   4.755   3.122   5.902  0.2772  0.6511  0.0616
 1069poe    c23 8502   4.637   3.159   5.970 -0.1328 -0.1367 -0.2048
 1069poe    c23 8503   4.533   3.046   5.969 -0.2852 -0.0026  0.3214
 1069poe     o2 8504   4.449   3.016   5.860  0.0095 -0.2499  0.1612
 1069poe    c23 8505   4.330   3.092   5.861 -0.1901 -0.5608 -0.0225
 1069poe    c23 8506   4.243   3.082   5.734  0.2700 -0.2918 -0.3615
 1069poe     o2 8507   4.172   2.961   5.724  0.1174 -0.2793  0.4747
 1069poe    c31 8508   4.039   2.978   5.767  0.0193  0.0189  0.0601
 1070poe    c31 8509   4.345   5.104   3.573  0.0286 -0.3617  0.1496
 1070poe     o2 8510   4.240   5.030   3.630 -0.5427 -0.0641 -0.5112
 1070poe    c23 8511   4.238   4.892   3.601 -0.1242 -0.3445  0.7439
 1070poe    c23 8512   4.109   4.833   3.541 -0.0893 -0.6622  0.9802
 1070poe     o2 8513   3.994   4.895   3.592 -0.2336  0.1155 -0.2482
 1070poe    c23 8514   3.880   4.880   3.511  0.0389  0.1818 -0.6458
 1070poe    c23 8515   3.810   5.015   3.489 -0.7128 -0.1354 -0.2598
 1070poe     o2 8516   3.797   5.091   3.608  0.4326 -0.1044 -0.1465
 1070poe    c23 8517   3.664   5.135   3.616  0.4960  0.1418 -0.3989
 1070poe    c23 8518   3.648   5.227   3.739 -0.1915  0.1026 -0.4545
 1070poe     o2 8519   3.743   5.199   3.839 -0.5109  0.0153 -0.1716
 1070poe    c31 8520   3.738   5.295   3.942 -0.4230 -0.5550  0.3655
 1071poe    c31 8521   2.011   4.236   5.524  0.0773  0.4513 -0.1423
 1071poe     o2 8522   2.106   4.134   5.550  0.1290  0.5082 -0.1056
 1071poe    c23 8523   2.087   4.007   5.492  0.0219  0.2387  0.5114
 1071poe    c23 8524   2.123   3.997   5.343 -0.0055  0.0952  0.5142
 1071poe     o2 8525   2.262   4.020   5.330  0.0084 -0.1955  0.1054
 1071poe    c23 8526   2.313   3.993   5.202  0.2852  0.3631  0.0958
 1071poe    c23 8527   2.451   3.927   5.220 -0.3184 -0.8104  0.5211
 1071poe     o2 8528   2.527   4.015   5.300 -0.5881 -0.1196  0.0222
 1071poe    c23 8529   2.662   3.991   5.268 -0.6046 -0.0153 -0.1267
 1071poe    c23 8530   2.760   4.108   5.285 -0.5590 -0.1261  0.3687
 1071poe     o2 8531   2.890   4.054   5.281 -0.4866  0.0604  0.1805
 1071poe    c31 8532   2.985   4.145   5.229 -0.3983 -0.2796 -0.2532
 1072poe    c31 8533   5.674   5.733   3.146  0.1186  0.0999  0.0385
 1072poe     o2 8534   5.754   5.635   3.084 -0.3804 -0.1661 -0.1863
 1072poe    c23 8535   5.868   5.668   3.008 -0.3202 -0.5159 -0.2534
 1072poe    c23 8536   5.944   5.540   2.970  0.1704 -0.2408 -0.2088
 1072poe     o2 8537   5.986   5.462   3.080  0.5616  0.3347  0.0555
 1072poe    c23 8538   6.061   5.348   3.043  0.0245  0.1521 -0.5003
 1072poe    c23 8539   6.052   5.231   3.143 -0.2288  0.4548 -0.1633
 1072poe     o2 8540   6.062   5.288   3.271  0.4685  0.5217 -0.2440
 1072poe    c23 8541   6.018   5.198   3.369 -0.2075  0.8382 -0.2526
 1072poe    c23 8542   6.047   5.258   3.508  0.9094 -0.2515  0.0054
 1072poe     o2 8543   6.008   5.393   3.508  0.3553 -0.4077  0.4284
 1072poe    c31 8544   6.028   5.464   3.629  0.3327  0.1440  0.1114
 1073poe    c31 8545   1.121   1.004   3.528  0.0561 -0.0898 -0.1008
 1073poe     o2 8546   1.107   1.122   3.452  0.2320  0.0823  0.1325
 1073poe    c23 8547   1.205   1.209   3.505  0.0481  0.1345  0.3902
 1073poe    c23 8548   1.220   1.344   3.433 -0.2668  0.2080  0.4616
 1073poe     o2 8549   1.341   1.410   3.460 -0.3472  0.4611  0.2189
 1073poe    c23 8550   1.338   1.543   3.415 -0.2887  0.3125 -0.2326
 1073poe    c23 8551   1.470   1.621   3.434 -0.0641  0.0656 -0.7677
 1073poe     o2 8552   1.572   1.536   3.387  0.1431  0.1826 -0.5336
 1073poe    c23 8553   1.697   1.587   3.426 -0.1173 -0.1424  0.7750
 1073poe    c23 8554   1.800   1.487   3.369 -0.3209  0.3588 -0.4989
 1073poe     o2 8555   1.747   1.358   3.392  0.2282  0.2002 -0.0914
 1073poe    c31 8556   1.825   1.256   3.335 -0.4519 -0.3034 -0.1350
 1074poe    c31 8557   0.903   6.399   2.350 -0.1136 -0.5816  0.0011
 1074poe     o2 8558   0.958   6.298   2.431  0.2181 -0.2723  0.1696
 1074poe    c23 8559   0.884   6.314   2.549 -0.3503  0.0358 -0.2258
 1074poe    c23 8560   0.906   6.177   2.615  0.3566  0.2367 -0.0409
 1074poe     o2 8561   0.885   6.086   2.509 -0.5855  0.1963  0.1718
 1074poe    c23 8562   0.879   5.951   2.550 -0.4434  0.2377  0.3295
 1074poe    c23 8563   0.864   5.864   2.424 -0.7172  0.6404  0.0798
 1074poe     o2 8564   0.936   5.934   2.325  0.4355 -0.5029  0.0849
 1074poe    c23 8565   0.917   5.898   2.190  0.2920  0.1735 -0.0766
 1074poe    c23 8566   0.978   6.013   2.108  0.6324  0.0392 -0.0125
 1074poe     o2 8567   0.933   6.140   2.150  0.5093 -0.0082 -0.0028
 1074poe    c31 8568   0.954   6.216   2.033  0.6985 -0.4034 -0.2276
 1075poe    c31 8569   4.285   5.251   4.687  1.3485 -0.3535 -0.3106
 1075poe     o2 8570   4.330   5.180   4.574 -0.0502 -0.5564 -0.7614
 1075poe    c23 8571   4.441   5.253   4.526  0.0275 -0.2247 -0.0936
 1075poe    c23 8572   4.436   5.381   4.440 -0.5181  0.0330  0.3154
 1075poe     o2 8573   4.423   5.373   4.300 -0.4763 -0.6147  0.3441
 1075poe    c23 8574   4.545   5.375   4.229 -0.6077  0.5135  0.1245
 1075poe    c23 8575   4.522   5.342   4.080  0.5839  0.5899 -0.0831
 1075poe     o2 8576   4.430   5.429   4.020  0.1783  0.2087 -0.0206
 1075poe    c23 8577   4.418   5.402   3.882  0.4363  0.5386 -0.1095
 1075poe    c23 8578   4.314   5.507   3.838  0.0114  0.1186 -0.1132
 1075poe     o2 8579   4.211   5.444   3.911 -0.0005  0.3279  0.0503
 1075poe    c31 8580   4.098   5.513   3.863 -0.4717 -0.6617 -0.3023
 1076poe    c31 8581   4.164   3.891   0.459  0.2633 -0.5714  0.0026
 1076poe     o2 8582   4.280   3.951   0.405  0.0268 -0.0333  0.0832
 1076poe    c23 8583   4.367   3.848   0.363 -0.0968 -0.0934 -0.0290
 1076poe    c23 8584   4.480   3.920   0.288  0.0666 -0.4936 -0.1688
 1076poe     o2 8585   4.533   4.006   0.386 -0.3215  0.2879 -0.6305
 1076poe    c23 8586   4.635   4.092   0.340  0.3174 -0.2358 -0.2102
 1076poe    c23 8587   4.658   4.185   0.460 -0.0501 -0.0663 -0.2712
 1076poe     o2 8588   4.538   4.257   0.479 -0.3571 -0.5101 -0.5007
 1076poe    c23 8589   4.560   4.366   0.566 -0.6495 -0.3966 -0.5674
 1076poe    c23 8590   4.497   4.499   0.521  0.4342  0.2854 -0.1129
 1076poe     o2 8591   4.357   4.515   0.524  0.4310  0.2581 -0.1177
 1076poe    c31 8592   4.325   4.651   0.509 -0.2914  0.1402  0.3420
 1077poe    c31 8593   4.847   5.656   2.133  0.2808  0.0169  0.5146
 1077poe     o2 8594   4.737   5.582   2.181 -0.0430  0.3051  0.2227
 1077poe    c23 8595   4.625   5.633   2.111  0.3463  0.3734 -0.3534
 1077poe    c23 8596   4.509   5.539   2.146  0.3207  0.3783 -0.4254
 1077poe     o2 8597   4.522   5.403   2.109 -0.2184  0.1649  0.1501
 1077poe    c23 8598   4.519   5.370   1.972 -0.0013 -0.3833  0.2748
 1077poe    c23 8599   4.527   5.219   1.946 -0.3248 -0.3417 -0.0737
 1077poe     o2 8600   4.638   5.169   2.019 -0.3942 -0.0816  0.2098
 1077poe    c23 8601   4.635   5.031   1.991 -0.2665 -0.0558  0.0679
 1077poe    c23 8602   4.713   4.957   2.101  0.3501  0.6552  0.1175
 1077poe     o2 8603   4.699   5.033   2.219 -0.3904  0.0684  0.4174
 1077poe    c31 8604   4.767   4.957   2.316 -0.5578  0.1333  0.5869
 1078poe    c31 8605   6.446   6.595   6.326 -0.0879 -0.1115 -0.4387
 1078poe     o2 8606   6.371   6.489   6.380  0.0504  0.0348  0.0511
 1078poe    c23 8607   6.289   6.445   6.274  0.4314  0.2120 -0.3206
 1078poe    c23 8608   6.172   6.356   6.323  0.6304  0.2783  0.2807
 1078poe     o2 8609   6.092   6.430   6.411 -0.1576  0.2492 -0.3961
 1078poe    c23 8610   5.987   6.353   6.465  0.4155 -0.0114  0.3771
 1078poe    c23 8611   5.957   6.411   6.604  0.2142  0.1011  0.2887
 1078poe     o2 8612   5.924   6.547   6.593 -0.3286 -0.0814 -0.3856
 1078poe    c23 8613   5.860   6.608   6.704 -0.3660 -0.0148 -0.4437
 1078poe    c23 8614   5.842   6.761   6.704  0.3348  0.0735  0.4764
 1078poe     o2 8615   5.950   6.832   6.760  0.4735  0.1309  0.1354
 1078poe    c31 8616   5.944   6.972   6.742  0.7537  0.1532  0.2002
 1079poe    c31 8617   3.384   3.932   0.683 -0.1734  0.0591  0.6820
 1079poe     o2 8618   3.449   4.034   0.756  0.0920  0.2145  0.2343
 1079poe    c23 8619   3.543   3.992   0.852 -0.3701 -0.1191  0.5480
 1079poe    c23 8620   3.693   4.009   0.821 -0.5152  0.2091  0.0225
 1079poe     o2 8621   3.755   4.134   0.841  0.5637 -0.1993 -0.6451
 1079poe    c23 8622   3.895   4.134   0.825  0.6919 -0.6251  0.3819
 1079poe    c23 8623   3.942   4.277   0.859 -0.3362 -0.1969  0.0727
 1079poe     o2 8624   3.859   4.379   0.808 -0.4828 -0.1565  0.3930
 1079poe    c23 8625   3.914   4.505   0.840 -0.3087 -0.2084  0.2976
 1079poe    c23 8626   3.838   4.616   0.766  0.2517 -0.3466 -0.4989
 1079poe     o2 8627   3.702   4.585   0.745 -0.0198  0.3078  0.2263
 1079poe    c31 8628   3.649   4.685   0.660 -0.2461  0.6278  0.7402
 1080poe    c31 8629   1.186   4.717   2.683 -0.1485 -0.1522  0.2335
 1080poe     o2 8630   1.088   4.717   2.582  0.2547  0.2096 -0.1618
 1080poe    c23 8631   1.066   4.835   2.508 -0.2703  0.0853 -0.2128
 1080poe    c23 8632   1.147   4.835   2.377  0.4703  0.0479  0.2396
 1080poe     o2 8633   1.104   4.740   2.283  0.0032  0.0505  0.4456
 1080poe    c23 8634   0.976   4.754   2.227 -0.1990 -0.9033  0.6447
 1080poe    c23 8635   0.984   4.664   2.102 -0.1461 -0.2129  0.1471
 1080poe     o2 8636   1.014   4.539   2.158 -0.3309 -0.2263  0.2166
 1080poe    c23 8637   1.026   4.443   2.055  0.7378  0.3725 -0.2248
 1080poe    c23 8638   1.024   4.309   2.131 -0.4042  0.6267  0.2029
 1080poe     o2 8639   1.097   4.319   2.251  0.4182  0.0585 -0.2441
 1080poe    c31 8640   1.145   4.191   2.288 -0.4548 -0.0981  0.3932
 1081lim     li 8641   5.469   6.235   0.838 -1.0367  0.3693 -0.3004
 1082lim     li 8642   5.986   0.768   4.022  0.7196 -0.9483 -0.4078
 1083lim     li 8643   4.597   5.820   0.319 -0.3450  1.0705  0.3004
 1084lim     li 8644   3.531   3.378   5.511  0.2711 -0.4877  0.0244
 1085lim     li 8645   0.415   3.323   2.060 -0.3448 -0.4745 -0.5705
 1086lim     li 8646   2.187   1.154   0.599  2.0048  0.5618  0.1713
 1087lim     li 8647   2.447   1.889   0.394  0.0616  0.1166  0.6087
 1088lim     li 8648   3.735   0.500   4.663  0.1400 -0.8511  0.4136
 1089lim     li 8649   1.844   1.073   2.207 -0.8166  0.6906 -0.7010
 1090lim     li 8650   1.621   3.598   4.417 -0.0223 -1.1268 -0.6298
 1091lim     li 8651   3.956   2.852   3.882  0.6944  0.6304  0.1767
 1092lim     li 8652   6.380   2.665   1.904  0.0848 -0.5557 -0.0899
 1093lim     li 8653   5.964   3.491   5.197 -0.1027  1.2550 -0.3145
 1094lim     li 8654   3.942   5.322   5.669 -0.3321 -0.4726 -0.6933
 1095lim     li 8655   3.517   6.744   2.963 -0.3094 -0.5798  0.6436
 1096lim     li 8656   2.778   0.958   1.241  0.6004 -0.0427  0.5162
 1097lim     li 8657   5.579   0.393   6.180 -0.5410  0.1207  1.0805
 1098lim     li 8658   0.949   2.563   3.246 -0.4775  0.5244 -0.8407
 1099lim     li 8659   4.228   5.754   1.078  0.2517 -1.0823  0.7607
 1100lim     li 8660   1.565   1.367   3.401  0.6848  0.6730  0.0084
 1101lim     li 8661   3.741   3.151   2.216 -0.2874  1.1580 -1.0769
 1102lim     li 8662   1.053   2.542   6.600 -0.1235 -0.6226 -1.2373
 1103lim     li 8663   4.322   0.187   4.462  0.1035  0.8610  0.0639
 1104lim     li 8664   2.393   6.887   4.402 -0.3155  0.3550 -0.6531
 1105lim     li 8665   1.982   0.179   1.304 -1.2568  0.3210 -0.3922
 1106lim     li 8666   0.259   5.090   2.193 -0.5554  0.8005 -0.0500
 1107lim     li 8667   3.657   6.382   1.212 -0.3854 -0.2622 -0.8879
 1108lim     li 8668   4.537   4.242   2.064  0.1948 -1.0859 -0.5836
 1109lim     li 8669   2.243   6.361   2.566 -0.8680 -0.8252 -0.5895
 1110lim     li 8670   5.194   4.352   6.753  0.6732  0.4864  0.0048
 1111lim     li 8671   6.153   4.507   6.171 -1.0359  0.3736 -1.2623
 1112lim     li 8672   6.557   6.837   3.392  1.4923 -0.3635 -0.4031
 1113lim     li 8673   3.890   5.834   5.273 -0.8743  0.5614 -0.3903
 1114lim     li 8674   6.609   0.366   3.010 -0.6527 -0.5885 -0.9926
 1115lim     li 8675   1.887   2.301   0.767 -0.1065 -0.2644 -0.3236
 1116lim     li 8676   0.126   5.047   4.205 -0.0431  0.1807 -0.7721
 1117lim     li 8677   0.482   2.172   1.901  0.7286  0.4150  0.1378
 1118lim     li 8678   4.020   1.671   6.785 -0.1518  0.8805 -1.6968
 1119lim     li 8679   3.008   2.906   3.603  0.2999  0.3167  0.0339
 1120lim     li 8680   0.115   3.563   5.115  0.2687 -0.3208 -0.2930
 1121lim     li 8681   3.681   1.285   5.189  1.2361 -0.3634  0.7264
 1122lim     li 8682   0.212   0.012   4.642 -0.7490 -1.1188  0.3306
 1123lim     li 8683   6.451   6.770   0.140  0.8692 -0.3156 -1.2413
 1124lim     li 8684   0.232   1.158   6.392  0.6007 -0.6667 -0.9766
 1125lim     li 8685   1.383   1.558   1.169 -0.4236  0.0708  0.3158
 1126lim     li 8686   5.623   6.120   3.429  0.1133  0.0254  1.5897
 1127lim     li 8687   4.295   3.088   3.090 -0.3949  0.2006 -1.7704
 1128lim     li 8688   0.183   3.968   2.057  0.0721 -0.2806 -0.3237
 1129lim     li 8689   6.584   6.380   0.897  0.9286  0.3768  0.7494
 1130lim     li 8690   0.419   3.317   3.911 -0.0707  0.2765  1.3606
 1131lim     li 8691   5.914   2.253   2.536 -0.9072 -0.7703 -0.4702
 1132lim     li 8692   0.218   6.126   1.704  1.4686  0.4629  0.2237
 1133lim     li 8693   3.905   3.611   6.324 -1.1642  0.3474  0.6889
 1134lim     li 8694   5.584   2.166   4.980  0.6426  0.2693  1.4322
 1135lim     li 8695   3.140   5.344   4.200  0.1300 -1.0221  0.2437
 1136lim     li 8696   1.706   6.786   5.780 -0.1817  0.0125 -0.1385
 1137lim     li 8697   2.611   5.461   0.920 -0.1035  0.6688 -0.3354
 1138lim     li 8698   2.690   0.335   5.478 -0.2839 -0.1511 -1.2824
 1139lim     li 8699   3.829   3.839   2.491 -0.5846 -0.1068  0.2294
 1140lim     li 8700   2.566   1.750   2.228  1.1896 -0.0115 -0.2700
 1141lim     li 8701   4.614   0.767   5.035  0.5715 -0.1054  0.9517
 1142lim     li 8702   3.362   6.516   5.075  0.1980 -0.2635 -0.1950
 1143lim     li 8703   1.347   1.263   0.360 -0.7324 -0.2694 -0.7880
 1144lim     li 8704   1.279   1.826   2.178  0.5225  0.1203  0.1630
 1145lim     li 8705   6.440   0.527   4.817 -0.1936  0.1744 -1.1390
 1146lim     li 8706   6.584   4.759   3.250  0.4444 -0.4212 -0.7216
 1147lim     li 8707   1.935   5.338   0.045  0.7466  0.0170  0.5826
 1148lim     li 8708   1.232   3.564   6.569  0.1396 -0.8546  0.4435
 1149lim     li 8709   0.925   5.661   3.990  0.2385 -1.1236  0.4555
 1150lim     li 8710   0.304   3.918   5.965 -0.3805  0.0697  0.5322
 1151lim     li 8711   1.367   0.085   6.805  0.0275 -0.5700 -0.3897
 1152lim     li 8712   0.249   6.074   4.476  0.6453 -0.4880  0.0818
 1153lim     li 8713   4.507   6.418   5.626 -0.0358 -0.0047  0.5547
 1154lim     li 8714   2.143   1.323   3.036  0.7070  0.2368 -1.4503
 1155lim     li 8715   4.983   4.785   3.127  0.5471 -0.3170 -0.3241
 1156lim     li 8716   3.860   5.045   2.335  0.4658 -0.4142  0.3228
 1157lim     li 8717   3.237   5.548   3.429  0.8409  0.0172  0.2291
 1158lim     li 8718   5.823   4.757   4.770 -0.0826  0.5847 -0.0790
 1159lim     li 8719   5.540   4.085   2.821  0.5834  0.2671 -0.0560
 1160lim     li 8720   6.828   1.845   4.946 -0.3884 -0.7835  0.6774
 1161lim     li 8721   4.312   0.824   3.837 -0.0541 -0.7347 -0.9127
 1162lim     li 8722   6.096   5.759   2.160  0.3393 -0.4020  0.5446
 1163lim     li 8723   3.162   6.801   4.227  0.2965  0.3260 -0.5613
 1164lim     li 8724   2.435   0.835   3.662  0.0680  0.3131 -1.1563
 1165lim     li 8725   4.900   5.743   5.476  0.6397 -0.0732 -0.6387
 1166lim     li 8726   1.758   4.365   4.895  0.7040 -0.0136  0.7000
 1167lim     li 8727   5.663   3.489   5.732  1.0799  0.9463 -0.7380
 1168lim     li 8728   1.559   6.652   4.320  1.3234  0.6773 -0.2788
 1169lim     li 8729   0.222   0.921   3.088 -0.8239 -0.1799  0.4889
 1170lim     li 8730   0.488   2.256   3.983 -0.2435  0.8551 -0.4511
 1171lim     li 8731   1.885   6.169   0.814 -0.3338 -0.1231  0.1409
 1172lim     li 8732   4.802   2.266   6.080  0.0523  0.2652  0.6445
 1173lim     li 8733   6.370   2.488   0.583 -0.5631  0.2965  0.2352
 1174lim     li 8734   4.266   2.919   0.898 -0.7786  0.0458  0.9381
 1175lim     li 8735   3.397   6.320   3.369 -0.2476  0.4645 -0.1782
 1176lim     li 8736   2.668   1.277   4.944  0.3759 -0.0723  0.1889
 1177lim     li 8737   0.727   3.161   6.058 -0.6765 -0.0729 -1.2756
 1178lim     li 8738   0.584   0.920   1.536 -0.5002  0.5454  0.2113
 1179lim     li 8739   0.711   1.734   3.337 -0.4861  0.1569 -0.3386
 1180lim     li 8740   1.986   5.086   1.065  0.0108 -0.7662  0.5071
 1181lim     li 8741   3.444   1.531   3.173  0.4844  0.0748 -0.6891
 1182lim     li 8742   4.010   0.604   1.061  1.4580  0.8310  0.0812
 1183lim     li 8743   1.284   5.465   6.295 -0.1623 -0.2371  0.4433
 1184lim     li 8744   4.394   4.111   0.447 -0.1435  0.4571  0.1668
 1185lim     li 8745   1.154   1.824   5.884 -0.4395  0.4869 -0.1654
 1186lim     li 8746   3.159   4.519   0.625 -0.0358 -0.4029  0.4135
 1187lim     li 8747   0.245   4.777   6.882  0.2987  0.1681  0.4890
 1188lim     li 8748   1.694   0.948   1.202 -2.3109 -0.9492  0.6253
 1189lim     li 8749   6.666   5.710   2.609  0.4607  0.1479 -1.0432
 1190lim     li 8750   1.215   3.600   5.643 -0.2689 -0.9318  0.2323
 1191lim     li 8751   1.300   0.066   2.350  0.7293 -0.4243  0.2817
 1192lim     li 8752   3.175   1.188   0.077 -0.3409  1.0221  0.0267
 1193lim     li 8753   0.142   2.666   6.796  0.2628  0.8459  0.1331
 1194lim     li 8754   0.928   0.662   5.847  0.0803 -0.8331 -0.4435
 1195lim     li 8755   5.751   2.841   1.407 -1.0617  0.5303 -0.7642
 1196lim     li 8756   6.474   1.416   2.663  0.7500  0.0227 -0.9414
 1197lim     li 8757   5.002   6.123   2.402 -1.3632 -0.1272  0.4943
 1198lim     li 8758   5.310   1.380   3.585 -0.8532 -0.9241  0.0918
 1199lim     li 8759   0.388   4.743   5.229 -0.3478  0.8255  0.5353
 1200lim     li 8760   6.112   3.579   4.288 -1.0218  0.9039  0.1255
 1201lim     li 8761   1.253   2.826   4.319 -0.2917  0.6651 -0.5834
 1202lim     li 8762   3.553   2.631   1.407 -0.0244 -0.2059  0.4828
 1203lim     li 8763   4.687   6.574   5.008  0.6706 -0.4116  0.0807
 1204lim     li 8764   2.628   5.610   2.078 -0.3422  0.4359 -0.1674
 1205lim     li 8765   5.524   5.365   4.015 -0.0848 -1.1528  0.2112
 1206lim     li 8766   4.539   5.910   3.284 -0.0270  0.0765 -0.0133
 1207lim     li 8767   0.207   2.836   1.407  0.9844  0.3254  0.0656
 1208lim     li 8768   4.974   1.756   4.340  0.3622  1.1082  0.1464
 1209lim     li 8769   5.275   3.502   0.800 -0.0298 -0.5644 -1.8206
 1210lim     li 8770   6.549   4.516   5.232 -0.3265 -0.1587  0.5670
 1211lim     li 8771   3.224   3.558   4.882  1.1491 -1.1524  0.0545
 1212lim     li 8772   3.020   6.546   2.263  0.9612  0.4208  1.2572
 1213lim     li 8773   6.102   0.359   1.824  0.7852 -0.1492 -0.1613
 1214lim     li 8774   6.365   5.770   4.550  0.4143 -1.5996  0.2359
 1215lim     li 8775   5.910   1.637   4.245  1.4075  0.4243  0.8522
 1216lim     li 8776   4.426   6.613   0.865  0.0127 -0.3824 -0.3570
 1217lim     li 8777   5.283   3.527   3.538 -0.1924  0.5379  1.0311
 1218lim     li 8778   4.734   2.310   6.787  0.4355  0.5493  0.0083
 1219lim     li 8779   6.690   0.503   6.638 -0.5388  0.8552  0.8760
 1220lim     li 8780   4.255   5.034   4.529  0.2094 -1.1002 -0.1984
 1221lim     li 8781   1.244   1.249   5.217 -0.6318  0.2982  0.2540
 1222lim     li 8782   5.669   4.336   5.404 -0.5824 -0.1837 -1.1275
 1223lim     li 8783   5.392   0.933   0.938  0.3981 -0.4395 -0.0435
 1224lim     li 8784   5.866   1.649   2.098 -1.0962 -0.2108  0.7684
 1225lim     li 8785   3.541   3.411   0.709  2.0412 -0.1866 -0.5539
 1226lim     li 8786   1.670   6.034   2.739  0.1392  1.1050  1.4825
 1227lim     li 8787   4.313   2.326   4.310  1.2524  0.5314  0.6221
 1228lim     li 8788   6.097   2.804   3.707 -0.5476 -0.6633  0.0856
 1229lim     li 8789   3.678   1.097   0.300 -1.2058  0.3905 -0.3614
 1230lim     li 8790   5.548   1.790   6.820 -0.6272 -0.5380 -0.8963
 1231lim     li 8791   1.679   0.430   0.261  1.3772 -0.1295 -1.7662
 1232lim     li 8792   0.020   5.750   3.630  0.2812  0.0848 -0.0823
 1233lim     li 8793   3.865   5.071   3.789  0.9713  0.1854  0.4236
 1234lim     li 8794   2.937   4.648   5.961 -0.9233 -0.1049  0.3950
 1235lim     li 8795   0.788   3.907   4.873 -0.7342 -0.0344 -0.5167
 1236lim     li 8796   0.212   3.969   4.254 -0.0839  0.1180 -1.2544
 1237lim     li 8797   4.569   4.027   6.477  0.4159 -0.0082 -0.1981
 1238lim     li 8798   5.067   6.244   6.351 -0.3904  0.4359 -0.1189
 1239lim     li 8799   0.637   3.535   2.977  0.2647 -0.0453 -0.8892
 1240lim     li 8800   1.985   4.751   2.322 -1.1472 -0.1379  0.8107
 1241lim     li 8801   6.645   2.945   2.654  0.0250 -0.6349 -1.2406
 1242lim     li 8802   6.372   3.537   3.468  0.3841 -0.0620  0.0777
 1243lim     li 8803   6.230   2.528   6.379  0.1672 -0.2336 -1.2660
 1244lim     li 8804   2.296   6.257   3.361 -0.0606 -0.7840  0.0684
 1245lim     li 8805   0.308   6.720   5.848 -0.8865 -0.0461  0.5372
 1246lim     li 8806   4.967   0.127   3.678 -0.3565 -0.4383 -0.6297
 1247lim     li 8807   3.115   0.526   2.417 -0.7969  0.1393  0.0231
 1248lim     li 8808   3.931   5.960   2.808  1.1783 -0.9212 -1.0839
 1249lim     li 8809   0.958   6.534   5.302  0.0311  0.2140 -0.3807
 1250lim     li 8810   5.957   5.216   6.474  0.0748 -0.6638 -0.0825
 1251lim     li 8811   5.998   5.457   3.334 -0.1672  0.9120  0.5834
 1252lim     li 8812   5.589   3.964   0.215  0.1350  0.3093 -0.1754
 1253lim     li 8813   1.999   0.427   2.859 -1.1589 -0.3045 -0.1341
 1254lim     li 8814   1.479   4.735   6.530  0.5176 -0.0626 -0.6726
 1255lim     li 8815   1.173   6.023   5.031 -0.6328  0.9691  0.4292
 1256lim     li 8816   5.037   1.610   5.276  0.2639 -0.0159 -0.0526
 1257lim     li 8817   3.785   4.098   3.879 -0.6516 -0.0226 -0.1256
 1258lim     li 8818   0.305   1.977   6.075 -0.4575 -0.6635 -0.1276
 1259lim     li 8819   4.814   1.239   2.678  0.2801 -0.3045  0.2880
 1260lim     li 8820   1.919   5.241   5.586  0.3370 -0.5403  0.2372
 1261lim     li 8821   2.397   4.099   5.409 -0.3863  0.1339  0.3212
 1262lim     li 8822   6.838   5.260   6.347 -0.4810 -0.0342  0.3383
 1263lim     li 8823   3.641   0.671   3.654  0.4077  0.5626  0.0545
 1264lim     li 8824   2.914   4.285   4.241 -0.3337 -1.3461  0.9880
 1265lim     li 8825   6.591   6.013   6.454  1.5215  0.2066  0.6702
 1266lim     li 8826   0.742   6.533   6.348  0.3073 -0.5728 -0.9985
 1267lim     li 8827   0.534   1.673   0.909 -0.3495 -0.7542 -0.4726
 1268lim     li 8828   1.060   5.858   6.829 -0.4298  0.1865 -0.3904
 1269lim     li 8829   2.568   6.718   1.679  0.9759 -0.4952 -1.0663
 1270lim     li 8830   1.233   0.359   4.342 -1.4980  0.9704  1.1450
 1271lim     li 8831   4.548   3.704   0.809 -0.8526 -0.6106 -0.3870
 1272lim     li 8832   4.171   5.903   2.271  0.5391  0.6979 -0.6443
 1273lim     li 8833   6.569   5.311   5.578 -0.5198 -0.1226 -0.1098
 1274lim     li 8834   3.492   3.159   0.043  1.4336 -0.1229 -0.9027
 1275lim     li 8835   2.394   4.396   5.835  0.2690  1.0429 -0.4316
 1276lim     li 8836   3.675   4.536   5.351 -1.7837 -0.1017  0.4178
 1277lim     li 8837   0.792   2.080   4.935  0.1088 -0.4460 -0.8459
 1278lim     li 8838   4.826   5.182   4.744  0.0621 -0.8546  0.3327
 1279lim     li 8839   1.651   0.944   3.966  0.8303 -1.0468 -0.2581
 1280lim     li 8840   1.755   4.937   3.920 -0.1805 -0.0080 -0.3537
 1281lim     li 8841   3.704   4.400   0.733 -1.3375  1.0486  0.4889
 1282lim     li 8842   2.124   3.953   3.018  0.2462 -0.5538 -0.0569
 1283lim     li 8843   2.286   2.787   0.829 -0.3741  0.3584 -0.1577
 1284lim     li 8844   3.297   2.870   5.060  0.3402 -0.4224 -0.3118
 1285lim     li 8845   3.312   4.405   6.602 -0.7718  0.5608 -0.8586
 1286lim     li 8846   0.602   4.319   3.496  0.3406 -1.0198 -0.3114
 1287lim     li 8847   6.799   2.631   5.403  0.2334 -0.9568 -0.9077
 1288lim     li 8848   1.142   1.394   2.577  0.2092  0.8817  0.4093
 1289lim     li 8849   4.498   1.063   1.823 -0.5892  0.0146  0.9484
 1290lim     li 8850   3.708   0.284   2.075  0.1999 -0.6121 -0.0099
 1291lim     li 8851   6.800   4.036   6.366  0.4674  0.1875 -0.2885
 1292lim     li 8852   5.941   5.717   5.994  0.6207  0.5135 -0.0227
 1293lim     li 8853   6.536   3.284   5.896  0.8401 -0.8320 -0.4890
 1294lim     li 8854   5.656   5.799   5.386 -0.4895 -0.2595  0.5413
 1295lim     li 8855   3.376   2.035   1.859  0.1593  0.4235 -1.3181
 1296lim     li 8856   1.108   4.654   4.458 -0.0142  1.0350  0.5440
 1297lim     li 8857   5.161   1.675   2.663  0.7843 -0.8764  0.7201
 1298lim     li 8858   0.630   0.396   2.697  0.5508 -0.4660  0.0817
 1299lim     li 8859   0.727   5.600   1.289 -0.6398  0.2732  0.1686
 1300lim     li 8860   4.035   4.682   6.883 -0.9822 -0.5341  0.4765
 1301lim     li 8861   0.642   2.974   5.078  0.4891  0.7194  0.0698
 1302lim     li 8862   2.608   3.606   2.218 -0.3444 -0.5145  0.1489
 1303lim     li 8863   6.214   4.643   0.188 -0.2585  0.1838 -0.8160
 1304lim     li 8864   2.884   3.752   5.812 -1.5965  0.1040  1.0131
 1305lim     li 8865   2.255   6.152   4.499 -0.3998  0.7757  0.0055
 1306lim     li 8866   5.143   3.691   5.094  0.1017  0.4541  0.1974
 1307lim     li 8867   3.721   4.328   4.216  0.0668 -0.2013 -0.8856
 1308lim     li 8868   6.727   3.794   2.902 -0.0339 -0.6200  1.5837
 1309lim     li 8869   1.770   0.232   3.490 -0.6945  1.2608 -0.0027
 1310lim     li 8870   0.427   5.271   5.670  0.5880 -0.2818  0.2106
 1311lim     li 8871   2.899   5.880   2.879  0.4916  0.1089 -0.6134
 1312lim     li 8872   6.199   2.358   4.308  0.9875  1.8189  0.4898
 1313lim     li 8873   2.854   3.523   3.044 -0.2034 -0.0608 -0.7491
 1314lim     li 8874   3.185   5.520   5.529  0.3843 -1.2522  0.6930
 1315lim     li 8875   5.953   3.184   2.547 -0.2085 -0.5206 -0.3057
 1316lim     li 8876   2.889   0.933   3.946 -0.7780  0.2418 -0.4373
 1317lim     li 8877   5.556   6.892   1.180  0.2465  1.1067 -0.4210
 1318lim     li 8878   5.188   2.367   3.957 -1.0024  0.8291  0.0558
 1319lim     li 8879   0.288   1.351   2.253 -0.4915  0.5492  0.0022
 1320lim     li 8880   5.510   6.838   0.317 -0.3600 -0.3212  0.9243
 1321lim     li 8881   2.109   0.839   4.464 -0.2390 -0.5543 -2.0673
 1322lim     li 8882   4.118   2.539   6.713  0.2255 -0.2076 -0.5247
 1323lim     li 8883   6.113   1.253   4.907  0.6766 -0.2344 -0.2569
 1324lim     li 8884   3.015   2.245   6.858 -0.0507  0.2877 -0.4781
 1325lim     li 8885   2.842   2.966   6.378  0.1581  0.4287 -1.0610
 1326lim     li 8886   2.468   5.574   3.734 -0.2249  0.0546 -0.3110
 1327lim     li 8887   5.427   5.612   2.636  0.4140 -0.2875  0.0767
 1328lim     li 8888   6.701   1.794   3.150  0.7431 -0.1989  1.1245
 1329lim     li 8889   5.189   2.815   0.731  0.1990 -0.8672  0.6869
 1330lim     li 8890   0.657   2.836   0.680  0.1542 -0.5692  0.4909
 1331lim     li 8891   3.803   2.078   2.526  0.4571  0.7827  0.9815
 1332lim     li 8892   0.113   6.874   2.218  0.0913  0.4319  0.6328
 1333lim     li 8893   6.076   0.828   1.442  0.6971 -0.8998 -0.9264
 1334lim     li 8894   2.128   1.242   5.629 -0.1531  0.3810 -0.4486
 1335lim     li 8895   5.727   2.485   0.184 -0.5124 -0.1016  0.2318
 1336lim     li 8896   3.168   6.018   4.202  0.3063 -1.2350 -0.5127
 1337lim     li 8897   0.356   3.883   0.582  1.1064  0.5034  0.8053
 1338lim     li 8898   0.947   6.130   2.346 -0.2850  0.3079  0.5929
 1339lim     li 8899   1.277   4.221   0.401  0.5439  0.5461  0.2560
 1340lim     li 8900   1.700   2.680   6.221 -0.2797 -0.5461 -0.2182
 1341lim     li 8901   3.922   2.486   3.053 -0.3672 -0.1984  0.1445
 1342lim     li 8902   2.536   3.922   1.412 -0.8131  0.0849 -0.2171
 1343lim     li 8903   0.451   6.618   3.570  0.2890 -0.2021  0.7253
 1344lim     li 8904   1.936   3.517   6.615 -0.4054 -0.0347  0.4529
 1345lim     li 8905   4.864   1.309   6.000 -0.7090  0.1479  0.0729
 1346lim     li 8906   1.244   4.510   1.103 -0.5667 -1.4135  0.1091
 1347lim     li 8907   4.468   3.366   4.263 -0.3756  0.5220 -0.3112
 1348lim     li 8908   0.067   3.241   6.750  0.8529  0.0231 -0.6311
 1349lim     li 8909   4.917   2.774   5.221  0.2075 -0.6168 -0.0540
 1350lim     li 8910   4.705   3.830   5.870  0.3413  0.2489 -0.1753
 1351lim     li 8911   3.124   3.366   4.186  1.0022  0.0994 -0.3041
 1352lim     li 8912   4.030   0.500   5.694 -0.3204  0.9073 -0.0253
 1353lim     li 8913   2.722   1.591   6.326  0.0620 -0.3237  0.5970
 1354lim     li 8914   2.273   2.746   4.000  1.6798 -0.0245 -0.2837
 1355lim     li 8915   3.910   2.003   0.649  0.5604  0.3239  1.3327
 1356lim     li 8916   5.731   0.717   0.275 -1.0584 -0.1932 -0.7179
 1357lim     li 8917   6.500   5.622   1.409 -0.3741 -0.2989 -0.0341
 1358lim     li 8918   2.415   2.636   1.936 -0.2609 -0.7442  0.0065
 1359lim     li 8919   2.029   2.223   2.827 -0.8681 -0.1455  0.3619
 1360lim     li 8920   4.518   5.491   6.116  0.6687 -0.2213 -0.1074
 1361lim     li 8921   5.900   3.260   0.316 -0.8515  0.0219 -0.4443
 1362lim     li 8922   2.006   0.623   5.059 -0.8853 -0.6621 -0.1889
 1363lim     li 8923   6.132   6.084   3.706  1.5583  0.1231 -0.5148
 1364lim     li 8924   2.737   5.558   6.756 -0.0875  1.0451 -0.3343
 1365lim     li 8925   3.362   1.548   1.173  0.1251  0.0210  0.5874
 1366lim     li 8926   6.311   4.273   1.245 -0.7444  0.3244 -0.0535
 1367lim     li 8927   6.290   4.177   3.583  0.6899 -0.7500 -0.5200
 1368lim     li 8928   1.472   5.969   3.893 -0.7646 -0.4152  0.0398
 1369lim     li 8929   0.630   0.320   6.622 -0.3479  0.8787  0.4861
 1370lim     li 8930   4.638   2.206   3.404 -1.1354 -0.6290  0.5031
 1371lim     li 8931   5.744   3.464   1.925 -0.6271  0.0355 -0.6268
 1372lim     li 8932   6.559   3.344   1.237 -0.0763 -0.7817  0.9944
 1373lim     li 8933   3.595   5.365   0.223  0.7038  1.0293 -0.4988
 1374lim     li 8934   0.791   6.751   1.717 -0.7122 -1.1381  0.3345
 1375lim     li 8935   6.665   1.034   0.556  0.0064  0.1236  0.6923
 1376lim     li 8936   0.532   6.259   0.650 -1.5919  1.0433 -0.1576
 1377lim     li 8937   3.945   1.045   2.704  0.2493 -0.3146 -0.9605
 1378lim     li 8938   2.253   4.299   0.547 -0.1006  0.2377 -0.0106
 1379lim     li 8939   3.609   1.920   5.808 -0.0933  0.2073 -1.1059
 1380lim     li 8940   6.072   6.609   6.476  0.0925 -0.6836  0.0749
 1381lim     li 8941   4.237   3.132   4.924  1.0471 -1.2501  0.1015
 1382lim     li 8942   3.406   4.726   3.125  0.2742  0.1976 -0.2545
 1383lim     li 8943   6.235   6.451   1.689 -0.3427 -0.2240 -0.6075
 1384lim     li 8944   1.104   6.803   1.089  0.1695 -0.8331 -0.2986
 1385lim     li 8945   3.216   1.117   1.948 -1.2098 -0.1421 -1.3809
 1386lim     li 8946   2.446   2.174   4.797  0.2285  0.2685 -0.5675
 1387lim     li 8947   5.065   0.594   4.001  0.1528  0.3514  0.3272
 1388lim     li 8948   0.784   4.904   3.637  0.6213  1.3759 -1.0867
 1389lim     li 8949   6.851   0.668   1.729  0.9683  0.5648 -0.4499
 1390lim     li 8950   5.434   0.633   2.606  1.0009  1.1146  0.2806
 1391lim     li 8951   3.410   4.917   1.539 -0.4680  0.4900 -0.5145
 1392lim     li 8952   5.365   4.982   5.370 -0.3553  0.3854  0.4589
 1393lim     li 8953   0.725   3.787   1.098  0.0336  0.9728 -0.8310
 1394lim     li 8954   1.365   5.568   1.812  0.5496 -1.5300 -0.3873
 1395lim     li 8955   3.843   1.310   4.208 -0.2672 -0.8263 -1.0387
 1396lim     li 8956   0.955   3.889   4.055  0.7438 -0.2317 -0.6314
 1397lim     li 8957   4.500   2.267   2.333 -0.1227 -0.1832 -0.6031
 1398lim     li 8958   2.380   0.999   6.479  0.4621 -0.7941  0.0313
 1399lim     li 8959   5.657   2.527   5.847  0.1653  0.0216  0.6903
 1400lim     li 8960   3.211   2.133   4.304 -1.0832  0.9061 -0.1376
 1401lim     li 8961   6.281   5.023   2.223 -1.1062 -0.1098 -0.4859
 1402lim     li 8962   5.687   2.220   1.638  0.5428  0.9582 -1.2067
 1403lim     li 8963   6.285   0.464   0.943  0.1126  1.3648 -0.6226
 1404lim     li 8964   4.974   2.958   4.378 -0.0385 -0.5137  0.3454
 1405lim     li 8965   2.206   1.804   4.018 -0.5422  0.2302 -0.3461
 1406lim     li 8966   4.922   3.617   2.221  0.6485  0.6117  0.5598
 1407lim     li 8967   3.723   6.197   4.199  0.9327  0.7189 -0.8857
 1408lim     li 8968   6.286   4.676   4.217 -0.4724  0.1540 -0.1598
 1409lim     li 8969   5.095   4.933   1.608 -0.3304 -0.3478 -0.3567
 1410lim     li 8970   4.241   1.753   5.951  0.5474  0.1294  0.3350
 1411lim     li 8971   2.664   3.779   0.255 -0.1713 -0.0759  0.2230
 1412lim     li 8972   1.962   3.200   1.649  0.4732 -0.1493  0.7072
 1413lim     li 8973   3.434   6.245   5.753  1.2957  0.4522  0.2756
 1414lim     li 8974   1.615   3.799   2.437 -0.6482  0.0283  0.7282
 1415lim     li 8975   5.164   2.854   1.816 -0.3026  0.4572  1.2742
 1416lim     li 8976   5.605   1.358   5.738  0.5431  0.5763 -0.9492
 1417lim     li 8977   5.679   6.712   4.975 -1.2374  0.7481 -0.7099
 1418lim     li 8978   1.340   1.824   4.672 -0.2894 -0.0526 -0.0866
 1419lim     li 8979   1.749   5.939   5.552  0.1602  0.6816  1.0173
 1420lim     li 8980   2.753   3.227   1.442  0.1125  0.2080  0.5236
 1421lim     li 8981   4.900   4.978   0.266  0.3495  0.6069 -0.8144
 1422lim     li 8982   3.576   5.199   6.345 -0.9709 -0.0548 -0.6969
 1423lim     li 8983   1.794   0.635   6.044  0.0729 -0.1939  0.0821
 1424lim     li 8984   5.153   5.936   0.286  0.0597  0.7301 -0.7648
 1425lim     li 8985   2.559   6.142   5.268  0.0788  0.3454 -0.5512
 1426lim     li 8986   1.091   5.588   3.074  0.3795  0.1630 -0.2756
 1427lim     li 8987   4.723   6.782   6.406 -0.6481 -0.0521  0.6818
 1428lim     li 8988   5.920   5.734   0.216  0.0232 -0.1677 -0.0848
 1429lim     li 8989   2.860   4.374   2.506 -0.4073  0.9328  0.7735
 1430lim     li 8990   6.498   1.825   0.045  0.3881 -0.9783 -1.0657
 1431lim     li 8991   1.333   4.844   1.643 -0.7038 -1.0678 -1.3765
 1432lim     li 8992   0.769   2.398   5.593 -0.9539 -0.1619 -0.6736
 1433lim     li 8993   3.593   5.537   0.851  0.2714 -0.8524  0.4770
 1434lim     li 8994   1.762   1.828   5.431  0.8752 -1.1643 -0.3008
 1435lim     li 8995   5.117   0.402   5.166  0.3535 -0.7204 -0.4502
 1436lim     li 8996   4.771   6.047   1.369 -0.0695 -1.4934  0.6009
 1437lim     li 8997   4.734   4.446   5.433  0.3400 -1.0808  0.4831
 1438lim     li 8998   6.217   4.131   2.336 -0.4855 -0.0273  0.0679
 1439lim     li 8999   2.835   0.517   0.240  0.8784 -0.9163  0.3143
 1440lim     li 9000   0.149   2.613   3.203  0.2388 -0.8402  0.4690
 1441lim     li 9001   4.525   4.153   2.769 -0.8956 -0.9828 -0.2618
 1442lim     li 9002   0.892   6.568   4.443  0.3435 -0.6943  0.1241
 1443lim     li 9003   1.865   3.514   0.677 -0.4883 -0.7603  0.9720
 1444lim     li 9004   4.185   0.145   2.597  0.5672  0.4019 -0.7157
 1445lim     li 9005   4.795   0.224   0.639  0.1128  0.4443  1.2001
 1446lim     li 9006   4.422   3.179   1.551  0.9207 -0.3859 -0.3655
 1447lim     li 9007   6.019   6.882   2.592  0.0826 -0.5734 -0.1432
 1448lim     li 9008   5.249   0.926   1.637  0.4807  0.6922 -0.1664
 1449lim     li 9009   1.886   5.864   2.032 -0.0436  0.2261 -0.2898
 1450lim     li 9010   0.680   6.088   3.259  0.4180  0.9471 -0.4011
 1451lim     li 9011   1.516   3.361   3.528  0.4318 -0.4051  1.0592
 1452lim     li 9012   2.836   2.212   5.416 -1.6730  0.4558  0.0220
 1453lim     li 9013   2.786   6.350   0.683 -0.6215 -0.0930  0.6335
 1454lim     li 9014   5.860   1.789   3.312  0.2957  0.0805  0.0057
 1455lim     li 9015   3.830   6.645   0.250  0.6941  1.1208  0.2543
 1456lim     li 9016   6.234   6.566   4.264  0.5739  0.1621 -0.9865
 1457lim     li 9017   5.430   4.009   4.297 -0.5637  0.1691  0.0624
 1458lim     li 9018   0.411   5.962   5.756  0.3304  0.4876  0.4867
 1459lim     li 9019   4.319   1.526   3.411  0.3471 -2.3702 -0.0563
 1460lim     li 9020   2.159   2.875   2.443 -1.2982 -0.3387  0.7838
 1461lim     li 9021   5.762   1.598   0.836  0.1092  0.8381 -0.2753
 1462lim     li 9022   0.720   1.493   0.042  0.2881 -1.0166  0.7435
 1463lim     li 9023   0.383   5.161   2.790  0.2458 -0.5279 -0.1570
 1464lim     li 9024   4.238   2.808   5.615  0.7880  0.7507 -0.1220
 1465lim     li 9025   4.266   5.446   4.099  0.7229  0.6860 -0.4191
 1466lim     li 9026   3.490   0.052   1.043 -0.6193 -0.3473  0.6204
 1467lim     li 9027   2.745   1.461   3.071 -0.3778 -0.2636  0.1744
 1468lim     li 9028   1.151   0.387   5.237  0.0721 -0.3112 -0.2982
 1469lim     li 9029   3.548   5.413   4.707 -0.3355 -0.9104 -0.6940
 1470lim     li 9030   4.054   6.620   3.809  0.5235 -0.5671  0.7084
 1471lim     li 9031   5.292   3.075   6.456 -0.0136 -0.4200 -0.2494
 1472lim     li 9032   4.069   0.381   6.774 -0.2181 -0.4505  0.5608
 1473lim     li 9033   1.870   4.013   1.643 -0.4959  0.4801  0.3857
 1474lim     li 9034   0.087   0.007   1.129  0.7455 -0.6162 -0.0655
 1475lim     li 9035   6.085   6.665   5.800 -0.6454  0.3906 -0.2166
 1476lim     li 9036   0.366   1.183   4.491  0.8729  0.6720 -0.9882
 1477lim     li 9037   1.111   4.488   2.303 -0.4392 -1.1913 -0.8794
 1478lim     li 9038   0.527   4.213   2.525  1.3986  0.5266  0.2912
 1479lim     li 9039   5.252   6.695   1.658  0.7299  0.4967 -0.0652
 1480lim     li 9040   1.673   5.267   4.550 -1.0633 -0.9682  0.0285
 1481lim     li 9041   1.491   2.056   3.663 -0.3260 -0.6473  0.0524
 1482lim     li 9042   3.001   0.689   4.855 -0.6993  0.5224  0.4940
 1483lim     li 9043   1.362   6.091   0.772 -0.9499  0.2848  0.5134
 1484lim     li 9044   1.131   1.051   3.051 -0.5745 -0.1925  0.2608
 1485lim     li 9045   2.405   4.752   1.749 -1.2809 -0.5508  0.2647
 1486lim     li 9046   0.995   2.735   2.150 -0.4418 -0.8114  0.1938
 1487lim     li 9047   2.178   1.738   1.551  0.1845  0.0559 -0.2705
 1488lim     li 9048   3.123   4.752   5.061  0.2974 -0.3267 -0.0618
 1489lim     li 9049   1.168   3.546   1.920  0.2141 -0.3879  0.2704
 1490lim     li 9050   3.309   5.904   1.797 -0.5994 -0.5442 -0.6521
 1491lim     li 9051   6.447   1.459   1.351 -0.8436  0.1316  0.1051
 1492lim     li 9052   4.407   2.231   1.405 -0.3847  0.3624  1.3903
 1493lim     li 9053   6.685   0.285   4.074 -2.2970  1.0754 -0.8355
 1494lim     li 9054   1.167   1.045   4.412 -1.0338  0.6862 -0.0390
 1495lim     li 9055   0.072   2.221   2.493 -0.9758 -0.4696  0.7140
 1496lim     li 9056   2.416   4.074   6.485  0.5260 -0.4117 -0.2851
 1497lim     li 9057   6.647   5.173   0.887 -0.9144  0.3634  0.1739
 1498lim     li 9058   4.727   6.036   4.494 -0.6096 -0.0141 -0.3482
 1499lim     li 9059   4.467   6.578   1.739  1.0129 -0.8812  1.2004
 1500lim     li 9060   2.580   3.129   4.663  0.0715 -0.4114 -0.4828
 1501lim     li 9061   6.040   0.876   5.527 -0.1309  0.2796  1.9183
 1502lim     li 9062   6.731   1.182   3.586  0.3891  1.2743 -0.3060
 1503lim     li 9063   2.376   5.884   6.073 -0.3808  0.4065  0.0037
 1504lim     li 9064   3.045   6.344   6.845  0.2379 -0.5889  0.2169
 1505lim     li 9065   6.325   3.764   0.362  0.2741 -0.5146  0.3760
 1506lim     li 9066   1.599   4.370   5.872  0.7095 -0.9552 -1.3397
 1507lim     li 9067   6.683   1.962   4.193  0.3751  1.3857  0.3046
 1508lim     li 9068   0.305   1.165   5.150  0.3069 -0.9039  0.0210
 1509lim     li 9069   3.432   4.021   1.939 -0.1377 -0.1690 -0.1412
 1510lim     li 9070   5.842   5.799   4.788 -0.5928 -0.9084  0.8773
 1511lim     li 9071   6.521   1.337   6.509 -0.2266  0.0184  0.2738
 1512lim     li 9072   6.437   2.985   4.584 -0.1756 -0.0439  0.4636
 1513lim     li 9073   2.797   0.955   2.822 -0.2113 -0.5290  0.9584
 1514lim     li 9074   0.782   4.019   6.514 -0.0965  0.8146 -0.4851
 1515lim     li 9075   5.023   3.047   2.697 -0.4722  1.0518 -0.2627
 1516lim     li 9076   2.782   2.329   1.293  0.9072 -1.7259  0.8311
 1517lim     li 9077   0.099   0.440   5.432 -0.5116  0.4482 -0.0804
 1518lim     li 9078   6.483   6.462   5.319 -0.0801 -0.4359 -0.3890
 1519lim     li 9079   5.448   2.539   3.166  0.0368 -0.8908 -0.2760
 1520lim     li 9080   2.438   6.562   5.814  1.1254 -0.1657  1.1015
 1521lim     li 9081   3.866   1.928   5.036 -0.4288  0.0420  0.8240
 1522lim     li 9082   3.294   5.108   2.174 -0.1110 -0.9897  1.1005
 1523lim     li 9083   6.533   4.282   4.709  0.7439  0.9121  0.3085
 1524lim     li 9084   5.812   0.171   3.436 -0.5222 -0.0285  0.0889
 1525lim     li 9085   2.619   4.894   0.013  0.7491  0.9763  0.3616
 1526lim     li 9086   0.974   4.339   5.619 -1.4056  0.6845 -0.6809
 1527lim     li 9087   0.922   0.854   1.014  0.1885 -0.7290  1.1353
 1528lim     li 9088   1.301   3.098   2.877 -0.5759  0.3060  0.9547
 1529lim     li 9089   3.789   6.008   6.475 -0.5525 -0.9673  0.2128
 1530lim     li 9090   1.334   6.710   3.315  0.3704 -1.1822 -0.9962
 1531lim     li 9091   0.695   4.834   6.226  1.2589 -1.2246 -1.0808
 1532lim     li 9092   1.561   5.017   3.072  0.0825 -0.4502  0.3846
 1533lim     li 9093   1.841   6.281   6.775  0.6131 -0.8627 -0.4215
 1534lim     li 9094   5.108   2.365   2.282  0.4083  0.7616 -0.0893
 1535lim     li 9095   1.365   2.813   0.335 -0.0089 -0.0740  1.0809
 1536lim     li 9096   2.937   0.135   3.371 -0.5754 -0.7385 -0.0015
 1537lim     li 9097   2.073   3.152   5.445 -0.0442 -0.3751  0.4822
 1538lim     li 9098   2.217   0.390   2.043  0.2037  0.2137  0.6862
 1539lim     li 9099   5.107   4.681   4.115  0.4020 -0.0685 -0.6719
 1540lim     li 9100   3.235   0.285   6.703  0.0906 -0.2829 -1.9177
 1541lim     li 9101   4.234   5.045   1.295  0.8620  0.8594 -0.3959
 1542lim     li 9102   2.656   5.045   3.066 -0.4562 -0.0137 -1.1137
 1543lim     li 9103   2.191   6.819   0.595 -0.4520 -0.3461  0.0842
 1544lim     li 9104   5.800   4.642   1.764  0.8498 -0.2376 -0.3620
 1545lim     li 9105   4.615   5.185   2.191  0.7907 -0.6707  0.5576
 1546lim     li 9106   5.544   1.157   6.679 -0.3097 -0.7289 -0.3244
 1547lim     li 9107   1.460   2.354   1.612  0.0636 -0.7171  0.1841
 1548lim     li 9108   1.933   1.845   6.798  0.0224 -0.9404  0.7141
 1549lim     li 9109   6.780   1.922   1.384  0.3237  0.3557  0.7097
 1550lim     li 9110   3.282   0.683   5.676  0.4422  0.0789 -0.1473
 1551lim     li 9111   3.322   2.887   3.054 -0.5543  0.2515  0.2762
 1552lim     li 9112   0.122   5.644   5.007 -0.4528 -1.2218 -0.3796
 1553lim     li 9113   4.060   1.314   1.581  0.2410 -0.1915  0.3748
 1554lim     li 9114   5.265   3.968   1.504  0.1345 -0.4936 -0.5132
 1555lim     li 9115   5.434   2.887   4.769 -0.8525  0.0846  0.8394
 1556lim     li 9116   2.590   2.520   3.003 -0.1481  0.7116 -0.4236
 1557lim     li 9117   5.650   4.793   2.507  1.1103 -0.2110 -0.8447
 1558lim     li 9118   2.128   3.632   3.774  0.7721  0.1578  0.4070
 1559lim     li 9119   3.493   2.604   6.295 -0.6455  0.2305  0.3537
 1560lim     li 9120   3.899   3.867   1.553 -0.0066  1.1393  0.3098
 1561lim     li 9121   0.094   1.052   5.912  0.8357 -0.3680 -0.3846
 1562lim     li 9122   4.803   3.048   5.743 -0.3934 -0.3158  0.0870
 1563lim     li 9123   6.676   5.656   0.413 -0.6322 -0.9761 -0.7003
 1564lim     li 9124   2.659   4.226   3.348  0.6393 -0.6561 -0.0831
 1565lim     li 9125   5.490   4.610   0.735  0.9671 -0.1878  0.1369
 1566lim     li 9126   3.550   3.921   3.144 -1.4243  0.1566  0.6053
 1567lim     li 9127   1.290   1.000   6.432 -0.0728  0.1665 -0.8809
 1568lim     li 9128   6.390   2.002   5.746  0.6118 -0.2789 -0.2464
 1569lim     li 9129   4.614   4.074   3.459  0.6284 -1.5214 -0.2926
 1570lim     li 9130   0.577   4.913   0.914 -0.6670 -0.3306  0.5798
 1571lim     li 9131   5.032   0.487   6.263 -0.1410  0.5187  0.0582
 1572lim     li 9132   4.508   1.911   4.965  1.0523  0.7651  0.6154
 1573lim     li 9133   2.420   2.164   5.907  0.5037 -1.0734  0.0988
 1574lim     li 9134   2.655   4.716   1.021 -1.0290 -0.0628  0.5675
 1575lim     li 9135   0.481   5.806   0.024 -0.9924 -0.4373  0.0485
 1576lim     li 9136   1.622   4.261   3.464  0.5163 -0.6900  0.5258
 1577lim     li 9137   3.694   1.068   6.224 -0.2796  0.1468 -0.0255
 1578lim     li 9138   1.282   3.151   0.985 -0.6087  0.6517  0.2630
 1579lim     li 9139   5.143   6.453   4.102 -0.9007 -0.2677 -1.4107
 1580lim     li 9140   5.283   0.948   4.612 -0.0612  0.7382 -0.4845
 1581lim     li 9141   4.880   1.612   1.586  1.6369  0.7452  0.2377
 1582lim     li 9142   4.631   4.454   1.111 -0.3667  0.3364 -0.0511
 1583lim     li 9143   1.351   0.670   1.934 -0.7781 -0.2912 -0.3002
 1584lim     li 9144   5.415   6.707   2.659  0.3465 -0.5742  0.8163
 1585lim     li 9145   4.707   0.349   2.033 -0.6211  0.3267 -0.5640
 1586lim     li 9146   4.476   5.166   3.033  0.5710 -0.3175  0.6401
 1587lim     li 9147   4.691   0.167   3.096 -0.2888 -0.0828 -0.3754
 1588lim     li 9148   5.022   4.936   6.166  0.4468  0.5157  0.9000
 1589lim     li 9149   4.592   1.132   0.898  0.5244 -0.5550 -0.7689
 1590lim     li 9150   2.476   5.200   5.024 -1.3273  1.0423  0.1398
 1591lim     li 9151   4.632   4.247   4.390 -0.4993  0.0484 -0.2590
 1592lim     li 9152   3.243   2.837   2.114 -0.4072 -0.3947 -0.0073
 1593lim     li 9153   0.248   0.280   0.417  0.8526  0.3907  1.0841
 1594lim     li 9154   4.845   1.634   0.068 -0.6106 -1.7624  0.9908
 1595lim     li 9155   4.880   3.077   3.706  1.1541  0.5605  0.1887
 1596lim     li 9156   1.120   5.174   5.005  0.5649  0.4585  0.2182
 1597lim     li 9157   5.229   1.978   0.906  0.7551 -0.8877  0.4362
 1598lim     li 9158   1.247   5.260   0.481 -1.2205 -1.0078 -0.0010
 1599lim     li 9159   2.019   2.802   5.746 -0.7313  0.1348 -0.8161
 1600lim     li 9160   3.254   2.034   3.693 -0.8554 -0.0365  0.8420
 1601lim     li 9161   0.519   0.777   3.734  0.1877 -0.6539 -1.2775
 1602lim     li 9162   3.815   4.217   5.919  0.5244 -1.2283 -0.5196
 1603lim     li 9163   5.338   5.668   1.588  0.5204  0.2955  0.7195
 1604lim     li 9164   2.297   4.362   4.539 -0.1351  0.1302 -0.0619
 1605lim     li 9165   5.591   4.492   3.412  1.4037  0.0735  1.1097
 1606lim     li 9166   1.761   2.773   4.803 -0.4862  1.1387 -1.1334
 1607lim     li 9167   5.776   5.297   0.767 -0.4105  0.6267 -0.4115
 1608lim     li 9168   2.565   6.814   6.501 -0.6570  0.9687  0.4956
 1609lim     li 9169   2.661   6.050   1.326 -1.0277  0.2373  0.0065
 1610lim     li 9170   3.081   0.340   1.565  0.0003  0.0085  0.2634
 1611lim     li 9171   6.780   1.780   0.674 -0.7959  0.1877  0.9233
 1612lim     li 9172   0.138   4.522   1.469 -0.4516 -0.0061  0.4446
 1613lim     li 9173   6.762   6.383   2.783  0.9196  0.3074 -0.6810
 1614lim     li 9174   4.668   0.993   0.111  0.3896 -1.1543  0.9933
 1615lim     li 9175   3.901   4.005   4.871 -0.4986  0.7279 -0.5712
 1616lim     li 9176   5.948   3.520   6.445  0.4078 -0.4663 -0.5428
 1617lim     li 9177   3.592   6.873   5.909  0.5285 -0.3365  0.8357
 1618lim     li 9178   4.588   3.292   6.874 -0.8070  0.2782  1.1742
 1619lim     li 9179   1.037   2.041   0.117 -0.6044  0.8951  1.2179
 1620lim     li 9180   3.413   2.326   0.615 -0.4959 -1.1224  0.3882
 1621ntf    cn1 9181   5.959   4.183   4.975 -0.1135  0.0295 -0.0215
 1621ntf    sn2 9182   6.001   4.327   4.872  0.2351 -0.1056 -0.0673
 1621ntf    nn3 9183   6.016   4.425   4.994  0.0217  0.2145 -0.2998
 1621ntf    sn2 9184   5.943   4.564   5.011 -0.1986  0.0347  0.2464
 1621ntf    cn1 9185   6.084   4.653   5.084 -0.1576  0.2161 -0.0500
 1621ntf    fn4 9186   6.049   4.153   5.067 -0.6664 -0.6311  0.3149
 1621ntf    fn4 9187   5.839   4.178   5.032  0.2953 -0.5522  0.8091
 1621ntf    fn4 9188   5.947   4.079   4.894 -0.5976 -0.3861  0.5692
 1621ntf    on5 9189   6.126   4.292   4.809  0.1922 -0.1690 -0.1160
 1621ntf    on5 9190   5.889   4.346   4.785 -0.0238 -0.8308  0.0977
 1621ntf    on5 9191   5.841   4.574   5.112 -0.0311 -0.3341  0.4560
 1621ntf    on5 9192   5.929   4.648   4.895 -0.5928  0.0415  0.2986
 1621ntf    fn4 9193   6.129   4.593   5.193 -0.3455  0.1996  0.0194
 1621ntf    fn4 9194   6.178   4.670   4.993 -0.2773  0.3015 -0.1585
 1621ntf    fn4 9195   6.048   4.775   5.120  0.1765  0.0317  0.9325
 1622ntf    cn1 9196   1.962   5.554   3.122  0.5416  0.1515 -0.0420
 1622ntf    sn2 9197   2.119   5.645   3.116  0.5688  0.1135  0.0827
 1622ntf    nn3 9198   2.216   5.527   3.081 -0.0255 -0.5066  0.5042
 1622ntf    sn2 9199   2.372   5.526   3.099  0.0106  0.0543  0.2328
 1622ntf    cn1 9200   2.414   5.551   2.924 -0.4715 -0.3548  0.0552
 1622ntf    fn4 9201   1.954   5.480   3.232  0.1888  0.2566  0.0044
 1622ntf    fn4 9202   1.853   5.628   3.120  0.2258 -0.3015  0.0509
 1622ntf    fn4 9203   1.947   5.467   3.024  0.4227 -0.4205  0.4768
 1622ntf    on5 9204   2.105   5.732   3.002 -0.5308 -0.1147  0.0305
 1622ntf    on5 9205   2.142   5.701   3.247  0.1263 -0.0794  0.2453
 1622ntf    on5 9206   2.418   5.392   3.125 -0.4717 -0.3105 -0.7298
 1622ntf    on5 9207   2.442   5.629   3.172 -0.3626  0.4500  0.0439
 1622ntf    fn4 9208   2.376   5.670   2.882  0.3204  0.2479  0.9965
 1622ntf    fn4 9209   2.543   5.548   2.895 -0.3498  0.1522  0.5124
 1622ntf    fn4 9210   2.347   5.472   2.843 -0.9121  0.3647 -0.2889
 1623ntf    cn1 9211   5.786   0.209   4.384  0.2310 -0.0958  0.4866
 1623ntf    sn2 9212   5.781   0.253   4.560 -0.1839  0.0814  0.4319
 1623ntf    nn3 9213   5.648   0.176   4.591 -0.4660  0.2322 -0.3831
 1623ntf    sn2 9214   5.495   0.211   4.590 -0.4890  0.1365 -0.2127
 1623ntf    cn1 9215   5.439   0.047   4.534  0.0350 -0.0667 -0.1472
 1623ntf    fn4 9216   5.909   0.216   4.334  0.0992 -0.2344  0.1392
 1623ntf    fn4 9217   5.751   0.084   4.359  0.1889 -0.0772  0.4521
 1623ntf    fn4 9218   5.718   0.295   4.309  0.3887 -0.1911  0.2307
 1623ntf    on5 9219   5.897   0.183   4.611 -0.5754 -0.4617  0.5813
 1623ntf    on5 9220   5.786   0.396   4.572  0.1120  0.0781  0.3538
 1623ntf    on5 9221   5.444   0.299   4.488  0.3421  0.9037  0.0279
 1623ntf    on5 9222   5.441   0.218   4.724 -0.2825  0.1317 -0.1290
 1623ntf    fn4 9223   5.467  -0.055   4.613 -0.3980 -0.2301 -0.2037
 1623ntf    fn4 9224   5.308   0.042   4.515  0.0079 -0.1560  0.0668
 1623ntf    fn4 9225   5.490   0.010   4.418 -0.4078 -0.7370 -0.1323
 1624ntf    cn1 9226   2.590   6.064   1.697 -0.2373  0.2370  0.1432
 1624ntf    sn2 9227   2.710   6.034   1.830 -0.1787 -0.1501  0.0042
 1624ntf    nn3 9228   2.616   5.953   1.927  0.2206 -0.4085  0.1780
 1624ntf    sn2 9229   2.647   5.918   2.077  0.2094 -0.2216  0.2244
 1624ntf    cn1 9230   2.544   6.043   2.160 -0.2360 -0.1535 -0.4269
 1624ntf    fn4 9231   2.565   5.960   1.619  0.2861 -0.0219  0.3147
 1624ntf    fn4 9232   2.476   6.108   1.747 -0.5431 -0.6479  0.2435
 1624ntf    fn4 9233   2.632   6.157   1.612 -0.7779  0.4786  0.1416
 1624ntf    on5 9234   2.813   5.954   1.769 -0.2690 -0.6201  0.4491
 1624ntf    on5 9235   2.751   6.165   1.873  0.0125 -0.0871 -0.3738
 1624ntf    on5 9236   2.785   5.943   2.111  0.0711  0.3792  0.3504
 1624ntf    on5 9237   2.595   5.789   2.116 -0.3713 -0.0998 -0.1308
 1624ntf    fn4 9238   2.581   6.160   2.111  0.5054 -0.1465  0.1397
 1624ntf    fn4 9239   2.416   6.035   2.127 -0.5962  0.5169  0.7574
 1624ntf    fn4 9240   2.572   6.063   2.287 -0.3701  0.3312 -0.4725
 1625ntf    cn1 9241   2.674   6.143   3.433  0.2533  0.1726  0.0913
 1625ntf    sn2 9242   2.765   6.038   3.550 -0.2668 -0.2360  0.1309
 1625ntf    nn3 9243   2.776   6.129   3.678  0.1261 -0.0266 -0.0514
 1625ntf    sn2 9244   2.896   6.201   3.749  0.1664 -0.1131 -0.0322
 1625ntf    cn1 9245   2.830   6.367   3.784  0.0807 -0.0876 -0.3114
 1625ntf    fn4 9246   2.655   6.082   3.317 -0.3996 -0.2337  0.4053
 1625ntf    fn4 9247   2.553   6.178   3.474  0.2887  0.0343  0.3123
 1625ntf    fn4 9248   2.734   6.258   3.406  0.1669  0.2793  0.3529
 1625ntf    on5 9249   2.677   5.926   3.574  0.0094 -0.4927 -0.0562
 1625ntf    on5 9250   2.894   6.006   3.494  0.1828  0.4933  0.7257
 1625ntf    on5 9251   2.999   6.234   3.653 -0.8018 -0.6174 -1.2698
 1625ntf    on5 9252   2.934   6.147   3.877 -0.3132 -0.5687 -0.0803
 1625ntf    fn4 9253   2.789   6.420   3.670  0.1989 -0.8343 -0.7136
 1625ntf    fn4 9254   2.722   6.367   3.859  0.2767 -0.5678 -0.0235
 1625ntf    fn4 9255   2.917   6.450   3.840  0.2030 -0.1662 -0.3820
 1626ntf    cn1 9256   4.814   6.533   2.849  0.3980  0.2945  0.0347
 1626ntf    sn2 9257   4.817   6.640   2.702  0.0995  0.6471  0.2854
 1626ntf    nn3 9258   4.756   6.771   2.764 -0.6585  0.4244  0.0233
 1626ntf    sn2 9259   4.837   6.888   2.831  0.1897 -0.1297 -0.0144
 1626ntf    cn1 9260   4.882   6.986   2.684 -0.0154  0.3015  0.2093
 1626ntf    fn4 9261   4.850   6.408   2.826 -0.1018  0.0623  0.4865
 1626ntf    fn4 9262   4.873   6.586   2.955  0.0213  0.1995  0.2943
 1626ntf    fn4 9263   4.686   6.525   2.883  0.3728 -0.1407 -0.1625
 1626ntf    on5 9264   4.956   6.640   2.663 -0.0739  0.2463 -0.3381
 1626ntf    on5 9265   4.728   6.577   2.608  0.5582  0.5513 -0.0846
 1626ntf    on5 9266   4.966   6.867   2.892  0.1561  0.2818  0.2039
 1626ntf    on5 9267   4.744   6.979   2.894  0.0592 -0.4732  0.2911
 1626ntf    fn4 9268   4.985   6.924   2.629 -0.1932  0.2449 -0.0574
 1626ntf    fn4 9269   4.786   6.998   2.595  0.0731 -0.2860  0.0319
 1626ntf    fn4 9270   4.924   7.109   2.711 -0.2032  0.5102 -0.4337
 1627ntf    cn1 9271   5.439   3.717   4.794 -0.1829 -0.3582 -0.0787
 1627ntf    sn2 9272   5.263   3.673   4.782 -0.2546 -0.1461  0.1751
 1627ntf    nn3 9273   5.263   3.516   4.775  0.6145 -0.1640  0.4478
 1627ntf    sn2 9274   5.277   3.420   4.652  0.0715  0.2549  0.0550
 1627ntf    cn1 9275   5.104   3.423   4.597 -0.0726 -0.3057  0.4757
 1627ntf    fn4 9276   5.466   3.847   4.796 -0.1025 -0.3723 -0.2118
 1627ntf    fn4 9277   5.501   3.676   4.903  0.5439 -0.0886 -0.3829
 1627ntf    fn4 9278   5.509   3.686   4.686  0.2477  0.2514  0.0175
 1627ntf    on5 9279   5.220   3.725   4.909 -0.8189  0.1212 -0.1225
 1627ntf    on5 9280   5.210   3.745   4.669 -0.9455  0.0223  0.5996
 1627ntf    on5 9281   5.301   3.282   4.686 -0.6300  0.1398  0.0949
 1627ntf    on5 9282   5.346   3.472   4.536  0.3880 -0.0791  0.0900
 1627ntf    fn4 9283   5.016   3.390   4.690 -0.3538  0.3621  0.4479
 1627ntf    fn4 9284   5.066   3.544   4.560 -0.0205 -0.3680  0.2162
 1627ntf    fn4 9285   5.082   3.350   4.489 -0.3106 -0.1675  0.4318
 1628ntf    cn1 9286   5.280   3.877   2.148 -0.1498  0.5155  0.1121
 1628ntf    sn2 9287   5.172   3.835   2.288  0.1963 -0.2010  0.1738
 1628ntf    nn3 9288   5.273   3.770   2.388  0.0876 -0.3086  0.2140
 1628ntf    sn2 9289   5.270   3.627   2.454 -0.2831 -0.2628  0.2983
 1628ntf    cn1 9290   5.445   3.578   2.470 -0.2069  0.0113  0.3046
 1628ntf    fn4 9291   5.358   3.975   2.190  0.0034  0.6490 -0.4797
 1628ntf    fn4 9292   5.363   3.780   2.111 -0.2628  0.3401  0.3130
 1628ntf    fn4 9293   5.208   3.908   2.042 -0.7234 -0.9111  0.0588
 1628ntf    on5 9294   5.118   3.962   2.332 -0.0619 -0.2246 -0.0732
 1628ntf    on5 9295   5.069   3.753   2.231  0.5912 -0.8585  0.3971
 1628ntf    on5 9296   5.215   3.526   2.366 -0.4780  0.1157 -0.0190
 1628ntf    on5 9297   5.218   3.616   2.588 -0.0562 -0.1087  0.3993
 1628ntf    fn4 9298   5.507   3.660   2.553  0.2654 -0.1483  0.1082
 1628ntf    fn4 9299   5.459   3.454   2.513 -0.2433  0.0122  0.3184
 1628ntf    fn4 9300   5.518   3.587   2.360 -0.6049  0.2140  0.0536
 1629ntf    cn1 9301   6.353   1.616   3.633  0.4128 -0.3863 -0.1405
 1629ntf    sn2 9302   6.279   1.544   3.484  0.0692  0.0267 -0.1687
 1629ntf    nn3 9303   6.178   1.439   3.542 -0.2753  0.7192  0.4945
 1629ntf    sn2 9304   6.175   1.287   3.580 -0.1691  0.5134 -0.3181
 1629ntf    cn1 9305   6.065   1.231   3.446 -0.0049  0.3050 -0.3670
 1629ntf    fn4 9306   6.256   1.662   3.711  0.4156 -0.2609 -0.2120
 1629ntf    fn4 9307   6.415   1.518   3.697 -0.2869 -0.5880  0.2425
 1629ntf    fn4 9308   6.431   1.720   3.608 -0.1434  0.1072  0.1443
 1629ntf    on5 9309   6.212   1.658   3.425 -0.0813  0.0642  0.0720
 1629ntf    on5 9310   6.391   1.489   3.412  0.1532  0.0303 -0.0414
 1629ntf    on5 9311   6.105   1.271   3.705  0.5260  0.4936  0.0725
 1629ntf    on5 9312   6.302   1.219   3.565 -0.4375 -0.0208 -0.1911
 1629ntf    fn4 9313   6.123   1.247   3.328  0.6566 -0.2114 -0.1191
 1629ntf    fn4 9314   6.048   1.101   3.458 -0.2390  0.3416 -0.2897
 1629ntf    fn4 9315   5.947   1.290   3.455 -0.1856 -0.1926  0.6532
 1630ntf    cn1 9316   0.803   1.867   6.380  0.5515 -0.0572  0.1849
 1630ntf    sn2 9317   0.649   1.845   6.473  0.4532 -0.2078 -0.0134
 1630ntf    nn3 9318   0.639   1.982   6.549  0.9023  0.1049 -0.5120
 1630ntf    sn2 9319   0.566   2.118   6.522 -0.0308 -0.1987  0.4392
 1630ntf    cn1 9320   0.403   2.080   6.595 -0.4883 -0.0330 -0.4859
 1630ntf    fn4 9321   0.830   1.752   6.321  0.1891 -0.1220  0.1479
 1630ntf    fn4 9322   0.774   1.949   6.280  0.4338 -0.1606  0.1329
 1630ntf    fn4 9323   0.910   1.910   6.444  0.3602  0.1702  0.3519
 1630ntf    on5 9324   0.542   1.838   6.375  0.1005 -0.9505  0.4207
 1630ntf    on5 9325   0.676   1.727   6.551  0.1702 -0.2004  0.0986
 1630ntf    on5 9326   0.530   2.148   6.386  0.2722  0.3338  0.4751
 1630ntf    on5 9327   0.600   2.236   6.599 -0.0789  0.0723  0.0446
 1630ntf    fn4 9328   0.413   2.050   6.723  0.2194 -0.3065 -0.5955
 1630ntf    fn4 9329   0.317   2.180   6.589 -0.0411  0.3871 -0.0099
 1630ntf    fn4 9330   0.340   1.980   6.536 -0.4803 -0.4483  0.1999
 1631ntf    cn1 9331   3.888   0.080   4.398 -0.6525 -0.1118 -0.1433
 1631ntf    sn2 9332   3.996   0.200   4.314 -0.0131 -0.4529  0.1841
 1631ntf    nn3 9333   3.951   0.335   4.380 -0.2219 -0.5405  0.2231
 1631ntf    sn2 9334   3.806   0.394   4.361 -0.0235 -0.0367  0.2507
 1631ntf    cn1 9335   3.843   0.552   4.278  0.4443 -0.1552  0.2316
 1631ntf    fn4 9336   3.902   0.100   4.528 -0.7319 -0.0570 -0.1428
 1631ntf    fn4 9337   3.763   0.083   4.354 -0.4086 -0.4268 -0.8619
 1631ntf    fn4 9338   3.935  -0.043   4.385 -0.6457 -0.1495  0.2310
 1631ntf    on5 9339   4.128   0.164   4.360  0.3528 -0.5288 -0.9121
 1631ntf    on5 9340   3.972   0.174   4.175 -0.1610 -0.0315  0.1304
 1631ntf    on5 9341   3.755   0.431   4.490 -0.1988 -0.0679  0.1907
 1631ntf    on5 9342   3.719   0.326   4.268  0.5963 -0.4218 -0.0565
 1631ntf    fn4 9343   3.908   0.631   4.361 -0.1015  0.3947  0.1372
 1631ntf    fn4 9344   3.921   0.537   4.172 -0.1522  0.5336 -0.3174
 1631ntf    fn4 9345   3.733   0.609   4.234  0.2826 -0.2888  0.4584
 1632ntf    cn1 9346   5.059   6.572   0.729 -0.0499 -0.2371 -0.2343
 1632ntf    sn2 9347   5.178   6.595   0.594 -0.0239 -0.1669 -0.2002
 1632ntf    nn3 9348   5.083   6.577   0.470  0.0097  0.3550 -0.3029
 1632ntf    sn2 9349   5.028   6.444   0.407  0.0094  0.1984  0.0257
 1632ntf    cn1 9350   5.098   6.465   0.240 -0.2778  0.6117 -0.0447
 1632ntf    fn4 9351   4.960   6.657   0.707  0.2900  0.1028 -0.4586
 1632ntf    fn4 9352   5.009   6.451   0.744  0.3269 -0.3696 -0.0429
 1632ntf    fn4 9353   5.107   6.609   0.847 -0.0353 -0.0744 -0.2910
 1632ntf    on5 9354   5.213   6.734   0.606 -0.3126 -0.0977 -0.1482
 1632ntf    on5 9355   5.280   6.495   0.614 -0.0737  0.0716  1.3668
 1632ntf    on5 9356   4.884   6.453   0.397  0.0044  0.2214  0.1268
 1632ntf    on5 9357   5.087   6.319   0.449  0.6381  0.2955 -0.5403
 1632ntf    fn4 9358   5.228   6.441   0.242 -0.3422  0.2722  0.1532
 1632ntf    fn4 9359   5.042   6.378   0.156  0.5148  0.0246  0.0205
 1632ntf    fn4 9360   5.089   6.585   0.186  0.3563  0.5483 -0.2940
 1633ntf    cn1 9361   0.361   2.825   2.609  0.4242  0.3587 -0.0939
 1633ntf    sn2 9362   0.190   2.814   2.669  0.5129  0.1274  0.1197
 1633ntf    nn3 9363   0.172   2.960   2.725  0.1119  0.3436 -0.5664
 1633ntf    sn2 9364   0.051   3.059   2.709 -0.1557  0.1349  0.1393
 1633ntf    cn1 9365   0.045   3.147   2.868 -0.2355  0.0413  0.1883
 1633ntf    fn4 9366   0.388   2.723   2.528  0.1574  0.2449 -0.0404
 1633ntf    fn4 9367   0.388   2.934   2.539 -0.4618  0.3913 -0.3929
 1633ntf    fn4 9368   0.456   2.814   2.700  0.1054  0.5222  0.2561
 1633ntf    on5 9369   0.122   2.795   2.543  0.6135 -0.1476  0.1083
 1633ntf    on5 9370   0.186   2.704   2.761 -0.5594  0.3395  0.3458
 1633ntf    on5 9371  -0.074   2.987   2.706 -0.0958  0.0440 -0.2056
 1633ntf    on5 9372   0.072   3.166   2.614  0.0939 -0.4752 -0.4988
 1633ntf    fn4 9373  -0.057   3.231   2.876 -0.2245  0.0779 -0.0355
 1633ntf    fn4 9374   0.034   3.065   2.971 -0.0218 -0.6452 -0.3297
 1633ntf    fn4 9375   0.149   3.228   2.885  0.2453 -0.5708  0.2325
 1634ntf    cn1 9376   6.236   1.339   6.749  0.2826 -0.0241 -0.1450
 1634ntf    sn2 9377   6.225   1.331   6.931 -0.0730  0.1097 -0.1603
 1634ntf    nn3 9378   6.083   1.396   6.949 -0.2269 -0.2430 -0.0849
 1634ntf    sn2 9379   6.044   1.531   7.020 -0.3494 -0.3836  0.1180
 1634ntf    cn1 9380   6.076   1.500   7.196  0.4641  0.1724  0.0748
 1634ntf    fn4 9381   6.352   1.300   6.699  0.1468  0.1263 -0.5802
 1634ntf    fn4 9382   6.150   1.258   6.690 -0.2743  0.4825 -0.0392
 1634ntf    fn4 9383   6.220   1.460   6.698  0.2913  0.0099 -0.0680
 1634ntf    on5 9384   6.230   1.188   6.954  0.0115 -0.0228 -0.9778
 1634ntf    on5 9385   6.335   1.417   6.966 -0.4984  0.5231  0.1724
 1634ntf    on5 9386   5.904   1.564   7.006 -0.2285  0.2390  0.3557
 1634ntf    on5 9387   6.131   1.643   6.992 -0.3578 -0.4418 -0.1452
 1634ntf    fn4 9388   6.058   1.615   7.259  0.1211 -0.3122  0.8877
 1634ntf    fn4 9389   5.983   1.416   7.239  0.9438 -0.6106 -0.3783
 1634ntf    fn4 9390   6.196   1.457   7.233  0.3550  0.2123  0.4738
 1635ntf    cn1 9391   0.528   3.872   5.398  0.0817  0.0072 -0.3933
 1635ntf    sn2 9392   0.661   3.919   5.513 -0.2675 -0.2361  0.1163
 1635ntf    nn3 9393   0.746   3.787   5.513 -0.0982 -0.1286 -0.2159
 1635ntf    sn2 9394   0.712   3.641   5.558  0.1869 -0.0660  0.2040
 1635ntf    cn1 9395   0.731   3.541   5.408 -0.1223  0.3177 -0.0902
 1635ntf    fn4 9396   0.579   3.797   5.302  0.2113  0.0972 -0.3945
 1635ntf    fn4 9397   0.431   3.803   5.455  0.2527 -0.2632 -0.4278
 1635ntf    fn4 9398   0.470   3.978   5.345  0.1250  0.3595  0.2494
 1635ntf    on5 9399   0.737   4.029   5.457 -0.7425 -0.0647 -0.1966
 1635ntf    on5 9400   0.587   3.959   5.629 -0.5723 -0.1051 -0.1219
 1635ntf    on5 9401   0.572   3.626   5.591  0.0511  0.4885 -0.1286
 1635ntf    on5 9402   0.816   3.589   5.644  0.3499  0.1722  0.1520
 1635ntf    fn4 9403   0.703   3.414   5.430 -0.0828  0.1933 -0.7177
 1635ntf    fn4 9404   0.650   3.576   5.309 -0.4898 -0.1290  0.0484
 1635ntf    fn4 9405   0.856   3.539   5.365 -0.2519 -0.5673 -0.4552
 1636ntf    cn1 9406   0.714   0.129   4.775 -0.0741 -0.2907 -0.0880
 1636ntf    sn2 9407   0.774   0.145   4.946  0.1228  0.2345 -0.2039
 1636ntf    nn3 9408   0.800  -0.008   4.971 -0.2422  0.1858 -0.1189
 1636ntf    sn2 9409   0.708  -0.119   5.034 -0.0074  0.0891  0.0520
 1636ntf    cn1 9410   0.734  -0.102   5.213 -0.0530 -0.4123  0.1075
 1636ntf    fn4 9411   0.813   0.102   4.692  0.1096 -0.2673  0.1217
 1636ntf    fn4 9412   0.625   0.032   4.759 -0.5217  0.1239 -0.1104
 1636ntf    fn4 9413   0.648   0.235   4.732 -0.1887 -0.2263  0.2426
 1636ntf    on5 9414   0.888   0.231   4.932 -0.1604  0.7421  0.5557
 1636ntf    on5 9415   0.667   0.207   5.021 -0.2224 -0.7736  0.1646
 1636ntf    on5 9416   0.768  -0.247   5.004  0.1392  0.2767 -0.4723
 1636ntf    on5 9417   0.569  -0.101   5.004 -0.0994 -0.9429 -0.2045
 1636ntf    fn4 9418   0.757   0.023   5.249  0.2250 -0.2937 -0.4844
 1636ntf    fn4 9419   0.630  -0.151   5.280  0.2955 -0.7551  0.4061
 1636ntf    fn4 9420   0.841  -0.167   5.255  0.2416 -0.0636 -0.1036
 1637ntf    cn1 9421   2.466   1.101   3.028  0.0907  0.3220  0.4631
 1637ntf    sn2 9422   2.580   1.205   2.931 -0.0591  0.2987  0.2636
 1637ntf    nn3 9423   2.497   1.217   2.798  0.1968  1.1816  0.1821
 1637ntf    sn2 9424   2.353   1.277   2.777 -0.2412  0.1484  0.1933
 1637ntf    cn1 9425   2.405   1.436   2.705 -0.1723 -0.1250 -0.3678
 1637ntf    fn4 9426   2.421   0.996   2.963 -0.2062  0.5567  0.2859
 1637ntf    fn4 9427   2.520   1.051   3.139  0.0380 -0.3208  0.2004
 1637ntf    fn4 9428   2.364   1.169   3.078 -0.1324  0.5831 -0.3430
 1637ntf    on5 9429   2.608   1.327   3.001 -0.7553  0.4978  0.2012
 1637ntf    on5 9430   2.688   1.111   2.909  0.0147  0.2339  0.8852
 1637ntf    on5 9431   2.273   1.300   2.895 -0.1508 -0.5073  0.3880
 1637ntf    on5 9432   2.287   1.207   2.669  0.1346  0.3179 -0.1486
 1637ntf    fn4 9433   2.303   1.498   2.648 -0.2479  0.1898  0.1066
 1637ntf    fn4 9434   2.456   1.523   2.791 -0.7353 -0.4271  0.2813
 1637ntf    fn4 9435   2.504   1.422   2.618  0.2278 -0.2132  0.0957
 1638ntf    cn1 9436   2.502   3.885   3.852  0.2469  0.1059 -0.7041
 1638ntf    sn2 9437   2.405   3.946   3.711 -0.0211  0.0641 -0.5376
 1638ntf    nn3 9438   2.388   4.094   3.759 -0.1240 -0.2716  0.4731
 1638ntf    sn2 9439   2.259   4.164   3.816  0.0737  0.0748  0.4964
 1638ntf    cn1 9440   2.308   4.335   3.775  0.2873 -0.0547  0.2041
 1638ntf    fn4 9441   2.603   3.966   3.880 -0.2197  0.5502 -0.2871
 1638ntf    fn4 9442   2.426   3.879   3.960  0.4248 -0.3492 -0.6055
 1638ntf    fn4 9443   2.559   3.768   3.829  0.5212 -0.0015  0.4555
 1638ntf    on5 9444   2.498   3.920   3.604  0.2059 -0.7494 -0.1525
 1638ntf    on5 9445   2.291   3.857   3.711 -0.1069  0.1685  0.3992
 1638ntf    on5 9446   2.255   4.161   3.960 -0.6243 -0.5313  0.4664
 1638ntf    on5 9447   2.133   4.139   3.750 -0.0853  0.1413  0.7755
 1638ntf    fn4 9448   2.427   4.362   3.825  0.4393 -0.6091  0.1477
 1638ntf    fn4 9449   2.310   4.375   3.649 -0.2241  0.8753  0.4832
 1638ntf    fn4 9450   2.222   4.418   3.832  0.2113 -0.3576  0.5323
 1639ntf    cn1 9451   1.729   3.902   5.390 -0.2699 -0.2366 -0.3686
 1639ntf    sn2 9452   1.550   3.908   5.359 -0.3434  0.1694  0.1228
 1639ntf    nn3 9453   1.552   3.893   5.203 -0.1708 -0.8634  0.2158
 1639ntf    sn2 9454   1.435   3.846   5.109  0.0591 -0.2896 -0.3700
 1639ntf    cn1 9455   1.449   3.668   5.143  0.3122 -0.2046 -0.0152
 1639ntf    fn4 9456   1.793   3.792   5.352  0.0233 -0.2605  0.1883
 1639ntf    fn4 9457   1.797   4.003   5.338 -0.0837 -0.2391 -0.1327
 1639ntf    fn4 9458   1.756   3.910   5.519 -0.4376  0.0737 -0.3519
 1639ntf    on5 9459   1.510   3.796   5.441 -0.7423  0.1567 -0.0862
 1639ntf    on5 9460   1.520   4.045   5.392 -0.1722  0.1789  0.2373
 1639ntf    on5 9461   1.461   3.861   4.968 -0.2804  0.2681 -0.3740
 1639ntf    on5 9462   1.305   3.879   5.161 -0.1010 -0.4838 -0.6440
 1639ntf    fn4 9463   1.444   3.593   5.034  0.2790  0.0710 -0.2046
 1639ntf    fn4 9464   1.547   3.634   5.224  0.7528 -0.3869 -0.6165
 1639ntf    fn4 9465   1.341   3.633   5.211  0.2632  0.0376  0.0325
 1640ntf    cn1 9466   1.858   5.242   5.170  0.3280  0.1134 -0.0193
 1640ntf    sn2 9467   1.941   5.361   5.279  0.1612  0.0391  0.1898
 1640ntf    nn3 9468   1.902   5.491   5.200  0.0638 -0.1634 -0.0972
 1640ntf    sn2 9469   1.774   5.581   5.213  0.2145  0.0229  0.0914
 1640ntf    cn1 9470   1.769   5.661   5.050  0.4243 -0.1998 -0.0232
 1640ntf    fn4 9471   1.752   5.298   5.116  0.4254 -0.0096 -0.3409
 1640ntf    fn4 9472   1.941   5.213   5.071  0.5648 -0.5564  0.3669
 1640ntf    fn4 9473   1.824   5.126   5.223 -0.4936  0.2045 -0.3420
 1640ntf    on5 9474   1.888   5.333   5.410 -0.4953  0.1737 -0.0471
 1640ntf    on5 9475   2.082   5.335   5.264  0.2189  0.3978  0.0897
 1640ntf    on5 9476   1.794   5.698   5.296  0.6018  0.1246 -0.1441
 1640ntf    on5 9477   1.653   5.505   5.231  0.1772 -0.0717 -0.5537
 1640ntf    fn4 9478   1.736   5.584   4.947 -0.1204 -0.3044  0.2296
 1640ntf    fn4 9479   1.686   5.762   5.037  0.4337 -0.2336 -0.3544
 1640ntf    fn4 9480   1.887   5.711   5.017  0.1955  0.2336 -0.1807
 1641ntf    cn1 9481   5.296   2.941   2.363  0.4597 -0.3295 -0.0412
 1641ntf    sn2 9482   5.136   2.881   2.427  0.3069  0.1049 -0.0140
 1641ntf    nn3 9483   5.053   2.934   2.306  0.4661  0.1640 -0.0988
 1641ntf    sn2 9484   4.987   2.852   2.189  0.2516  0.2799 -0.0607
 1641ntf    cn1 9485   4.823   2.925   2.215  0.1280 -0.1008  0.2416
 1641ntf    fn4 9486   5.338   2.895   2.247  0.1912  0.1300 -0.3210
 1641ntf    fn4 9487   5.278   3.069   2.337  0.0264 -0.2590  0.5811
 1641ntf    fn4 9488   5.388   2.926   2.457  0.2846  0.6842  0.3084
 1641ntf    on5 9489   5.151   2.739   2.442 -0.2995  0.0117 -0.2691
 1641ntf    on5 9490   5.119   2.960   2.547  0.1014  0.0406 -0.0009
 1641ntf    on5 9491   4.974   2.710   2.212  0.6019  0.2522 -0.0196
 1641ntf    on5 9492   5.026   2.893   2.056 -0.2081 -0.1989 -0.3491
 1641ntf    fn4 9493   4.821   3.054   2.185  0.4581 -0.0954  0.2414
 1641ntf    fn4 9494   4.727   2.869   2.143 -0.1405  0.2148  0.3529
 1641ntf    fn4 9495   4.782   2.921   2.341 -0.5421  0.0205  0.0340
 1642ntf    cn1 9496   2.865   3.146   6.775 -0.3920  0.1927  0.7024
 1642ntf    sn2 9497   2.958   3.006   6.706 -0.1306  0.5866  0.2438
 1642ntf    nn3 9498   2.874   2.891   6.771 -0.1428  0.3414 -0.2026
 1642ntf    sn2 9499   2.926   2.750   6.818  0.1832  0.3637 -0.4962
 1642ntf    cn1 9500   2.765   2.678   6.861  0.4019  0.0215 -0.2488
 1642ntf    fn4 9501   2.895   3.166   6.902  0.2589 -0.1747  0.6143
 1642ntf    fn4 9502   2.890   3.253   6.700  0.4071 -0.0821  0.5624
 1642ntf    fn4 9503   2.734   3.133   6.768 -0.3906  0.2059  0.6371
 1642ntf    on5 9504   2.939   3.021   6.564 -0.7483  0.2741  0.2928
 1642ntf    on5 9505   3.093   3.027   6.754  0.1354  0.0032 -0.2425
 1642ntf    on5 9506   2.994   2.763   6.945  0.6820  0.1184 -0.7358
 1642ntf    on5 9507   2.983   2.668   6.714  0.2155  0.2652 -0.4007
 1642ntf    fn4 9508   2.718   2.740   6.969  0.2535 -0.6119  0.0551
 1642ntf    fn4 9509   2.673   2.685   6.766  0.1390  0.3903  0.0267
 1642ntf    fn4 9510   2.783   2.552   6.898  0.7658  0.0978 -0.1625
 1643ntf    cn1 9511   0.604   3.009   6.525  0.0673 -0.0655 -0.1098
 1643ntf    sn2 9512   0.561   3.026   6.700  0.0086  0.0025 -0.1315
 1643ntf    nn3 9513   0.512   3.175   6.710  0.0967  0.0331 -0.1565
 1643ntf    sn2 9514   0.598   3.307   6.709  0.3549 -0.1336  0.0375
 1643ntf    cn1 9515   0.618   3.355   6.883 -0.0477  0.4545 -0.0764
 1643ntf    fn4 9516   0.509   3.052   6.444  0.3997 -0.4846 -0.7352
 1643ntf    fn4 9517   0.720   3.067   6.494  0.1149 -0.1402 -0.0724
 1643ntf    fn4 9518   0.626   2.881   6.496 -0.2136 -0.0967 -0.1852
 1643ntf    on5 9519   0.454   2.932   6.722 -0.2513  0.3043 -0.1006
 1643ntf    on5 9520   0.681   3.000   6.774 -0.4893 -0.3914  0.5508
 1643ntf    on5 9521   0.525   3.413   6.644  0.8105  0.0844 -0.1189
 1643ntf    on5 9522   0.732   3.296   6.657  0.3627 -0.3403  0.0989
 1643ntf    fn4 9523   0.742   3.359   6.928  0.1275 -0.0874 -0.5013
 1643ntf    fn4 9524   0.567   3.472   6.920  0.1967  0.4045  0.4240
 1643ntf    fn4 9525   0.556   3.276   6.969  0.4850 -0.4607 -0.5188
 1644ntf    cn1 9526   6.592   2.630   6.027 -0.2293 -0.5635  0.2452
 1644ntf    sn2 9527   6.742   2.567   5.946 -0.3092  0.3163 -0.6139
 1644ntf    nn3 9528   6.845   2.682   5.972  0.6106 -0.5201 -0.5247
 1644ntf    sn2 9529   6.937   2.700   6.099 -0.1520  0.1112 -0.0554
 1644ntf    cn1 9530   7.101   2.699   6.021 -0.0611 -0.2216  0.1412
 1644ntf    fn4 9531   6.489   2.548   6.018 -0.3568 -0.3689 -0.0768
 1644ntf    fn4 9532   6.609   2.657   6.156 -0.1573  0.0451  0.1134
 1644ntf    fn4 9533   6.548   2.738   5.964  0.1375 -0.4400  0.2027
 1644ntf    on5 9534   6.778   2.443   6.011 -0.4907  0.1118 -0.9006
 1644ntf    on5 9535   6.717   2.547   5.806 -0.5522 -0.3492 -0.4802
 1644ntf    on5 9536   6.946   2.584   6.184 -0.8542 -0.2556 -0.4728
 1644ntf    on5 9537   6.931   2.828   6.164  0.5685 -0.0453  0.3269
 1644ntf    fn4 9538   7.123   2.591   5.948 -0.3712 -0.1802 -0.0143
 1644ntf    fn4 9539   7.127   2.805   5.947  0.0958 -0.7958 -0.6395
 1644ntf    fn4 9540   7.187   2.698   6.122 -0.0257  0.3570  0.1215
 1645ntf    cn1 9541   3.438   3.856   3.794  0.1927 -0.2002 -0.0702
 1645ntf    sn2 9542   3.453   4.026   3.855  0.0090 -0.1891 -0.0567
 1645ntf    nn3 9543   3.366   4.101   3.748 -0.0600 -0.2022 -0.0104
 1645ntf    sn2 9544   3.230   4.179   3.750 -0.0214 -0.1248 -0.3309
 1645ntf    cn1 9545   3.295   4.327   3.832  0.0508 -0.2054 -0.2430
 1645ntf    fn4 9546   3.322   3.818   3.742  0.1000  0.4106 -0.3086
 1645ntf    fn4 9547   3.522   3.813   3.701  0.3515 -0.3245  0.1279
 1645ntf    fn4 9548   3.469   3.770   3.891 -0.4412  0.0932  0.3984
 1645ntf    on5 9549   3.394   4.015   3.987 -0.3596 -0.2461 -0.2239
 1645ntf    on5 9550   3.594   4.054   3.859 -0.0904  0.2572  0.6008
 1645ntf    on5 9551   3.131   4.124   3.839 -0.2149  0.2427 -0.3162
 1645ntf    on5 9552   3.186   4.232   3.623  0.0924  0.4662 -0.1274
 1645ntf    fn4 9553   3.356   4.290   3.944 -0.4210 -0.3538 -0.0320
 1645ntf    fn4 9554   3.389   4.382   3.757  0.6223 -0.4755  0.2600
 1645ntf    fn4 9555   3.203   4.417   3.861  0.1589 -0.1085 -0.1946
 1646ntf    cn1 9556   6.280   2.230   4.957 -0.2244  0.0445 -0.1990
 1646ntf    sn2 9557   6.166   2.203   5.097 -0.1791  0.2481 -0.1233
 1646ntf    nn3 9558   6.120   2.058   5.059  0.2172  0.2911 -0.7889
 1646ntf    sn2 9559   5.989   2.003   4.992  0.0521  0.0872 -0.3061
 1646ntf    cn1 9560   5.934   1.884   5.117  0.6597  0.1727  0.0462
 1646ntf    fn4 9561   6.343   2.346   4.958  0.0916 -0.1257 -0.3612
 1646ntf    fn4 9562   6.378   2.141   4.963  0.0994  0.4001 -0.1854
 1646ntf    fn4 9563   6.225   2.210   4.839 -0.4231  0.2883 -0.1477
 1646ntf    on5 9564   6.241   2.206   5.221 -0.2616 -0.0484 -0.0655
 1646ntf    on5 9565   6.066   2.306   5.088 -0.6213 -0.1345  0.3721
 1646ntf    on5 9566   6.009   1.914   4.880  0.0568 -0.0641 -0.1842
 1646ntf    on5 9567   5.885   2.103   4.977 -0.0004  0.0239 -0.3658
 1646ntf    fn4 9568   5.868   1.783   5.063  0.2935  0.4471 -0.0228
 1646ntf    fn4 9569   6.038   1.837   5.184  0.0299 -0.1612  0.8185
 1646ntf    fn4 9570   5.847   1.940   5.201 -0.1790 -0.3183 -0.4766
 1647ntf    cn1 9571   2.652   1.671   0.015  0.1181  0.1911 -0.3111
 1647ntf    sn2 9572   2.661   1.742  -0.153  0.1340  0.1105 -0.3444
 1647ntf    nn3 9573   2.577   1.625  -0.217  0.0473 -0.0978  0.1389
 1647ntf    sn2 9574   2.638   1.495  -0.280 -0.3199 -0.0416 -0.3378
 1647ntf    cn1 9575   2.513   1.378  -0.221  0.0282 -0.2702 -0.0518
 1647ntf    fn4 9576   2.732   1.740   0.094  0.2906  0.3348 -0.6078
 1647ntf    fn4 9577   2.527   1.684   0.057  0.2907  0.1659  0.2079
 1647ntf    fn4 9578   2.683   1.543   0.025 -0.4134  0.1280  0.5786
 1647ntf    on5 9579   2.595   1.870  -0.142 -0.0036  0.0013  0.1661
 1647ntf    on5 9580   2.803   1.745  -0.176  0.1672 -0.5695 -0.2599
 1647ntf    on5 9581   2.760   1.449  -0.217 -0.2318 -0.0877 -0.5409
 1647ntf    on5 9582   2.627   1.497  -0.424 -0.7692 -0.5367 -0.3090
 1647ntf    fn4 9583   2.535   1.265  -0.286 -0.3482 -0.0865 -0.5015
 1647ntf    fn4 9584   2.503   1.359  -0.090 -0.9804  0.3082 -0.0355
 1647ntf    fn4 9585   2.394   1.416  -0.265  0.0535 -0.1767 -0.0408
 1648ntf    cn1 9586   6.460   4.998   5.893 -0.1439  0.4620  0.8208
 1648ntf    sn2 9587   6.383   5.139   5.808 -0.1466 -0.0324 -0.0013
 1648ntf    nn3 9588   6.255   5.067   5.751 -0.0439 -0.1445 -0.0922
 1648ntf    sn2 9589   6.226   5.005   5.610 -0.2202 -0.3046  0.0133
 1648ntf    cn1 9590   6.061   4.928   5.608 -0.2757 -0.1932  0.2558
 1648ntf    fn4 9591   6.371   4.929   5.961 -0.7129  0.2023 -0.1704
 1648ntf    fn4 9592   6.519   4.919   5.805 -0.4150 -0.0356  1.0817
 1648ntf    fn4 9593   6.553   5.034   5.981  0.2178  0.3197  0.5007
 1648ntf    on5 9594   6.347   5.231   5.913 -0.3720 -0.2501  0.1122
 1648ntf    on5 9595   6.472   5.190   5.707 -0.1475 -0.3543 -0.1651
 1648ntf    on5 9596   6.313   4.894   5.580 -0.2207 -0.2239 -0.2846
 1648ntf    on5 9597   6.213   5.107   5.509 -0.6216 -0.2355  0.1339
 1648ntf    fn4 9598   6.024   4.887   5.728 -1.0512  0.6784  0.3188
 1648ntf    fn4 9599   5.966   5.014   5.578 -0.2413 -0.2944 -0.1478
 1648ntf    fn4 9600   6.067   4.825   5.526 -0.2678 -0.1744  0.2324
 1649ntf    cn1 9601   3.978   0.355   0.579 -0.3758  0.3119 -0.3200
 1649ntf    sn2 9602   4.130   0.274   0.638 -0.5808  0.1383 -0.0299
 1649ntf    nn3 9603   4.155   0.358   0.769 -0.1062  0.1185 -0.1066
 1649ntf    sn2 9604   4.125   0.319   0.918 -0.2291  0.4071 -0.0560
 1649ntf    cn1 9605   4.290   0.258   0.965 -0.3379  0.1136 -0.0553
 1649ntf    fn4 9606   3.881   0.344   0.667  0.0425  0.1702  0.1269
 1649ntf    fn4 9607   3.990   0.484   0.553  0.2154  0.2627 -0.3080
 1649ntf    fn4 9608   3.944   0.289   0.469 -0.4364 -0.2174  0.0100
 1649ntf    on5 9609   4.096   0.136   0.658 -0.1043 -0.0392 -0.4305
 1649ntf    on5 9610   4.219   0.301   0.528  0.3530  0.5134  0.8066
 1649ntf    on5 9611   4.036   0.208   0.941 -0.1299  0.2216 -0.5669
 1649ntf    on5 9612   4.098   0.436   0.999 -0.3019  0.4371 -0.1237
 1649ntf    fn4 9613   4.374   0.354   0.928 -0.2310 -0.0118 -0.1372
 1649ntf    fn4 9614   4.310   0.241   1.095 -0.3736  0.2583 -0.0300
 1649ntf    fn4 9615   4.323   0.146   0.904 -0.1925  0.1717 -0.0840
 1650ntf    cn1 9616   6.745   2.667   0.959  0.1897 -0.1692  0.0355
 1650ntf    sn2 9617   6.636   2.615   1.095 -0.0031  0.0603 -0.0324
 1650ntf    nn3 9618   6.510   2.702   1.058  0.1946  0.3272 -0.0872
 1650ntf    sn2 9619   6.379   2.663   0.980 -0.0359  0.0285  0.4396
 1650ntf    cn1 9620   6.272   2.801   1.029 -0.1969  0.1160 -0.1525
 1650ntf    fn4 9621   6.858   2.599   0.949  0.6608  0.6520 -0.3392
 1650ntf    fn4 9622   6.684   2.661   0.841  0.3187 -0.2754 -0.0262
 1650ntf    fn4 9623   6.782   2.793   0.960  0.3693 -0.2231  0.1176
 1650ntf    on5 9624   6.613   2.475   1.072  0.1670 -0.0410  0.4039
 1650ntf    on5 9625   6.692   2.657   1.221 -0.7444  0.3733  0.2037
 1650ntf    on5 9626   6.305   2.555   1.039 -0.4830  0.0605 -0.0572
 1650ntf    on5 9627   6.386   2.682   0.837  0.2305  0.2889  0.4850
 1650ntf    fn4 9628   6.264   2.827   1.158 -0.1436 -0.2869 -0.0663
 1650ntf    fn4 9629   6.321   2.914   0.981  1.1464 -0.2104  0.4286
 1650ntf    fn4 9630   6.149   2.793   0.981 -0.3305  0.2290  0.1688
 1651ntf    cn1 9631   2.667   3.139   2.651 -0.3877 -0.0896 -0.2777
 1651ntf    sn2 9632   2.796   3.046   2.564 -0.1269 -0.0326  0.0491
 1651ntf    nn3 9633   2.733   2.902   2.573  0.3109 -0.2376 -0.1232
 1651ntf    sn2 9634   2.774   2.785   2.669 -0.3426 -0.2333  0.1638
 1651ntf    cn1 9635   2.915   2.718   2.576 -0.3230  0.1595 -0.0885
 1651ntf    fn4 9636   2.641   3.101   2.775 -0.2072 -0.6157 -0.3996
 1651ntf    fn4 9637   2.694   3.268   2.663  0.1162 -0.2050 -0.1438
 1651ntf    fn4 9638   2.552   3.134   2.586 -0.5324 -0.0040 -0.0287
 1651ntf    on5 9639   2.802   3.111   2.436 -0.4750 -0.0334  0.0336
 1651ntf    on5 9640   2.915   3.053   2.647  0.0803  0.1567 -0.2623
 1651ntf    on5 9641   2.675   2.680   2.676 -0.4036 -0.2521 -0.8746
 1651ntf    on5 9642   2.832   2.827   2.794  0.4703 -0.0693 -0.2601
 1651ntf    fn4 9643   2.892   2.689   2.449 -0.1613  0.1807 -0.1232
 1651ntf    fn4 9644   3.019   2.799   2.589 -0.0313 -0.2771  0.3080
 1651ntf    fn4 9645   2.965   2.616   2.642 -0.4730  0.4133  0.4256
 1652ntf    cn1 9646   4.237   4.798   2.322 -0.0937 -0.4212  0.0441
 1652ntf    sn2 9647   4.168   4.928   2.429  0.3801 -0.0129 -0.1415
 1652ntf    nn3 9648   4.280   5.036   2.406 -0.0128  0.4425  0.0686
 1652ntf    sn2 9649   4.291   5.139   2.288 -0.0067  0.1599 -0.1786
 1652ntf    cn1 9650   4.276   5.291   2.385 -0.2446  0.1958 -0.2719
 1652ntf    fn4 9651   4.253   4.832   2.195 -0.2363  0.2319  0.1957
 1652ntf    fn4 9652   4.359   4.765   2.363  0.0169  0.0194  0.0748
 1652ntf    fn4 9653   4.160   4.691   2.327 -0.5734 -0.0522  0.6995
 1652ntf    on5 9654   4.034   4.959   2.387  0.2936  0.3263  0.3696
 1652ntf    on5 9655   4.185   4.870   2.560  0.0197 -0.1436 -0.1510
 1652ntf    on5 9656   4.191   5.138   2.184 -0.0501  0.7599 -0.1417
 1652ntf    on5 9657   4.427   5.145   2.238 -0.0116 -0.3419 -0.2586
 1652ntf    fn4 9658   4.328   5.399   2.328 -0.3539  0.2960 -0.1841
 1652ntf    fn4 9659   4.154   5.329   2.420 -0.1682 -0.2684  0.5092
 1652ntf    fn4 9660   4.343   5.268   2.497  0.0743  0.1246 -0.4776
 1653ntf    cn1 9661   4.947   3.734   1.673  0.0230 -0.2288 -0.2978
 1653ntf    sn2 9662   5.110   3.658   1.651  0.2034  0.0871 -0.0604
 1653ntf    nn3 9663   5.079   3.573   1.522 -0.2982  0.1413  0.0247
 1653ntf    sn2 9664   5.082   3.416   1.520  0.1295  0.1467  0.0795
 1653ntf    cn1 9665   5.079   3.376   1.342  0.1950  0.1456  0.0789
 1653ntf    fn4 9666   4.932   3.831   1.584  0.0717 -0.1661 -0.2372
 1653ntf    fn4 9667   4.858   3.637   1.655 -0.4177  0.1270 -0.0348
 1653ntf    fn4 9668   4.932   3.793   1.790 -0.5484 -0.3746 -0.2942
 1653ntf    on5 9669   5.186   3.777   1.621  0.2385  0.0325 -0.1930
 1653ntf    on5 9670   5.138   3.598   1.779  0.1582 -0.0027 -0.0918
 1653ntf    on5 9671   4.957   3.368   1.574 -0.0136  0.0888 -0.2964
 1653ntf    on5 9672   5.200   3.353   1.574  0.1376  0.0719 -0.0248
 1653ntf    fn4 9673   5.059   3.248   1.316  0.3712  0.1736 -0.1970
 1653ntf    fn4 9674   4.991   3.445   1.272 -0.2522 -0.6792 -0.1829
 1653ntf    fn4 9675   5.192   3.403   1.280  0.0892 -0.7354 -0.5190
 1654ntf    cn1 9676   3.987   1.992   3.838  0.4351  0.3574  0.0310
 1654ntf    sn2 9677   3.930   1.877   3.710  0.0494  0.2077  0.3334
 1654ntf    nn3 9678   3.888   1.981   3.601  0.1701  0.4429  0.5105
 1654ntf    sn2 9679   3.958   2.041   3.474 -0.2733 -0.3953 -0.1433
 1654ntf    cn1 9680   3.886   1.941   3.341 -0.5029 -0.0901 -0.2488
 1654ntf    fn4 9681   4.018   1.928   3.950 -0.0197 -0.0467 -0.0687
 1654ntf    fn4 9682   4.098   2.054   3.802  0.3431  0.5822  0.1309
 1654ntf    fn4 9683   3.896   2.084   3.867 -0.2247 -0.3383  0.1930
 1654ntf    on5 9684   4.038   1.786   3.680 -0.0970  0.2395 -0.2965
 1654ntf    on5 9685   3.807   1.813   3.751 -0.3808 -0.0265 -1.2327
 1654ntf    on5 9686   4.100   2.012   3.469 -0.1431  0.1316  0.3594
 1654ntf    on5 9687   3.914   2.173   3.439  0.1071 -0.1863  0.1484
 1654ntf    fn4 9688   3.942   1.821   3.345  0.1311  0.1908 -0.4884
 1654ntf    fn4 9689   3.754   1.930   3.346 -0.4316 -0.6600  0.5291
 1654ntf    fn4 9690   3.919   1.984   3.220  0.6995 -0.3111 -0.0122
 1655ntf    cn1 9691   6.821   4.453   2.603 -0.0519  0.0415 -0.2645
 1655ntf    sn2 9692   6.977   4.478   2.514 -0.0916  0.2940 -0.2613
 1655ntf    nn3 9693   6.904   4.500   2.377 -0.0872 -0.1584 -0.3376
 1655ntf    sn2 9694   6.888   4.640   2.307 -0.4398 -0.1065 -0.1529
 1655ntf    cn1 9695   6.792   4.575   2.167 -0.1360 -0.1386 -0.3465
 1655ntf    fn4 9696   6.756   4.339   2.586 -0.0598  0.0573 -0.3417
 1655ntf    fn4 9697   6.852   4.443   2.731  0.3527 -0.0798 -0.3700
 1655ntf    fn4 9698   6.737   4.554   2.589 -0.4719 -0.3398 -0.5478
 1655ntf    on5 9699   7.036   4.593   2.579 -0.7675  0.3984  0.1759
 1655ntf    on5 9700   7.047   4.352   2.511 -0.3744  0.1365 -0.2489
 1655ntf    on5 9701   7.000   4.701   2.240 -0.6526  0.6052  0.1298
 1655ntf    on5 9702   6.808   4.739   2.376 -0.0652 -0.1470  0.3486
 1655ntf    fn4 9703   6.798   4.655   2.061  0.2904  0.0229 -0.2032
 1655ntf    fn4 9704   6.830   4.459   2.116 -0.0890 -0.1407 -0.3071
 1655ntf    fn4 9705   6.663   4.562   2.188  0.0056 -0.3143  0.4478
 1656ntf    cn1 9706   1.262   6.324   0.220 -0.0808  0.1915  0.1644
 1656ntf    sn2 9707   1.174   6.166   0.245 -0.3804  0.3834  0.3329
 1656ntf    nn3 9708   1.059   6.182   0.139  0.0550 -0.2980 -0.2530
 1656ntf    sn2 9709   0.903   6.172   0.158  0.0697  0.1600  0.1277
 1656ntf    cn1 9710   0.873   6.350   0.137 -0.0563  0.0796 -0.3714
 1656ntf    fn4 9711   1.273   6.349   0.091  0.5207  0.1615  0.2076
 1656ntf    fn4 9712   1.194   6.423   0.275 -0.2211  0.2899 -0.1827
 1656ntf    fn4 9713   1.382   6.331   0.275  0.1548 -0.6920 -0.2208
 1656ntf    on5 9714   1.279   6.078   0.199 -0.7439  0.1951 -0.1471
 1656ntf    on5 9715   1.143   6.144   0.384 -0.3576 -0.2715  0.2374
 1656ntf    on5 9716   0.861   6.145   0.293  0.4977 -0.1437  0.2042
 1656ntf    on5 9717   0.831   6.105   0.053 -0.2027  0.1041  0.3472
 1656ntf    fn4 9718   0.779   6.393   0.219 -0.5125  0.1424 -0.9198
 1656ntf    fn4 9719   0.977   6.429   0.157  0.1316 -0.3446  0.3736
 1656ntf    fn4 9720   0.837   6.374   0.012 -0.2620  0.4003 -0.2498
 1657ntf    cn1 9721   5.698   3.028   3.775  0.1252 -0.0173 -0.2555
 1657ntf    sn2 9722   5.834   3.116   3.858 -0.1508  0.0412  0.1385
 1657ntf    nn3 9723   5.859   3.022   3.981  0.1736 -0.2697 -0.1615
 1657ntf    sn2 9724   5.957   2.902   4.002 -0.0018 -0.4063 -0.1270
 1657ntf    cn1 9725   6.106   2.983   4.069  0.0090 -0.4943 -0.0424
 1657ntf    fn4 9726   5.728   2.902   3.748  0.3512  0.0276 -0.2120
 1657ntf    fn4 9727   5.592   3.025   3.855 -0.1930 -0.0286 -0.6718
 1657ntf    fn4 9728   5.658   3.078   3.659  0.1341 -0.2708 -0.3678
 1657ntf    on5 9729   5.943   3.109   3.764 -0.4561 -0.3868 -0.1906
 1657ntf    on5 9730   5.777   3.244   3.892 -0.2787  0.1907 -0.6141
 1657ntf    on5 9731   6.000   2.835   3.882  0.1209 -0.4873 -0.0390
 1657ntf    on5 9732   5.923   2.820   4.116  0.5267 -0.1440  0.2260
 1657ntf    fn4 9733   6.091   3.041   4.187  0.5143  0.5543 -0.4781
 1657ntf    fn4 9734   6.208   2.900   4.081  0.6144  0.2726  0.1705
 1657ntf    fn4 9735   6.153   3.077   3.988 -0.0674  0.0028  0.4833
 1658ntf    cn1 9736   1.145   4.004   6.132 -0.1372 -0.0906 -0.0819
 1658ntf    sn2 9737   1.092   3.832   6.110 -0.1593 -0.0770 -0.1318
 1658ntf    nn3 9738   0.943   3.835   6.157  0.1167  0.5824  0.7117
 1658ntf    sn2 9739   0.862   3.783   6.281 -0.2751 -0.0298  0.1989
 1658ntf    cn1 9740   0.690   3.780   6.222 -0.1411 -0.1850 -0.1888
 1658ntf    fn4 9741   1.048   4.093   6.127  0.2586  0.3250 -0.4535
 1658ntf    fn4 9742   1.202   4.027   6.250 -0.1390  0.0749 -0.1129
 1658ntf    fn4 9743   1.231   4.032   6.035  0.0603  0.2156  0.1788
 1658ntf    on5 9744   1.103   3.812   5.967  0.1214 -0.6350 -0.0364
 1658ntf    on5 9745   1.181   3.755   6.194 -0.2521 -0.4974 -0.4150
 1658ntf    on5 9746   0.846   3.876   6.390 -1.3560  0.2889 -0.2164
 1658ntf    on5 9747   0.890   3.646   6.316  0.2404 -0.0736 -0.3637
 1658ntf    fn4 9748   0.679   3.872   6.127 -0.3729  0.1444  0.1536
 1658ntf    fn4 9749   0.655   3.658   6.184  0.2733 -0.4783  0.3652
 1658ntf    fn4 9750   0.603   3.829   6.309  0.3391 -0.0021  0.1915
 1659ntf    cn1 9751   1.566   1.605   2.964 -0.2210 -0.2013  0.6721
 1659ntf    sn2 9752   1.503   1.760   3.036 -0.2238  0.0914  0.0451
 1659ntf    nn3 9753   1.499   1.863   2.917  0.0785  0.5875  0.4619
 1659ntf    sn2 9754   1.374   1.943   2.865 -0.0538 -0.0169 -0.1608
 1659ntf    cn1 9755   1.464   2.097   2.830  0.2619 -0.1183  0.2000
 1659ntf    fn4 9756   1.698   1.594   2.960 -0.1943  0.4190 -0.7141
 1659ntf    fn4 9757   1.520   1.500   3.029 -0.5901 -0.4240  0.0600
 1659ntf    fn4 9758   1.524   1.589   2.839  0.2101  0.0684  0.4900
 1659ntf    on5 9759   1.372   1.731   3.089  0.0912 -0.7007  0.3973
 1659ntf    on5 9760   1.606   1.800   3.128 -0.2539  0.1293  0.0621
 1659ntf    on5 9761   1.282   1.982   2.968  0.3167 -0.2408  0.2578
 1659ntf    on5 9762   1.332   1.897   2.735  0.3283 -0.1949 -0.2234
 1659ntf    fn4 9763   1.526   2.148   2.935  0.1389  0.0786  0.1774
 1659ntf    fn4 9764   1.562   2.078   2.742 -0.1101 -0.2722 -0.1830
 1659ntf    fn4 9765   1.383   2.191   2.785  0.5001  0.0517  0.1242
 1660ntf    cn1 9766   3.735   1.952   6.552  0.2010  0.0364  0.1681
 1660ntf    sn2 9767   3.719   1.982   6.374 -0.0887  0.3564  0.2488
 1660ntf    nn3 9768   3.587   1.911   6.328  0.2683 -0.0877 -0.0976
 1660ntf    sn2 9769   3.568   1.766   6.271 -0.2685 -0.2131  0.3879
 1660ntf    cn1 9770   3.393   1.744   6.313 -0.2655  0.1594  0.5950
 1660ntf    fn4 9771   3.624   1.981   6.617  0.2582  0.6652 -0.0121
 1660ntf    fn4 9772   3.766   1.825   6.577 -0.1446  0.0019  0.4247
 1660ntf    fn4 9773   3.831   2.020   6.613  0.3877  0.2998 -0.4184
 1660ntf    on5 9774   3.708   2.125   6.358 -0.5335  0.3123  0.1375
 1660ntf    on5 9775   3.841   1.926   6.321  0.4211  1.0283  0.6906
 1660ntf    on5 9776   3.629   1.660   6.347 -0.2966  0.0286  0.7512
 1660ntf    on5 9777   3.569   1.747   6.128 -0.0895 -0.2773  0.3968
 1660ntf    fn4 9778   3.350   1.626   6.272 -0.2723  0.3707 -0.0030
 1660ntf    fn4 9779   3.364   1.751   6.442 -0.0036  0.0259  0.6629
 1660ntf    fn4 9780   3.331   1.835   6.240  0.1284 -0.3222 -0.3467
 1661ntf    cn1 9781   4.943   3.102   4.823 -0.5861 -0.1746 -0.1789
 1661ntf    sn2 9782   4.910   2.962   4.712 -0.0664 -0.2965 -0.1838
 1661ntf    nn3 9783   4.756   2.949   4.740 -0.1741 -0.0793 -0.6809
 1661ntf    sn2 9784   4.625   2.987   4.661 -0.4604  0.0940 -0.1249
 1661ntf    cn1 9785   4.554   2.821   4.648  0.0127 -0.1159 -0.0374
 1661ntf    fn4 9786   4.858   3.203   4.811 -0.4188  0.0651  0.6206
 1661ntf    fn4 9787   4.939   3.074   4.952 -0.2684 -0.6185 -0.2658
 1661ntf    fn4 9788   5.063   3.156   4.807 -0.5379 -0.2199  0.0236
 1661ntf    on5 9789   4.940   3.008   4.579  0.0147 -0.1505 -0.1142
 1661ntf    on5 9790   4.990   2.851   4.758 -0.2799 -0.2738  0.2461
 1661ntf    on5 9791   4.636   3.033   4.525 -0.1669 -0.0646 -0.1553
 1661ntf    on5 9792   4.526   3.057   4.739 -0.4594 -0.1273  0.0751
 1661ntf    fn4 9793   4.641   2.743   4.586  0.4292  0.3660 -0.0625
 1661ntf    fn4 9794   4.530   2.765   4.766  0.1741  0.3324  0.2068
 1661ntf    fn4 9795   4.444   2.829   4.576  0.0630 -0.3293 -0.1388
 1662ntf    cn1 9796   2.903   0.902   1.751  0.4085  0.1270 -0.5341
 1662ntf    sn2 9797   2.975   0.872   1.915 -0.3535 -0.2388 -0.2640
 1662ntf    nn3 9798   2.866   0.936   2.008  0.0390  0.0455  0.0027
 1662ntf    sn2 9799   2.738   0.873   2.074  0.0042  0.1267  0.0134
 1662ntf    cn1 9800   2.596   0.970   2.016  0.0282 -0.0599 -0.3601
 1662ntf    fn4 9801   2.908   1.028   1.712 -0.1662  0.2747 -0.1403
 1662ntf    fn4 9802   2.959   0.835   1.651  0.2719 -0.4093 -0.2575
 1662ntf    fn4 9803   2.775   0.869   1.749  0.4828 -0.2445  0.3606
 1662ntf    on5 9804   2.998   0.730   1.925 -0.1588 -0.2725 -1.1108
 1662ntf    on5 9805   3.096   0.950   1.923 -0.3156 -0.3258  0.0373
 1662ntf    on5 9806   2.730   0.897   2.216  0.3286  0.4087 -0.0152
 1662ntf    on5 9807   2.697   0.744   2.024  0.0102  0.3226 -0.5064
 1662ntf    fn4 9808   2.585   0.968   1.884 -0.2303 -0.9278 -0.3319
 1662ntf    fn4 9809   2.481   0.924   2.062 -0.0646  0.2260 -0.3056
 1662ntf    fn4 9810   2.614   1.097   2.047  0.1008 -0.2673  0.4627
 1663ntf    cn1 9811   2.089   3.237   4.224 -0.1359 -0.0952 -0.1404
 1663ntf    sn2 9812   2.120   3.138   4.374 -0.0915  0.0518 -0.0525
 1663ntf    nn3 9813   1.997   3.185   4.460  0.1410  0.3504  0.1187
 1663ntf    sn2 9814   1.961   3.138   4.606  0.2474 -0.3719 -0.0809
 1663ntf    cn1 9815   1.937   3.299   4.687  0.0036 -0.2342 -0.4267
 1663ntf    fn4 9816   2.103   3.366   4.251  0.7051 -0.2183  0.0452
 1663ntf    fn4 9817   2.174   3.202   4.129  0.0632  0.3841 -0.1441
 1663ntf    fn4 9818   1.966   3.221   4.179 -0.1751 -0.2761  0.0286
 1663ntf    on5 9819   2.118   3.003   4.325  0.0952  0.0660 -0.0998
 1663ntf    on5 9820   2.243   3.193   4.425 -0.1395 -0.1244  0.2493
 1663ntf    on5 9821   2.059   3.079   4.693  0.5140 -0.1691 -0.2417
 1663ntf    on5 9822   1.831   3.076   4.612  0.0777 -0.0110 -0.0117
 1663ntf    fn4 9823   1.811   3.339   4.678 -0.0860 -0.4259 -0.0178
 1663ntf    fn4 9824   1.959   3.300   4.817 -0.1532  0.4510 -0.3974
 1663ntf    fn4 9825   2.013   3.393   4.633 -0.1155 -0.0176 -0.2212
 1664ntf    cn1 9826   5.914   3.576   1.195  0.4520  0.1811 -0.1980
 1664ntf    sn2 9827   5.999   3.489   1.060 -0.1665 -0.1061 -0.4077
 1664ntf    nn3 9828   5.877   3.475   0.963 -0.3505 -0.2746 -0.1537
 1664ntf    sn2 9829   5.854   3.558   0.832 -0.1779  0.6458  0.3913
 1664ntf    cn1 9830   5.970   3.487   0.711 -0.6642 -0.1702  0.4004
 1664ntf    fn4 9831   5.874   3.700   1.171 -0.0901 -0.0587 -0.5541
 1664ntf    fn4 9832   5.819   3.509   1.257  0.5575  0.0148 -0.2152
 1664ntf    fn4 9833   6.006   3.579   1.290  0.4078 -0.3591 -0.1362
 1664ntf    on5 9834   6.111   3.572   1.022  0.3391 -0.3475  0.5316
 1664ntf    on5 9835   6.034   3.361   1.116  0.0474  0.1757  0.1123
 1664ntf    on5 9836   5.892   3.696   0.851  0.1570  0.5661  0.3079
 1664ntf    on5 9837   5.726   3.533   0.771 -0.0966  0.4481  0.2991
 1664ntf    fn4 9838   5.952   3.540   0.591 -0.1323 -0.2137  0.3010
 1664ntf    fn4 9839   6.095   3.504   0.751 -0.3966 -0.4632 -0.3045
 1664ntf    fn4 9840   5.943   3.359   0.691 -0.0193 -0.1923 -0.3598
 1665ntf    cn1 9841   5.372   6.100   1.682 -0.2538  0.3679  0.1054
 1665ntf    sn2 9842   5.244   5.982   1.628  0.1019 -0.0971  0.2678
 1665ntf    nn3 9843   5.168   5.973   1.765  0.3716 -0.3516  0.4020
 1665ntf    sn2 9844   5.029   6.034   1.805  0.2869 -0.3466  0.1064
 1665ntf    cn1 9845   4.920   5.899   1.750 -0.1358  0.1240 -0.2093
 1665ntf    fn4 9846   5.321   6.168   1.783  0.0822  0.1805  0.4065
 1665ntf    fn4 9847   5.484   6.044   1.726 -0.6152 -0.7199 -0.3116
 1665ntf    fn4 9848   5.411   6.194   1.597 -0.3837  0.6117  0.3135
 1665ntf    on5 9849   5.174   6.049   1.521  0.7012  0.0695 -0.0228
 1665ntf    on5 9850   5.320   5.864   1.596  0.2439 -0.0391  0.3902
 1665ntf    on5 9851   4.986   6.157   1.744 -0.2904 -0.4353  0.3167
 1665ntf    on5 9852   5.007   6.031   1.948  0.1667 -0.0949  0.0941
 1665ntf    fn4 9853   4.936   5.876   1.620 -0.0191 -0.8046 -0.0343
 1665ntf    fn4 9854   4.945   5.786   1.812 -0.5643  0.2125  0.1325
 1665ntf    fn4 9855   4.794   5.934   1.773 -0.1988 -0.0502 -0.2878
 1666ntf    cn1 9856   2.583   4.910   4.506  0.3555 -0.0604  0.1919
 1666ntf    sn2 9857   2.520   4.813   4.646  0.1050 -0.0896  0.0599
 1666ntf    nn3 9858   2.597   4.676   4.633 -0.1376 -0.1899 -0.3441
 1666ntf    sn2 9859   2.543   4.541   4.575 -0.1700 -0.2106 -0.2663
 1666ntf    cn1 9860   2.623   4.439   4.703  0.0865  0.6616  0.2751
 1666ntf    fn4 9861   2.568   4.842   4.394  0.0461  0.2621  0.0315
 1666ntf    fn4 9862   2.529   5.031   4.497 -0.5260 -0.4379  0.2151
 1666ntf    fn4 9863   2.715   4.916   4.503  0.3768 -0.4404  0.3387
 1666ntf    on5 9864   2.572   4.888   4.757  0.0859  0.8906 -0.5781
 1666ntf    on5 9865   2.376   4.814   4.634  0.1467  0.5887 -0.4064
 1666ntf    on5 9866   2.612   4.506   4.454  0.0421 -0.1622 -0.1587
 1666ntf    on5 9867   2.402   4.509   4.587 -0.1692 -0.0961  0.0628
 1666ntf    fn4 9868   2.601   4.453   4.833  0.1632 -0.8553  0.4696
 1666ntf    fn4 9869   2.590   4.314   4.674 -0.3797  0.7748  0.3096
 1666ntf    fn4 9870   2.753   4.454   4.691  0.0661  0.2553 -0.5057
 1667ntf    cn1 9871   5.896   5.383   5.198  0.0673  0.2388  0.1699
 1667ntf    sn2 9872   5.930   5.508   5.070 -0.5596 -0.1003 -0.3301
 1667ntf    nn3 9873   5.842   5.617   5.141  0.0026 -0.2285  0.5874
 1667ntf    sn2 9874   5.740   5.725   5.089  0.1788 -0.1662  0.3682
 1667ntf    cn1 9875   5.610   5.621   5.015  0.0281  0.3058 -0.0359
 1667ntf    fn4 9876   5.870   5.262   5.151  0.4904 -0.1037  0.8068
 1667ntf    fn4 9877   5.998   5.369   5.281  0.1324  0.0565  0.0609
 1667ntf    fn4 9878   5.795   5.419   5.276  0.3858  0.6284  0.4065
 1667ntf    on5 9879   6.070   5.539   5.084 -0.7166  0.2407  0.5802
 1667ntf    on5 9880   5.879   5.452   4.947 -0.3517  0.2496 -0.5736
 1667ntf    on5 9881   5.793   5.796   4.975 -0.7770 -0.2325 -0.1263
 1667ntf    on5 9882   5.675   5.798   5.195  0.1006  0.0743  0.1544
 1667ntf    fn4 9883   5.574   5.514   5.084  0.0393  0.1321 -0.2972
 1667ntf    fn4 9884   5.509   5.705   5.002 -0.2585  0.0240  0.3829
 1667ntf    fn4 9885   5.648   5.582   4.894 -0.1034  0.2991 -0.0752
 1668ntf    cn1 9886   3.508   5.905   0.110 -0.2966 -0.2695  0.1909
 1668ntf    sn2 9887   3.330   5.932   0.080 -0.2936  0.0065  0.4109
 1668ntf    nn3 9888   3.295   5.811  -0.014 -0.6754  0.1014  0.4301
 1668ntf    sn2 9889   3.222   5.675   0.016 -0.1025 -0.2756  0.1377
 1668ntf    cn1 9890   3.303   5.568  -0.107  0.0919  0.0973 -0.0623
 1668ntf    fn4 9891   3.573   5.991   0.186 -0.3207 -0.2692  0.2107
 1668ntf    fn4 9892   3.533   5.789   0.168  0.4309 -0.3853 -0.3511
 1668ntf    fn4 9893   3.571   5.887  -0.004 -0.3763 -0.4611  0.1763
 1668ntf    on5 9894   3.268   5.931   0.210  0.1543 -0.0419  0.6271
 1668ntf    on5 9895   3.336   6.057   0.009 -0.2886 -0.2315 -0.0124
 1668ntf    on5 9896   3.085   5.668  -0.028 -0.0138 -0.0907 -0.1747
 1668ntf    on5 9897   3.262   5.618   0.142  0.0974  0.7675  0.5578
 1668ntf    fn4 9898   3.434   5.554  -0.096  0.0685 -0.3711 -0.3600
 1668ntf    fn4 9899   3.251   5.446  -0.104  0.0032  0.1194 -0.5988
 1668ntf    fn4 9900   3.284   5.613  -0.229 -0.1683  0.2388  0.0285
 1669ntf    cn1 9901   2.925   6.869   0.831  0.0310  0.1232  0.1763
 1669ntf    sn2 9902   2.823   6.900   0.978 -0.2278  0.0757  0.0077
 1669ntf    nn3 9903   2.729   7.013   0.922 -0.2090  0.3052  0.4263
 1669ntf    sn2 9904   2.572   7.015   0.912 -0.1808  0.0384 -0.1383
 1669ntf    cn1 9905   2.534   7.063   1.083  0.5367 -0.2393  0.1045
 1669ntf    fn4 9906   2.853   6.827   0.728  0.2282 -0.3469  0.2285
 1669ntf    fn4 9907   2.995   6.977   0.803  0.3565 -0.0480  0.3232
 1669ntf    fn4 9908   3.018   6.780   0.860  0.0792  0.1115 -0.0155
 1669ntf    on5 9909   2.762   6.771   1.000  0.2190 -0.2597 -0.6889
 1669ntf    on5 9910   2.917   6.954   1.073 -0.0895 -0.1560  0.0029
 1669ntf    on5 9911   2.511   6.887   0.890  0.0357  0.0282 -0.6935
 1669ntf    on5 9912   2.529   7.123   0.827  0.1767  0.1654 -0.1618
 1669ntf    fn4 9913   2.404   7.086   1.087  0.5528 -0.1263 -0.0155
 1669ntf    fn4 9914   2.558   6.960   1.163  0.1280 -0.0187  0.5135
 1669ntf    fn4 9915   2.600   7.171   1.124  0.0305  0.0488  0.1662
 1670ntf    cn1 9916   2.302   3.195   0.115 -0.0747  0.0201  0.1083
 1670ntf    sn2 9917   2.159   3.305   0.135 -0.0529  0.0650  0.0214
 1670ntf    nn3 9918   2.061   3.199   0.196  0.2056 -0.0648  0.2129
 1670ntf    sn2 9919   1.968   3.221   0.321 -0.1318 -0.1338 -0.0250
 1670ntf    cn1 9920   1.807   3.273   0.252 -0.1118 -0.0104  0.0211
 1670ntf    fn4 9921   2.273   3.089   0.042 -0.1321  0.0076  0.1495
 1670ntf    fn4 9922   2.399   3.257   0.049  0.0604 -0.0998  0.1927
 1670ntf    fn4 9923   2.343   3.156   0.235 -0.1131  0.1739  0.1718
 1670ntf    on5 9924   2.204   3.408   0.226  0.0723 -0.2289  0.2928
 1670ntf    on5 9925   2.141   3.334  -0.005  0.1987  0.2229  0.0210
 1670ntf    on5 9926   2.010   3.317   0.420  0.1074 -0.3823  0.1148
 1670ntf    on5 9927   1.923   3.096   0.375  0.3286 -0.1955  0.2143
 1670ntf    fn4 9928   1.703   3.240   0.326  0.0825 -0.2621  0.1871
 1670ntf    fn4 9929   1.798   3.401   0.223  0.7245  0.0550  0.0161
 1670ntf    fn4 9930   1.773   3.222   0.135 -0.5075 -0.3226  0.2693
 1671ntf    cn1 9931   1.319   0.667   3.598  0.2910 -0.0848 -0.2336
 1671ntf    sn2 9932   1.282   0.611   3.767  0.0723  0.1418 -0.2057
 1671ntf    nn3 9933   1.128   0.637   3.782  0.0758 -0.1148  0.2967
 1671ntf    sn2 9934   1.023   0.596   3.892 -0.4374 -0.2304 -0.2278
 1671ntf    cn1 9935   0.937   0.452   3.822 -0.2043 -0.3589 -0.2520
 1671ntf    fn4 9936   1.414   0.598   3.538 -0.2547 -0.7143 -0.3818
 1671ntf    fn4 9937   1.210   0.647   3.525  0.4382  0.0465 -0.4911
 1671ntf    fn4 9938   1.353   0.795   3.590 -0.0296  0.0259  0.1341
 1671ntf    on5 9939   1.328   0.475   3.762 -0.4766 -0.0469 -0.1397
 1671ntf    on5 9940   1.352   0.704   3.852 -0.7808  0.2379  0.3983
 1671ntf    on5 9941   0.923   0.699   3.890  0.4300  0.6370 -0.1307
 1671ntf    on5 9942   1.078   0.549   4.017 -0.6908 -0.2790 -0.1364
 1671ntf    fn4 9943   0.849   0.483   3.729 -0.5611  0.0617  0.2173
 1671ntf    fn4 9944   1.014   0.358   3.768  0.4081 -0.1309  0.2096
 1671ntf    fn4 9945   0.869   0.384   3.914  0.1899 -0.4706 -0.0395
 1672ntf    cn1 9946   1.869   3.250   3.869  0.5467 -0.0548 -0.0344
 1672ntf    sn2 9947   1.883   3.404   3.772 -0.2703 -0.1095 -0.2469
 1672ntf    nn3 9948   1.768   3.487   3.839  0.1142 -0.0420  0.3432
 1672ntf    sn2 9949   1.622   3.532   3.801  0.2653  0.3345  0.2089
 1672ntf    cn1 9950   1.634   3.707   3.754  0.0846  0.2743 -0.0617
 1672ntf    fn4 9951   1.780   3.169   3.815  0.1514  0.6821 -0.5129
 1672ntf    fn4 9952   1.982   3.183   3.882  0.2379 -0.6391 -0.3355
 1672ntf    fn4 9953   1.839   3.278   3.994  0.3498 -0.2977 -0.0287
 1672ntf    on5 9954   2.013   3.459   3.806  0.0776 -0.6157 -0.7492
 1672ntf    on5 9955   1.861   3.366   3.635  0.1063 -0.9060 -0.0940
 1672ntf    on5 9956   1.539   3.511   3.917  0.2344 -0.2432  0.0824
 1672ntf    on5 9957   1.575   3.476   3.677 -0.2470 -0.4442  0.7465
 1672ntf    fn4 9958   1.512   3.749   3.726 -0.1529 -0.4132 -0.0690
 1672ntf    fn4 9959   1.683   3.780   3.853 -0.6058  0.1409  0.3855
 1672ntf    fn4 9960   1.706   3.719   3.643  0.2161 -0.4264 -0.0535
 1673ntf    cn1 9961   1.925   3.895   4.511 -0.1208  0.0944  0.0954
 1673ntf    sn2 9962   1.959   3.982   4.667  0.0999  0.4038 -0.1272
 1673ntf    nn3 9963   2.099   3.921   4.705 -0.0069 -0.0176 -0.4051
 1673ntf    sn2 9964   2.113   3.798   4.801  0.0427  0.3582  0.0688
 1673ntf    cn1 9965   2.250   3.709   4.722 -0.3246 -0.0624 -0.0966
 1673ntf    fn4 9966   2.007   3.933   4.415 -0.2328  0.2584  0.0633
 1673ntf    fn4 9967   1.943   3.765   4.528  0.0277  0.0511 -0.3832
 1673ntf    fn4 9968   1.804   3.921   4.463  0.1424  0.6808 -0.2566
 1673ntf    on5 9969   1.975   4.121   4.629  0.2801  0.2631 -0.5810
 1673ntf    on5 9970   1.849   3.946   4.752 -0.0230  0.8032 -0.1125
 1673ntf    on5 9971   2.013   3.695   4.786 -0.2679  0.6731 -0.0477
 1673ntf    on5 9972   2.160   3.833   4.933 -0.0876 -0.1948  0.2655
 1673ntf    fn4 9973   2.260   3.582   4.758  0.1156 -0.0623 -0.2149
 1673ntf    fn4 9974   2.231   3.701   4.591  0.1081  0.2398 -0.1808
 1673ntf    fn4 9975   2.367   3.768   4.739  0.0031 -0.5582 -0.5894
 1674ntf    cn1 9976   6.089   5.274   2.553 -0.1565 -0.0387  0.1161
 1674ntf    sn2 9977   6.236   5.189   2.488 -0.1901  0.2037 -0.2798
 1674ntf    nn3 9978   6.271   5.096   2.610  0.1530  0.0435 -0.4969
 1674ntf    sn2 9979   6.368   5.128   2.730  0.3307 -0.2028 -0.5742
 1674ntf    cn1 9980   6.304   4.991   2.830  0.0707  0.4737  0.1956
 1674ntf    fn4 9981   5.999   5.196   2.610  0.2013 -0.5674 -0.0322
 1674ntf    fn4 9982   6.125   5.369   2.638  0.1269  0.0180 -0.0673
 1674ntf    fn4 9983   6.018   5.345   2.467  0.3167  0.2259 -0.0629
 1674ntf    on5 9984   6.184   5.119   2.373 -0.7679 -0.1140  0.1676
 1674ntf    on5 9985   6.335   5.290   2.462 -0.0594  0.0475 -0.3964
 1674ntf    on5 9986   6.329   5.235   2.819  0.2720 -0.2160 -0.5842
 1674ntf    on5 9987   6.509   5.102   2.717  0.3643 -0.3742  0.1171
 1674ntf    fn4 9988   6.393   4.935   2.909 -0.4429 -0.1827  0.3233
 1674ntf    fn4 9989   6.198   5.023   2.904  0.5433  0.8048  0.7330
 1674ntf    fn4 9990   6.263   4.888   2.758  0.9352  0.4663 -0.2978
 1675ntf    cn1 9991   5.063   2.140   5.675  0.0332  0.1923  0.2409
 1675ntf    sn2 9992   4.984   1.985   5.728 -0.1037  0.2452  0.1901
 1675ntf    nn3 9993   4.930   1.940   5.588  0.2841  0.4337 -0.0224
 1675ntf    sn2 9994   4.910   1.791   5.545 -0.0923  0.4847 -0.0303
 1675ntf    cn1 9995   4.730   1.787   5.574 -0.0654 -0.0913  0.0837
 1675ntf    fn4 9996   5.105   2.210   5.779  0.7217  0.0043  0.0938
 1675ntf    fn4 9997   5.172   2.114   5.605  0.2377 -0.1879  0.6887
 1675ntf    fn4 9998   4.979   2.218   5.609  0.0926 -0.1483 -0.2424
 1675ntf    on5 9999   5.095   1.910   5.781 -0.0191 -0.3003 -0.7458
 1675ntf    on510000   4.875   2.027   5.813 -0.6954 -1.0606  0.0981
 1675ntf    on510001   4.968   1.691   5.631  0.4314  0.6843 -0.1515
 1675ntf    on510002   4.924   1.770   5.403 -0.1000 -0.3828  0.0904
 1675ntf    fn410003   4.670   1.679   5.529  0.2850 -0.2640  0.0249
 1675ntf    fn410004   4.693   1.807   5.700  0.0228 -0.2233  0.1306
 1675ntf    fn410005   4.674   1.881   5.500  0.0554 -0.2598 -0.2229
 1676ntf    cn110006   5.752   5.154   1.279 -0.4239 -0.1958  0.1123
 1676ntf    sn210007   5.670   5.048   1.155  0.1594 -0.1208 -0.3454
 1676ntf    nn310008   5.787   4.980   1.076 -0.0846 -0.4576 -0.4219
 1676ntf    sn210009   5.844   5.017   0.934 -0.3079  0.5766 -0.2541
 1676ntf    cn110010   6.017   4.972   0.963 -0.4370 -0.0706 -0.4665
 1676ntf    fn410011   5.847   5.092   1.346 -0.1760 -0.1396 -0.1861
 1676ntf    fn410012   5.815   5.257   1.226  0.6527 -0.8015  0.1868
 1676ntf    fn410013   5.653   5.202   1.353  0.3977  0.3027  0.9051
 1676ntf    on510014   5.596   4.952   1.235  0.6892 -0.0427  0.2480
 1676ntf    on510015   5.586   5.136   1.079  0.0407  0.1903  0.1365
 1676ntf    on510016   5.847   5.153   0.888  0.0588  0.7590  0.2920
 1676ntf    on510017   5.800   4.914   0.843 -0.5251  0.1775  0.2892
 1676ntf    fn410018   6.075   4.992   0.846  0.2855 -0.2476 -0.1473
 1676ntf    fn410019   6.065   5.048   1.060 -0.2820 -0.4508 -0.2421
 1676ntf    fn410020   6.049   4.847   0.993 -0.0911  0.0996 -0.1021
 1677ntf    cn110021   0.696   5.296   6.696 -0.1909  0.2702 -0.0841
 1677ntf    sn210022   0.811   5.401   6.789  0.1085  0.1023 -0.2659
 1677ntf    nn310023   0.781   5.369   6.940  0.0636 -0.2782 -0.3535
 1677ntf    sn210024   0.865   5.312   7.060 -0.2693  0.0428  0.0326
 1677ntf    cn110025   0.732   5.210   7.131 -0.5389  0.1469 -0.3158
 1677ntf    fn410026   0.569   5.326   6.721 -0.1838 -0.0242  0.3159
 1677ntf    fn410027   0.717   5.310   6.566  0.0783 -0.3474 -0.1106
 1677ntf    fn410028   0.705   5.166   6.720 -0.7029  0.2633  0.0789
 1677ntf    on510029   0.938   5.354   6.737 -0.1713 -0.0685 -0.8028
 1677ntf    on510030   0.763   5.532   6.751  0.1031  0.0703 -0.3690
 1677ntf    on510031   0.910   5.406   7.159 -0.2809  0.1524 -0.0655
 1677ntf    on510032   0.965   5.212   7.037 -0.2236  0.2091 -0.4993
 1677ntf    fn410033   0.625   5.285   7.157 -0.5706  0.0030 -0.0204
 1677ntf    fn410034   0.694   5.112   7.052  0.0287 -0.2013 -0.1589
 1677ntf    fn410035   0.767   5.152   7.245 -0.6553  0.3958 -0.1524
 1678ntf    cn110036   1.393   0.365   2.903 -0.1509  0.0339 -0.0766
 1678ntf    sn210037   1.451   0.248   3.030 -0.2530 -0.1256 -0.1769
 1678ntf    nn310038   1.528   0.144   2.941 -0.4432 -0.2371 -0.2106
 1678ntf    sn210039   1.659   0.070   2.987 -0.2463  0.2642  0.0422
 1678ntf    cn110040   1.646  -0.088   2.898 -0.0846  0.3990 -0.2184
 1678ntf    fn410041   1.314   0.318   2.808 -0.4790  0.5152 -0.0457
 1678ntf    fn410042   1.318   0.453   2.967  0.2461  0.4848 -0.2224
 1678ntf    fn410043   1.494   0.431   2.849 -0.5088  0.0460 -0.7354
 1678ntf    on510044   1.531   0.335   3.113 -0.5457  0.0418 -0.0698
 1678ntf    on510045   1.331   0.187   3.082  0.2965 -0.7722  0.3543
 1678ntf    on510046   1.667   0.026   3.124  0.3417  0.2478  0.0037
 1678ntf    on510047   1.778   0.127   2.930 -0.4167  0.2771 -0.3066
 1678ntf    fn410048   1.757  -0.160   2.893 -0.3679 -0.0703  0.2618
 1678ntf    fn410049   1.545  -0.159   2.945 -0.0041  0.2592 -0.2548
 1678ntf    fn410050   1.616  -0.066   2.771 -0.8223  0.0324 -0.1106
 1679ntf    cn110051   1.604   5.844   4.739  0.5576 -0.2220  0.1772
 1679ntf    sn210052   1.587   5.984   4.624  0.2500 -0.2904  0.1379
 1679ntf    nn310053   1.440   6.026   4.659 -0.0098 -0.7108 -0.4397
 1679ntf    sn210054   1.318   6.075   4.573  0.2759 -0.0620 -0.4812
 1679ntf    cn110055   1.253   5.911   4.529 -0.1447 -0.1123  0.3017
 1679ntf    fn410056   1.730   5.818   4.768  0.5229  0.2764  0.8092
 1679ntf    fn410057   1.550   5.866   4.858  0.5771 -0.1383  0.1707
 1679ntf    fn410058   1.550   5.731   4.697 -0.4522  0.1533  0.4266
 1679ntf    on510059   1.695   6.066   4.676  0.1627  0.0393 -0.1958
 1679ntf    on510060   1.606   5.906   4.505  0.0992 -0.5650  0.2941
 1679ntf    on510061   1.357   6.144   4.453 -0.6904  0.9449 -0.2413
 1679ntf    on510062   1.214   6.138   4.651  0.1864 -0.1663 -0.5164
 1679ntf    fn410063   1.124   5.914   4.501 -0.1521 -0.6031  0.2719
 1679ntf    fn410064   1.318   5.847   4.433 -0.3854  0.0464  0.0306
 1679ntf    fn410065   1.260   5.834   4.636  0.3878 -0.0908  0.2854
 1680ntf    cn110066   3.344   3.932   6.168  0.4306  0.0827  0.0273
 1680ntf    sn210067   3.252   3.777   6.190  0.2015  0.2160  0.0169
 1680ntf    nn310068   3.370   3.700   6.259  0.1475 -0.1285 -0.2736
 1680ntf    sn210069   3.409   3.547   6.259  0.4465 -0.0539 -0.0802
 1680ntf    cn110070   3.400   3.527   6.439  0.2985 -0.3651 -0.1224
 1680ntf    fn410071   3.461   3.905   6.113  0.3234 -0.5867  0.1219
 1680ntf    fn410072   3.281   4.028   6.102 -0.0394 -0.3069 -0.0950
 1680ntf    fn410073   3.372   3.985   6.286  0.1784  0.3401 -0.0257
 1680ntf    on510074   3.144   3.828   6.270  0.4220  0.2810  0.2768
 1680ntf    on510075   3.224   3.742   6.053 -0.1273 -1.1973  0.4351
 1680ntf    on510076   3.544   3.511   6.226  0.2484 -0.1850 -0.7741
 1680ntf    on510077   3.304   3.464   6.206 -0.1398  0.5160  0.1665
 1680ntf    fn410078   3.317   3.612   6.497  0.5768  0.0287 -0.3028
 1680ntf    fn410079   3.364   3.405   6.477 -0.0732 -0.2194  0.0011
 1680ntf    fn410080   3.524   3.550   6.481  0.0091  0.0301  0.5322
 1681ntf    cn110081   6.131   2.218   0.321  0.1669 -0.2253  0.3583
 1681ntf    sn210082   6.307   2.210   0.366  0.2411  0.1486  0.1382
 1681ntf    nn310083   6.367   2.145   0.236  0.1513  0.8260 -0.2425
 1681ntf    sn210084   6.517   2.144   0.191  0.2952  0.0200  0.2427
 1681ntf    cn110085   6.508   2.273   0.063 -0.1706 -0.0097  0.2443
 1681ntf    fn410086   6.065   2.303   0.397 -0.1923  0.3380 -0.5730
 1681ntf    fn410087   6.104   2.253   0.196  0.8775  1.2225  0.5901
 1681ntf    fn410088   6.069   2.101   0.335 -0.4693 -0.0094 -0.5558
 1681ntf    on510089   6.344   2.345   0.398  0.0821  0.2845 -0.2431
 1681ntf    on510090   6.306   2.115   0.474 -0.1912 -0.4377 -0.3723
 1681ntf    on510091   6.552   2.034   0.104  0.4526  0.4727 -0.2795
 1681ntf    on510092   6.621   2.177   0.285 -0.1496  0.3186  0.6295
 1681ntf    fn410093   6.626   2.315   0.020  0.2051 -0.6721  0.6266
 1681ntf    fn410094   6.443   2.234  -0.045  0.4015 -0.5329  0.0825
 1681ntf    fn410095   6.450   2.383   0.108 -0.6767 -0.0761 -0.2303
 1682ntf    cn110096   6.059   4.353   0.653 -0.1860 -0.2374 -0.1237
 1682ntf    sn210097   6.228   4.407   0.611 -0.2530  0.0564 -0.0166
 1682ntf    nn310098   6.292   4.273   0.660  0.2413  0.3960  0.2771
 1682ntf    sn210099   6.408   4.193   0.589  0.2005  0.3220  0.2941
 1682ntf    cn110100   6.543   4.310   0.622  0.5163  0.0368  0.0240
 1682ntf    fn410101   6.044   4.246   0.576 -0.6365 -0.4095  0.2058
 1682ntf    fn410102   6.045   4.331   0.782  0.1652  0.5866  0.0600
 1682ntf    fn410103   5.966   4.441   0.619  0.7831  0.7247 -0.3425
 1682ntf    on510104   6.216   4.441   0.472  0.0695 -0.3349 -0.1391
 1682ntf    on510105   6.261   4.512   0.704 -0.0848 -0.0282  0.0197
 1682ntf    on510106   6.398   4.180   0.446 -1.0437  0.1674  0.3860
 1682ntf    on510107   6.443   4.072   0.659 -0.2367 -0.3495 -0.6237
 1682ntf    fn410108   6.659   4.250   0.603  0.1899 -0.4816 -0.3540
 1682ntf    fn410109   6.535   4.418   0.545  0.1255  0.1082  0.1612
 1682ntf    fn410110   6.537   4.366   0.742  0.0849 -0.0588  0.0495
 1683ntf    cn110111   3.471   4.958   2.536  0.1204 -0.3213  0.2362
 1683ntf    sn210112   3.532   4.912   2.371  0.0661 -0.1548  0.1691
 1683ntf    nn310113   3.521   4.756   2.382 -0.7507 -0.1227 -0.0989
 1683ntf    sn210114   3.535   4.653   2.264 -0.1819  0.0286 -0.1675
 1683ntf    cn110115   3.629   4.515   2.335  0.1298  0.3387  0.0262
 1683ntf    fn410116   3.351   4.907   2.557 -0.0955  0.1465  0.1444
 1683ntf    fn410117   3.554   4.924   2.634 -0.3747 -0.2079  0.7022
 1683ntf    fn410118   3.459   5.089   2.550  0.1234 -0.3071  0.1070
 1683ntf    on510119   3.434   4.967   2.280  0.0195 -0.3606  0.0960
 1683ntf    on510120   3.665   4.967   2.362 -0.1818  0.4456  0.1337
 1683ntf    on510121   3.619   4.692   2.153  0.4747 -0.1206  0.2701
 1683ntf    on510122   3.408   4.598   2.224  0.2322 -0.7869 -0.3642
 1683ntf    fn410123   3.559   4.421   2.397  0.0387  0.2408 -0.2246
 1683ntf    fn410124   3.691   4.453   2.236 -0.2071  0.3830 -0.2155
 1683ntf    fn410125   3.731   4.554   2.410  0.6246 -0.1238 -0.3910
 1684ntf    cn110126   0.230   1.857   0.050 -0.0059 -0.0970 -0.2852
 1684ntf    sn210127   0.280   1.724   0.163 -0.0061  0.2192  0.0873
 1684ntf    nn310128   0.332   1.807   0.286 -0.1126  0.3126  0.0690
 1684ntf    sn210129   0.260   1.844   0.421 -0.1917 -0.1341  0.1489
 1684ntf    cn110130   0.351   1.991   0.475 -0.1266 -0.2251  0.2849
 1684ntf    fn410131   0.325   1.949   0.042 -0.1611  0.0962  0.0912
 1684ntf    fn410132   0.210   1.819  -0.075 -0.5945 -0.3948 -0.1051
 1684ntf    fn410133   0.123   1.919   0.096 -0.0957 -0.5977  0.1944
 1684ntf    on510134   0.163   1.642   0.179 -0.2240  0.6368  0.6844
 1684ntf    on510135   0.395   1.666   0.097  0.0514  0.0261  0.3546
 1684ntf    on510136   0.290   1.755   0.531 -0.0310 -0.2298  0.0290
 1684ntf    on510137   0.125   1.893   0.409  0.1347  0.8330  0.3671
 1684ntf    fn410138   0.276   2.062   0.558 -0.3670 -0.2185  0.0637
 1684ntf    fn410139   0.455   1.952   0.548 -0.0785  0.3070  0.5039
 1684ntf    fn410140   0.381   2.075   0.378 -0.1180  0.1929  0.6462
 1685ntf    cn110141   1.055   6.197   2.936 -0.1277 -0.2159  0.5026
 1685ntf    sn210142   1.200   6.121   3.016  0.0834 -0.3019  0.0422
 1685ntf    nn310143   1.145   6.083   3.158 -0.3719 -0.0599 -0.0679
 1685ntf    sn210144   1.029   5.985   3.196 -0.2195 -0.1267  0.2221
 1685ntf    cn110145   1.054   5.980   3.376 -0.0537 -0.2808  0.1943
 1685ntf    fn410146   1.089   6.279   2.838  0.0484 -0.6430  0.2018
 1685ntf    fn410147   0.972   6.109   2.884  0.0634  0.1304 -0.4100
 1685ntf    fn410148   0.986   6.265   3.026  0.0909  0.5460  0.1009
 1685ntf    on510149   1.227   6.007   2.932  0.8781  0.0733 -0.2242
 1685ntf    on510150   1.305   6.220   3.005 -0.1411 -0.0372  0.2654
 1685ntf    on510151   1.042   5.847   3.158  0.3183  0.0795 -0.3445
 1685ntf    on510152   0.898   6.046   3.189 -0.2558 -0.1388  0.7025
 1685ntf    fn410153   1.074   6.101   3.427 -0.3603 -0.2909  0.3371
 1685ntf    fn410154   0.957   5.915   3.438 -0.1564 -0.3631 -0.0531
 1685ntf    fn410155   1.169   5.919   3.403  0.2604  0.0753 -0.3151
 1686ntf    cn110156   4.894   2.888   0.042  0.3977 -0.2249  0.4132
 1686ntf    sn210157   4.761   2.771  -0.002  0.2818  0.0483  0.0357
 1686ntf    nn310158   4.782   2.772  -0.158 -0.0454  0.0656 -0.0091
 1686ntf    sn210159   4.808   2.644  -0.245 -0.0596 -0.0018  0.0851
 1686ntf    cn110160   4.989   2.632  -0.242 -0.0614 -0.0190  0.1151
 1686ntf    fn410161   4.889   2.924   0.169 -0.3112 -0.0822  0.3503
 1686ntf    fn410162   5.015   2.838   0.023  0.4324  0.1445 -0.3969
 1686ntf    fn410163   4.897   2.996  -0.034 -0.1641 -0.1439  0.4961
 1686ntf    on510164   4.799   2.650   0.066 -0.0230 -0.1654 -0.1701
 1686ntf    on510165   4.638   2.829   0.045  0.3531 -0.0429  0.3329
 1686ntf    on510166   4.781   2.669  -0.385  0.0454  0.0069  0.0662
 1686ntf    on510167   4.759   2.515  -0.203  0.1494 -0.0673  0.1255
 1686ntf    fn410168   5.043   2.598  -0.126  0.4953 -0.0632 -0.1514
 1686ntf    fn410169   5.040   2.558  -0.339 -0.3225 -0.7657  0.5393
 1686ntf    fn410170   5.036   2.751  -0.278 -0.1668 -0.0492 -0.1189
 1687ntf    cn110171   3.447   3.866   5.440 -0.4957  0.1012  0.0826
 1687ntf    sn210172   3.598   3.887   5.342 -0.3032 -0.0794  0.3393
 1687ntf    nn310173   3.694   3.956   5.446 -0.1756  0.6347 -0.2383
 1687ntf    sn210174   3.842   4.004   5.430 -0.0260  0.2131 -0.1288
 1687ntf    cn110175   3.933   3.865   5.504 -0.1632  0.3390  0.2787
 1687ntf    fn410176   3.405   3.975   5.502 -0.5789  0.2457 -0.2291
 1687ntf    fn410177   3.347   3.836   5.359 -0.1090 -0.3521 -0.2323
 1687ntf    fn410178   3.446   3.766   5.528 -0.3826 -0.0630 -0.1024
 1687ntf    on510179   3.637   3.755   5.300 -0.0800  0.1489 -0.1802
 1687ntf    on510180   3.547   3.986   5.251  0.4597  0.1181  0.1154
 1687ntf    on510181   3.872   4.115   5.517 -0.1419 -0.0028  0.1894
 1687ntf    on510182   3.876   4.019   5.291 -0.2056  0.3036 -0.1619
 1687ntf    fn410183   4.064   3.883   5.489 -0.0996 -0.3156  0.0348
 1687ntf    fn410184   3.926   3.851   5.636  0.5464 -0.2528  0.2625
 1687ntf    fn410185   3.899   3.750   5.450 -0.0577  0.0854  0.7406
 1688ntf    cn110186   3.112   1.055   3.312 -0.1603  0.1554  0.1857
 1688ntf    sn210187   3.036   0.890   3.327  0.2531 -0.0270  0.2788
 1688ntf    nn310188   3.148   0.807   3.255  0.6609  0.2758  0.5628
 1688ntf    sn210189   3.184   0.795   3.102  0.0697 -0.0292  0.4459
 1688ntf    cn110190   3.362   0.830   3.117  0.0571  0.0128  0.5000
 1688ntf    fn410191   3.092   1.113   3.195 -0.0738  0.3437  0.2640
 1688ntf    fn410192   3.069   1.142   3.401  0.0651 -0.1257  0.5708
 1688ntf    fn410193   3.244   1.052   3.318 -0.1461  0.3130 -0.0479
 1688ntf    on510194   3.027   0.884   3.471 -0.4220  0.5765  0.2651
 1688ntf    on510195   2.911   0.900   3.255  0.4459 -0.0406 -0.0596
 1688ntf    on510196   3.130   0.891   3.009 -0.2564 -0.5191  0.1256
 1688ntf    on510197   3.175   0.657   3.062 -0.0658  0.2855 -0.6200
 1688ntf    fn410198   3.394   0.925   3.203  0.4116  0.4537 -0.1133
 1688ntf    fn410199   3.439   0.726   3.148  0.7191  0.4697  0.4109
 1688ntf    fn410200   3.424   0.880   3.011 -0.0844  0.1084  0.4625
 1689ntf    cn110201   6.341   3.010   5.770 -0.0219  0.1935 -0.1367
 1689ntf    sn210202   6.263   3.174   5.770  0.1230  0.2630  0.0340
 1689ntf    nn310203   6.134   3.142   5.855 -0.0454  0.5871 -0.0992
 1689ntf    sn210204   6.126   3.144   6.011  0.1514 -0.0979 -0.0762
 1689ntf    cn110205   5.968   3.055   6.025 -0.1431  0.4293 -0.0172
 1689ntf    fn410206   6.404   2.987   5.884 -1.2358  0.2834  0.5670
 1689ntf    fn410207   6.252   2.915   5.746 -0.2005  0.2980  0.1078
 1689ntf    fn410208   6.429   2.998   5.671  0.6444 -0.1025  0.4781
 1689ntf    on510209   6.360   3.257   5.837  0.2142  0.1081  0.0939
 1689ntf    on510210   6.239   3.199   5.630  0.0915  0.2711  0.0411
 1689ntf    on510211   6.080   3.269   6.066 -0.2859 -0.4043  0.2613
 1689ntf    on510212   6.218   3.072   6.095  0.4421 -0.2652 -0.5376
 1689ntf    fn410213   5.929   3.066   6.151  0.3801 -0.3270  0.2197
 1689ntf    fn410214   5.871   3.109   5.953 -0.3413 -0.3112 -0.3145
 1689ntf    fn410215   5.965   2.930   5.984 -0.3291  0.3845  0.1335
 1690ntf    cn110216   2.034   2.151   3.420  0.5436 -0.0944  0.1898
 1690ntf    sn210217   2.188   2.075   3.361  0.3054 -0.2846 -0.1905
 1690ntf    nn310218   2.274   2.112   3.488 -0.1337  0.1641 -0.0212
 1690ntf    sn210219   2.304   2.030   3.618 -0.4558 -0.0124 -0.0579
 1690ntf    cn110220   2.447   1.927   3.574 -0.4408 -0.0293  0.0299
 1690ntf    fn410221   2.055   2.267   3.480  0.4318  0.1522 -0.2433
 1690ntf    fn410222   1.946   2.181   3.327  0.0108  0.1861  0.7763
 1690ntf    fn410223   1.975   2.081   3.516  0.5501  0.0575  0.3059
 1690ntf    on510224   2.163   1.934   3.351 -0.6313 -0.1499  0.2138
 1690ntf    on510225   2.225   2.158   3.249 -0.0829  0.6352  0.3457
 1690ntf    on510226   2.194   1.946   3.660 -0.0400 -0.4695  0.1217
 1690ntf    on510227   2.364   2.113   3.719 -0.0548 -0.0459 -0.2710
 1690ntf    fn410228   2.549   2.002   3.534 -0.3061 -0.0325  0.3626
 1690ntf    fn410229   2.486   1.864   3.684 -0.0955 -0.4148 -0.3105
 1690ntf    fn410230   2.429   1.834   3.482 -0.0880 -0.2380  0.1723
 1691ntf    cn110231   2.867   5.938   1.028  0.2244  0.0409  0.0869
 1691ntf    sn210232   2.689   5.900   1.028  0.1973  0.1671  0.0578
 1691ntf    nn310233   2.660   5.952   0.882  0.3256  0.0526 -0.0089
 1691ntf    sn210234   2.603   6.093   0.842 -0.4418 -0.2676 -0.0556
 1691ntf    cn110235   2.503   6.044   0.698 -0.4530  0.4575 -0.2955
 1691ntf    fn410236   2.883   6.069   1.021 -0.4687  0.1371  0.1683
 1691ntf    fn410237   2.932   5.887   1.132  0.1853  0.1513  0.1658
 1691ntf    fn410238   2.924   5.884   0.922  0.5607  0.0242  0.2732
 1691ntf    on510239   2.680   5.756   1.033  0.2588  0.1414 -0.4681
 1691ntf    on510240   2.637   5.984   1.133 -0.4504  0.0629 -0.1725
 1691ntf    on510241   2.695   6.185   0.779 -0.3475 -0.3575 -0.0502
 1691ntf    on510242   2.506   6.147   0.934  0.2104  0.1231  0.4158
 1691ntf    fn410243   2.564   5.943   0.640 -0.0961  0.5214 -0.0391
 1691ntf    fn410244   2.382   6.002   0.729 -0.2367  0.1020  0.0829
 1691ntf    fn410245   2.479   6.144   0.615  0.1039  0.1339 -0.8480
 1692ntf    cn110246   0.275   4.508   4.555 -0.0471 -0.2210  0.0096
 1692ntf    sn210247   0.369   4.567   4.411 -0.1800  0.1689  0.0826
 1692ntf    nn310248   0.390   4.429   4.340  0.1225  0.1940  0.1231
 1692ntf    sn210249   0.522   4.356   4.298 -0.2295 -0.2361 -0.2505
 1692ntf    cn110250   0.550   4.415   4.129  0.0697  0.2993 -0.0160
 1692ntf    fn410251   0.343   4.421   4.628 -0.2245 -0.1311  0.2845
 1692ntf    fn410252   0.244   4.604   4.641 -0.2410  0.2825 -0.6109
 1692ntf    fn410253   0.158   4.458   4.519 -0.3559  0.1813  0.4386
 1692ntf    on510254   0.271   4.648   4.343 -0.3040 -0.5825 -0.6470
 1692ntf    on510255   0.482   4.640   4.463  0.3935 -0.6888  0.0404
 1692ntf    on510256   0.510   4.212   4.287 -0.2647 -0.2160 -0.4721
 1692ntf    on510257   0.640   4.407   4.364 -0.4226 -0.2508  0.1113
 1692ntf    fn410258   0.473   4.358   4.038 -0.0376  0.0134  0.2543
 1692ntf    fn410259   0.525   4.545   4.137  0.4246  0.3233  0.7958
 1692ntf    fn410260   0.677   4.401   4.093  0.0257  0.0146 -0.0612
 1693ntf    cn110261   4.268   4.010   5.225  0.5434  0.0939  0.1111
 1693ntf    sn210262   4.403   4.030   5.105  0.3364 -0.1389 -0.1643
 1693ntf    nn310263   4.394   3.888   5.039  0.1486 -0.5150  0.6638
 1693ntf    sn210264   4.335   3.838   4.903  0.1890 -0.5497  0.6593
 1693ntf    cn110265   4.483   3.834   4.798 -0.3807 -0.2457 -0.1685
 1693ntf    fn410266   4.294   3.929   5.326  0.2510 -0.1632 -0.0147
 1693ntf    fn410267   4.226   4.128   5.268 -0.4881 -0.4182  0.5522
 1693ntf    fn410268   4.160   3.953   5.172  0.6443 -0.2928  0.3144
 1693ntf    on510269   4.369   4.141   5.019 -0.5264 -0.0192  0.3192
 1693ntf    on510270   4.514   4.049   5.195 -0.4212 -0.3943  0.8459
 1693ntf    on510271   4.261   3.929   4.817  0.3562 -0.4130  0.6589
 1693ntf    on510272   4.286   3.703   4.898  0.8781 -0.7615 -0.8438
 1693ntf    fn410273   4.542   3.952   4.788 -0.0648 -0.4492 -0.7455
 1693ntf    fn410274   4.565   3.756   4.866 -0.2233  0.0244 -0.0469
 1693ntf    fn410275   4.466   3.782   4.677 -0.1782 -0.2446 -0.1979
 1694ntf    cn110276   3.884   5.562   6.149  0.2823 -0.5733 -0.0368
 1694ntf    sn210277   3.928   5.386   6.157  0.4690 -0.5245  0.0259
 1694ntf    nn310278   3.962   5.381   6.311  0.1467 -0.3163  0.1058
 1694ntf    sn210279   3.864   5.340   6.427  0.0361 -0.1918  0.0578
 1694ntf    cn110280   3.940   5.183   6.479  0.1682 -0.0710  0.2295
 1694ntf    fn410281   3.807   5.578   6.043  0.4256  0.6668  0.0274
 1694ntf    fn410282   3.815   5.609   6.252  0.7843  0.5141 -0.1799
 1694ntf    fn410283   3.985   5.644   6.126 -0.2492  0.0466 -0.1851
 1694ntf    on510284   3.813   5.317   6.104  0.0248  0.1226  0.1416
 1694ntf    on510285   4.043   5.387   6.071  0.1664  0.0562 -0.3712
 1694ntf    on510286   3.728   5.312   6.388 -0.1091 -0.5788  0.8349
 1694ntf    on510287   3.885   5.412   6.549  0.3824 -0.2510  0.0340
 1694ntf    fn410288   3.874   5.122   6.577  0.4260 -0.6943  0.0234
 1694ntf    fn410289   3.936   5.096   6.380  0.1691  0.1849  0.0044
 1694ntf    fn410290   4.066   5.193   6.518  0.1428 -0.5389  0.4408
 1695ntf    cn110291   1.592   1.584   1.611  0.0926  0.0786 -0.0848
 1695ntf    sn210292   1.635   1.739   1.526  0.3156 -0.0845 -0.2718
 1695ntf    nn310293   1.724   1.677   1.412  0.6904 -0.4722  0.2245
 1695ntf    sn210294   1.693   1.644   1.262  0.1711 -0.1152  0.2514
 1695ntf    cn110295   1.699   1.809   1.185 -0.0247 -0.2592 -0.0775
 1695ntf    fn410296   1.464   1.556   1.591 -0.1247  0.6749  0.4613
 1695ntf    fn410297   1.668   1.484   1.567  0.0267 -0.0233  0.0319
 1695ntf    fn410298   1.607   1.587   1.742  0.2757 -0.2737 -0.0962
 1695ntf    on510299   1.509   1.793   1.485  0.3995 -0.2358 -0.7336
 1695ntf    on510300   1.720   1.798   1.627 -0.3340 -0.0936  0.2825
 1695ntf    on510301   1.559   1.594   1.243  0.4730 -0.5714 -0.7801
 1695ntf    on510302   1.804   1.573   1.203 -0.0487 -0.0400 -0.2633
 1695ntf    fn410303   1.789   1.890   1.239 -0.4493 -0.0547  0.3322
 1695ntf    fn410304   1.723   1.794   1.056  0.6687  0.0404  0.0112
 1695ntf    fn410305   1.584   1.874   1.191  0.0254 -0.2034  0.3351
 1696ntf    cn110306   1.814   5.673   0.588  0.4594  0.0106  0.2616
 1696ntf    sn210307   1.749   5.793   0.468  0.3362 -0.1935  0.1215
 1696ntf    nn310308   1.612   5.728   0.428  0.3312  0.0411 -0.2434
 1696ntf    sn210309   1.574   5.641   0.303 -0.0961 -0.0252 -0.0691
 1696ntf    cn110310   1.566   5.769   0.174  0.1606  0.1461  0.0831
 1696ntf    fn410311   1.867   5.563   0.537 -0.2176 -0.3909  0.3994
 1696ntf    fn410312   1.903   5.720   0.673  0.5162 -0.1319  0.2818
 1696ntf    fn410313   1.719   5.620   0.664  0.3444  0.1130  0.1897
 1696ntf    on510314   1.722   5.910   0.548 -0.5892 -0.3360  0.0187
 1696ntf    on510315   1.846   5.809   0.363 -0.1548  0.1265 -0.2881
 1696ntf    on510316   1.436   5.605   0.320 -0.1009 -0.1865 -0.4347
 1696ntf    on510317   1.671   5.542   0.264  0.3862  0.3306  0.2177
 1696ntf    fn410318   1.503   5.725   0.066 -0.1492 -0.0621  0.3492
 1696ntf    fn410319   1.505   5.881   0.211  0.1680  0.1679  0.0305
 1696ntf    fn410320   1.682   5.806   0.123  0.0561  0.1990 -0.1209
 1697ntf    cn110321   4.918   3.510   5.439  0.1349  0.1722  0.0674
 1697ntf    sn210322   4.823   3.425   5.568  0.3228 -0.0944  0.0301
 1697ntf    nn310323   4.676   3.431   5.512  0.2093 -0.0561  0.3310
 1697ntf    sn210324   4.586   3.326   5.438  0.0682  0.6208 -0.4718
 1697ntf    cn110325   4.441   3.423   5.387 -0.4389 -0.0205 -0.2504
 1697ntf    fn410326   4.927   3.448   5.323  0.2797  0.2042  0.0612
 1697ntf    fn410327   4.878   3.635   5.422 -0.2589  0.0638  0.2000
 1697ntf    fn410328   5.046   3.518   5.472  0.2377 -0.0201 -0.2816
 1697ntf    on510329   4.869   3.288   5.562 -0.3527 -0.3258 -0.0536
 1697ntf    on510330   4.828   3.498   5.691 -0.3100 -0.1430  0.0898
 1697ntf    on510331   4.525   3.227   5.523  0.3234  0.2318 -0.7356
 1697ntf    on510332   4.641   3.280   5.312  0.3805 -0.3260  0.0010
 1697ntf    fn410333   4.346   3.340   5.345  0.1005 -0.7615 -0.0164
 1697ntf    fn410334   4.390   3.496   5.484  0.1800  0.8072 -0.5410
 1697ntf    fn410335   4.465   3.513   5.293 -0.0266  0.1255 -0.0027
 1698ntf    cn110336   6.626   1.135   5.264 -0.1432  0.1691 -0.2984
 1698ntf    sn210337   6.743   1.006   5.212  0.0520  0.2309 -0.0154
 1698ntf    nn310338   6.653   0.898   5.143  0.6295 -0.6778  0.6298
 1698ntf    sn210339   6.684   0.819   5.010  0.4096 -0.0210  0.1866
 1698ntf    cn110340   6.589   0.929   4.901  0.5584  0.4609  0.5391
 1698ntf    fn410341   6.579   1.202   5.161 -0.1583  0.4858 -0.0892
 1698ntf    fn410342   6.527   1.071   5.323 -0.1025 -0.4500 -0.8952
 1698ntf    fn410343   6.677   1.217   5.356 -0.2860  0.0036 -0.0710
 1698ntf    on510344   6.834   1.075   5.125 -0.4241 -0.3458 -0.9859
 1698ntf    on510345   6.795   0.952   5.336  0.0558  0.2168 -0.0236
 1698ntf    on510346   6.607   0.697   5.012  0.1761  0.1080 -0.4223
 1698ntf    on510347   6.821   0.822   4.967  0.2012 -0.4376 -0.5317
 1698ntf    fn410348   6.597   0.911   4.770  0.6726 -0.2965  0.6496
 1698ntf    fn410349   6.461   0.925   4.936  0.2856  0.0477 -0.4715
 1698ntf    fn410350   6.620   1.056   4.920  0.1429  0.5847  0.4055
 1699ntf    cn110351   5.198   5.524   2.260  0.1387  0.3604  0.0811
 1699ntf    sn210352   5.188   5.664   2.375 -0.2058  0.1664  0.2878
 1699ntf    nn310353   5.037   5.658   2.420 -0.3322 -0.3969 -0.1923
 1699ntf    sn210354   4.958   5.572   2.524 -0.3198 -0.3821 -0.1708
 1699ntf    cn110355   4.836   5.692   2.585  0.0390 -0.0667 -0.0690
 1699ntf    fn410356   5.318   5.495   2.213 -0.0137 -0.0877 -0.0471
 1699ntf    fn410357   5.162   5.411   2.319  0.1898  0.6740  0.7091
 1699ntf    fn410358   5.121   5.526   2.152 -0.2755 -0.3680  0.3544
 1699ntf    on510359   5.279   5.631   2.481 -0.3887 -0.9142  0.1178
 1699ntf    on510360   5.210   5.773   2.283 -0.9275  0.0178 -0.0724
 1699ntf    on510361   5.034   5.536   2.641  0.4632 -0.0659 -0.5767
 1699ntf    on510362   4.889   5.470   2.448 -0.4894  0.1144 -0.6864
 1699ntf    fn410363   4.759   5.631   2.675  0.3160 -0.2502  0.0447
 1699ntf    fn410364   4.893   5.786   2.658 -0.0374  0.2426 -0.4083
 1699ntf    fn410365   4.764   5.753   2.493  0.1487 -0.1953 -0.2388
 1700ntf    cn110366   0.858   1.453   1.531 -0.2215 -0.2290  0.4679
 1700ntf    sn210367   0.709   1.427   1.429 -0.1159 -0.1801  0.3010
 1700ntf    nn310368   0.604   1.501   1.520 -0.1790  0.8143 -0.5643
 1700ntf    sn210369   0.457   1.461   1.555  0.3249 -0.4679  0.1523
 1700ntf    cn110370   0.469   1.376   1.716  0.2778 -0.0959  0.3554
 1700ntf    fn410371   0.953   1.370   1.491 -0.2952 -0.3785  0.6009
 1700ntf    fn410372   0.903   1.577   1.531  0.3169 -0.4253  0.1008
 1700ntf    fn410373   0.824   1.421   1.655 -0.6206  0.1972  0.4733
 1700ntf    on510374   0.745   1.503   1.312  0.5215 -0.2962  0.4165
 1700ntf    on510375   0.715   1.283   1.422  0.2839 -0.1438 -0.1783
 1700ntf    on510376   0.392   1.371   1.463  0.0108  0.2977 -0.3850
 1700ntf    on510377   0.383   1.581   1.587 -0.2147 -0.7454 -0.0448
 1700ntf    fn410378   0.534   1.261   1.705 -0.0829 -0.2874  0.1910
 1700ntf    fn410379   0.540   1.452   1.797  0.2519  0.3291 -0.0156
 1700ntf    fn410380   0.354   1.355   1.779  0.1560 -0.0870  0.1382
 1701ntf    cn110381   0.424   1.769   2.623  0.1520  0.0162  0.6079
 1701ntf    sn210382   0.530   1.622   2.598  0.1098  0.1106 -0.1691
 1701ntf    nn310383   0.572   1.605   2.749  0.3309  0.3290 -0.2043
 1701ntf    sn210384   0.563   1.482   2.846 -0.3057  0.1135 -0.5293
 1701ntf    cn110385   0.385   1.489   2.883 -0.3333  0.0290 -0.6444
 1701ntf    fn410386   0.343   1.773   2.519  0.1451 -0.1086  0.6076
 1701ntf    fn410387   0.345   1.757   2.728 -0.5037  0.1760  0.1397
 1701ntf    fn410388   0.502   1.875   2.632 -0.1783  0.2918  0.2502
 1701ntf    on510389   0.448   1.526   2.529  0.0391 -0.2761  0.4452
 1701ntf    on510390   0.643   1.674   2.526  0.1079  0.3954  0.0296
 1701ntf    on510391   0.618   1.503   2.977 -0.0627 -0.1302 -0.5914
 1701ntf    on510392   0.590   1.353   2.786  0.5445 -0.0475  0.1807
 1701ntf    fn410393   0.358   1.411   2.986 -0.4926  1.0417  0.0958
 1701ntf    fn410394   0.344   1.611   2.915  0.4870  0.3165 -0.6642
 1701ntf    fn410395   0.311   1.442   2.784 -0.9065 -0.1371 -0.1437
 1702ntf    cn110396   6.055   5.521   1.647  0.1018  0.1102 -0.5181
 1702ntf    sn210397   6.025   5.593   1.483 -0.4190  0.5797 -0.2190
 1702ntf    nn310398   5.997   5.740   1.529 -0.5528  0.2513  0.7727
 1702ntf    sn210399   5.940   5.864   1.452 -0.0559 -0.0493 -0.0838
 1702ntf    cn110400   6.079   5.921   1.350  0.0220 -0.3340 -0.1367
 1702ntf    fn410401   5.961   5.555   1.733  0.6584  0.4557 -0.0332
 1702ntf    fn410402   6.062   5.389   1.648 -0.3315  0.0856 -1.0358
 1702ntf    fn410403   6.170   5.563   1.699  0.1727 -0.5182 -0.1564
 1702ntf    on510404   6.156   5.577   1.425 -0.1443 -0.0555  0.5555
 1702ntf    on510405   5.915   5.519   1.426 -0.2811  0.3174 -0.1478
 1702ntf    on510406   5.912   5.971   1.545 -0.2176  0.3076 -0.5362
 1702ntf    on510407   5.845   5.831   1.348 -0.2721 -0.8343  0.3577
 1702ntf    fn410408   6.193   5.920   1.418 -0.0285 -0.3183 -0.0525
 1702ntf    fn410409   6.105   5.848   1.242 -0.4393 -0.0923 -0.4164
 1702ntf    fn410410   6.060   6.045   1.308  0.3823 -0.1668  0.1855
 1703ntf    cn110411   3.928   5.800   4.582  0.3277  0.5882  0.2569
 1703ntf    sn210412   3.787   5.809   4.467  0.3712  0.1019  0.1643
 1703ntf    nn310413   3.843   5.728   4.344 -0.1491  0.9727 -0.6572
 1703ntf    sn210414   3.799   5.584   4.300  0.0336  0.6625  0.1498
 1703ntf    cn110415   3.668   5.640   4.187  0.1032  0.0607 -0.2335
 1703ntf    fn410416   3.967   5.674   4.592 -0.0217  0.4249 -0.3621
 1703ntf    fn410417   4.035   5.864   4.537  0.7420 -0.3693 -0.1321
 1703ntf    fn410418   3.901   5.849   4.702  0.4474  0.6919  0.2415
 1703ntf    on510419   3.670   5.757   4.534 -0.1065 -0.2742 -0.9354
 1703ntf    on510420   3.779   5.948   4.431 -0.0747 -0.1984 -0.9411
 1703ntf    on510421   3.724   5.506   4.395  0.3492  0.7365  0.4613
 1703ntf    on510422   3.892   5.517   4.213 -0.4750  0.1445  0.0025
 1703ntf    fn410423   3.692   5.749   4.115  0.0493  0.3225  0.1417
 1703ntf    fn410424   3.649   5.555   4.088  0.1582 -0.4731  0.2110
 1703ntf    fn410425   3.556   5.664   4.253  0.2317 -0.1566  0.0647
 1704ntf    cn110426   5.240   4.241   1.131 -0.4778 -0.0749  0.0695
 1704ntf    sn210427   5.277   4.269   1.307  0.1779 -0.2109 -0.0434
 1704ntf    nn310428   5.397   4.369   1.298 -0.2176  0.3073  0.4130
 1704ntf    sn210429   5.491   4.424   1.411  0.2747  0.2467  0.0364
 1704ntf    cn110430   5.625   4.302   1.396 -0.0702 -0.1434  0.1193
 1704ntf    fn410431   5.352   4.223   1.063 -0.1245  0.1699  0.5794
 1704ntf    fn410432   5.157   4.141   1.106  0.0540 -0.4144 -0.3514
 1704ntf    fn410433   5.176   4.343   1.074 -0.8220 -0.3780 -0.0917
 1704ntf    on510434   5.156   4.334   1.352  0.3659 -0.1313  0.3452
 1704ntf    on510435   5.310   4.138   1.357 -0.0569 -0.0773  0.4679
 1704ntf    on510436   5.440   4.405   1.545 -0.2775 -0.7466 -0.3034
 1704ntf    on510437   5.548   4.552   1.377  0.9336  0.0596  0.4058
 1704ntf    fn410438   5.580   4.181   1.426  0.6888 -0.4175  0.1614
 1704ntf    fn410439   5.667   4.302   1.270 -0.0518 -0.4936  0.1234
 1704ntf    fn410440   5.732   4.326   1.469  0.3462 -0.3992 -0.4028
 1705ntf    cn110441   6.400   4.711   1.979  0.2747 -0.2092 -0.0024
 1705ntf    sn210442   6.372   4.642   1.813 -0.0815 -0.0688 -0.0020
 1705ntf    nn310443   6.357   4.776   1.733  0.1972 -0.2882 -0.4224
 1705ntf    sn210444   6.474   4.879   1.712 -0.3485  0.3616 -0.3234
 1705ntf    cn110445   6.500   4.866   1.532  0.3038 -0.2589 -0.1894
 1705ntf    fn410446   6.316   4.808   2.015  0.1019 -0.2055 -0.4145
 1705ntf    fn410447   6.376   4.617   2.069 -0.0413  0.2005  0.3499
 1705ntf    fn410448   6.524   4.746   2.008  0.3147 -0.3058 -0.0569
 1705ntf    on510449   6.483   4.555   1.785  0.0529  0.2237 -0.3833
 1705ntf    on510450   6.238   4.590   1.827 -0.0934  0.1385  0.7399
 1705ntf    on510451   6.604   4.836   1.756 -0.3210 -0.0415 -0.7777
 1705ntf    on510452   6.441   5.018   1.730  0.0225  0.3326  0.6257
 1705ntf    fn410453   6.539   4.749   1.485 -0.4283 -0.4541 -0.3168
 1705ntf    fn410454   6.394   4.893   1.458  0.0312 -0.3015  0.1799
 1705ntf    fn410455   6.593   4.956   1.504  0.4038 -0.0291  0.8243
 1706ntf    cn110456   4.923   1.390   4.697  0.1845  0.2205  0.1069
 1706ntf    sn210457   5.030   1.314   4.823  0.1979  0.1634  0.0613
 1706ntf    nn310458   5.161   1.398   4.800  0.6221 -0.4061  0.3667
 1706ntf    sn210459   5.198   1.540   4.856  0.0467 -0.1711  0.1577
 1706ntf    cn110460   5.259   1.603   4.697 -0.4608  0.7677  0.3260
 1706ntf    fn410461   4.874   1.507   4.735 -0.1479  0.0740  0.1325
 1706ntf    fn410462   4.986   1.412   4.583 -0.4704  0.3833 -0.2266
 1706ntf    fn410463   4.821   1.312   4.662  0.4176 -0.0043 -0.0769
 1706ntf    on510464   4.959   1.331   4.947 -0.5725 -0.0717 -0.3396
 1706ntf    on510465   5.044   1.181   4.769  0.1862  0.1451  0.1033
 1706ntf    on510466   5.310   1.545   4.947 -0.1000  0.2027  0.3219
 1706ntf    on510467   5.083   1.622   4.886 -0.3241 -0.4968 -0.3389
 1706ntf    fn410468   5.363   1.534   4.653 -0.5113  0.8956  0.0020
 1706ntf    fn410469   5.163   1.589   4.607 -0.2332  0.0745  0.1828
 1706ntf    fn410470   5.301   1.728   4.705  0.0846  0.6259 -0.2006
 1707ntf    cn110471   0.799   2.120   3.441  0.2842  0.1404  0.1388
 1707ntf    sn210472   0.648   2.074   3.351  0.2071 -0.2422  0.4596
 1707ntf    nn310473   0.552   2.115   3.468  0.1208  0.3466  0.1877
 1707ntf    sn210474   0.432   2.215   3.472 -0.0082  0.2018 -0.0659
 1707ntf    cn110475   0.287   2.117   3.520  0.1263 -0.0473 -0.1652
 1707ntf    fn410476   0.907   2.102   3.365  0.0008 -0.0503 -0.2204
 1707ntf    fn410477   0.802   2.243   3.488  0.4403  0.1120  0.2045
 1707ntf    fn410478   0.819   2.053   3.553  0.2707  0.4017  0.2982
 1707ntf    on510479   0.661   2.166   3.240  0.0163  0.1765  0.7801
 1707ntf    on510480   0.646   1.931   3.334 -0.2565 -0.2029  0.1719
 1707ntf    on510481   0.386   2.269   3.346 -0.3843 -0.4715 -0.2227
 1707ntf    on510482   0.441   2.304   3.585 -0.0608 -0.2560  0.2982
 1707ntf    fn410483   0.291   1.997   3.465  0.1750 -0.1380  0.0364
 1707ntf    fn410484   0.289   2.096   3.651  0.1681  0.1584 -0.1321
 1707ntf    fn410485   0.176   2.178   3.480  0.0851  0.3728  0.5700
 1708ntf    cn110486   6.621   2.129   2.862 -0.0401  0.2661  0.2952
 1708ntf    sn210487   6.759   2.012   2.884 -0.0208  0.2566  0.1270
 1708ntf    nn310488   6.872   2.114   2.923  0.5848 -0.5246  0.4328
 1708ntf    sn210489   6.994   2.161   2.836 -0.0112  0.0243 -0.1173
 1708ntf    cn110490   7.102   2.015   2.850 -0.2354 -0.1354 -0.0570
 1708ntf    fn410491   6.502   2.079   2.833  0.2815  0.0016 -0.6169
 1708ntf    fn410492   6.598   2.200   2.971  0.2542 -0.1375  0.6244
 1708ntf    fn410493   6.644   2.224   2.773  0.7314 -0.1393  0.0599
 1708ntf    on510494   6.716   1.935   2.998  0.2724  0.4450  0.3664
 1708ntf    on510495   6.787   1.954   2.756 -0.4341 -0.2940  0.2841
 1708ntf    on510496   7.072   2.263   2.902 -0.0349 -0.1042  0.1088
 1708ntf    on510497   6.976   2.176   2.693  0.5928  0.0188 -0.1958
 1708ntf    fn410498   7.157   2.016   2.970 -0.0861 -0.4349 -0.1231
 1708ntf    fn410499   7.046   1.897   2.829  0.2829 -0.3820 -0.0546
 1708ntf    fn410500   7.199   2.017   2.761  0.0815  0.2873  0.2917
 1709ntf    cn110501   2.465   5.257   4.051 -0.0193 -0.0192 -0.3365
 1709ntf    sn210502   2.372   5.391   3.972  0.0599  0.1584 -0.1287
 1709ntf    nn310503   2.341   5.491   4.089 -0.3437  0.0700 -0.1579
 1709ntf    sn210504   2.219   5.498   4.188 -0.2783 -0.0813 -0.0659
 1709ntf    cn110505   2.289   5.448   4.348 -0.1723  0.3012  0.0071
 1709ntf    fn410506   2.403   5.196   4.151  0.1300  0.5675  0.1223
 1709ntf    fn410507   2.504   5.154   3.977 -0.0525 -0.0028 -0.3767
 1709ntf    fn410508   2.580   5.304   4.098  0.0336 -0.5839  0.1212
 1709ntf    on510509   2.469   5.454   3.886 -0.2131  0.4566 -0.2216
 1709ntf    on510510   2.256   5.326   3.916 -0.0922  0.3980 -0.0944
 1709ntf    on510511   2.112   5.403   4.168 -0.2611 -0.0222 -0.4422
 1709ntf    on510512   2.187   5.637   4.206  0.8484  0.1659  0.0846
 1709ntf    fn410513   2.229   5.493   4.457 -0.3528 -0.1179  0.0820
 1709ntf    fn410514   2.293   5.317   4.367 -0.0934  0.3590  0.3961
 1709ntf    fn410515   2.415   5.487   4.348 -0.0668 -0.0348 -0.0598
 1710ntf    cn110516   2.691   2.829   5.933  0.2508  0.1298  0.2490
 1710ntf    sn210517   2.577   2.967   5.965 -0.0840 -0.0779 -0.0365
 1710ntf    nn310518   2.496   2.906   6.084  0.1662 -0.0443  0.1519
 1710ntf    sn210519   2.361   2.826   6.097  0.1185 -0.0555 -0.3973
 1710ntf    cn110520   2.251   2.924   6.204  0.2432  0.1680 -0.4724
 1710ntf    fn410521   2.774   2.790   6.028  0.5927  0.2024 -0.0155
 1710ntf    fn410522   2.619   2.724   5.897  0.8158 -0.1963  0.0539
 1710ntf    fn410523   2.776   2.857   5.835  0.1465 -0.5191 -0.0347
 1710ntf    on510524   2.666   3.069   6.015  0.0308 -0.2339  0.0801
 1710ntf    on510525   2.507   2.998   5.843  0.0807 -0.4336 -0.2267
 1710ntf    on510526   2.375   2.708   6.179 -0.2617  0.1187 -0.0775
 1710ntf    on510527   2.286   2.806   5.976 -0.0012 -0.4157 -0.2671
 1710ntf    fn410528   2.277   2.921   6.334  0.0848 -0.3336 -0.4508
 1710ntf    fn410529   2.237   3.049   6.163  0.0871  0.2373 -0.2058
 1710ntf    fn410530   2.129   2.875   6.193  0.5375 -0.4964 -0.8884
 1711ntf    cn110531   3.381   5.011   5.971  0.3196  0.4849 -0.4556
 1711ntf    sn210532   3.326   5.068   6.135  0.2646 -0.3938 -0.1631
 1711ntf    nn310533   3.206   5.158   6.088  0.1501 -0.4708 -0.0181
 1711ntf    sn210534   3.052   5.129   6.090  0.0799 -0.0963  0.0030
 1711ntf    cn110535   3.014   5.156   6.266 -0.0972 -0.1210 -0.0304
 1711ntf    fn410536   3.281   4.956   5.904  0.0573  0.4069 -0.0073
 1711ntf    fn410537   3.429   5.108   5.896  0.7215  0.1090 -0.6911
 1711ntf    fn410538   3.473   4.916   5.968  0.0996  0.2563 -0.0784
 1711ntf    on510539   3.287   4.948   6.206  0.2637 -0.0803  0.3712
 1711ntf    on510540   3.429   5.152   6.191 -0.3562  0.1859  0.1158
 1711ntf    on510541   3.017   4.991   6.066  0.0973 -0.1020  0.0100
 1711ntf    on510542   2.981   5.230   6.016 -0.3114 -0.2017  0.2313
 1711ntf    fn410543   3.034   5.283   6.298  0.5265 -0.1088 -0.4465
 1711ntf    fn410544   2.887   5.129   6.287 -0.1490  0.4941  0.4635
 1711ntf    fn410545   3.075   5.079   6.354  0.0631 -0.2811 -0.2794
 1712ntf    cn110546   6.747   2.641   4.581 -0.0222 -0.5075 -0.2149
 1712ntf    sn210547   6.593   2.684   4.495  0.0766 -0.0320 -0.1584
 1712ntf    nn310548   6.497   2.562   4.522 -0.2683  0.1246 -0.6575
 1712ntf    sn210549   6.342   2.559   4.542 -0.2036  0.5804 -0.0510
 1712ntf    cn110550   6.333   2.485   4.708  0.4578  0.1034 -0.2232
 1712ntf    fn410551   6.722   2.618   4.709 -0.0690 -0.6902 -0.2567
 1712ntf    fn410552   6.802   2.529   4.537  0.0057 -0.7565  0.4377
 1712ntf    fn410553   6.834   2.740   4.569 -0.1240 -0.4113 -0.1621
 1712ntf    on510554   6.547   2.807   4.554 -0.0677 -0.1780  0.0350
 1712ntf    on510555   6.635   2.703   4.358  0.5983 -0.0677 -0.0064
 1712ntf    on510556   6.292   2.455   4.456  0.4628  0.4594 -0.2981
 1712ntf    on510557   6.269   2.683   4.538 -0.2679  0.5676  0.5876
 1712ntf    fn410558   6.211   2.463   4.755  0.5897  0.2562  0.1993
 1712ntf    fn410559   6.407   2.377   4.722 -0.1235 -0.2464  0.1935
 1712ntf    fn410560   6.388   2.575   4.789  0.2793 -0.1124  0.1375
 1713ntf    cn110561   0.576   1.496   5.689  0.5827  0.0711 -0.1570
 1713ntf    sn210562   0.466   1.536   5.549  0.2845  0.0209  0.0606
 1713ntf    nn310563   0.334   1.573   5.625 -0.1215 -0.0577 -0.6058
 1713ntf    sn210564   0.203   1.485   5.631 -0.1389  0.0118  0.0918
 1713ntf    cn110565   0.087   1.623   5.607 -0.0029  0.1098 -0.0044
 1713ntf    fn410566   0.515   1.412   5.771 -0.2214  0.2505 -0.5496
 1713ntf    fn410567   0.681   1.432   5.641  0.3136 -0.1614 -0.4433
 1713ntf    fn410568   0.609   1.596   5.769 -0.4858  0.2596  0.0634
 1713ntf    on510569   0.527   1.655   5.493  0.0320  0.2914  0.3520
 1713ntf    on510570   0.473   1.417   5.469  0.3982 -0.1472  0.3211
 1713ntf    on510571   0.171   1.430   5.760  0.3310  0.0323  0.2193
 1713ntf    on510572   0.179   1.405   5.514 -0.0805  0.5465 -0.2920
 1713ntf    fn410573   0.036   1.670   5.719  0.0632 -0.2722  0.1850
 1713ntf    fn410574   0.149   1.722   5.543  0.6734  0.0976  0.6162
 1713ntf    fn410575  -0.025   1.588   5.546  0.3401 -0.4113 -0.3406
 1714ntf    cn110576   2.740   3.109   1.869 -0.2057  0.1398 -0.3124
 1714ntf    sn210577   2.654   3.235   1.770 -0.2932  0.1221 -0.2594
 1714ntf    nn310578   2.743   3.360   1.802 -0.1538  0.1909 -0.9062
 1714ntf    sn210579   2.835   3.448   1.710  0.3276  0.0122 -0.6026
 1714ntf    cn110580   2.996   3.381   1.760 -0.0372 -0.2022  0.3044
 1714ntf    fn410581   2.773   3.155   1.989 -0.3189  0.0588 -0.2499
 1714ntf    fn410582   2.668   2.999   1.882  0.1509 -0.0582  0.0229
 1714ntf    fn410583   2.857   3.082   1.812 -0.1561 -0.2084 -0.0487
 1714ntf    on510584   2.666   3.192   1.633  0.2019 -0.2547 -0.1028
 1714ntf    on510585   2.520   3.237   1.823 -0.5971  0.3972 -1.0369
 1714ntf    on510586   2.838   3.584   1.760  0.2129 -0.1888 -0.0395
 1714ntf    on510587   2.820   3.422   1.569 -0.3969 -0.0655 -0.5197
 1714ntf    fn410588   3.104   3.406   1.688 -0.6703 -0.2825 -0.6862
 1714ntf    fn410589   3.021   3.399   1.888 -0.3982  0.8960  0.2298
 1714ntf    fn410590   2.985   3.249   1.764 -0.1800 -0.2067 -0.1741
 1715ntf    cn110591   3.012   6.864   6.255 -0.2093 -0.0671 -0.1759
 1715ntf    sn210592   2.912   6.910   6.110 -0.5250 -0.0671  0.0422
 1715ntf    nn310593   2.909   7.066   6.124  0.1211 -0.0250 -0.2853
 1715ntf    sn210594   2.973   7.171   6.026  0.3566 -0.2217 -0.3446
 1715ntf    cn110595   2.909   7.322   6.105 -0.5155 -0.7016 -0.1247
 1715ntf    fn410596   2.951   6.919   6.358  0.3811 -0.2318  0.2684
 1715ntf    fn410597   3.026   6.735   6.280 -0.4824  0.0486  0.5911
 1715ntf    fn410598   3.134   6.917   6.257 -0.0855 -0.3488 -0.2253
 1715ntf    on510599   2.988   6.862   5.997  0.0599 -0.1819  0.4762
 1715ntf    on510600   2.784   6.850   6.139 -0.2882 -0.2383  0.7644
 1715ntf    on510601   2.907   7.167   5.899 -0.0581 -0.0572 -0.1361
 1715ntf    on510602   3.117   7.167   6.029  0.3843  0.5422 -0.4770
 1715ntf    fn410603   2.958   7.428   6.042 -0.7795 -0.3111  0.3165
 1715ntf    fn410604   2.779   7.342   6.093 -0.3665  0.3665 -0.0416
 1715ntf    fn410605   2.931   7.332   6.235  0.9546 -0.2961 -0.3846
 1716ntf    cn110606   3.141   2.105   6.264 -0.0872  0.0766  0.0532
 1716ntf    sn210607   3.024   2.244   6.271 -0.3678 -0.1454 -0.1946
 1716ntf    nn310608   3.095   2.345   6.174 -0.0790  0.1470  0.3183
 1716ntf    sn210609   3.092   2.349   6.017 -0.4019  0.0210  0.3210
 1716ntf    cn110610   2.980   2.489   5.987 -0.0513  0.3016  0.3058
 1716ntf    fn410611   3.187   2.066   6.146  0.4119 -0.4577  0.4149
 1716ntf    fn410612   3.247   2.130   6.340  0.2053 -0.2226 -0.2533
 1716ntf    fn410613   3.085   1.994   6.310  0.1365  0.0154  0.1789
 1716ntf    on510614   2.902   2.182   6.227 -0.3591 -0.2373 -0.0905
 1716ntf    on510615   3.042   2.279   6.410  0.8025  0.3918 -0.4652
 1716ntf    on510616   3.032   2.236   5.951 -0.1576 -0.1241  0.3444
 1716ntf    on510617   3.221   2.393   5.969 -0.2875 -0.2520  0.3758
 1716ntf    fn410618   2.961   2.503   5.857 -0.2594 -0.1398  0.2861
 1716ntf    fn410619   2.863   2.476   6.048 -0.1458 -0.7123 -0.0692
 1716ntf    fn410620   3.035   2.598   6.036  0.1298  0.1423  0.4587
 1717ntf    cn110621   5.990   3.963   6.637  0.1785  0.3915  0.0747
 1717ntf    sn210622   6.107   4.091   6.693  0.4010  0.1925  0.0672
 1717ntf    nn310623   6.237   4.003   6.704 -0.0803 -0.5649 -0.2175
 1717ntf    sn210624   6.363   3.992   6.612 -0.0626 -0.3535 -0.2202
 1717ntf    cn110625   6.358   3.811   6.593 -0.1520 -0.3876  0.1218
 1717ntf    fn410626   5.989   3.862   6.722  0.5952  0.3495  0.0336
 1717ntf    fn410627   5.864   4.001   6.626  0.1454  0.2731  0.0399
 1717ntf    fn410628   6.030   3.917   6.520 -0.6524 -0.0732 -0.0311
 1717ntf    on510629   6.109   4.197   6.595  0.6434  0.3453  0.2382
 1717ntf    on510630   6.047   4.119   6.821 -1.2278 -0.0635 -0.6110
 1717ntf    on510631   6.491   4.029   6.668 -0.1940 -0.3482  0.0802
 1717ntf    on510632   6.353   4.048   6.479 -0.3529 -0.3887 -0.2127
 1717ntf    fn410633   6.451   3.778   6.505  0.1793 -0.7479  0.6032
 1717ntf    fn410634   6.397   3.757   6.708 -0.2931 -0.2653  0.2277
 1717ntf    fn410635   6.248   3.749   6.555 -0.1413 -0.2983 -0.0553
 1718ntf    cn110636   6.422   2.653   0.067  0.2590  0.0659  0.1480
 1718ntf    sn210637   6.361   2.824   0.087  0.0618 -0.0058  0.1600
 1718ntf    nn310638   6.490   2.909   0.062 -0.0794  0.2371  0.2589
 1718ntf    sn210639   6.604   2.965   0.155 -0.0195 -0.3235  0.5273
 1718ntf    cn110640   6.523   3.115   0.217  0.1763  0.2403 -0.5531
 1718ntf    fn410641   6.501   2.642  -0.039 -0.2953  0.4913 -0.3205
 1718ntf    fn410642   6.484   2.623   0.179 -0.3223 -0.0668  0.4370
 1718ntf    fn410643   6.326   2.563   0.054  0.1577  0.1344  0.4163
 1718ntf    on510644   6.267   2.836  -0.022  0.2172 -0.1938  0.0037
 1718ntf    on510645   6.313   2.831   0.222 -0.3005  0.0217  0.0318
 1718ntf    on510646   6.707   3.017   0.069 -0.2318  0.2233  0.5993
 1718ntf    on510647   6.645   2.874   0.258  0.0856 -0.2538  0.5465
 1718ntf    fn410648   6.523   3.214   0.129  0.3262  0.7128 -0.0332
 1718ntf    fn410649   6.396   3.101   0.251  0.2223  0.2949 -0.3593
 1718ntf    fn410650   6.588   3.169   0.320 -0.1464  0.2773 -0.3670
 1719ntf    cn110651   3.415   4.797   3.902 -0.2049  0.1701 -0.1485
 1719ntf    sn210652   3.402   4.695   4.053  0.3366 -0.1867 -0.3392
 1719ntf    nn310653   3.475   4.792   4.153  0.1471 -0.3058 -0.0837
 1719ntf    sn210654   3.605   4.763   4.235 -0.0607  0.0394  0.3714
 1719ntf    cn110655   3.595   4.893   4.362  0.1081 -0.1745  0.6059
 1719ntf    fn410656   3.368   4.738   3.793 -0.9277  0.3260  0.0729
 1719ntf    fn410657   3.347   4.909   3.919 -0.8329 -0.1032 -0.8334
 1719ntf    fn410658   3.540   4.832   3.878 -0.1623  0.1378  0.0215
 1719ntf    on510659   3.261   4.679   4.079  0.3739 -0.1421 -0.1031
 1719ntf    on510660   3.474   4.574   4.026 -0.1751 -0.6254  0.2531
 1719ntf    on510661   3.715   4.805   4.152 -0.4603  0.7353  0.1925
 1719ntf    on510662   3.614   4.641   4.311  0.2509 -0.1135  0.0951
 1719ntf    fn410663   3.516   4.867   4.465 -0.3053  0.1658  0.3787
 1719ntf    fn410664   3.718   4.919   4.402  0.1422 -0.0580  0.4267
 1719ntf    fn410665   3.554   5.014   4.328  0.1008 -0.2894  0.2033
 1720ntf    cn110666   0.187   6.732   6.878  0.2148  0.2889 -0.0447
 1720ntf    sn210667   0.176   6.789   6.706 -0.0311  0.5042  0.0424
 1720ntf    nn310668   0.030   6.739   6.676  0.1837  0.2728 -0.6152
 1720ntf    sn210669  -0.017   6.637   6.566 -0.0528 -0.0551 -0.2108
 1720ntf    cn110670   0.008   6.749   6.425 -0.1948  0.2714  0.0214
 1720ntf    fn410671   0.078   6.779   6.936  0.1979 -0.0060  0.1627
 1720ntf    fn410672   0.200   6.601   6.893  0.6216  0.2988 -0.2895
 1720ntf    fn410673   0.299   6.774   6.935  0.2362  0.2573 -0.0641
 1720ntf    on510674   0.178   6.933   6.718  0.2101  0.5007  0.0523
 1720ntf    on510675   0.279   6.721   6.633 -0.3370  0.3775 -0.2738
 1720ntf    on510676  -0.159   6.613   6.574  0.0123 -0.3458  0.0921
 1720ntf    on510677   0.066   6.522   6.541 -0.1462 -0.2102  0.1872
 1720ntf    fn410678  -0.043   6.701   6.312  0.5449 -0.5746  0.0366
 1720ntf    fn410679  -0.051   6.867   6.434 -0.0035  0.3387  0.4124
 1720ntf    fn410680   0.137   6.769   6.403 -0.0541 -0.4727  0.1180
 1721ntf    cn110681   6.374   5.616   3.363  0.6174  0.1384 -0.2582
 1721ntf    sn210682   6.226   5.708   3.312  0.0848 -0.0160  0.9784
 1721ntf    nn310683   6.257   5.738   3.161  0.3086 -0.1669  0.9941
 1721ntf    sn210684   6.350   5.849   3.100 -0.4866 -0.0125  0.0448
 1721ntf    cn110685   6.226   5.978   3.067 -0.3809 -0.0291 -0.4260
 1721ntf    fn410686   6.387   5.497   3.305 -0.1796 -0.2526  0.3436
 1721ntf    fn410687   6.481   5.693   3.352  0.5943  0.2404  0.2259
 1721ntf    fn410688   6.374   5.591   3.493  0.1673 -0.4242 -0.3588
 1721ntf    on510689   6.115   5.616   3.325 -0.2745  0.3218  0.3972
 1721ntf    on510690   6.224   5.817   3.406  0.4143  0.3623  0.5489
 1721ntf    on510691   6.407   5.813   2.972 -0.2199 -0.0904  0.1855
 1721ntf    on510692   6.433   5.914   3.198 -0.5974 -0.2742  0.3110
 1721ntf    fn410693   6.180   6.043   3.173  0.8277  0.0710  0.0582
 1721ntf    fn410694   6.272   6.078   2.994  0.1172 -0.1862 -0.3325
 1721ntf    fn410695   6.133   5.915   2.997 -0.4902 -0.0374 -0.2719
 1722ntf    cn110696   6.484   1.494   5.543  0.5647 -0.5779 -0.0478
 1722ntf    sn210697   6.357   1.493   5.412  0.2574 -0.3078  0.2454
 1722ntf    nn310698   6.240   1.424   5.490  0.0164  0.1579  0.2989
 1722ntf    sn210699   6.099   1.383   5.434  0.1533 -0.4329  0.3773
 1722ntf    cn110700   6.040   1.524   5.336  0.0179 -0.5082  0.3509
 1722ntf    fn410701   6.486   1.381   5.612  0.1308 -0.2407  0.5269
 1722ntf    fn410702   6.607   1.515   5.500  0.2258  0.8432 -0.3655
 1722ntf    fn410703   6.460   1.592   5.628 -0.1275 -0.3917 -0.4437
 1722ntf    on510704   6.331   1.631   5.382 -0.1704 -0.3851  0.2615
 1722ntf    on510705   6.419   1.415   5.308 -0.4932 -0.7624  0.1331
 1722ntf    on510706   6.001   1.365   5.538  0.3856  0.0233  0.6776
 1722ntf    on510707   6.094   1.282   5.331  0.6898 -0.0882  0.0075
 1722ntf    fn410708   6.120   1.558   5.236 -0.8050 -0.0648 -0.1658
 1722ntf    fn410709   5.915   1.508   5.296  0.0797  0.2742 -0.1622
 1722ntf    fn410710   6.038   1.633   5.410  0.4794 -0.0836 -0.2479
 1723ntf    cn110711   0.342   0.657   4.385  0.0677  0.2997  0.0121
 1723ntf    sn210712   0.340   0.769   4.242 -0.1230  0.1509 -0.1040
 1723ntf    nn310713   0.234   0.875   4.288 -0.1217 -0.0286  0.3125
 1723ntf    sn210714   0.232   1.028   4.250  0.1716 -0.1551 -0.2201
 1723ntf    cn110715   0.057   1.038   4.201 -0.0319 -0.3657  0.4498
 1723ntf    fn410716   0.225   0.606   4.420  0.5091  0.0806  1.2198
 1723ntf    fn410717   0.412   0.547   4.359 -0.1359  0.2420 -0.3084
 1723ntf    fn410718   0.392   0.717   4.491 -0.1207  0.0414  0.2492
 1723ntf    on510719   0.475   0.821   4.248 -0.0116 -0.1461 -0.0430
 1723ntf    on510720   0.287   0.686   4.136  0.4885  0.0588 -0.3414
 1723ntf    on510721   0.294   1.059   4.124  0.7631 -0.5781 -0.0353
 1723ntf    on510722   0.249   1.127   4.354 -0.3228 -0.1493 -0.1398
 1723ntf    fn410723   0.015   0.944   4.118 -0.2007  0.3384 -0.2698
 1723ntf    fn410724  -0.019   1.052   4.309  0.1518 -0.4155  0.5865
 1723ntf    fn410725   0.046   1.149   4.130  0.1716 -0.0879  0.8470
 1724ntf    cn110726   2.222   4.851   6.358  0.1158 -0.3011  0.0268
 1724ntf    sn210727   2.157   4.794   6.199  0.1982 -0.4757  0.0546
 1724ntf    nn310728   2.131   4.933   6.130 -0.4331 -0.5526  0.1256
 1724ntf    sn210729   2.006   5.027   6.129  0.1320  0.2089 -0.0043
 1724ntf    cn110730   2.051   5.168   6.235  0.2673 -0.0616  0.2966
 1724ntf    fn410731   2.320   4.938   6.337 -0.2640  0.1973  0.2883
 1724ntf    fn410732   2.134   4.924   6.425  0.4374 -0.0003  0.1335
 1724ntf    fn410733   2.270   4.750   6.428  0.0027 -0.2360  0.1976
 1724ntf    on510734   2.263   4.715   6.142  0.3485 -0.3293  0.1306
 1724ntf    on510735   2.033   4.730   6.235 -0.2247  0.0480 -0.4478
 1724ntf    on510736   1.892   4.969   6.195  0.6335 -0.1538  0.5513
 1724ntf    on510737   1.994   5.084   5.996  0.0700  0.1110 -0.0410
 1724ntf    fn410738   2.164   5.226   6.199  0.2197  0.1580  0.4952
 1724ntf    fn410739   1.955   5.259   6.244  0.1492 -0.2058  0.5120
 1724ntf    fn410740   2.079   5.121   6.356  0.3926  0.2051  0.3694
 1725ntf    cn110741   1.340   6.153   1.630  0.4322 -0.2407  0.2386
 1725ntf    sn210742   1.224   6.132   1.768  0.2418  0.1532  0.1399
 1725ntf    nn310743   1.278   6.228   1.880  0.2585 -0.2240  0.4546
 1725ntf    sn210744   1.307   6.382   1.878 -0.0042 -0.1807 -0.2047
 1725ntf    cn110745   1.482   6.387   1.926 -0.1192 -0.0047  0.2015
 1725ntf    fn410746   1.308   6.258   1.555  0.2822 -0.3933  0.0881
 1725ntf    fn410747   1.471   6.165   1.647  0.3758  0.5533  0.1784
 1725ntf    fn410748   1.329   6.053   1.545 -0.0457 -0.1624  0.2067
 1725ntf    on510749   1.090   6.164   1.724  0.1208 -0.6086 -0.0503
 1725ntf    on510750   1.242   5.994   1.803  0.2230  0.0935 -0.0863
 1725ntf    on510751   1.238   6.449   1.986 -0.1060 -0.0420 -0.3565
 1725ntf    on510752   1.307   6.446   1.749 -0.0937 -0.5001 -0.3646
 1725ntf    fn410753   1.507   6.320   2.038 -0.0605 -0.3396 -0.0110
 1725ntf    fn410754   1.558   6.337   1.830 -0.0574 -0.1091  0.3041
 1725ntf    fn410755   1.522   6.510   1.952 -0.0359  0.0328 -0.0967
 1726ntf    cn110756   6.675   1.490   4.689 -0.0480  0.1674 -0.5531
 1726ntf    sn210757   6.624   1.664   4.705 -0.4183 -0.0008  0.1437
 1726ntf    nn310758   6.625   1.706   4.554 -0.2191 -0.0345  0.1356
 1726ntf    sn210759   6.720   1.820   4.502  0.0413 -0.2939  0.0428
 1726ntf    cn110760   6.871   1.720   4.480  0.1899  0.0355 -0.4751
 1726ntf    fn410761   6.781   1.471   4.611  0.4847 -0.2554  0.2532
 1726ntf    fn410762   6.702   1.431   4.804 -0.7095  0.5454 -0.1992
 1726ntf    fn410763   6.583   1.414   4.632 -0.4359  0.0560  0.2094
 1726ntf    on510764   6.489   1.656   4.755 -0.4558  0.5101  0.1310
 1726ntf    on510765   6.725   1.714   4.795  0.7252 -0.4958 -0.8379
 1726ntf    on510766   6.745   1.926   4.596 -0.2177 -0.2571  0.0700
 1726ntf    on510767   6.699   1.859   4.365  0.6625 -0.2339 -0.0402
 1726ntf    fn410768   6.929   1.677   4.591  0.1385  0.1877 -0.3894
 1726ntf    fn410769   6.844   1.621   4.397 -0.1790 -0.2654 -0.0074
 1726ntf    fn410770   6.962   1.788   4.413  0.1751  0.3468 -0.1824
 1727ntf    cn110771   3.651   2.232   6.886  0.1778 -0.1508  0.0820
 1727ntf    sn210772   3.678   2.359   7.014  0.1396 -0.0936  0.0334
 1727ntf    nn310773   3.702   2.483   6.920 -0.2262  0.0095  0.0730
 1727ntf    sn210774   3.594   2.587   6.875 -0.0661  0.1222 -0.0497
 1727ntf    cn110775   3.588   2.701   7.016  0.1051 -0.1001  0.1388
 1727ntf    fn410776   3.614   2.116   6.938 -0.1084 -0.2767 -0.4025
 1727ntf    fn410777   3.557   2.271   6.801  0.1398 -0.4156  0.0025
 1727ntf    fn410778   3.757   2.203   6.811  0.2671  0.0898  0.1136
 1727ntf    on510779   3.570   2.352   7.109  0.3017 -1.0923  0.1561
 1727ntf    on510780   3.796   2.294   7.065  0.2753  0.3243  0.2487
 1727ntf    on510781   3.462   2.531   6.860  0.2281 -0.5813 -0.0762
 1727ntf    on510782   3.635   2.670   6.764 -0.4555 -0.0898 -0.3551
 1727ntf    fn410783   3.495   2.794   6.999  0.0492 -0.1991 -0.1004
 1727ntf    fn410784   3.562   2.643   7.132  0.1548  0.2320  0.3194
 1727ntf    fn410785   3.699   2.771   7.032 -0.0747  0.1471  0.3227
 1728ntf    cn110786   2.387   2.383   1.406  0.0833 -0.4634  0.0709
 1728ntf    sn210787   2.304   2.451   1.553  0.0290 -0.1090 -0.1228
 1728ntf    nn310788   2.195   2.532   1.474 -0.4813 -0.2735  0.4019
 1728ntf    sn210789   2.043   2.562   1.496 -0.4071 -0.1142  0.6957
 1728ntf    cn110790   1.970   2.412   1.425  0.0395  0.0074 -0.0275
 1728ntf    fn410791   2.304   2.309   1.333  0.1693 -0.2324 -0.2615
 1728ntf    fn410792   2.442   2.473   1.326  0.1081 -0.3750  0.1874
 1728ntf    fn410793   2.490   2.304   1.429  0.2004 -0.5466 -0.7112
 1728ntf    on510794   2.250   2.339   1.626  0.0385 -0.0973 -0.0983
 1728ntf    on510795   2.405   2.534   1.614  0.2434 -0.1554 -0.4110
 1728ntf    on510796   2.002   2.666   1.405  0.5273 -0.3721 -0.0291
 1728ntf    on510797   1.999   2.569   1.634 -1.0093 -0.2079  0.5107
 1728ntf    fn410798   2.014   2.297   1.476  0.2429  0.0861 -0.0245
 1728ntf    fn410799   1.838   2.402   1.433  0.0180  0.7090  0.5288
 1728ntf    fn410800   1.997   2.398   1.296 -0.6677  0.2764 -0.2059
 1729ntf    cn110801   5.518   6.366   6.725 -0.0778  0.3467  0.3461
 1729ntf    sn210802   5.373   6.406   6.624  0.3004  0.2280 -0.2491
 1729ntf    nn310803   5.397   6.561   6.624 -0.3841  0.3409  0.5872
 1729ntf    sn210804   5.312   6.678   6.563 -0.1170  0.1932 -0.0687
 1729ntf    cn110805   5.409   6.724   6.416  0.2670 -0.2817  0.0309
 1729ntf    fn410806   5.511   6.431   6.840  0.7396  0.4451  0.3447
 1729ntf    fn410807   5.543   6.237   6.743 -0.3467  0.2106 -0.2392
 1729ntf    fn410808   5.626   6.415   6.666 -0.2431  0.1270 -0.1390
 1729ntf    on510809   5.392   6.348   6.494 -0.2033 -0.1867 -0.1434
 1729ntf    on510810   5.267   6.354   6.707 -0.0920 -0.3061 -1.0693
 1729ntf    on510811   5.311   6.795   6.647  0.1570  0.0137  0.1904
 1729ntf    on510812   5.184   6.645   6.506 -0.0964 -0.5264  0.2929
 1729ntf    fn410813   5.366   6.841   6.370  0.0570 -0.4667 -0.2448
 1729ntf    fn410814   5.539   6.726   6.438  0.2741 -0.4028 -0.0005
 1729ntf    fn410815   5.391   6.640   6.316 -0.3942  0.4037 -0.4393
 1730ntf    cn110816   1.352   5.751   2.482 -0.5218  0.2678 -0.0779
 1730ntf    sn210817   1.386   5.876   2.355  0.0775  0.2861  0.0982
 1730ntf    nn310818   1.387   6.000   2.451  0.2859  0.0118  0.4505
 1730ntf    sn210819   1.302   6.130   2.433  0.2854 -0.0187  0.2327
 1730ntf    cn110820   1.378   6.216   2.292 -0.5417  0.2690 -0.0443
 1730ntf    fn410821   1.222   5.738   2.505 -0.3451 -0.3004  0.6177
 1730ntf    fn410822   1.388   5.630   2.442  0.2450  0.3263  0.4079
 1730ntf    fn410823   1.403   5.761   2.604 -0.2185 -0.6715 -0.1218
 1730ntf    on510824   1.523   5.840   2.325 -0.1243 -0.1781 -0.2777
 1730ntf    on510825   1.278   5.855   2.261  0.0619 -0.4053  0.2660
 1730ntf    on510826   1.337   6.225   2.536  0.2981  0.4093 -0.1628
 1730ntf    on510827   1.163   6.108   2.399  0.3129  0.5793 -0.2965
 1730ntf    fn410828   1.304   6.206   2.182 -0.1420 -0.1432 -0.2819
 1730ntf    fn410829   1.422   6.339   2.313  0.6505 -0.0895 -0.3519
 1730ntf    fn410830   1.489   6.152   2.258 -0.5375  0.2172  0.0687
 1731ntf    cn110831   2.872   2.860   0.858 -0.0752  0.1769 -0.2924
 1731ntf    sn210832   2.787   2.919   1.007 -0.1697 -0.1996 -0.1964
 1731ntf    nn310833   2.660   2.981   0.939 -0.1529 -0.3139 -0.3318
 1731ntf    sn210834   2.515   2.988   0.997  0.0965  0.0677  0.2523
 1731ntf    cn110835   2.479   3.166   0.996 -0.0662  0.0341  0.1754
 1731ntf    fn410836   2.981   2.790   0.889 -0.5082 -0.3552  0.0603
 1731ntf    fn410837   2.792   2.780   0.789  0.2454 -0.3078 -0.1146
 1731ntf    fn410838   2.911   2.961   0.783 -0.1427  0.6836  0.3483
 1731ntf    on510839   2.759   2.795   1.076 -0.4711  0.1449  0.3076
 1731ntf    on510840   2.876   3.017   1.062 -0.1210 -0.0623 -0.5215
 1731ntf    on510841   2.486   2.951   1.134 -0.1888 -0.6011  0.0157
 1731ntf    on510842   2.426   2.930   0.900  0.4530  0.2330 -0.1751
 1731ntf    fn410843   2.488   3.218   0.875 -0.1306 -0.0392  0.1390
 1731ntf    fn410844   2.359   3.198   1.042  0.0417  0.0495  0.4450
 1731ntf    fn410845   2.568   3.234   1.066 -0.0171 -0.5237  0.6659
 1732ntf    cn110846   3.450   4.145   4.832  0.2762 -0.5816 -0.3430
 1732ntf    sn210847   3.591   4.088   4.732  0.2101 -0.0623 -0.7366
 1732ntf    nn310848   3.537   3.957   4.665  0.1217 -0.1579 -0.4771
 1732ntf    sn210849   3.435   3.945   4.547 -0.1558 -0.1715 -0.2365
 1732ntf    cn110850   3.558   3.932   4.414 -0.1341  0.0811 -0.2425
 1732ntf    fn410851   3.348   4.184   4.758 -0.3335  0.2421  0.9019
 1732ntf    fn410852   3.414   4.057   4.923  0.7828 -0.4145  0.0220
 1732ntf    fn410853   3.483   4.253   4.901  0.3175 -0.8819  0.1086
 1732ntf    on510854   3.620   4.199   4.644 -0.4579  0.7437  0.0555
 1732ntf    on510855   3.693   4.062   4.831 -0.4074  0.0563 -0.0633
 1732ntf    on510856   3.360   4.065   4.516 -0.2722 -0.1282  0.2072
 1732ntf    on510857   3.354   3.826   4.542  0.2432 -0.4311 -0.5293
 1732ntf    fn410858   3.646   3.838   4.446  0.1158  0.1111 -0.8255
 1732ntf    fn410859   3.513   3.902   4.293 -0.2944  0.6850 -0.3376
 1732ntf    fn410860   3.628   4.044   4.404  0.0312  0.0454  0.4836
 1733ntf    cn110861   5.766   5.280   1.935  0.4081 -0.7602 -0.3386
 1733ntf    sn210862   5.735   5.330   2.107  0.3737 -0.2715 -0.4885
 1733ntf    nn310863   5.703   5.196   2.182  0.4377 -0.0444 -0.0534
 1733ntf    sn210864   5.570   5.113   2.180  0.4494 -0.0591 -0.1514
 1733ntf    cn110865   5.498   5.178   2.333  0.3385 -0.1298 -0.1735
 1733ntf    fn410866   5.647   5.256   1.882 -0.1775 -0.1717  0.6860
 1733ntf    fn410867   5.818   5.382   1.869  0.4588 -0.1036  0.7064
 1733ntf    fn410868   5.849   5.176   1.936  0.6069 -0.5993 -0.0586
 1733ntf    on510869   5.856   5.396   2.148 -0.0815  0.2099  0.1071
 1733ntf    on510870   5.623   5.421   2.098  0.5306  0.0989  1.0015
 1733ntf    on510871   5.587   4.973   2.210 -0.1480 -0.1605 -0.2724
 1733ntf    on510872   5.469   5.141   2.081  0.1301 -0.3461  0.0911
 1733ntf    fn410873   5.580   5.149   2.433  0.5879  0.1698 -0.2890
 1733ntf    fn410874   5.468   5.307   2.339 -0.2322 -0.2651 -0.0548
 1733ntf    fn410875   5.384   5.119   2.365  0.2283 -0.0160 -0.3564
 1734ntf    cn110876   3.209   0.786   0.806  0.0583  0.7336 -0.1341
 1734ntf    sn210877   3.228   0.722   0.637  0.2783  0.0739  0.1338
 1734ntf    nn310878   3.291   0.582   0.670  0.0865  0.0081  0.2245
 1734ntf    sn210879   3.436   0.523   0.674  0.1791  0.1720 -0.4806
 1734ntf    cn110880   3.454   0.472   0.501  0.0648 -0.1084 -0.4106
 1734ntf    fn410881   3.155   0.696   0.887  0.6281  0.8423  0.3754
 1734ntf    fn410882   3.329   0.814   0.854 -0.0075  0.3186  0.2745
 1734ntf    fn410883   3.130   0.891   0.814 -0.4811  0.3519 -0.3681
 1734ntf    on510884   3.091   0.722   0.591  0.4294  0.2014 -0.3300
 1734ntf    on510885   3.324   0.808   0.572  0.4110 -0.3336 -0.2178
 1734ntf    on510886   3.448   0.405   0.756  0.0884  0.1850 -0.4489
 1734ntf    on510887   3.536   0.623   0.704  0.0669  0.0425  0.3764
 1734ntf    fn410888   3.339   0.447   0.441  0.2029  0.0570 -0.7496
 1734ntf    fn410889   3.503   0.558   0.413 -0.1626  0.1630 -0.2735
 1734ntf    fn410890   3.531   0.364   0.498 -0.2860 -0.3849  0.3239
 1735ntf    cn110891   1.431   1.980   0.536 -0.1211  0.0828 -0.3076
 1735ntf    sn210892   1.261   2.023   0.584  0.0041 -0.0161  0.2294
 1735ntf    nn310893   1.285   2.177   0.599  0.0821 -0.0547  0.5049
 1735ntf    sn210894   1.201   2.302   0.555  0.0657 -0.0807  0.4622
 1735ntf    cn110895   1.086   2.325   0.694 -0.3498  0.0321  0.1001
 1735ntf    fn410896   1.522   2.039   0.611 -0.4102  0.2652 -0.1045
 1735ntf    fn410897   1.465   1.853   0.552  0.1736  0.1890 -0.1006
 1735ntf    fn410898   1.454   2.012   0.409  0.1626  0.0830 -0.2564
 1735ntf    on510899   1.185   1.978   0.469  0.0887  0.0205  0.1589
 1735ntf    on510900   1.238   1.956   0.709 -0.1047  0.3728  0.4174
 1735ntf    on510901   1.123   2.284   0.435 -0.0366 -0.3645  0.5709
 1735ntf    on510902   1.280   2.423   0.558 -0.1453  0.0641  0.1520
 1735ntf    fn410903   0.987   2.238   0.685 -0.0685 -0.2748 -0.0590
 1735ntf    fn410904   1.142   2.312   0.813 -0.4739  0.5437  0.2169
 1735ntf    fn410905   1.029   2.444   0.696  0.2242  0.3327 -0.9068
 1736ntf    cn110906   5.325   6.408   5.906 -0.1768 -0.0667 -0.2200
 1736ntf    sn210907   5.172   6.506   5.917  0.2533  0.6344 -0.4103
 1736ntf    nn310908   5.223   6.650   5.882 -0.6297  1.0433 -0.0432
 1736ntf    sn210909   5.240   6.700   5.734 -0.1374 -0.0919 -0.3756
 1736ntf    cn110910   5.082   6.787   5.718 -0.1961 -0.1262  0.0169
 1736ntf    fn410911   5.306   6.294   5.969 -0.7085 -0.0677 -0.3749
 1736ntf    fn410912   5.357   6.372   5.783 -0.7275  0.0648 -0.4035
 1736ntf    fn410913   5.423   6.474   5.966 -0.0656 -0.1005 -0.3640
 1736ntf    on510914   5.067   6.462   5.829 -0.4538  0.4831  0.4958
 1736ntf    on510915   5.142   6.500   6.058 -0.1333  0.3856 -0.5017
 1736ntf    on510916   5.230   6.597   5.633 -0.1251  0.2818 -0.7615
 1736ntf    on510917   5.348   6.794   5.720 -0.0424 -0.1993 -0.3687
 1736ntf    fn410918   4.981   6.702   5.715 -0.0538 -0.2896 -0.1031
 1736ntf    fn410919   5.058   6.858   5.828 -0.4100 -0.5503  0.2459
 1736ntf    fn410920   5.065   6.860   5.609 -0.5807 -0.1843  0.0358
 1737ntf    cn110921   2.882   6.504   2.745  0.2851  0.0570  0.2585
 1737ntf    sn210922   2.759   6.438   2.862  0.0064  0.1986  0.0469
 1737ntf    nn310923   2.652   6.419   2.749 -0.1338  0.0388  0.2052
 1737ntf    sn210924   2.580   6.290   2.694 -0.0213  0.1339 -0.1728
 1737ntf    cn110925   2.655   6.276   2.530  0.2884 -0.1211 -0.0088
 1737ntf    fn410926   2.889   6.427   2.638  0.1665  0.4790 -0.0531
 1737ntf    fn410927   2.866   6.630   2.708  0.7891 -0.0244 -0.2532
 1737ntf    fn410928   3.005   6.492   2.792  0.3692 -0.0324  0.0187
 1737ntf    on510929   2.821   6.318   2.914 -0.3435  0.0807  0.1897
 1737ntf    on510930   2.735   6.549   2.950  0.4070  0.1870  0.1738
 1737ntf    on510931   2.440   6.316   2.668 -0.1495  0.2236  0.5659
 1737ntf    on510932   2.617   6.165   2.754 -0.3615  0.1073 -0.0148
 1737ntf    fn410933   2.779   6.230   2.538  0.3336 -0.0591 -0.3214
 1737ntf    fn410934   2.589   6.195   2.449  0.0037 -0.2154  0.3193
 1737ntf    fn410935   2.663   6.391   2.466  1.0132  0.1794  0.6022
 1738ntf    cn110936   6.540   1.333   2.047 -0.0828  0.1830 -0.1111
 1738ntf    sn210937   6.567   1.472   1.933 -0.0746  0.1440 -0.1569
 1738ntf    nn310938   6.555   1.588   2.039  0.2368  0.0654 -0.0342
 1738ntf    sn210939   6.644   1.710   2.078  0.3520  0.0748 -0.3273
 1738ntf    cn110940   6.551   1.844   1.997  0.3114  0.3694  0.1989
 1738ntf    fn410941   6.415   1.357   2.085 -0.1703  0.0762 -0.3298
 1738ntf    fn410942   6.543   1.210   1.998 -0.4148  0.0765  0.1346
 1738ntf    fn410943   6.618   1.331   2.154 -0.0360  0.5206 -0.1383
 1738ntf    on510944   6.701   1.440   1.892  0.3476  0.9946  0.5050
 1738ntf    on510945   6.453   1.457   1.846 -0.0941 -0.0116 -0.1058
 1738ntf    on510946   6.771   1.719   2.009  0.5721  1.2216  0.1993
 1738ntf    on510947   6.632   1.748   2.217 -0.2193  0.2505 -0.4219
 1738ntf    fn410948   6.426   1.842   2.039 -0.0910 -0.0475 -0.9728
 1738ntf    fn410949   6.598   1.962   2.031  0.4820  0.1726  0.6543
 1738ntf    fn410950   6.546   1.846   1.865  0.1240 -0.0698  0.1982
 1739ntf    cn110951   0.769   3.738   1.808 -0.5019  0.4509  0.3109
 1739ntf    sn210952   0.829   3.682   1.970  0.0818 -0.0751 -0.0861
 1739ntf    nn310953   0.703   3.610   2.029  0.2667  0.0542  0.4693
 1739ntf    sn210954   0.696   3.488   2.128 -0.4509 -0.3721 -0.0940
 1739ntf    cn110955   0.703   3.575   2.288  0.0271 -0.1125 -0.2550
 1739ntf    fn410956   0.862   3.739   1.715 -0.7714 -0.0399  0.0305
 1739ntf    fn410957   0.674   3.655   1.768 -0.0435 -0.1596  0.4764
 1739ntf    fn410958   0.728   3.864   1.806 -0.1820  0.5500 -0.1508
 1739ntf    on510959   0.937   3.589   1.944 -0.3335 -0.6262  0.1396
 1739ntf    on510960   0.868   3.803   2.038  0.1842 -0.1828  0.0468
 1739ntf    on510961   0.801   3.390   2.132  0.0623  0.1742  0.1081
 1739ntf    on510962   0.562   3.439   2.145 -0.4787  0.0279  0.9543
 1739ntf    fn410963   0.605   3.664   2.295  0.1759  0.0018  0.4245
 1739ntf    fn410964   0.692   3.490   2.388 -0.1534 -0.1335 -0.2932
 1739ntf    fn410965   0.816   3.645   2.294  0.0324 -0.1471  0.0207
 1740ntf    cn110966   1.756   4.806   4.953  0.1614 -0.0615  0.0153
 1740ntf    sn210967   1.625   4.690   4.904 -0.0324  0.3595 -0.4650
 1740ntf    nn310968   1.531   4.733   5.022  0.3785 -0.1206  0.0396
 1740ntf    sn210969   1.546   4.677   5.168  0.2501 -0.1381  0.0464
 1740ntf    cn110970   1.369   4.691   5.203  0.1238  0.1288 -0.6897
 1740ntf    fn410971   1.848   4.814   4.858 -0.2586 -0.2628 -0.4111
 1740ntf    fn410972   1.703   4.926   4.969 -0.7289 -0.3463 -0.7007
 1740ntf    fn410973   1.817   4.762   5.062 -0.2299 -0.4508  0.0788
 1740ntf    on510974   1.580   4.741   4.777 -0.4950 -0.0495 -0.4677
 1740ntf    on510975   1.685   4.559   4.912 -0.7949  0.0495  0.2477
 1740ntf    on510976   1.610   4.759   5.268 -0.0860 -0.5815  0.6337
 1740ntf    on510977   1.556   4.534   5.182 -0.0822 -0.1371  0.2987
 1740ntf    fn410978   1.300   4.600   5.136  0.0842  0.2909 -0.8692
 1740ntf    fn410979   1.347   4.663   5.330 -0.2419  0.8046 -0.5950
 1740ntf    fn410980   1.324   4.811   5.169 -0.3927  0.2705  0.4485
 1741ntf    cn110981   4.497   1.339   1.483 -0.0641  0.0117 -0.0364
 1741ntf    sn210982   4.389   1.322   1.628 -0.2470  0.2684 -0.1432
 1741ntf    nn310983   4.396   1.467   1.688 -0.4865 -0.1410  0.8955
 1741ntf    sn210984   4.487   1.537   1.795  0.1727  0.2136  0.1112
 1741ntf    cn110985   4.370   1.569   1.930  0.1644  0.2450  0.0967
 1741ntf    fn410986   4.625   1.309   1.502 -0.1534 -0.1353  0.3405
 1741ntf    fn410987   4.458   1.266   1.380 -0.4603 -0.1595  0.2322
 1741ntf    fn410988   4.498   1.466   1.447 -0.2552 -0.0769 -0.3554
 1741ntf    on510989   4.260   1.292   1.570 -0.3158 -0.1549  0.2258
 1741ntf    on510990   4.440   1.212   1.705 -0.1504  0.3535 -0.0853
 1741ntf    on510991   4.532   1.670   1.764  0.0067  0.2428 -0.0047
 1741ntf    on510992   4.584   1.450   1.858 -0.2804 -0.4599 -0.1111
 1741ntf    fn410993   4.427   1.620   2.038  0.4616 -0.7301  0.4148
 1741ntf    fn410994   4.273   1.649   1.890  0.1948  0.0752 -0.3189
 1741ntf    fn410995   4.318   1.458   1.980  0.2736  0.4085  0.5832
 1742ntf    cn110996   1.039   6.784   6.005 -0.3229  0.0671  0.2462
 1742ntf    sn210997   0.869   6.838   5.972 -0.1061  0.4930 -0.1990
 1742ntf    nn310998   0.845   6.910   6.109  0.0955  0.3830 -0.1068
 1742ntf    sn210999   0.773   6.856   6.237  0.0838 -0.0096 -0.2780
 1742ntf    cn111000   0.603   6.904   6.192 -0.0455 -0.0357  0.1760
 1742ntf    fn411001   1.124   6.878   6.042 -0.4229  0.0079  0.6311
 1742ntf    fn411002   1.052   6.685   6.091  0.5139 -0.0679 -0.0262
 1742ntf    fn411003   1.096   6.738   5.895 -0.2868 -0.0976  0.3346
 1742ntf    on511004   0.869   6.935   5.865 -0.3308  0.3583 -0.3243
 1742ntf    on511005   0.792   6.719   5.942  0.3675  0.1428 -0.0323
 1742ntf    on511006   0.780   6.936   6.357  0.2360  0.2486 -0.4599
 1742ntf    on511007   0.774   6.712   6.253  0.2396  0.0715  0.4838
 1742ntf    fn411008   0.507   6.876   6.279  0.2216 -0.3797  0.3635
 1742ntf    fn411009   0.597   7.032   6.161  0.3936  0.0636  0.4880
 1742ntf    fn411010   0.575   6.838   6.081 -0.0747 -0.0432  0.1879
 1743ntf    cn111011   5.848   6.179   5.252  0.0275  0.0941  0.1253
 1743ntf    sn211012   5.707   6.272   5.318 -0.1189  0.0960 -0.1861
 1743ntf    nn311013   5.729   6.247   5.472 -0.3999  0.0166 -0.1567
 1743ntf    sn211014   5.705   6.121   5.561  0.0593  0.1075  0.0994
 1743ntf    cn111015   5.544   6.162   5.635 -0.2281 -0.2672 -0.3080
 1743ntf    fn411016   5.968   6.207   5.301  0.1867 -0.1565 -0.1131
 1743ntf    fn411017   5.835   6.048   5.263  0.0090  0.1064  0.2441
 1743ntf    fn411018   5.848   6.195   5.120  0.1681  0.6504  0.1895
 1743ntf    on511019   5.730   6.408   5.277 -1.0211  0.2563 -0.1933
 1743ntf    on511020   5.598   6.196   5.261  0.1660 -0.4666  0.0056
 1743ntf    on511021   5.792   6.122   5.677  0.2163 -0.0589 -0.0159
 1743ntf    on511022   5.677   5.999   5.490  0.1205 -0.1260  0.4695
 1743ntf    fn411023   5.445   6.092   5.585 -0.0735 -0.6387 -0.0954
 1743ntf    fn411024   5.549   6.140   5.766  0.6169 -0.3671 -0.3500
 1743ntf    fn411025   5.517   6.291   5.621  0.5611  0.0064  0.5259
 1744ntf    cn111026   3.358   1.624   2.497  0.2116  0.0734 -0.2939
 1744ntf    sn211027   3.181   1.585   2.509  0.1922  0.1866 -0.2105
 1744ntf    nn311028   3.121   1.730   2.507  0.0820  0.1448 -0.0369
 1744ntf    sn211029   3.115   1.819   2.636 -0.5266  0.1886 -0.0914
 1744ntf    cn111030   3.145   1.982   2.563 -0.1197  0.1981  0.0930
 1744ntf    fn411031   3.371   1.713   2.400 -0.0815  0.0246 -0.3806
 1744ntf    fn411032   3.401   1.683   2.607  0.4784 -0.3306 -0.1818
 1744ntf    fn411033   3.427   1.517   2.462  0.2065 -0.1703  0.4239
 1744ntf    on511034   3.151   1.516   2.386  0.3127 -0.3052  0.0332
 1744ntf    on511035   3.162   1.509   2.630  0.2873  0.0949 -0.2535
 1744ntf    on511036   3.237   1.806   2.712 -0.6161 -0.2979 -0.0271
 1744ntf    on511037   2.987   1.830   2.701 -0.4253  0.8796 -0.0018
 1744ntf    fn411038   3.265   1.991   2.509  0.0006 -0.0525  0.3164
 1744ntf    fn411039   3.063   2.015   2.465  0.1755 -0.0429 -0.2362
 1744ntf    fn411040   3.126   2.087   2.641 -0.3512 -0.0663  0.3944
 1745ntf    cn111041   1.160   2.975   4.969  0.2120  0.2562  0.0090
 1745ntf    sn211042   1.161   3.113   4.850  0.2191  0.1805 -0.0790
 1745ntf    nn311043   1.065   3.211   4.927 -0.0062  0.2603 -0.4607
 1745ntf    sn211044   1.091   3.345   5.005 -0.2346  0.0269  0.0149
 1745ntf    cn111045   1.076   3.460   4.866  0.1621  0.3384  0.2261
 1745ntf    fn411046   1.225   3.009   5.079  0.2502 -0.4861  0.2207
 1745ntf    fn411047   1.035   2.943   4.999  0.3428 -0.5440 -0.2788
 1745ntf    fn411048   1.214   2.864   4.922  0.3527  0.3524 -0.0580
 1745ntf    on511049   1.299   3.154   4.848  0.1838  0.3337  0.4514
 1745ntf    on511050   1.106   3.047   4.734  0.7037 -0.5740  0.1143
 1745ntf    on511051   1.219   3.364   5.070 -0.3563  0.3129  0.1710
 1745ntf    on511052   0.974   3.366   5.087 -0.0997 -0.2519  0.2831
 1745ntf    fn411053   0.983   3.427   4.777  0.0883  0.0521  0.4078
 1745ntf    fn411054   1.058   3.585   4.904  0.0913  0.3283  0.2252
 1745ntf    fn411055   1.188   3.451   4.796 -0.1277  0.1709 -0.2272
 1746ntf    cn111056   1.492   2.581   5.518  0.3264  0.1783 -0.0895
 1746ntf    sn211057   1.618   2.605   5.647  0.3012 -0.1598  0.0004
 1746ntf    nn311058   1.609   2.758   5.681 -0.1262 -0.1979  0.0624
 1746ntf    sn211059   1.704   2.878   5.644 -0.3569  0.0797  0.3640
 1746ntf    cn111060   1.624   3.024   5.718 -0.1586  0.3991 -0.0508
 1746ntf    fn411061   1.531   2.595   5.393  0.2336  0.4034 -0.0931
 1746ntf    fn411062   1.437   2.460   5.527 -0.3371  0.5131  0.4860
 1746ntf    fn411063   1.384   2.657   5.529 -0.0181 -0.2808 -0.2430
 1746ntf    on511064   1.563   2.533   5.760 -0.4865  0.2584 -0.1067
 1746ntf    on511065   1.744   2.564   5.591  0.3558  0.0314 -0.0150
 1746ntf    on511066   1.721   2.916   5.506  0.1501 -0.1958  0.3473
 1746ntf    on511067   1.824   2.859   5.722  0.0943 -0.1762 -0.3815
 1746ntf    fn411068   1.515   3.046   5.648 -0.6265 -0.2667  0.4523
 1746ntf    fn411069   1.592   3.003   5.845  0.1327 -0.4258 -0.1059
 1746ntf    fn411070   1.703   3.130   5.721 -0.3109  0.5070  0.1095
 1747ntf    cn111071   3.508   4.345   6.181 -0.3454  0.3130  0.1923
 1747ntf    sn211072   3.675   4.274   6.190 -0.4919 -0.0726 -0.0879
 1747ntf    nn311073   3.762   4.405   6.181 -0.4779 -0.0630  0.1783
 1747ntf    sn211074   3.800   4.502   6.299  0.5192 -0.1132 -0.0932
 1747ntf    cn111075   3.958   4.433   6.356  0.2730 -0.2136  0.4672
 1747ntf    fn411076   3.411   4.256   6.168 -0.1751  0.1922 -0.2406
 1747ntf    fn411077   3.468   4.418   6.284 -0.6550 -0.4603  0.6258
 1747ntf    fn411078   3.494   4.419   6.072 -0.5407  0.3891  0.2685
 1747ntf    on511079   3.671   4.210   6.319 -0.7091  0.9634  0.4374
 1747ntf    on511080   3.677   4.195   6.070 -1.1646 -0.5709  0.2249
 1747ntf    on511081   3.717   4.504   6.416  0.2671 -0.3242 -0.2653
 1747ntf    on511082   3.834   4.632   6.247 -0.3363  0.1215 -0.0695
 1747ntf    fn411083   4.021   4.503   6.450  0.6695 -0.2806  0.2549
 1747ntf    fn411084   3.945   4.314   6.412  0.3889 -0.3740  0.1548
 1747ntf    fn411085   4.055   4.430   6.266 -0.4538  0.1892 -0.3346
 1748ntf    cn111086   0.886   0.350   0.293 -0.1624 -0.5466  0.1385
 1748ntf    sn211087   0.966   0.187   0.298  0.3412 -0.3202 -0.3367
 1748ntf    nn311088   0.844   0.089   0.279  0.0706 -0.1724  0.5772
 1748ntf    sn211089   0.778   0.041   0.145  0.3512 -0.0554  0.3959
 1748ntf    cn111090   0.912  -0.071   0.093  0.1075 -0.0845 -0.1815
 1748ntf    fn411091   0.790   0.364   0.382  0.0362 -0.1232  0.2916
 1748ntf    fn411092   0.975   0.445   0.317 -0.4113 -0.3183  0.1612
 1748ntf    fn411093   0.833   0.379   0.175  0.2297  0.2393  0.1463
 1748ntf    on511094   1.059   0.202   0.189  0.0921  0.1651 -0.4850
 1748ntf    on511095   1.023   0.182   0.430 -0.2412 -0.2194 -0.0753
 1748ntf    on511096   0.762   0.138   0.040  0.5048  0.3041  0.7017
 1748ntf    on511097   0.673  -0.057   0.161  0.2462 -0.0515 -0.2362
 1748ntf    fn411098   0.879  -0.147  -0.010 -0.0017 -0.4571  0.1289
 1748ntf    fn411099   1.025  -0.013   0.054  0.2690 -0.6824 -0.6184
 1748ntf    fn411100   0.943  -0.145   0.198 -0.3441 -0.5735 -0.3914
 1749ntf    cn111101   4.934   2.792   6.052  0.2494 -0.0573  0.3967
 1749ntf    sn211102   4.828   2.738   5.915  0.3175 -0.0377  0.3362
 1749ntf    nn311103   4.923   2.631   5.850  0.7675  0.2809  0.4644
 1749ntf    sn211104   4.952   2.593   5.700 -0.3516  0.1056  0.2829
 1749ntf    cn111105   5.127   2.546   5.716 -0.1899  0.5639 -0.1246
 1749ntf    fn411106   5.031   2.872   6.011 -0.1803  0.4145  0.2825
 1749ntf    fn411107   4.866   2.868   6.137 -0.2980  0.3545 -0.3953
 1749ntf    fn411108   4.992   2.694   6.119  1.0716 -0.1034 -0.3684
 1749ntf    on511109   4.713   2.673   5.974 -0.0983  0.5887  0.2305
 1749ntf    on511110   4.814   2.854   5.831  0.5975  0.4006  0.8882
 1749ntf    on511111   4.952   2.703   5.607 -0.4722 -0.1158  0.0196
 1749ntf    on511112   4.887   2.470   5.663  0.2288 -0.3571  0.7827
 1749ntf    fn411113   5.177   2.480   5.613 -0.0711  0.5052 -0.0296
 1749ntf    fn411114   5.215   2.643   5.736  0.7648 -0.3060 -0.0166
 1749ntf    fn411115   5.140   2.468   5.822 -0.2345  0.0025 -0.5285
 1750ntf    cn111116   0.597   0.385   1.562 -0.2175  0.4116  0.0242
 1750ntf    sn211117   0.694   0.287   1.443 -0.0517  0.2728  0.2740
 1750ntf    nn311118   0.738   0.400   1.343  0.7466 -0.0930  0.2082
 1750ntf    sn211119   0.800   0.369   1.202 -0.1056 -0.0589 -0.1797
 1750ntf    cn111120   0.666   0.431   1.096 -0.0572  0.0724 -0.1652
 1750ntf    fn411121   0.671   0.460   1.641  0.2007 -0.5592  0.5684
 1750ntf    fn411122   0.511   0.467   1.503 -0.9739 -0.5026 -0.1652
 1750ntf    fn411123   0.528   0.314   1.649  0.2537  0.3324  0.3356
 1750ntf    on511124   0.809   0.232   1.511 -0.2173  0.0867  0.4035
 1750ntf    on511125   0.594   0.206   1.379  0.1146  0.3595 -0.0957
 1750ntf    on511126   0.814   0.232   1.160 -0.0357 -0.0388 -0.2222
 1750ntf    on511127   0.910   0.458   1.172  0.0112 -0.2303 -0.2581
 1750ntf    fn411128   0.656   0.562   1.111  0.2889  0.1189 -0.3267
 1750ntf    fn411129   0.692   0.413   0.968  0.1815  0.0683 -0.1158
 1750ntf    fn411130   0.549   0.378   1.127  0.1741 -0.2935  0.0977
 1751ntf    cn111131   0.013   3.107   5.368 -0.7249 -0.0004 -0.1898
 1751ntf    sn211132  -0.125   3.005   5.308 -0.6789 -0.1970  0.0403
 1751ntf    nn311133  -0.139   3.052   5.159 -0.0982  0.4366  0.1838
 1751ntf    sn211134  -0.212   2.973   5.045  0.0150 -0.1019  0.4778
 1751ntf    cn111135  -0.065   2.892   4.975 -0.1267  0.0046  0.0495
 1751ntf    fn411136  -0.020   3.233   5.390  0.0229  0.0887  0.4650
 1751ntf    fn411137   0.073   3.064   5.477 -0.1913 -0.1723 -0.5489
 1751ntf    fn411138   0.112   3.116   5.281 -0.1893  0.4087  0.4545
 1751ntf    on511139  -0.069   2.874   5.334 -0.0154  0.1136  0.1860
 1751ntf    on511140  -0.238   3.053   5.384 -0.4804  0.3015  0.0208
 1751ntf    on511141  -0.253   3.063   4.939  0.5939 -0.0654  0.2802
 1751ntf    on511142  -0.292   2.859   5.080 -0.4721  0.0941  0.0186
 1751ntf    fn411143   0.010   2.846   5.074 -0.2084  0.0204  0.1183
 1751ntf    fn411144  -0.082   2.779   4.908 -0.4618 -0.1844  0.4458
 1751ntf    fn411145   0.006   2.974   4.900 -0.0383 -0.3033 -0.2048
 1752ntf    cn111146   5.241   6.325   3.121  0.3054  0.4073 -0.4413
 1752ntf    sn211147   5.253   6.273   2.947 -0.1764  0.2673 -0.4360
 1752ntf    nn311148   5.410   6.259   2.946 -0.1690  0.3357 -0.2028
 1752ntf    sn211149   5.482   6.123   2.916 -0.2360  0.2781 -0.1020
 1752ntf    cn111150   5.647   6.185   2.873 -0.2727  0.3704 -0.1110
 1752ntf    fn411151   5.310   6.241   3.197  0.0876  0.4931 -0.1493
 1752ntf    fn411152   5.291   6.445   3.144  0.6950  0.2002 -0.2127
 1752ntf    fn411153   5.117   6.320   3.168  0.5583  0.2215  0.2181
 1752ntf    on511154   5.178   6.151   2.960 -0.5249  0.5219 -0.0479
 1752ntf    on511155   5.205   6.384   2.867 -0.0327  0.1109 -0.7417
 1752ntf    on511156   5.446   6.062   2.791 -0.7696  0.6182 -0.1184
 1752ntf    on511157   5.517   6.041   3.030 -0.1638  0.2505 -0.1438
 1752ntf    fn411158   5.660   6.240   2.753  0.1866 -0.2777 -0.3692
 1752ntf    fn411159   5.674   6.282   2.959  1.0529  0.0497 -0.1484
 1752ntf    fn411160   5.742   6.093   2.882  0.1068  0.7507 -0.1630
 1753ntf    cn111161   4.902   2.795   3.276  0.2501  0.2151  0.0134
 1753ntf    sn211162   5.036   2.903   3.218  0.2453 -0.0353 -0.4722
 1753ntf    nn311163   4.970   2.989   3.105  0.3705  0.2336 -0.3425
 1753ntf    sn211164   4.883   3.118   3.129  0.0954  0.0310 -0.2397
 1753ntf    cn111165   5.002   3.254   3.110  0.3630 -0.1263  0.2783
 1753ntf    fn411166   4.785   2.845   3.242 -0.1703 -0.6803  0.0936
 1753ntf    fn411167   4.916   2.679   3.214 -0.2270 -0.1179  0.5122
 1753ntf    fn411168   4.892   2.762   3.404 -0.3339 -0.0595 -0.0981
 1753ntf    on511169   5.095   2.971   3.331  0.2543 -0.1050 -0.4353
 1753ntf    on511170   5.121   2.804   3.158  0.5767 -0.3251  0.4471
 1753ntf    on511171   4.841   3.131   3.267 -0.0258  0.5448 -0.3219
 1753ntf    on511172   4.799   3.153   3.017 -0.8299  0.6103  0.6191
 1753ntf    fn411173   5.052   3.262   2.988  0.1729 -0.7204  0.1613
 1753ntf    fn411174   4.956   3.375   3.140  0.6214 -0.0865  0.5211
 1753ntf    fn411175   5.109   3.234   3.185  0.1677  0.0133  0.5960
 1754ntf    cn111176   3.719   6.520   3.282 -0.2669 -0.4780  0.0427
 1754ntf    sn211177   3.553   6.595   3.269 -0.0139  0.1303  0.2598
 1754ntf    nn311178   3.556   6.709   3.377  0.4115  0.0327  0.3539
 1754ntf    sn211179   3.465   6.836   3.368  0.1354 -0.2171 -0.4194
 1754ntf    cn111180   3.437   6.853   3.546  0.7916  0.1556 -0.3485
 1754ntf    fn411181   3.742   6.429   3.189  0.0604 -0.2173 -0.1354
 1754ntf    fn411182   3.818   6.608   3.284 -0.3859 -0.3561  0.9065
 1754ntf    fn411183   3.730   6.455   3.396  0.3494 -0.3162  0.0757
 1754ntf    on511184   3.546   6.640   3.133 -0.4398  0.2197  0.3107
 1754ntf    on511185   3.479   6.476   3.305  0.5325 -0.1228  0.5580
 1754ntf    on511186   3.332   6.813   3.316 -0.3838  0.9751  0.3276
 1754ntf    on511187   3.544   6.949   3.324 -0.0522 -0.0067 -0.2181
 1754ntf    fn411188   3.379   6.970   3.570 -0.1118 -0.2928 -0.2783
 1754ntf    fn411189   3.353   6.763   3.597  0.4263  0.9904  0.5619
 1754ntf    fn411190   3.542   6.852   3.627  0.2185 -0.7161  0.4196
 1755ntf    cn111191   0.117   3.797   3.582  0.4306  0.0571 -0.1671
 1755ntf    sn211192   0.040   3.939   3.499  0.1751  0.0175  0.0024
 1755ntf    nn311193   0.169   3.991   3.427  0.3085 -0.3037  0.0062
 1755ntf    sn211194   0.215   4.015   3.279 -0.0236 -0.0595 -0.0577
 1755ntf    cn111195   0.393   4.044   3.299  0.0010 -0.0742 -0.2506
 1755ntf    fn411196   0.159   3.700   3.501  0.1759  0.1295 -0.3855
 1755ntf    fn411197   0.220   3.839   3.655  0.4565 -0.5255  0.1407
 1755ntf    fn411198   0.035   3.737   3.667  0.2910  0.1794 -0.2147
 1755ntf    on511199  -0.062   3.896   3.407 -0.8309  0.5522  0.8463
 1755ntf    on511200   0.002   4.016   3.615 -0.1611 -0.1529  0.0076
 1755ntf    on511201   0.175   4.147   3.237 -0.6775 -0.3012 -0.2069
 1755ntf    on511202   0.213   3.910   3.179 -0.7381 -0.1564  0.0485
 1755ntf    fn411203   0.440   4.109   3.194  0.6997  0.2000  0.2294
 1755ntf    fn411204   0.416   4.118   3.406 -0.1215 -0.0907 -0.2128
 1755ntf    fn411205   0.473   3.939   3.302  0.2734  0.1313 -0.3112
 1756ntf    cn111206   4.860   6.122   0.887  0.0736 -0.1180 -0.0289
 1756ntf    sn211207   5.041   6.099   0.889  0.0863 -0.0344 -0.1584
 1756ntf    nn311208   5.056   5.970   0.977  0.4154 -0.0272 -0.2041
 1756ntf    sn211209   5.182   5.927   1.060  0.3106  0.3777  0.1688
 1756ntf    cn111210   5.229   5.785   0.956 -0.4328 -0.0474  0.4051
 1756ntf    fn411211   4.795   6.018   0.837 -0.3944  0.3093 -0.3122
 1756ntf    fn411212   4.817   6.148   1.009  0.3681 -0.2510  0.1060
 1756ntf    fn411213   4.823   6.225   0.813 -0.4966  0.0192  0.4424
 1756ntf    on511214   5.057   6.070   0.748  0.4120 -0.4900 -0.0266
 1756ntf    on511215   5.093   6.223   0.940  0.0169 -0.0448 -0.0624
 1756ntf    on511216   5.141   5.864   1.183  0.3728  0.1445  0.0713
 1756ntf    on511217   5.299   6.011   1.063  0.4730  0.1637 -0.1614
 1756ntf    fn411218   5.332   5.712   0.995 -0.0727 -0.0431 -0.5140
 1756ntf    fn411219   5.128   5.700   0.947 -0.0977 -0.3511 -0.5182
 1756ntf    fn411220   5.270   5.827   0.838 -0.4560  0.0895  0.4444
 1757ntf    cn111221   4.938   3.901   3.992  0.0831  0.0227 -0.0415
 1757ntf    sn211222   5.009   4.068   3.981  0.1815  0.0005  0.2569
 1757ntf    nn311223   5.153   4.036   4.036  0.3230 -0.0071 -0.1143
 1757ntf    sn211224   5.287   4.114   4.014  0.2458  0.1246 -0.1174
 1757ntf    cn111225   5.365   4.016   3.883 -0.0024  0.0642 -0.2190
 1757ntf    fn411226   4.943   3.852   4.115 -0.0760  0.3691  0.1046
 1757ntf    fn411227   4.814   3.900   3.946  0.1501 -0.3897 -0.2131
 1757ntf    fn411228   5.002   3.824   3.906  0.4330 -0.2414  0.4523
 1757ntf    on511229   5.003   4.100   3.841  0.2093  0.7860  0.4316
 1757ntf    on511230   4.923   4.150   4.062  0.7808  0.2197  0.6834
 1757ntf    on511231   5.373   4.085   4.126  0.1162  0.5537  0.0954
 1757ntf    on511232   5.276   4.250   3.967 -0.4765  0.0930 -0.0508
 1757ntf    fn411233   5.286   4.004   3.777 -0.2833 -0.2816  0.0281
 1757ntf    fn411234   5.478   4.075   3.847 -0.0771  0.3728  0.0493
 1757ntf    fn411235   5.389   3.890   3.917 -0.0211  0.0240 -0.3527
 1758ntf    cn111236   4.257   6.711   0.207 -0.0198  0.0712 -0.0708
 1758ntf    sn211237   4.149   6.591   0.124  0.0456  0.0390 -0.1096
 1758ntf    nn311238   4.196   6.606  -0.025  0.2558  0.3324 -0.0130
 1758ntf    sn211239   4.112   6.553  -0.146  0.2861  0.3190 -0.0278
 1758ntf    cn111240   4.230   6.440  -0.227 -0.1917 -0.3385  0.1790
 1758ntf    fn411241   4.218   6.835   0.186 -0.3698 -0.0138  0.0738
 1758ntf    fn411242   4.254   6.691   0.338 -0.4012 -0.1367 -0.1105
 1758ntf    fn411243   4.377   6.705   0.150 -0.1236  0.4776 -0.3335
 1758ntf    on511244   4.191   6.467   0.184 -0.1881 -0.0898 -0.2064
 1758ntf    on511245   4.018   6.642   0.158  0.0853  0.0195  0.0750
 1758ntf    on511246   4.092   6.649  -0.251 -0.3265  0.2974  0.0633
 1758ntf    on511247   4.001   6.464  -0.121  0.0808  0.4730 -0.3796
 1758ntf    fn411248   4.271   6.342  -0.149 -0.3584 -0.4749  0.0945
 1758ntf    fn411249   4.186   6.390  -0.341  0.0571 -0.2512  0.0440
 1758ntf    fn411250   4.344   6.497  -0.261 -0.5434 -0.1678 -0.7575
 1759ntf    cn111251   0.205   1.142   0.120  0.1558 -0.0579  0.2172
 1759ntf    sn211252   0.077   1.014   0.100 -0.2142  0.3631 -0.1065
 1759ntf    nn311253   0.157   0.898   0.168 -0.0693  0.7188  0.3348
 1759ntf    sn211254   0.166   0.860   0.320 -0.1105 -0.1165  0.1365
 1759ntf    cn111255   0.339   0.809   0.341 -0.0950 -0.1619 -0.1036
 1759ntf    fn411256   0.198   1.240   0.032  0.5925 -0.0693  0.1653
 1759ntf    fn411257   0.191   1.206   0.235 -0.0152  0.3567 -0.0357
 1759ntf    fn411258   0.329   1.094   0.116  0.0840 -0.1764 -0.9194
 1759ntf    on511259  -0.038   1.047   0.181 -0.1329 -0.3110  0.2850
 1759ntf    on511260   0.067   0.991  -0.042  0.1700  0.3656 -0.1352
 1759ntf    on511261   0.095   0.740   0.356 -0.0940 -0.2459 -0.2584
 1759ntf    on511262   0.147   0.970   0.412  0.0146 -0.3739  0.4729
 1759ntf    fn411263   0.371   0.741   0.450 -0.0544 -0.1538 -0.1101
 1759ntf    fn411264   0.377   0.735   0.238  0.0796 -0.3426  0.0901
 1759ntf    fn411265   0.425   0.909   0.335 -0.1099 -0.0784  0.8669
 1760ntf    cn111266   2.951   2.371   2.090  0.0862 -0.5073 -0.0677
 1760ntf    sn211267   2.888   2.430   1.930 -0.0759  0.3014  0.2895
 1760ntf    nn311268   2.969   2.564   1.929  0.3377  0.0553  0.5125
 1760ntf    sn211269   3.123   2.592   1.915  0.2983  0.0798  0.1100
 1760ntf    cn111270   3.124   2.641   1.740 -0.0842 -0.2428  0.0152
 1760ntf    fn411271   2.972   2.469   2.175 -0.5814 -0.1529 -0.3108
 1760ntf    fn411272   2.880   2.278   2.151 -0.4578  0.2758  0.4980
 1760ntf    fn411273   3.065   2.306   2.070  0.4599  0.1206  0.0018
 1760ntf    on511274   2.923   2.333   1.829 -0.2010  0.4534  0.0987
 1760ntf    on511275   2.747   2.454   1.950 -0.1876 -0.1935  0.1101
 1760ntf    on511276   3.215   2.481   1.924  0.1408  0.0180  1.0638
 1760ntf    on511277   3.165   2.714   1.979 -0.0073  0.4648 -0.4190
 1760ntf    fn411278   3.243   2.676   1.693  0.1166 -0.1344  0.5905
 1760ntf    fn411279   3.068   2.555   1.656 -0.2089 -0.4473  0.3076
 1760ntf    fn411280   3.048   2.748   1.722 -0.3710 -0.4557 -0.0483
 1761ntf    cn111281   3.834   5.473   1.189  0.2670  0.2973 -0.0513
 1761ntf    sn211282   3.730   5.613   1.138 -0.2036 -0.0455 -0.0352
 1761ntf    nn311283   3.660   5.654   1.273 -0.1325  0.0192 -0.0175
 1761ntf    sn211284   3.603   5.796   1.311 -0.5833 -0.1924  0.1072
 1761ntf    cn111285   3.744   5.863   1.404 -0.2921 -0.1288 -0.3757
 1761ntf    fn411286   3.912   5.426   1.094  0.6886 -0.7526  0.7969
 1761ntf    fn411287   3.912   5.519   1.286  0.0697  0.0640  0.2213
 1761ntf    fn411288   3.779   5.366   1.243  0.2021  0.1340 -0.4447
 1761ntf    on511289   3.824   5.711   1.091  0.0778 -0.2858  0.0256
 1761ntf    on511290   3.648   5.547   1.040  0.4827  0.2860 -0.8356
 1761ntf    on511291   3.496   5.793   1.407 -0.7127  0.5931 -0.0092
 1761ntf    on511292   3.576   5.882   1.198  0.3952 -0.2981 -0.2156
 1761ntf    fn411293   3.826   5.934   1.328 -0.1556 -0.1349 -0.2355
 1761ntf    fn411294   3.708   5.949   1.498  0.4709 -0.1285 -0.0789
 1761ntf    fn411295   3.823   5.774   1.461 -0.0880 -0.1155 -0.6329
 1762ntf    cn111296   4.414   1.733   6.223 -0.0653  0.0004 -0.0961
 1762ntf    sn211297   4.529   1.856   6.291 -0.1288  0.1515 -0.2619
 1762ntf    nn311298   4.439   1.985   6.294 -0.2343  0.0720  0.1223
 1762ntf    sn211299   4.327   2.022   6.398 -0.2491 -0.0993  0.1668
 1762ntf    cn111300   4.430   2.106   6.522 -0.1910 -0.0269  0.0703
 1762ntf    fn411301   4.361   1.781   6.112  0.0275 -0.5519 -0.3826
 1762ntf    fn411302   4.468   1.617   6.188  0.1869  0.1112 -0.0753
 1762ntf    fn411303   4.317   1.707   6.309 -0.0579  0.3670  0.0245
 1762ntf    on511304   4.577   1.818   6.422 -0.1755  0.1083 -0.2574
 1762ntf    on511305   4.625   1.861   6.184  0.7720  0.3041  0.5444
 1762ntf    on511306   4.275   1.912   6.476  0.3322 -0.5374 -0.0499
 1762ntf    on511307   4.242   2.128   6.349  0.5969  0.0660 -0.9867
 1762ntf    fn411308   4.540   2.039   6.552  0.1249  0.2630 -0.4204
 1762ntf    fn411309   4.466   2.229   6.491 -0.1136  0.0505  0.4588
 1762ntf    fn411310   4.365   2.107   6.638  0.3181  0.0535  0.3586
 1763ntf    cn111311   1.373   6.801   1.575  0.2268  0.0944 -0.4207
 1763ntf    sn211312   1.271   6.950   1.558 -0.0501 -0.0355  0.0748
 1763ntf    nn311313   1.380   7.062   1.574  0.3930 -0.5132  0.3981
 1763ntf    sn211314   1.466   7.127   1.460  0.0383 -0.0644  0.3853
 1763ntf    cn111315   1.358   7.252   1.383  0.2705 -0.0603  0.0622
 1763ntf    fn411316   1.427   6.789   1.695 -0.2493 -0.5609 -0.2650
 1763ntf    fn411317   1.307   6.687   1.559  0.6203 -0.1450 -0.3627
 1763ntf    fn411318   1.476   6.788   1.493  0.3528  0.0371 -0.2537
 1763ntf    on511319   1.209   6.942   1.428 -0.2526 -0.3461  0.1890
 1763ntf    on511320   1.183   6.942   1.672 -0.2276 -0.0627 -0.0629
 1763ntf    on511321   1.502   7.029   1.360  0.4386  0.8181 -0.3448
 1763ntf    on511322   1.572   7.205   1.517 -0.1936  0.4329  0.1447
 1763ntf    fn411323   1.424   7.325   1.295 -0.1635 -0.2454 -0.4188
 1763ntf    fn411324   1.258   7.186   1.328  0.3845  0.2340 -0.4969
 1763ntf    fn411325   1.310   7.337   1.472  0.0739 -0.5440  0.4270
 1764ntf    cn111326   5.709   3.963   3.410  0.1554 -0.0555 -0.0804
 1764ntf    sn211327   5.711   3.783   3.435  0.3547 -0.1187 -0.5506
 1764ntf    nn311328   5.776   3.765   3.577  0.2984  0.2185 -0.4812
 1764ntf    sn211329   5.901   3.827   3.648  0.2120 -0.1115 -0.0375
 1764ntf    cn111330   5.904   3.747   3.811 -0.1820 -0.1046 -0.0252
 1764ntf    fn411331   5.665   4.020   3.521 -0.9917 -0.2747 -0.4079
 1764ntf    fn411332   5.826   4.015   3.377  0.1296  0.2172  0.2476
 1764ntf    fn411333   5.619   4.001   3.320  0.0048  0.1175  0.1405
 1764ntf    on511334   5.574   3.739   3.440  0.3406  0.0124  0.4089
 1764ntf    on511335   5.791   3.729   3.328  0.6014  0.5343 -0.7003
 1764ntf    on511336   5.886   3.964   3.692 -0.1226 -0.2687  0.3408
 1764ntf    on511337   6.020   3.783   3.579 -0.0924 -0.5034 -0.3205
 1764ntf    fn411338   5.948   3.623   3.796  0.2646  0.0221  0.1957
 1764ntf    fn411339   5.985   3.812   3.894 -0.1295 -0.2435  0.0319
 1764ntf    fn411340   5.788   3.735   3.872 -0.0396 -0.4811  0.1717
 1765ntf    cn111341   6.050   4.027   5.922 -0.0896 -0.2354 -0.0706
 1765ntf    sn211342   6.169   4.151   5.980 -0.3207  0.0098 -0.1194
 1765ntf    nn311343   6.231   4.195   5.843 -0.1274  0.2587  0.0448
 1765ntf    sn211344   6.383   4.195   5.802 -0.1360 -0.3319 -0.0052
 1765ntf    cn111345   6.404   4.024   5.744 -0.2598 -0.1805 -0.5066
 1765ntf    fn411346   6.103   3.931   5.848 -0.1418  0.1723 -0.6492
 1765ntf    fn411347   5.985   3.963   6.017  0.2540  0.3600  0.5728
 1765ntf    fn411348   5.963   4.081   5.838  0.5673  0.4197 -0.3467
 1765ntf    on511349   6.090   4.250   6.050 -0.1611 -0.0726  0.1790
 1765ntf    on511350   6.246   4.055   6.054 -0.1748  0.1030 -0.1486
 1765ntf    on511351   6.482   4.196   5.907 -0.1375  0.0461 -0.0039
 1765ntf    on511352   6.410   4.283   5.690 -0.3153 -0.4834 -0.1684
 1765ntf    fn411353   6.339   3.932   5.814  0.1664  0.0650  0.2213
 1765ntf    fn411354   6.354   4.012   5.622 -0.3453 -0.4432 -0.4475
 1765ntf    fn411355   6.530   3.985   5.738 -0.3276 -0.5830  0.5429
 1766ntf    cn111356   0.962   6.145   1.065 -0.2448 -0.0212 -0.1482
 1766ntf    sn211357   0.914   6.302   0.986  0.1510  0.1477 -0.0573
 1766ntf    nn311358   0.761   6.283   0.958  0.1789 -0.0101 -0.1067
 1766ntf    sn211359   0.679   6.404   0.898  0.1820 -0.0154 -0.1222
 1766ntf    cn111360   0.594   6.473   1.043  0.5464  0.3093 -0.0617
 1766ntf    fn411361   0.919   6.110   1.185  0.3465 -0.4496 -0.0568
 1766ntf    fn411362   0.938   6.041   0.986 -0.0321  0.0001 -0.2418
 1766ntf    fn411363   1.093   6.142   1.081 -0.2145 -0.1287 -0.4125
 1766ntf    on511364   0.936   6.394   1.094  0.3713  0.6810 -0.5562
 1766ntf    on511365   1.004   6.306   0.874  0.0016  0.4885 -0.1638
 1766ntf    on511366   0.568   6.354   0.821 -0.1592  0.3562  0.1228
 1766ntf    on511367   0.754   6.511   0.838  0.1033  0.2867  0.3118
 1766ntf    fn411368   0.497   6.555   1.003 -0.3702 -0.4296  0.6066
 1766ntf    fn411369   0.547   6.376   1.119 -0.3315  0.6391 -0.1731
 1766ntf    fn411370   0.679   6.528   1.128  0.3938 -0.6471  0.7208
 1767ntf    cn111371   2.209   2.332   4.355 -0.2580  0.2516  0.1005
 1767ntf    sn211372   2.388   2.356   4.337 -0.2307 -0.0331  0.0029
 1767ntf    nn311373   2.437   2.238   4.245  0.1262 -0.1005  0.2780
 1767ntf    sn211374   2.494   2.103   4.301  0.0015 -0.2871 -0.0423
 1767ntf    cn111375   2.656   2.167   4.353 -0.1577  0.0021  0.0960
 1767ntf    fn411376   2.191   2.214   4.411 -0.2064  0.0994 -0.2053
 1767ntf    fn411377   2.150   2.424   4.431 -0.6888 -0.2247  0.3464
 1767ntf    fn411378   2.140   2.333   4.242 -0.1347  0.7396  0.0252
 1767ntf    on511379   2.402   2.482   4.269  0.2039 -0.2124 -0.2450
 1767ntf    on511380   2.420   2.357   4.477 -0.1144 -0.0651 -0.0228
 1767ntf    on511381   2.527   2.008   4.197  0.3324  0.4074 -0.5732
 1767ntf    on511382   2.443   2.047   4.424  0.2715  0.0264  0.2124
 1767ntf    fn411383   2.714   2.241   4.260 -0.1965 -0.3723 -0.2268
 1767ntf    fn411384   2.654   2.238   4.465  0.5846 -0.5802  0.4860
 1767ntf    fn411385   2.743   2.070   4.376 -0.0870  0.1402  0.4265
 1768ntf    cn111386   5.854   5.779   3.654 -0.4857  0.3584 -0.4618
 1768ntf    sn211387   5.820   5.958   3.661  0.2502  0.4731  0.2928
 1768ntf    nn311388   5.779   5.958   3.813  0.7491  0.0789  0.4331
 1768ntf    sn211389   5.663   6.033   3.888  0.2091 -0.1536 -0.1595
 1768ntf    cn111390   5.741   6.067   4.048  0.4762  0.0544 -0.3323
 1768ntf    fn411391   5.760   5.708   3.714 -0.0117  0.0745 -0.0453
 1768ntf    fn411392   5.858   5.735   3.530 -0.3587  0.0187 -0.3381
 1768ntf    fn411393   5.971   5.738   3.699 -0.5169  0.3528 -0.3844
 1768ntf    on511394   5.947   6.027   3.653  0.3895  0.1560 -0.2509
 1768ntf    on511395   5.720   5.968   3.558  0.2277 -0.3952  0.2235
 1768ntf    on511396   5.554   5.951   3.936  0.1037  0.2815  0.3498
 1768ntf    on511397   5.633   6.164   3.836 -0.0794  0.0802  0.5802
 1768ntf    fn411398   5.855   6.135   4.045  0.2529  0.4194 -0.5737
 1768ntf    fn411399   5.665   6.129   4.137  0.1610 -0.0278 -0.5457
 1768ntf    fn411400   5.777   5.952   4.104  0.1186 -0.0673 -0.3527
 1769ntf    cn111401   5.426   1.197   5.085  0.1639  0.1264 -0.2831
 1769ntf    sn211402   5.417   1.022   5.135  0.2003  0.2650  0.2083
 1769ntf    nn311403   5.573   1.002   5.140  0.2203  0.4054  0.1596
 1769ntf    sn211404   5.659   0.894   5.215  0.1093  0.0759 -0.1816
 1769ntf    cn111405   5.650   0.760   5.093  0.0492  0.2787 -0.4008
 1769ntf    fn411406   5.474   1.278   5.178  0.1317 -0.2669  0.0787
 1769ntf    fn411407   5.496   1.215   4.974  0.7476  0.0706  0.0723
 1769ntf    fn411408   5.305   1.236   5.049 -0.0094 -0.0564  0.0966
 1769ntf    on511409   5.344   1.027   5.259 -0.1339  1.3074 -0.0197
 1769ntf    on511410   5.355   0.947   5.029  0.2088 -0.2740  0.5811
 1769ntf    on511411   5.602   0.848   5.340  0.1891  0.5650  0.0401
 1769ntf    on511412   5.800   0.922   5.207  0.1238  0.1574  0.2795
 1769ntf    fn411413   5.714   0.650   5.128 -0.1317  0.4391  0.4681
 1769ntf    fn411414   5.528   0.716   5.068  0.0267  0.2760 -0.2882
 1769ntf    fn411415   5.691   0.790   4.971  0.0178  0.2284 -0.4234
 1770ntf    cn111416   6.262   0.423   6.796 -0.0154  0.5093 -0.0015
 1770ntf    sn211417   6.419   0.492   6.855 -0.0165  0.1734  0.3977
 1770ntf    nn311418   6.461   0.367   6.941 -0.2232 -0.3369 -0.2319
 1770ntf    sn211419   6.525   0.353   7.084  0.4640  0.0614 -0.4945
 1770ntf    cn111420   6.424   0.236   7.180  0.4319  0.2555 -0.2912
 1770ntf    fn411421   6.215   0.497   6.697 -0.0957 -0.1554 -0.4722
 1770ntf    fn411422   6.265   0.297   6.756  0.1623  0.7113 -0.6339
 1770ntf    fn411423   6.173   0.430   6.894 -0.3145 -0.2425 -0.2042
 1770ntf    on511424   6.508   0.490   6.741 -0.6458 -0.3811 -0.0920
 1770ntf    on511425   6.375   0.611   6.923 -0.1094 -0.0130  0.6690
 1770ntf    on511426   6.514   0.472   7.164  0.5477 -0.2764  0.0213
 1770ntf    on511427   6.651   0.284   7.071  0.6309  0.3717 -0.5204
 1770ntf    fn411428   6.470   0.112   7.170 -0.0844  0.0177  0.2434
 1770ntf    fn411429   6.436   0.264   7.309  0.5548 -0.3502 -0.1663
 1770ntf    fn411430   6.299   0.226   7.138  0.2622 -0.1673  0.2922
 1771ntf    cn111431   0.679   6.329   5.889  0.0460 -0.1884  0.0717
 1771ntf    sn211432   0.683   6.147   5.896  0.2587 -0.1920 -0.1271
 1771ntf    nn311433   0.701   6.122   6.050  0.2443  0.1171 -0.0754
 1771ntf    sn211434   0.593   6.092   6.160  0.0081  0.1011 -0.3106
 1771ntf    cn111435   0.634   5.919   6.196 -0.0574  0.0935 -0.2730
 1771ntf    fn411436   0.571   6.374   5.950 -0.0605 -0.3515  0.0045
 1771ntf    fn411437   0.786   6.388   5.941  0.1752 -0.3910  0.0364
 1771ntf    fn411438   0.677   6.367   5.762  0.2598 -0.5033 -0.0289
 1771ntf    on511439   0.566   6.098   5.828 -0.3001  0.4511  0.3569
 1771ntf    on511440   0.810   6.113   5.836  0.3004 -0.5463  0.1591
 1771ntf    on511441   0.450   6.098   6.137 -0.0134  0.3079 -0.1314
 1771ntf    on511442   0.632   6.160   6.281  0.8040 -0.3459 -0.3131
 1771ntf    fn411443   0.755   5.913   6.250 -0.3786 -0.0555  0.4471
 1771ntf    fn411444   0.547   5.870   6.282  0.1076 -0.1366 -0.2344
 1771ntf    fn411445   0.636   5.843   6.088 -0.2337  0.4969 -0.5592
 1772ntf    cn111446   6.268   2.553   3.016  0.0229  0.2317 -0.4333
 1772ntf    sn211447   6.118   2.582   2.918 -0.0844 -0.0949 -0.3659
 1772ntf    nn311448   6.047   2.692   3.004 -0.3064 -0.3052 -0.2783
 1772ntf    sn211449   6.016   2.841   2.965  0.2059 -0.0965  0.0887
 1772ntf    cn111450   6.035   2.925   3.125  0.6391 -0.2011  0.0935
 1772ntf    fn411451   6.347   2.659   3.025  0.7330 -0.3273  0.0664
 1772ntf    fn411452   6.251   2.509   3.140  0.3508  0.7167 -0.2133
 1772ntf    fn411453   6.335   2.457   2.954  0.0042  0.3825 -0.6885
 1772ntf    on511454   6.163   2.615   2.785  0.3362  0.0533 -0.1871
 1772ntf    on511455   6.042   2.460   2.931 -0.2992  0.0988  0.2602
 1772ntf    on511456   5.874   2.862   2.947  0.1174 -0.9334 -0.2240
 1772ntf    on511457   6.110   2.897   2.872  0.1111 -0.0647  0.0116
 1772ntf    fn411458   6.017   3.055   3.104  0.1536 -0.2878 -0.0553
 1772ntf    fn411459   5.941   2.888   3.210 -0.2236 -0.1525 -0.8154
 1772ntf    fn411460   6.153   2.907   3.182  0.4400  0.2095  0.6413
 1773ntf    cn111461   3.331   2.064   5.133 -0.0650  0.1968  0.1645
 1773ntf    sn211462   3.322   2.242   5.171  0.2974  0.2618 -0.0439
 1773ntf    nn311463   3.437   2.253   5.278  0.5093 -0.2133 -0.2167
 1773ntf    sn211464   3.442   2.234   5.434  0.1267  0.0877 -0.1662
 1773ntf    cn111465   3.425   2.408   5.484  0.0349  0.0003  0.1071
 1773ntf    fn411466   3.454   2.016   5.126 -0.1496 -0.0430  0.3527
 1773ntf    fn411467   3.253   2.001   5.218  0.0540 -0.1975 -0.0165
 1773ntf    fn411468   3.276   2.050   5.013  0.3878  0.2580 -0.0517
 1773ntf    on511469   3.350   2.309   5.047 -0.2331 -0.0625 -0.3416
 1773ntf    on511470   3.190   2.254   5.229  0.0501 -0.2770 -0.4867
 1773ntf    on511471   3.573   2.195   5.480  0.0798  0.2454  0.1051
 1773ntf    on511472   3.335   2.155   5.490  0.6885 -0.6248 -0.0890
 1773ntf    fn411473   3.429   2.423   5.616 -0.4578  0.3768  0.0820
 1773ntf    fn411474   3.520   2.484   5.431 -0.1827  0.0621 -0.1953
 1773ntf    fn411475   3.315   2.463   5.437  0.4543  0.0676 -0.8275
 1774ntf    cn111476   3.962   3.606   0.965  0.1168 -0.3284  0.2047
 1774ntf    sn211477   3.860   3.467   1.022  0.1029 -0.3865  0.0395
 1774ntf    nn311478   3.738   3.548   1.079  0.4023  0.7217 -0.8690
 1774ntf    sn211479   3.600   3.570   1.008 -0.0065 -0.2456 -0.3850
 1774ntf    cn111480   3.472   3.483   1.104 -0.1074  0.0703 -0.2327
 1774ntf    fn411481   4.067   3.573   0.890 -0.0926 -0.3083 -0.0965
 1774ntf    fn411482   3.885   3.688   0.897  0.2260 -0.5464 -0.1854
 1774ntf    fn411483   4.017   3.684   1.057  0.0272  0.0008 -0.0222
 1774ntf    on511484   3.837   3.394   0.900 -0.1263 -0.5499  0.1775
 1774ntf    on511485   3.934   3.394   1.122  0.1454 -0.0466  0.2564
 1774ntf    on511486   3.578   3.525   0.873  0.1021 -0.2042 -0.4161
 1774ntf    on511487   3.562   3.706   1.037  0.6184 -0.2514  0.4902
 1774ntf    fn411488   3.349   3.497   1.057 -0.3581  0.5480  0.5399
 1774ntf    fn411489   3.499   3.354   1.113  0.4521  0.1927 -0.1080
 1774ntf    fn411490   3.477   3.532   1.227  0.8857  0.5052 -0.4364
 1775ntf    cn111491   2.277   5.828   4.818 -0.2597 -0.0505  0.9946
 1775ntf    sn211492   2.428   5.781   4.908  0.2513  0.0598  0.2034
 1775ntf    nn311493   2.520   5.737   4.788 -0.5670 -0.0313 -0.3936
 1775ntf    sn211494   2.642   5.803   4.716 -0.3747 -0.1158 -0.1438
 1775ntf    cn111495   2.789   5.702   4.754  0.0669  0.5634 -0.0199
 1775ntf    fn411496   2.287   5.950   4.769  0.0103 -0.6530 -0.5140
 1775ntf    fn411497   2.252   5.754   4.712 -0.4591  1.0451  0.2613
 1775ntf    fn411498   2.175   5.832   4.902 -0.5847  0.1736  0.5855
 1775ntf    on511499   2.460   5.902   4.980  0.3151  0.1039  0.1016
 1775ntf    on511500   2.385   5.663   4.979  0.4981 -0.4426 -0.4681
 1775ntf    on511501   2.682   5.929   4.775  0.2473 -0.2366 -0.2941
 1775ntf    on511502   2.635   5.803   4.572 -0.3624  0.0001 -0.1445
 1775ntf    fn411503   2.771   5.582   4.702 -0.1379  0.7464 -0.3727
 1775ntf    fn411504   2.891   5.753   4.687  0.3024  0.1378  0.0160
 1775ntf    fn411505   2.827   5.692   4.881 -0.6039 -0.0368  0.1439
 1776ntf    cn111506   2.522   3.979   2.857  0.3843  0.3540  0.1116
 1776ntf    sn211507   2.453   3.911   3.011  0.2165  0.1581 -0.0509
 1776ntf    nn311508   2.554   3.804   3.065  0.1243  0.0403 -0.1111
 1776ntf    sn211509   2.535   3.650   3.040  0.0706 -0.0500  0.4703
 1776ntf    cn111510   2.441   3.598   3.186 -0.2356 -0.4789  0.1215
 1776ntf    fn411511   2.437   4.061   2.797 -0.3243 -0.2718  0.2484
 1776ntf    fn411512   2.628   4.050   2.894  0.3152  0.0630  0.8958
 1776ntf    fn411513   2.559   3.890   2.767 -0.1626  0.0824  0.1549
 1776ntf    on511514   2.449   4.030   3.093 -0.7502  0.1119 -0.0192
 1776ntf    on511515   2.321   3.872   2.965  0.3641  0.0150 -0.3568
 1776ntf    on511516   2.663   3.586   3.053  0.1299  0.0884  0.5717
 1776ntf    on511517   2.457   3.619   2.923  0.5703  0.4301  0.0010
 1776ntf    fn411518   2.434   3.466   3.185 -0.1706 -0.4812  0.0055
 1776ntf    fn411519   2.506   3.636   3.295  0.8327  0.4409 -0.8144
 1776ntf    fn411520   2.317   3.644   3.192 -0.0722  0.0057 -0.1424
 1777ntf    cn111521   3.041   4.117   3.010 -0.4445  0.0789  0.3818
 1777ntf    sn211522   3.164   4.100   2.878 -0.5012 -0.2770  0.3726
 1777ntf    nn311523   3.080   4.029   2.766 -0.2566 -0.1585  0.1125
 1777ntf    sn211524   3.009   4.090   2.639  0.1255  0.2909  0.1133
 1777ntf    cn111525   3.148   4.106   2.523 -0.0223 -0.1109 -0.1197
 1777ntf    fn411526   3.093   4.132   3.131  0.3385  0.3731  0.0129
 1777ntf    fn411527   2.963   4.222   2.991  0.1069  0.4537  0.1534
 1777ntf    fn411528   2.959   4.013   3.022  0.2447 -0.4745  0.3504
 1777ntf    on511529   3.197   4.237   2.845  0.3938 -0.4519  0.5116
 1777ntf    on511530   3.275   4.018   2.919  0.1305  0.8969  1.0735
 1777ntf    on511531   2.954   4.223   2.656 -0.1352  0.1309  0.5355
 1777ntf    on511532   2.934   3.992   2.566 -0.2609  0.8616 -0.2634
 1777ntf    fn411533   3.107   4.145   2.403 -0.5431  0.4048  0.2200
 1777ntf    fn411534   3.239   4.195   2.559 -0.0827  0.1333 -0.5667
 1777ntf    fn411535   3.213   3.992   2.507  0.5422  0.2050 -0.0968
 1778ntf    cn111536   3.137   1.573   3.460  0.0393 -0.0150 -0.1461
 1778ntf    sn211537   3.151   1.649   3.296  0.2504  0.1197 -0.0670
 1778ntf    nn311538   3.208   1.791   3.332 -0.0417  0.3334 -0.4303
 1778ntf    sn211539   3.137   1.920   3.387 -0.2602  0.0645 -0.0683
 1778ntf    cn111540   3.153   2.039   3.250  0.0512  0.6089  0.4406
 1778ntf    fn411541   3.046   1.635   3.534  0.3126  0.3663 -0.1256
 1778ntf    fn411542   3.106   1.445   3.451 -0.4424  0.1382 -0.6721
 1778ntf    fn411543   3.252   1.580   3.526 -0.0396  0.7716 -0.0852
 1778ntf    on511544   3.249   1.572   3.224  0.2318 -0.2864  0.3412
 1778ntf    on511545   3.021   1.648   3.232  0.3546 -0.4375 -0.2730
 1778ntf    on511546   3.221   1.976   3.490 -0.0211 -0.8615  0.2505
 1778ntf    on511547   2.996   1.916   3.415 -0.2302 -0.2864  0.0370
 1778ntf    fn411548   3.115   2.155   3.303  0.2602  0.7727  0.2353
 1778ntf    fn411549   3.278   2.061   3.212 -0.0075  0.2166  0.0261
 1778ntf    fn411550   3.088   2.011   3.139  0.2600  0.2343  0.4131
 1779ntf    cn111551   0.046   2.354   1.747 -0.1946 -0.0494  0.2367
 1779ntf    sn211552   0.024   2.174   1.755 -0.0380 -0.0823 -0.0585
 1779ntf    nn311553   0.015   2.154   1.910  0.1161  0.9458  0.0876
 1779ntf    sn211554   0.130   2.124   2.013  0.0147  0.4814  0.0664
 1779ntf    cn111555   0.097   1.946   2.035  0.3514  0.4283  0.1480
 1779ntf    fn411556   0.152   2.397   1.813 -0.2864  0.3215  0.1443
 1779ntf    fn411557   0.070   2.390   1.621 -0.3023 -0.4816  0.0908
 1779ntf    fn411558  -0.063   2.411   1.794 -0.3203 -0.0220 -0.0829
 1779ntf    on511559  -0.098   2.169   1.678  0.1617 -0.6166 -0.3490
 1779ntf    on511560   0.140   2.117   1.690  0.1393 -0.2962  0.4371
 1779ntf    on511561   0.107   2.167   2.149  0.3538  0.4802  0.1238
 1779ntf    on511562   0.265   2.138   1.965 -0.0352  0.1738 -0.1651
 1779ntf    fn411563  -0.002   1.912   2.116  0.4235  0.0466  0.0772
 1779ntf    fn411564   0.072   1.901   1.913 -0.2065  0.6319  0.1856
 1779ntf    fn411565   0.204   1.879   2.074  0.0493 -0.0571  0.1394
 1780ntf    cn111566   1.969   3.421   2.293  0.0456  0.0342  0.2355
 1780ntf    sn211567   2.086   3.282   2.292 -0.2166 -0.1859  0.1378
 1780ntf    nn311568   2.002   3.188   2.198  0.0693  0.1643 -0.4758
 1780ntf    sn211569   2.011   3.033   2.177 -0.1015  0.0537  0.2374
 1780ntf    cn111570   1.836   2.990   2.150 -0.0992  0.1961 -0.0039
 1780ntf    fn411571   1.952   3.479   2.175 -0.5450 -0.2496  0.1758
 1780ntf    fn411572   1.848   3.379   2.325  0.0954 -0.1925  0.1217
 1780ntf    fn411573   2.009   3.516   2.376 -0.2465  0.2214  0.1665
 1780ntf    on511574   2.211   3.326   2.235 -0.1681 -0.9291 -0.3508
 1780ntf    on511575   2.088   3.256   2.434 -0.3738 -0.0571  0.1641
 1780ntf    on511576   2.046   2.953   2.292  0.3884 -0.1869 -0.0774
 1780ntf    on511577   2.072   2.989   2.054 -0.4581  0.4207 -0.0717
 1780ntf    fn411578   1.813   2.863   2.121  0.4796 -0.0821  0.7103
 1780ntf    fn411579   1.759   3.016   2.253 -0.0735  0.1891  0.0170
 1780ntf    fn411580   1.785   3.056   2.047 -0.0302 -0.1268 -0.2487
 1781ntf    cn111581   4.781   4.083   0.878 -0.2379  0.4068  0.2048
 1781ntf    sn211582   4.627   4.133   0.962 -0.1577  0.3590  0.3810
 1781ntf    nn311583   4.535   4.132   0.835  0.3548  0.2431  0.0022
 1781ntf    sn211584   4.432   4.025   0.783  0.2535  0.1568  0.3755
 1781ntf    cn111585   4.286   4.044   0.890  0.1624  0.5500  0.1837
 1781ntf    fn411586   4.885   4.065   0.958  0.0190 -0.3001 -0.2693
 1781ntf    fn411587   4.783   3.976   0.800  0.0993  0.5377  0.0338
 1781ntf    fn411588   4.815   4.179   0.793 -0.7578  0.1263 -0.3315
 1781ntf    on511589   4.601   4.030   1.059  0.1929  0.1833  0.2913
 1781ntf    on511590   4.649   4.269   1.004  0.4071  0.4652 -0.2379
 1781ntf    on511591   4.467   3.886   0.794 -0.6449 -0.1297 -0.2543
 1781ntf    on511592   4.375   4.074   0.660  0.2834  0.0431  0.3161
 1781ntf    fn411593   4.301   4.004   1.015  0.2020 -0.4026 -0.1219
 1781ntf    fn411594   4.253   4.172   0.893 -0.7272  0.3328 -0.0935
 1781ntf    fn411595   4.187   3.969   0.846  0.3016  0.1032  0.6288
 1782ntf    cn111596   5.434   1.407   0.334 -0.0132  0.2210  0.1087
 1782ntf    sn211597   5.274   1.326   0.306  0.0926  0.0655 -0.0521
 1782ntf    nn311598   5.239   1.317   0.459  0.5309 -0.5357  0.0174
 1782ntf    sn211599   5.096   1.291   0.517  0.2898 -0.2580 -0.4442
 1782ntf    cn111600   5.052   1.454   0.585  0.2629 -0.4668  0.0420
 1782ntf    fn411601   5.409   1.532   0.369  0.0727  0.2390  0.1064
 1782ntf    fn411602   5.510   1.352   0.427  0.3541  0.1828 -0.2073
 1782ntf    fn411603   5.508   1.423   0.225 -0.3058  0.1511 -0.1028
 1782ntf    on511604   5.205   1.429   0.233 -0.3564 -0.3441 -0.2116
 1782ntf    on511605   5.313   1.203   0.240 -0.3315  0.4354 -1.0149
 1782ntf    on511606   5.105   1.216   0.640  0.2312  0.7079  0.1594
 1782ntf    on511607   4.990   1.257   0.425 -0.3992 -0.2564  0.3376
 1782ntf    fn411608   4.939   1.445   0.654 -0.2086  0.8569 -0.5158
 1782ntf    fn411609   5.140   1.498   0.673 -0.5227  0.4310  0.4005
 1782ntf    fn411610   5.042   1.539   0.485  0.1447 -0.1046  0.3576
 1783ntf    cn111611   3.960   6.561   4.732  0.0288 -0.2411  0.4416
 1783ntf    sn211612   3.892   6.393   4.714 -0.1633 -0.0986 -0.2062
 1783ntf    nn311613   3.892   6.357   4.867  0.8669  0.4119 -0.0746
 1783ntf    sn211614   3.951   6.230   4.938 -0.1050 -0.1530 -0.2612
 1783ntf    cn111615   3.804   6.124   4.929  0.0484 -0.3371 -0.6067
 1783ntf    fn411616   3.889   6.626   4.823  0.1549  0.1964  0.2321
 1783ntf    fn411617   4.087   6.562   4.768  0.1095  0.2896  0.1551
 1783ntf    fn411618   3.949   6.626   4.617 -0.0793 -0.3806  0.3721
 1783ntf    on511619   3.761   6.422   4.661 -0.4846 -0.7719  0.2046
 1783ntf    on511620   3.984   6.327   4.625 -0.2771 -0.6700  0.0973
 1783ntf    on511621   3.972   6.238   5.080  0.3632 -0.0915 -0.3345
 1783ntf    on511622   4.054   6.171   4.857 -0.6418 -0.0078 -1.0586
 1783ntf    fn411623   3.755   6.119   4.806 -0.1509  0.1781 -0.5500
 1783ntf    fn411624   3.843   6.001   4.960  0.2074 -0.2461 -0.4457
 1783ntf    fn411625   3.695   6.153   4.998  0.1743  0.3606 -0.6938
 1784ntf    cn111626   3.017   5.864   6.227 -0.1163 -0.1049 -0.1352
 1784ntf    sn211627   2.891   5.984   6.174 -0.0040  0.0962  0.0535
 1784ntf    nn311628   2.950   6.117   6.233 -0.3090  0.6494 -0.8726
 1784ntf    sn211629   2.898   6.208   6.350 -0.1124 -0.0513 -0.2338
 1784ntf    cn111630   2.929   6.373   6.281 -0.1091  0.0845  0.0887
 1784ntf    fn411631   3.013   5.752   6.157 -0.1430 -0.3777  0.3017
 1784ntf    fn411632   3.141   5.901   6.199 -0.0449 -0.3573 -0.1594
 1784ntf    fn411633   3.016   5.832   6.355 -0.0569 -0.8808 -0.3231
 1784ntf    on511634   2.895   5.983   6.030  0.5375  0.5918  0.0564
 1784ntf    on511635   2.771   5.945   6.242 -0.1690  0.4919 -0.0069
 1784ntf    on511636   2.988   6.204   6.462 -0.5597 -0.7316  0.1095
 1784ntf    on511637   2.756   6.206   6.376  0.0053 -0.7396  0.4183
 1784ntf    fn411638   3.058   6.403   6.281 -0.1178  0.1270 -0.3336
 1784ntf    fn411639   2.896   6.374   6.153  0.4512 -0.3140 -0.0620
 1784ntf    fn411640   2.865   6.469   6.346  0.1515  0.1780  0.2084
 1785ntf    cn111641   3.782   1.330   3.708 -0.4020  0.3518 -0.0952
 1785ntf    sn211642   3.684   1.187   3.762 -0.0356  0.1141 -0.0572
 1785ntf    nn311643   3.736   1.090   3.651  0.1077  0.1851 -0.0515
 1785ntf    sn211644   3.843   0.975   3.647  0.0110  0.0833  0.2774
 1785ntf    cn111645   3.897   0.966   3.473  0.0559  0.0223  0.2946
 1785ntf    fn411646   3.753   1.372   3.586 -0.0921  1.0604  0.0707
 1785ntf    fn411647   3.768   1.429   3.794  0.0872 -0.4667  0.9549
 1785ntf    fn411648   3.912   1.310   3.700 -0.4880 -0.1253 -0.3386
 1785ntf    on511649   3.722   1.156   3.898  0.3878 -0.0896 -0.2203
 1785ntf    on511650   3.549   1.229   3.734 -0.0420 -0.1554 -0.4319
 1785ntf    on511651   3.777   0.848   3.664 -0.2864  0.1432 -0.4039
 1785ntf    on511652   3.966   0.998   3.720  0.2546  0.4825 -0.2538
 1785ntf    fn411653   4.006   0.894   3.457 -0.0144  0.1312 -0.7048
 1785ntf    fn411654   3.802   0.909   3.402 -0.0744  0.5278  0.0557
 1785ntf    fn411655   3.920   1.087   3.425 -0.1766 -0.0939 -0.1104
 1786ntf    cn111656   1.571   0.781   4.846  0.1565  0.1065  0.2734
 1786ntf    sn211657   1.649   0.726   4.692  0.1395 -0.3008  0.4090
 1786ntf    nn311658   1.687   0.582   4.741 -0.1082 -0.3825  0.3615
 1786ntf    sn211659   1.824   0.528   4.795  0.0409 -0.0333  0.3313
 1786ntf    cn111660   1.795   0.349   4.799 -0.3259  0.0307  0.5551
 1786ntf    fn411661   1.656   0.811   4.944 -0.1085  0.2739  0.4554
 1786ntf    fn411662   1.499   0.891   4.833  0.1743  0.0518 -0.2937
 1786ntf    fn411663   1.493   0.686   4.895  0.1912 -0.1088 -0.0850
 1786ntf    on511664   1.544   0.715   4.594  0.6539 -0.0916 -0.1756
 1786ntf    on511665   1.762   0.811   4.662 -0.0825 -0.2591 -0.3311
 1786ntf    on511666   1.859   0.557   4.932 -0.1623 -0.7400  0.5351
 1786ntf    on511667   1.930   0.541   4.698  0.2488  0.4722  0.6183
 1786ntf    fn411668   1.768   0.308   4.676  0.4923 -0.4264  0.5249
 1786ntf    fn411669   1.901   0.285   4.846 -0.3373 -0.4766 -0.0964
 1786ntf    fn411670   1.696   0.309   4.878 -0.3460 -0.0240  0.5019
 1787ntf    cn111671   6.673   0.403   6.036  0.4543 -0.3253  0.3918
 1787ntf    sn211672   6.697   0.566   6.115  0.3487 -0.0415 -0.1575
 1787ntf    nn311673   6.810   0.534   6.219 -0.1316 -0.6380  0.1987
 1787ntf    sn211674   6.960   0.580   6.227 -0.3177  0.0318 -0.0451
 1787ntf    cn111675   7.050   0.422   6.227  0.0158  0.2157  0.4944
 1787ntf    fn411676   6.616   0.318   6.120 -0.1428  0.2401  0.5716
 1787ntf    fn411677   6.594   0.416   5.931  0.2580 -0.0106  0.5758
 1787ntf    fn411678   6.783   0.348   5.988  0.2562 -0.3830 -0.0014
 1787ntf    on511679   6.739   0.649   6.005 -0.3909  0.3372 -0.1589
 1787ntf    on511680   6.570   0.592   6.179  0.2269  0.0352 -0.4298
 1787ntf    on511681   6.991   0.634   6.358  0.0764  0.1855 -0.1995
 1787ntf    on511682   7.015   0.645   6.111 -0.5787  0.1957 -0.0759
 1787ntf    fn411683   7.015   0.349   6.122  0.2863 -0.0048  0.5563
 1787ntf    fn411684   7.182   0.434   6.229  0.0409  0.0776 -0.0146
 1787ntf    fn411685   7.019   0.349   6.332 -1.0570 -0.0705 -0.0054
 1788ntf    cn111686   4.531   0.597   2.369  0.2865 -0.2868 -0.0374
 1788ntf    sn211687   4.643   0.624   2.228  0.3120 -0.1492  0.0089
 1788ntf    nn311688   4.773   0.646   2.313  0.1879 -0.2782  0.2334
 1788ntf    sn211689   4.836   0.776   2.373  0.2307 -0.1875 -0.0065
 1788ntf    cn111690   4.955   0.815   2.242 -0.2899  0.5793 -0.2632
 1788ntf    fn411691   4.502   0.703   2.442  0.0538 -0.1445 -0.3335
 1788ntf    fn411692   4.413   0.545   2.337 -0.2067  0.7959 -0.0242
 1788ntf    fn411693   4.588   0.510   2.451 -0.0892  0.0031  0.5326
 1788ntf    on511694   4.643   0.499   2.154 -0.1344  0.2082 -0.6098
 1788ntf    on511695   4.599   0.740   2.154  0.0848 -0.3455 -0.1701
 1788ntf    on511696   4.916   0.732   2.484  0.1587 -0.0665  0.0955
 1788ntf    on511697   4.749   0.891   2.388  0.4300 -0.0729  0.2770
 1788ntf    fn411698   5.026   0.924   2.264  0.0762  0.3075 -0.0979
 1788ntf    fn411699   5.036   0.714   2.213 -0.1081  0.7343 -0.2961
 1788ntf    fn411700   4.892   0.838   2.127 -0.1870 -0.1629 -0.4787
 1789ntf    cn111701   2.377   0.077   6.032  0.0653  0.3706 -0.1821
 1789ntf    sn211702   2.259  -0.003   5.919 -0.0173  0.3014 -0.0458
 1789ntf    nn311703   2.131  -0.003   6.010  0.0539  0.4892  0.0543
 1789ntf    sn211704   2.081  -0.113   6.111  0.0085  0.0296 -0.4656
 1789ntf    cn111705   2.042  -0.007   6.254  0.0931 -0.0800 -0.3616
 1789ntf    fn411706   2.403   0.014   6.145  0.2237  0.2599 -0.2799
 1789ntf    fn411707   2.493   0.110   5.977  0.5282 -0.2489  0.4062
 1789ntf    fn411708   2.330   0.193   6.075  0.0625  0.0937  0.5641
 1789ntf    on511709   2.254   0.084   5.804 -0.0188  0.5168  0.1166
 1789ntf    on511710   2.321  -0.132   5.900  0.2502  0.3284  0.6042
 1789ntf    on511711   2.176  -0.205   6.169  0.4714  0.5332 -0.4079
 1789ntf    on511712   1.952  -0.165   6.075 -0.2861  0.2999  0.1977
 1789ntf    fn411713   1.991  -0.072   6.357 -0.1436  0.4346 -0.1525
 1789ntf    fn411714   2.152   0.053   6.297 -0.4897  0.3243  0.5929
 1789ntf    fn411715   1.950   0.083   6.226  0.2135 -0.0220 -0.5792
 1790ntf    cn111716   4.874   5.435   6.685  0.0526 -0.2811 -0.3829
 1790ntf    sn211717   4.693   5.432   6.694  0.0493  0.0905 -0.2852
 1790ntf    nn311718   4.650   5.575   6.646 -1.2994 -0.2303 -0.0697
 1790ntf    sn211719   4.619   5.705   6.728  0.0450  0.0706 -0.0156
 1790ntf    cn111720   4.506   5.780   6.607  0.2925 -0.1639 -0.3946
 1790ntf    fn411721   4.938   5.323   6.713  0.3629 -0.0468 -0.1481
 1790ntf    fn411722   4.926   5.475   6.570 -0.1305 -0.5533 -0.5610
 1790ntf    fn411723   4.918   5.514   6.782  0.3337 -0.4035 -0.4087
 1790ntf    on511724   4.663   5.319   6.609 -0.0643 -0.5302  0.5682
 1790ntf    on511725   4.672   5.410   6.835  0.2855  0.2786 -0.2218
 1790ntf    on511726   4.730   5.796   6.722  0.2952 -0.2276  0.0687
 1790ntf    on511727   4.540   5.691   6.848 -0.2866  0.2912 -0.2056
 1790ntf    fn411728   4.447   5.887   6.658  0.4082  0.1534 -0.9194
 1790ntf    fn411729   4.552   5.815   6.488  0.2628  0.1497 -0.3143
 1790ntf    fn411730   4.407   5.697   6.577  0.1452 -0.0501 -0.2253
 1791ntf    cn111731   0.260   2.254   5.083  0.2552  0.1415  0.1888
 1791ntf    sn211732   0.290   2.140   5.221  0.1814 -0.0425  0.0533
 1791ntf    nn311733   0.201   2.206   5.333 -0.1784  0.1256 -0.3309
 1791ntf    sn211734   0.066   2.149   5.389 -0.0352  0.2615  0.1558
 1791ntf    cn111735   0.122   2.015   5.497  0.3031 -0.1394 -0.5096
 1791ntf    fn411736   0.340   2.240   4.978 -0.0848  0.2426 -0.0846
 1791ntf    fn411737   0.137   2.243   5.035  0.3372 -0.2955  0.0755
 1791ntf    fn411738   0.257   2.382   5.117 -0.0275  0.3323 -0.5346
 1791ntf    on511739   0.251   2.011   5.168 -0.3079 -0.0458  0.4061
 1791ntf    on511740   0.429   2.168   5.246 -0.0674  0.2749  1.1246
 1791ntf    on511741  -0.018   2.094   5.285 -0.7440  0.7767  0.4458
 1791ntf    on511742  -0.011   2.223   5.486 -0.1252  0.5058 -0.1005
 1791ntf    fn411743   0.163   2.074   5.608 -0.3961 -0.1031 -0.2649
 1791ntf    fn411744   0.029   1.926   5.528 -0.0885  0.2114 -0.6745
 1791ntf    fn411745   0.227   1.961   5.437  0.1389 -0.2310 -0.7154
 1792ntf    cn111746   6.432   6.170   1.926 -0.9707  0.4592 -0.1259
 1792ntf    sn211747   6.496   6.259   1.781  0.2539  0.1078  0.1808
 1792ntf    nn311748   6.469   6.161   1.661  0.2521 -0.0539  0.3127
 1792ntf    sn211749   6.560   6.113   1.542 -0.5369 -0.1410 -0.2601
 1792ntf    cn111750   6.547   6.261   1.436 -0.2032  0.0085 -0.0955
 1792ntf    fn411751   6.317   6.111   1.900 -0.6118 -0.0467 -0.5996
 1792ntf    fn411752   6.510   6.068   1.960 -0.5712  0.4456 -1.0420
 1792ntf    fn411753   6.421   6.248   2.032  0.2351  0.3888  0.0735
 1792ntf    on511754   6.398   6.365   1.775  0.4276  0.3044  0.7905
 1792ntf    on511755   6.631   6.303   1.807  0.5211 -0.4221 -0.2778
 1792ntf    on511756   6.491   6.010   1.469 -0.2894  0.0964 -0.8384
 1792ntf    on511757   6.700   6.094   1.569 -0.6680 -1.0233 -0.1978
 1792ntf    fn411758   6.425   6.286   1.391 -0.0448  0.2702 -0.3768
 1792ntf    fn411759   6.590   6.364   1.506 -0.3000  0.2393 -0.3755
 1792ntf    fn411760   6.630   6.234   1.337 -0.0773 -0.5202  0.1515
 1793ntf    cn111761   5.717   3.942   5.746  0.0196  0.0416  0.6420
 1793ntf    sn211762   5.622   3.816   5.657  0.3912  0.2639 -0.0809
 1793ntf    nn311763   5.479   3.878   5.676  0.1007 -0.3294 -0.2992
 1793ntf    sn211764   5.369   3.896   5.566  0.0962 -0.0212 -0.2448
 1793ntf    cn111765   5.223   3.900   5.674  0.0613  0.2451 -0.2989
 1793ntf    fn411766   5.847   3.921   5.755  0.1247  0.4290  0.0578
 1793ntf    fn411767   5.716   4.060   5.686 -0.0591 -0.2413  0.0845
 1793ntf    fn411768   5.681   3.961   5.872 -0.7650 -0.8611  0.5632
 1793ntf    on511769   5.673   3.806   5.523 -0.1610  0.9293 -0.3466
 1793ntf    on511770   5.634   3.692   5.731 -0.3791  0.0012 -0.3818
 1793ntf    on511771   5.346   3.778   5.486  0.4902 -0.5104  0.3558
 1793ntf    on511772   5.354   4.021   5.495  0.2842 -0.0035 -0.2522
 1793ntf    fn411773   5.106   3.916   5.614  0.0967 -0.4131 -0.5553
 1793ntf    fn411774   5.222   3.787   5.743  0.0332  0.1914 -0.3875
 1793ntf    fn411775   5.214   3.993   5.768 -0.0419  0.3239 -0.3871
 1794ntf    cn111776   3.088   1.037   6.387 -0.1380 -0.3461 -0.1060
 1794ntf    sn211777   3.254   1.070   6.453 -0.0701 -0.0453 -0.4257
 1794ntf    nn311778   3.227   1.032   6.603 -0.0983  0.4505 -0.3006
 1794ntf    sn211779   3.324   1.012   6.725  0.0104  0.2914 -0.4119
 1794ntf    cn111780   3.325   0.832   6.749 -0.0568  0.3162 -0.2164
 1794ntf    fn411781   3.098   1.026   6.256 -0.1582  0.0757 -0.1445
 1794ntf    fn411782   3.041   0.923   6.435 -0.1833 -0.2190  0.1524
 1794ntf    fn411783   2.996   1.130   6.406  0.0663 -0.1350 -0.1493
 1794ntf    on511784   3.335   0.971   6.387 -0.0867 -0.0985 -0.3652
 1794ntf    on511785   3.281   1.208   6.419  0.6543 -0.1980 -0.4884
 1794ntf    on511786   3.284   1.074   6.849  0.3944 -0.0108 -0.1331
 1794ntf    on511787   3.461   1.042   6.689  0.1345  0.0626 -0.1322
 1794ntf    fn411788   3.201   0.786   6.760  0.2459 -0.4328  0.1527
 1794ntf    fn411789   3.380   0.758   6.654 -0.2102 -0.3553  0.2098
 1794ntf    fn411790   3.379   0.800   6.865  0.2029  0.1945 -0.3708
 1795ntf    cn111791   4.480   0.175   4.029 -0.2618  0.0851  0.2647
 1795ntf    sn211792   4.513   0.290   3.892 -0.1328 -0.2534  0.0121
 1795ntf    nn311793   4.428   0.221   3.779 -0.1958 -0.2577  0.0628
 1795ntf    sn211794   4.375   0.301   3.655  0.2135  0.2631  0.2201
 1795ntf    cn111795   4.388   0.172   3.528  0.0949  0.2991  0.1719
 1795ntf    fn411796   4.527   0.052   4.021 -0.6337  0.0159 -1.1336
 1795ntf    fn411797   4.526   0.229   4.141  0.0148 -0.3136  0.3423
 1795ntf    fn411798   4.350   0.156   4.045 -0.1887 -0.4173  0.2655
 1795ntf    on511799   4.461   0.418   3.934  0.3056  0.1532 -0.6623
 1795ntf    on511800   4.657   0.276   3.883 -0.1013 -0.0281  0.1677
 1795ntf    on511801   4.464   0.402   3.604  0.1360  0.1648 -0.1092
 1795ntf    on511802   4.238   0.348   3.650  0.1901  0.1728  0.0141
 1795ntf    fn411803   4.302   0.075   3.558 -0.1748  0.6871  0.6744
 1795ntf    fn411804   4.357   0.218   3.408 -0.5788  0.4310  0.3921
 1795ntf    fn411805   4.508   0.118   3.515 -0.1293 -0.1295 -0.1553
 1796ntf    cn111806   3.867   3.480   4.246 -0.3969 -0.2397 -0.2457
 1796ntf    sn211807   3.932   3.319   4.302 -0.2428 -0.1749 -0.2373
 1796ntf    nn311808   3.814   3.288   4.400 -0.1643  0.2169 -0.0172
 1796ntf    sn211809   3.693   3.193   4.368 -0.1688  0.2277 -0.0311
 1796ntf    cn111810   3.753   3.058   4.474 -0.1733  0.1561 -0.1193
 1796ntf    fn411811   3.890   3.568   4.342 -0.2393  0.0661 -0.5621
 1796ntf    fn411812   3.925   3.522   4.135  0.0798  0.2846  0.1934
 1796ntf    fn411813   3.736   3.478   4.229 -0.4606 -0.0571  0.2012
 1796ntf    on511814   3.940   3.237   4.183  0.2459  0.4518 -0.6424
 1796ntf    on511815   4.054   3.353   4.370 -0.1202 -0.0633 -0.5129
 1796ntf    on511816   3.682   3.128   4.239  0.5798  0.2424 -0.1036
 1796ntf    on511817   3.569   3.226   4.434  0.1008  0.2437  0.4702
 1796ntf    fn411818   3.855   3.002   4.411 -0.5281 -0.4862 -0.1250
 1796ntf    fn411819   3.791   3.095   4.595 -0.6843 -0.6196  0.2880
 1796ntf    fn411820   3.656   2.969   4.491  0.0251  0.0971  0.7615
 1797ntf    cn111821   5.290   2.031   1.291  0.2517  0.4124  0.1626
 1797ntf    sn211822   5.382   1.877   1.317 -0.1275  0.2038  0.2768
 1797ntf    nn311823   5.256   1.791   1.354 -0.3094  0.2168 -0.3070
 1797ntf    sn211824   5.236   1.714   1.489  0.1006  0.1440 -0.2861
 1797ntf    cn111825   5.331   1.561   1.459 -0.3928 -0.2024 -0.0975
 1797ntf    fn411826   5.277   2.084   1.412  0.1974  0.5544  0.0951
 1797ntf    fn411827   5.352   2.124   1.220  0.1909  0.0034 -0.4281
 1797ntf    fn411828   5.167   2.031   1.244  0.1319  0.0477  0.4713
 1797ntf    on511829   5.437   1.839   1.189 -0.4644 -0.3070  0.2802
 1797ntf    on511830   5.476   1.916   1.419  0.3154 -0.0225 -0.0361
 1797ntf    on511831   5.097   1.679   1.507  0.2197  0.1241  0.6094
 1797ntf    on511832   5.303   1.773   1.602 -0.3913 -0.1360  0.1578
 1797ntf    fn411833   5.371   1.493   1.565  0.6704  0.9189  0.2465
 1797ntf    fn411834   5.255   1.473   1.396 -0.1731  0.0647 -0.7452
 1797ntf    fn411835   5.438   1.570   1.382  0.0492  0.6317  0.5947
 1798ntf    cn111836   2.236   3.579   6.005  0.0433 -0.3291  0.3827
 1798ntf    sn211837   2.301   3.742   6.055 -0.0087 -0.2327  0.1392
 1798ntf    nn311838   2.172   3.828   6.029 -0.2735 -0.7461 -0.2706
 1798ntf    sn211839   2.132   3.908   5.900  0.0110 -0.0076  0.0956
 1798ntf    cn111840   1.957   3.862   5.881  0.1187 -0.3083 -0.1748
 1798ntf    fn411841   2.180   3.575   5.886  0.3934 -0.5285  0.2259
 1798ntf    fn411842   2.331   3.488   6.004  0.6194  0.2732 -0.2886
 1798ntf    fn411843   2.148   3.529   6.091 -0.2018 -0.0356  0.3064
 1798ntf    on511844   2.319   3.728   6.198  0.0656  0.3356  0.1874
 1798ntf    on511845   2.416   3.766   5.972 -0.1995 -0.1567 -0.1048
 1798ntf    on511846   2.197   3.872   5.777  0.6236  0.2453  0.3410
 1798ntf    on511847   2.125   4.050   5.922 -0.1140 -0.0752  0.5171
 1798ntf    fn411848   1.876   3.909   5.974 -0.1104 -0.5532 -0.2468
 1798ntf    fn411849   1.906   3.908   5.768 -0.5910  0.0195  0.2750
 1798ntf    fn411850   1.930   3.732   5.877 -0.2727 -0.2185 -0.4765
 1799ntf    cn111851   0.350   4.033   0.147  0.2088  0.4749  0.4352
 1799ntf    sn211852   0.292   3.870   0.203 -0.0010  0.3897 -0.0310
 1799ntf    nn311853   0.145   3.878   0.148  0.1045 -0.0319 -0.3785
 1799ntf    sn211854   0.018   3.795   0.189  0.2844 -0.1791 -0.1225
 1799ntf    cn111855  -0.087   3.929   0.254  0.1621 -0.0394 -0.6078
 1799ntf    fn411856   0.309   4.130   0.227 -0.3083  0.2045  0.4994
 1799ntf    fn411857   0.482   4.042   0.138  0.2067 -0.1272 -0.2820
 1799ntf    fn411858   0.308   4.069   0.027  0.0820 -0.0581  0.3189
 1799ntf    on511859   0.368   3.769   0.135 -0.0109  0.1447  0.3227
 1799ntf    on511860   0.305   3.876   0.346 -0.2972  0.3237 -0.0000
 1799ntf    on511861   0.028   3.712   0.307  0.2017  0.1659  0.1319
 1799ntf    on511862  -0.062   3.748   0.079 -0.3371 -0.1652  0.3191
 1799ntf    fn411863  -0.209   3.884   0.281  0.2460 -0.5322 -1.0266
 1799ntf    fn411864  -0.045   3.989   0.363  0.0641 -0.3231 -0.4111
 1799ntf    fn411865  -0.096   4.028   0.167 -0.3209  0.1533 -0.3450
 1800ntf    cn111866   2.037   1.435   4.959  0.2313 -0.0882 -0.2691
 1800ntf    sn211867   1.899   1.316   4.952  0.0671  0.0883 -0.0342
 1800ntf    nn311868   1.829   1.355   4.818  0.4459  0.1521 -0.2159
 1800ntf    sn211869   1.831   1.277   4.681 -0.1079 -0.2632  0.0046
 1800ntf    cn111870   1.707   1.149   4.713 -0.1939 -0.2392 -0.2302
 1800ntf    fn411871   2.133   1.423   4.869  0.3629 -0.0747 -0.1293
 1800ntf    fn411872   1.979   1.552   4.941 -0.0812 -0.1830  0.1216
 1800ntf    fn411873   2.099   1.445   5.075 -0.0536  0.5369 -0.1692
 1800ntf    on511874   1.963   1.187   4.956  0.3815  0.2355 -0.2929
 1800ntf    on511875   1.826   1.359   5.069 -0.1814 -0.4663  0.0190
 1800ntf    on511876   1.948   1.205   4.636  0.0584  0.2254 -0.3541
 1800ntf    on511877   1.751   1.354   4.589  0.1963  0.2635  0.1728
 1800ntf    fn411878   1.588   1.194   4.747 -0.0492  0.0129 -0.0595
 1800ntf    fn411879   1.685   1.079   4.603 -0.1828 -0.3231 -0.1789
 1800ntf    fn411880   1.739   1.066   4.811 -0.4349  0.2545  0.2686
 1801ntf    cn111881   4.475   1.072   5.631  0.0304 -0.1711  0.4043
 1801ntf    sn211882   4.578   1.171   5.519  0.0126 -0.2718  0.2986
 1801ntf    nn311883   4.483   1.278   5.452  0.0989 -0.3982 -0.0282
 1801ntf    sn211884   4.360   1.246   5.359  0.2536  0.2271 -0.4515
 1801ntf    cn111885   4.292   1.414   5.342 -0.4207  0.0353  0.3041
 1801ntf    fn411886   4.382   1.001   5.569  0.1519  0.4014 -0.4552
 1801ntf    fn411887   4.545   0.977   5.691  0.3454  0.2831  0.7577
 1801ntf    fn411888   4.412   1.142   5.724  0.0411  0.3582  0.0158
 1801ntf    on511889   4.673   1.232   5.608  0.2785  0.2245 -0.3186
 1801ntf    on511890   4.638   1.079   5.426 -0.7232  0.0724 -0.5387
 1801ntf    on511891   4.255   1.175   5.427  0.1668  0.2023 -0.6109
 1801ntf    on511892   4.400   1.202   5.228 -0.0603 -0.5664 -0.2858
 1801ntf    fn411893   4.390   1.494   5.304  0.2037 -0.9588 -0.2439
 1801ntf    fn411894   4.197   1.425   5.251  0.2852 -0.4460 -0.5155
 1801ntf    fn411895   4.255   1.475   5.453  0.0726 -0.1321  0.5654
 1802ntf    cn111896   1.494   3.713   3.050  0.0170 -0.1693  0.2700
 1802ntf    sn211897   1.583   3.862   3.105  0.0068  0.0173 -0.2189
 1802ntf    nn311898   1.712   3.836   3.020 -0.1972 -0.4060 -0.4066
 1802ntf    sn211899   1.841   3.752   3.053 -0.1492 -0.1478  0.0775
 1802ntf    cn111900   1.826   3.623   2.925  0.0466  0.0120 -0.1083
 1802ntf    fn411901   1.378   3.689   3.111 -0.3263  0.0965 -0.2755
 1802ntf    fn411902   1.469   3.708   2.921 -0.3871  0.6291  0.3131
 1802ntf    fn411903   1.566   3.606   3.079  0.8378  0.2693 -0.1207
 1802ntf    on511904   1.510   3.972   3.048 -0.4906 -0.5206 -0.6444
 1802ntf    on511905   1.588   3.856   3.249 -0.7920 -0.1670 -0.1918
 1802ntf    on511906   1.840   3.683   3.179  0.8416 -0.0339  0.1548
 1802ntf    on511907   1.965   3.821   3.024 -0.0767 -0.0627  0.5907
 1802ntf    fn411908   1.915   3.529   2.949 -0.2297 -0.0909  0.5532
 1802ntf    fn411909   1.708   3.564   2.934  0.2739 -0.3207  0.7957
 1802ntf    fn411910   1.842   3.662   2.800  0.3234  0.2401 -0.0028
 1803ntf    cn111911   4.225   3.892   2.208 -0.2357  0.3539 -0.1243
 1803ntf    sn211912   4.303   4.052   2.244  0.4624  0.1143 -0.5435
 1803ntf    nn311913   4.190   4.156   2.211  0.0343 -0.0712  0.3128
 1803ntf    sn211914   4.087   4.217   2.313 -0.0318  0.2303  0.0698
 1803ntf    cn111915   3.949   4.216   2.195 -0.0857 -0.0199  0.1330
 1803ntf    fn411916   4.120   3.858   2.281  0.1413 -1.0713 -0.2134
 1803ntf    fn411917   4.189   3.865   2.084  0.1009 -0.0866 -0.1276
 1803ntf    fn411918   4.308   3.792   2.235  0.1891  0.6136 -0.4598
 1803ntf    on511919   4.352   4.046   2.379 -0.6961 -0.7390 -0.1437
 1803ntf    on511920   4.405   4.074   2.145  0.7332 -0.6006 -0.4290
 1803ntf    on511921   4.113   4.357   2.336  0.2995  0.1779  0.0255
 1803ntf    on511922   4.048   4.137   2.427 -0.0141 -0.1607 -0.1952
 1803ntf    fn411923   3.832   4.248   2.248  0.0107  0.0881  0.2828
 1803ntf    fn411924   3.969   4.301   2.096 -0.5525 -0.0166  0.0395
 1803ntf    fn411925   3.925   4.096   2.146 -0.4264  0.3304 -0.5758
 1804ntf    cn111926   5.335   3.699   6.435  0.3390  0.3132 -0.1478
 1804ntf    sn211927   5.268   3.593   6.304 -0.0945  0.5259 -0.1008
 1804ntf    nn311928   5.142   3.536   6.379  0.0577 -0.2415 -0.4167
 1804ntf    sn211929   5.094   3.387   6.391 -0.2889 -0.1021 -0.0692
 1804ntf    cn111930   5.007   3.367   6.233 -0.5187  0.2144  0.0144
 1804ntf    fn411931   5.247   3.778   6.494 -0.2850 -0.2374 -0.3401
 1804ntf    fn411932   5.386   3.618   6.526  0.2402  0.2069 -0.1869
 1804ntf    fn411933   5.438   3.774   6.398 -0.0085  0.5942 -0.5468
 1804ntf    on511934   5.223   3.673   6.193  0.0734  0.0745 -0.4964
 1804ntf    on511935   5.381   3.505   6.284  0.1213  0.7731  0.0261
 1804ntf    on511936   4.990   3.382   6.491  0.0577 -0.0728  0.2930
 1804ntf    on511937   5.193   3.282   6.393  0.0359  0.1945 -0.5121
 1804ntf    fn411938   4.926   3.467   6.205 -0.5371  0.2606  0.2319
 1804ntf    fn411939   5.088   3.369   6.128 -0.2225  0.5002  0.2482
 1804ntf    fn411940   4.930   3.259   6.231  0.3312 -0.3980 -0.3111
 1805ntf    cn111941   1.321   0.068   5.733 -0.3832  0.5556  0.0267
 1805ntf    sn211942   1.463   0.063   5.620 -0.2500 -0.0062  0.2154
 1805ntf    nn311943   1.524   0.206   5.643  0.1753 -0.1786  0.1798
 1805ntf    sn211944   1.490   0.332   5.556  0.2811 -0.0927  0.2627
 1805ntf    cn111945   1.620   0.330   5.429 -0.0089 -0.0371 -0.0383
 1805ntf    fn411946   1.237  -0.028   5.698  0.1181  0.2855 -0.4551
 1805ntf    fn411947   1.349   0.063   5.862  0.0993  0.0756 -0.0933
 1805ntf    fn411948   1.259   0.185   5.726 -0.4132  0.5507  0.2164
 1805ntf    on511949   1.543  -0.030   5.696  0.3350  0.2588 -0.0747
 1805ntf    on511950   1.428   0.009   5.491  0.4235  0.5580 -0.2143
 1805ntf    on511951   1.510   0.454   5.630  0.2988 -0.0920  0.2566
 1805ntf    on511952   1.369   0.320   5.478  0.4709  0.0527 -0.0598
 1805ntf    fn411953   1.740   0.342   5.483 -0.2657  0.1172  0.5042
 1805ntf    fn411954   1.605   0.221   5.355 -0.0374  0.1469 -0.3024
 1805ntf    fn411955   1.613   0.430   5.343 -0.0081 -0.3327 -0.3860
 1806ntf    cn111956   2.055   6.535   3.942 -0.1142 -0.0270 -0.2759
 1806ntf    sn211957   1.993   6.443   4.085  0.5798  0.0010  0.0455
 1806ntf    nn311958   2.123   6.420   4.172  0.2917  0.3591  0.5723
 1806ntf    sn211959   2.209   6.290   4.184 -0.3308 -0.1181 -0.0524
 1806ntf    cn111960   2.370   6.372   4.167 -0.0934 -0.5299  0.1917
 1806ntf    fn411961   1.957   6.551   3.855 -0.1115 -0.0957 -0.2916
 1806ntf    fn411962   2.088   6.658   3.978  0.4285 -0.3092  0.2032
 1806ntf    fn411963   2.160   6.477   3.885 -0.2440 -0.9062  0.3642
 1806ntf    on511964   1.897   6.528   4.150 -0.4240 -0.9439 -0.1819
 1806ntf    on511965   1.935   6.321   4.034  0.5010  0.1110 -0.1241
 1806ntf    on511966   2.201   6.196   4.075 -0.7443 -0.5529  0.3501
 1806ntf    on511967   2.214   6.243   4.320 -0.1685  0.5516  0.1775
 1806ntf    fn411968   2.393   6.413   4.043 -0.2423 -0.0896  0.3086
 1806ntf    fn411969   2.387   6.478   4.244  0.1763 -0.3157 -0.1556
 1806ntf    fn411970   2.471   6.291   4.194  0.3407 -0.1999 -0.4066
 1807ntf    cn111971   4.724   1.098   4.186 -0.5251 -0.0447 -0.0700
 1807ntf    sn211972   4.755   0.990   4.043 -0.3328 -0.3185  0.1761
 1807ntf    nn311973   4.763   1.094   3.926  0.1258  0.7407  1.1423
 1807ntf    sn211974   4.876   1.096   3.816 -0.2978 -0.0559  0.6849
 1807ntf    cn111975   4.818   1.229   3.706  0.0880 -0.6680 -0.2706
 1807ntf    fn411976   4.832   1.155   4.236 -0.5843 -0.5334  0.6246
 1807ntf    fn411977   4.641   1.194   4.150  0.2627  0.7496  0.2038
 1807ntf    fn411978   4.675   1.030   4.288  0.2554 -0.8881 -0.2361
 1807ntf    on511979   4.879   0.927   4.081  0.1342  0.3754 -0.1911
 1807ntf    on511980   4.638   0.906   4.030 -0.4282 -0.1986  0.2599
 1807ntf    on511981   4.869   0.982   3.728 -0.3449  0.0838  0.5073
 1807ntf    on511982   4.999   1.147   3.871 -0.1612  0.3140  0.0423
 1807ntf    fn411983   4.840   1.217   3.577  0.0052 -0.8440 -0.2687
 1807ntf    fn411984   4.687   1.247   3.721  0.2093 -0.0970  0.1460
 1807ntf    fn411985   4.868   1.346   3.741 -0.2773 -0.5566 -0.1150
 1808ntf    cn111986   0.285   5.658   5.547  0.2609  0.1214 -0.2329
 1808ntf    sn211987   0.287   5.508   5.445 -0.1467 -0.3521  0.4512
 1808ntf    nn311988   0.134   5.478   5.422 -0.0551 -0.5240  0.0489
 1808ntf    sn211989   0.051   5.470   5.289 -0.1799 -0.1945  0.1043
 1808ntf    cn111990   0.081   5.297   5.241  0.1434  0.1212 -0.8351
 1808ntf    fn411991   0.218   5.761   5.497  0.5294  0.5076  0.1985
 1808ntf    fn411992   0.243   5.648   5.672  0.4949 -0.2594 -0.1848
 1808ntf    fn411993   0.407   5.708   5.561  0.3944 -0.2408 -0.0933
 1808ntf    on511994   0.365   5.549   5.331 -0.0664  0.3130  0.7442
 1808ntf    on511995   0.355   5.413   5.529  0.1467 -0.2056  0.3794
 1808ntf    on511996   0.096   5.552   5.180 -0.3759 -0.6541 -0.3300
 1808ntf    on511997  -0.087   5.472   5.331 -0.3677  0.5527 -0.5319
 1808ntf    fn411998  -0.005   5.264   5.145 -0.4171  0.0920 -0.3254
 1808ntf    fn411999   0.200   5.280   5.186  0.1678 -0.1624 -0.6956
 1808ntf    fn412000   0.079   5.218   5.347  0.4242  0.8709 -0.2621
 1809ntf    cn112001   0.848   2.114   1.831 -0.1738  0.0728  0.1907
 1809ntf    sn212002   0.951   1.987   1.910  0.0935  0.2750  0.1700
 1809ntf    nn312003   1.086   2.007   1.833  0.1237 -0.7167 -0.0523
 1809ntf    sn212004   1.235   1.972   1.871  0.1824 -0.0312  0.3636
 1809ntf    cn112005   1.272   1.846   1.746  0.4124  0.2816  0.1145
 1809ntf    fn412006   0.911   2.230   1.842  0.0240 -0.0123 -0.0307
 1809ntf    fn412007   0.827   2.094   1.702  0.0277 -0.1844  0.1986
 1809ntf    fn412008   0.726   2.124   1.881 -0.3875 -0.2050 -0.2652
 1809ntf    on512009   0.956   2.021   2.050 -0.4740 -0.1688  0.3025
 1809ntf    on512010   0.890   1.865   1.864  0.1713  0.3735 -0.2011
 1809ntf    on512011   1.253   1.894   1.991 -0.4448 -0.6981  0.0338
 1809ntf    on512012   1.321   2.081   1.834 -0.2268  0.1532 -0.0539
 1809ntf    fn412013   1.257   1.891   1.623 -0.4824  0.0609  0.1329
 1809ntf    fn412014   1.396   1.801   1.757  0.2984 -0.0238  0.1553
 1809ntf    fn412015   1.199   1.735   1.750  0.0158  0.5234 -0.3336
 1810ntf    cn112016   5.877   4.949   3.077 -0.0148  0.1464 -0.2440
 1810ntf    sn212017   5.707   4.954   3.141  0.0857 -0.2798  0.0563
 1810ntf    nn312018   5.703   5.089   3.219 -0.1777 -0.1671 -0.1527
 1810ntf    sn212019   5.591   5.138   3.318  0.0513  0.3785 -0.1557
 1810ntf    cn112020   5.489   5.258   3.228  0.1284  0.9713  0.5323
 1810ntf    fn412021   5.962   4.960   3.178 -0.7003 -0.0044  0.3491
 1810ntf    fn412022   5.913   4.840   3.010  0.4227  0.3734 -0.3837
 1810ntf    fn412023   5.904   5.048   2.993 -0.3378  0.1689 -0.3238
 1810ntf    on512024   5.620   4.949   3.026  0.2599  0.4540 -0.1073
 1810ntf    on512025   5.701   4.845   3.235  0.5884  0.1594  0.5995
 1810ntf    on512026   5.650   5.225   3.417  0.4499  0.0528 -0.1042
 1810ntf    on512027   5.504   5.035   3.371  0.2298  0.3233  0.0332
 1810ntf    fn412028   5.568   5.350   3.175 -0.1126  0.4016 -0.8837
 1810ntf    fn412029   5.416   5.207   3.130  0.0152  1.0331  0.5846
 1810ntf    fn412030   5.399   5.325   3.297 -0.4329  0.6398  0.1283
 1811ntf    cn112031   6.796   0.034   5.106 -0.1104 -0.0995 -0.2087
 1811ntf    sn212032   6.741   0.117   4.954  0.2069  0.2927 -0.1120
 1811ntf    nn312033   6.620   0.025   4.914  0.0608  0.2510  0.4101
 1811ntf    sn212034   6.579  -0.035   4.775  0.2331  0.2952  0.3398
 1811ntf    cn112035   6.646  -0.204   4.793  0.4185  0.3417  0.1106
 1811ntf    fn412036   6.897   0.094   5.167  0.3482 -0.6694 -0.3967
 1811ntf    fn412037   6.702   0.030   5.199 -0.4484  0.6252 -0.5087
 1811ntf    fn412038   6.834  -0.091   5.087 -0.6299 -0.2507 -0.2774
 1811ntf    on512039   6.684   0.240   5.004 -0.0613  0.0266  0.2460
 1811ntf    on512040   6.859   0.124   4.872 -0.2544  0.1218 -0.7986
 1811ntf    on512041   6.657   0.005   4.660  0.4221 -0.6048  0.1460
 1811ntf    on512042   6.439  -0.060   4.753  0.3278  0.2260 -0.2242
 1811ntf    fn412043   6.775  -0.208   4.821  0.2987 -0.7989  0.5347
 1811ntf    fn412044   6.586  -0.267   4.893 -0.0643  0.5112 -0.0708
 1811ntf    fn412045   6.623  -0.276   4.685  0.0076  0.5926  0.0290
 1812ntf    cn112046   0.708   0.928   6.437  0.3591  0.3624  0.1396
 1812ntf    sn212047   0.695   0.970   6.261 -0.0291 -0.2083  0.0261
 1812ntf    nn312048   0.738   1.121   6.252 -0.5118 -0.0971 -0.4590
 1812ntf    sn212049   0.860   1.184   6.177 -0.2471  0.0418  0.0839
 1812ntf    cn112050   0.942   1.264   6.318  0.1156 -0.0066 -0.0971
 1812ntf    fn412051   0.724   0.800   6.466 -0.0023  0.2320 -0.2218
 1812ntf    fn412052   0.812   0.991   6.488  0.6441  0.1479 -0.1692
 1812ntf    fn412053   0.599   0.965   6.503  0.0800  0.3003 -0.2827
 1812ntf    on512054   0.792   0.883   6.200 -0.5493 -0.4920 -0.4072
 1812ntf    on512055   0.559   0.943   6.222  0.0105  0.1560 -0.3831
 1812ntf    on512056   0.823   1.299   6.098 -0.2836 -0.2639 -0.3488
 1812ntf    on512057   0.969   1.102   6.130 -0.3161  0.0095 -0.0196
 1812ntf    fn412058   1.048   1.332   6.278  0.0541 -0.1494 -0.5051
 1812ntf    fn412059   0.861   1.354   6.371 -0.2816 -0.3712 -0.0747
 1812ntf    fn412060   0.973   1.181   6.417 -0.0998 -0.0348 -0.0525
 1813ntf    cn112061   2.981   4.315   1.798 -0.2671 -0.3212  0.1707
 1813ntf    sn212062   2.966   4.208   1.651 -0.0246 -0.1967  0.0540
 1813ntf    nn312063   3.037   4.299   1.545 -0.1046 -0.2980 -0.0867
 1813ntf    sn212064   2.976   4.414   1.457 -0.2889 -0.1997  0.1685
 1813ntf    cn112065   3.024   4.357   1.292 -0.6494  0.2031 -0.0767
 1813ntf    fn412066   2.973   4.244   1.909 -0.1383 -0.6657 -0.0371
 1813ntf    fn412067   3.095   4.382   1.802  0.1091 -0.9546  0.1053
 1813ntf    fn412068   2.889   4.410   1.797 -0.2738 -0.3282  0.0905
 1813ntf    on512069   3.049   4.099   1.696 -0.3392 -0.3199  0.3478
 1813ntf    on512070   2.826   4.189   1.622 -0.1068  0.0660  0.2704
 1813ntf    on512071   3.061   4.529   1.479  0.1769 -0.5247  0.0795
 1813ntf    on512072   2.834   4.436   1.451 -0.2938 -0.2199  0.2103
 1813ntf    fn412073   3.154   4.367   1.269 -0.5993 -0.2267  0.0171
 1813ntf    fn412074   2.977   4.233   1.281 -0.1823  0.0382 -0.2304
 1813ntf    fn412075   2.962   4.428   1.199 -0.2681  0.4156 -0.1714
 1814ntf    cn112076   2.735   6.226   5.748 -0.1444  0.2522  0.2314
 1814ntf    sn212077   2.618   6.313   5.639 -0.1673  0.1854  0.2029
 1814ntf    nn312078   2.727   6.393   5.559 -0.1877  0.2983  0.2873
 1814ntf    sn212079   2.785   6.341   5.423 -0.3669  0.4907  0.1381
 1814ntf    cn112080   2.820   6.502   5.346 -0.1143  0.0226 -0.7432
 1814ntf    fn412081   2.820   6.314   5.799 -0.1780  0.4681 -0.0746
 1814ntf    fn412082   2.683   6.159   5.849 -0.3383  0.1274  0.0513
 1814ntf    fn412083   2.817   6.143   5.686  0.0374  0.4507  0.2046
 1814ntf    on512084   2.546   6.212   5.565  0.2361  0.6032 -0.7830
 1814ntf    on512085   2.534   6.397   5.722 -0.4633 -0.0963  0.1911
 1814ntf    on512086   2.697   6.283   5.325  0.2949  0.0925 -0.2305
 1814ntf    on512087   2.912   6.279   5.450 -0.2599  0.5531 -0.2177
 1814ntf    fn412088   2.914   6.565   5.415 -0.5846  0.2517 -0.3067
 1814ntf    fn412089   2.875   6.483   5.227  0.5476 -0.5536 -0.3576
 1814ntf    fn412090   2.713   6.579   5.336 -0.3204 -0.1792 -0.1241
 1815ntf    cn112091   2.486   1.919   1.829  0.6509  0.0923 -0.3815
 1815ntf    sn212092   2.609   1.798   1.888  0.2360  0.0161  0.3416
 1815ntf    nn312093   2.579   1.675   1.796  0.2176  0.0029  0.3654
 1815ntf    sn212094   2.492   1.546   1.818 -0.0725  0.1221 -0.0611
 1815ntf    cn112095   2.613   1.433   1.893 -0.2686 -0.0641 -0.0237
 1815ntf    fn412096   2.485   2.022   1.911 -0.0984 -0.2845  0.0960
 1815ntf    fn412097   2.531   1.961   1.712  0.1730  0.3996 -0.4536
 1815ntf    fn412098   2.359   1.882   1.825  0.6814 -0.0287 -0.2830
 1815ntf    on512099   2.735   1.861   1.855 -0.0378  0.0584 -0.6510
 1815ntf    on512100   2.591   1.770   2.028 -0.2856  0.0261  0.2768
 1815ntf    on512101   2.463   1.481   1.693  0.4382 -0.3694  0.0765
 1815ntf    on512102   2.386   1.556   1.916  0.0527  0.2890  0.0580
 1815ntf    fn412103   2.683   1.477   1.996 -0.2788  0.3286 -0.1822
 1815ntf    fn412104   2.550   1.326   1.938 -0.2472 -0.0729 -0.0156
 1815ntf    fn412105   2.703   1.385   1.809  0.1272  0.4201  0.1153
 1816ntf    cn112106   4.779   5.062   4.103  0.1299  0.3266 -0.1886
 1816ntf    sn212107   4.736   4.983   4.261  0.0752 -0.1948 -0.4621
 1816ntf    nn312108   4.701   4.836   4.219 -0.3693 -0.1020 -0.4211
 1816ntf    sn212109   4.789   4.740   4.132  0.0702  0.0892 -0.1901
 1816ntf    cn112110   4.716   4.746   3.966 -0.2520 -0.0602 -0.0555
 1816ntf    fn412111   4.668   5.089   4.035 -0.2615 -0.8076 -0.0125
 1816ntf    fn412112   4.851   5.173   4.113 -0.1634  0.5126 -0.0961
 1816ntf    fn412113   4.841   4.986   4.015 -0.3210  0.0480 -0.2695
 1816ntf    on512114   4.854   5.004   4.341 -0.0474 -0.0735 -0.3121
 1816ntf    on512115   4.620   5.052   4.310  0.2565  0.0767 -0.4080
 1816ntf    on512116   4.760   4.604   4.171  0.8084  0.1352  0.5514
 1816ntf    on512117   4.928   4.777   4.118  0.1868 -0.5329 -0.7401
 1816ntf    fn412118   4.691   4.864   3.912  0.1419 -0.1515 -0.4416
 1816ntf    fn412119   4.798   4.689   3.879 -0.4329  0.0045 -0.2704
 1816ntf    fn412120   4.604   4.678   3.955 -0.2954 -0.1269  0.7181
 1817ntf    cn112121   2.555   4.162   1.978  0.0138 -0.1399 -0.0897
 1817ntf    sn212122   2.465   4.036   2.074 -0.0630  0.2328  0.3306
 1817ntf    nn312123   2.410   4.131   2.186 -0.3830  0.5055 -0.0509
 1817ntf    sn212124   2.275   4.123   2.267 -0.0956 -0.2294  0.3672
 1817ntf    cn112125   2.192   4.281   2.233  0.0936 -0.1665  0.1948
 1817ntf    fn412126   2.484   4.234   1.893  0.1804 -0.5579 -0.5914
 1817ntf    fn412127   2.625   4.241   2.058  0.5233 -1.0528  0.3931
 1817ntf    fn412128   2.659   4.110   1.915  0.2411 -0.4015  0.4945
 1817ntf    on512129   2.375   3.985   1.973  0.3179  0.7274 -0.2611
 1817ntf    on512130   2.572   3.947   2.110 -0.2191 -0.0677  0.0649
 1817ntf    on512131   2.295   4.121   2.410  0.0883  0.0119  0.3460
 1817ntf    on512132   2.187   4.021   2.215  0.1540 -0.2138 -0.0955
 1817ntf    fn412133   2.071   4.282   2.286  0.1831  0.7423  0.3874
 1817ntf    fn412134   2.259   4.383   2.283  0.1543  0.0109 -0.2432
 1817ntf    fn412135   2.178   4.308   2.104 -0.2709  0.2474  0.3216
 1818ntf    cn112136   4.744   1.780   2.976 -0.1129  0.1018 -0.2239
 1818ntf    sn212137   4.863   1.659   3.041  0.3408  0.4612 -0.3805
 1818ntf    nn312138   4.791   1.525   3.002  0.3395  0.2610  0.3100
 1818ntf    sn212139   4.855   1.382   3.009  0.0084  0.1007  0.0952
 1818ntf    cn112140   4.747   1.323   3.142  0.1525 -0.4546 -0.0304
 1818ntf    fn412141   4.740   1.895   3.040  0.2154 -0.1090  0.1757
 1818ntf    fn412142   4.769   1.806   2.848 -0.4312 -0.0147 -0.3117
 1818ntf    fn412143   4.625   1.723   2.981 -0.0420 -0.0025  0.3773
 1818ntf    on512144   4.973   1.690   2.953  0.2613 -0.3902 -0.7946
 1818ntf    on512145   4.871   1.688   3.182 -0.0110 -0.1487 -0.2292
 1818ntf    on512146   4.984   1.368   3.073  0.5536 -0.6454 -1.1168
 1818ntf    on512147   4.825   1.302   2.893 -0.9819 -0.1005  0.4840
 1818ntf    fn412148   4.620   1.325   3.103  0.2703 -0.8206 -0.4374
 1818ntf    fn412149   4.772   1.201   3.187  0.3001 -0.2792  0.3671
 1818ntf    fn412150   4.761   1.398   3.250  0.7894 -0.5202 -0.0669
 1819ntf    cn112151   6.151   0.819   2.538  0.0329 -0.1061 -0.1888
 1819ntf    sn212152   6.019   0.714   2.605  0.1073  0.1405  0.3510
 1819ntf    nn312153   6.049   0.723   2.758  0.8813 -0.4858  0.2407
 1819ntf    sn212154   5.955   0.707   2.883  0.1146 -0.0699 -0.2741
 1819ntf    cn112155   5.982   0.873   2.953  0.1597 -0.0111 -0.4308
 1819ntf    fn412156   6.131   0.943   2.579 -0.5353 -0.3047  0.1519
 1819ntf    fn412157   6.271   0.782   2.579  0.0475  0.3475  0.1790
 1819ntf    fn412158   6.159   0.817   2.406  0.6198  0.3239 -0.1636
 1819ntf    on512159   5.891   0.761   2.558 -0.2480 -0.8040  0.3345
 1819ntf    on512160   6.060   0.588   2.548  0.0673  0.1484  0.3043
 1819ntf    on512161   6.008   0.609   2.975  0.7713  0.7937  0.2884
 1819ntf    on512162   5.815   0.702   2.850  0.0129  0.1080  0.1232
 1819ntf    fn412163   6.110   0.891   2.979 -0.0659  0.7240  0.1840
 1819ntf    fn412164   5.947   0.974   2.875 -0.0040  0.0668 -0.2569
 1819ntf    fn412165   5.928   0.886   3.073  0.4217 -0.5947 -0.2456
 1820ntf    cn112166   2.043   0.569   1.749  0.2917 -0.0003 -0.2602
 1820ntf    sn212167   2.133   0.414   1.720  0.0529 -0.2123  0.1243
 1820ntf    nn312168   2.244   0.468   1.623 -0.0850  0.1030  0.1420
 1820ntf    sn212169   2.397   0.435   1.628  0.0022  0.3852 -0.5550
 1820ntf    cn112170   2.465   0.575   1.722 -0.3402  0.3770 -0.2949
 1820ntf    fn412171   1.988   0.617   1.638 -0.0974  0.2422  0.0355
 1820ntf    fn412172   1.944   0.558   1.837  0.6954  0.6216  0.2767
 1820ntf    fn412173   2.119   0.666   1.798  0.5081 -0.4632  0.3215
 1820ntf    on512174   2.176   0.378   1.854  0.0311  0.4261  0.3064
 1820ntf    on512175   2.035   0.327   1.662  0.4149 -0.0889 -0.6827
 1820ntf    on512176   2.459   0.464   1.501  0.2425  0.6842 -0.3713
 1820ntf    on512177   2.440   0.316   1.698 -0.2691  0.2096 -0.6867
 1820ntf    fn412178   2.459   0.691   1.659  0.1367  0.5229 -0.0784
 1820ntf    fn412179   2.408   0.585   1.841 -0.3732 -0.2223 -0.2574
 1820ntf    fn412180   2.595   0.560   1.742 -0.3177  0.6924 -0.2027
 1821ntf    cn112181   4.253   1.385   0.455 -0.0309  0.4154 -0.3353
 1821ntf    sn212182   4.223   1.266   0.321 -0.2291  0.0759  0.0119
 1821ntf    nn312183   4.136   1.164   0.403 -0.1638 -0.1000 -0.1364
 1821ntf    sn212184   4.181   1.033   0.478 -0.4429 -0.1658 -0.0828
 1821ntf    cn112185   4.168   0.910   0.344  0.4180 -0.2688 -0.0756
 1821ntf    fn412186   4.319   1.316   0.547 -0.4046 -0.4496 -0.7077
 1821ntf    fn412187   4.330   1.489   0.428 -0.1314  0.6235  0.1757
 1821ntf    fn412188   4.138   1.424   0.507 -0.0798 -0.3844  0.1729
 1821ntf    on512189   4.149   1.348   0.229  0.2997  0.3210 -0.1987
 1821ntf    on512190   4.351   1.225   0.270 -0.2672  0.2525 -0.2236
 1821ntf    on512191   4.091   0.982   0.579 -0.4002  0.1739  0.1284
 1821ntf    on512192   4.318   1.040   0.519 -0.5611  0.4103  0.2169
 1821ntf    fn412193   4.229   0.952   0.234 -0.7182  0.3175 -0.5071
 1821ntf    fn412194   4.199   0.788   0.384 -0.5286 -0.5658 -0.2319
 1821ntf    fn412195   4.041   0.898   0.309  0.0895  0.3875  0.8414
 1822ntf    cn112196   4.533   3.654   3.737  0.1253 -0.4195 -0.2913
 1822ntf    sn212197   4.595   3.484   3.750  0.2990 -0.3419 -0.1101
 1822ntf    nn312198   4.592   3.463   3.906  0.1148  0.0809 -0.0553
 1822ntf    sn212199   4.684   3.384   4.005 -0.5046 -0.1170  0.3676
 1822ntf    cn112200   4.810   3.504   4.057 -0.0004 -0.7319  0.5895
 1822ntf    fn412201   4.568   3.723   3.629  0.2991  0.3030  0.2187
 1822ntf    fn412202   4.401   3.648   3.746  0.1653 -0.2762  0.4032
 1822ntf    fn412203   4.564   3.728   3.842 -0.0248  0.1265 -0.6290
 1822ntf    on512204   4.500   3.397   3.686 -0.1252  0.0678 -0.0383
 1822ntf    on512205   4.729   3.488   3.696  0.2472 -0.0228 -0.2161
 1822ntf    on512206   4.755   3.279   3.935 -0.0773 -0.2460  0.9813
 1822ntf    on512207   4.618   3.355   4.130 -0.2863 -0.4981  0.3973
 1822ntf    fn412208   4.862   3.573   3.957 -0.4982 -0.3216  0.6110
 1822ntf    fn412209   4.750   3.590   4.139  0.0756  0.0181 -0.1282
 1822ntf    fn412210   4.913   3.454   4.124  0.3176 -0.0276  0.6383
 1823ntf    cn112211   4.266   2.551   2.767 -0.0245  0.2935  0.0132
 1823ntf    sn212212   4.152   2.417   2.813  0.0690  0.1177 -0.2626
 1823ntf    nn312213   4.260   2.322   2.874 -0.3750 -0.0077  0.3339
 1823ntf    sn212214   4.268   2.268   3.021  0.1689  0.1484  0.3619
 1823ntf    cn112215   4.156   2.126   3.012  0.1262  0.1978  0.1094
 1823ntf    fn412216   4.195   2.654   2.724 -0.4553 -0.1460 -0.3429
 1823ntf    fn412217   4.336   2.596   2.870  0.0417 -0.1821  0.1792
 1823ntf    fn412218   4.351   2.523   2.669  0.1433  0.3939  0.1299
 1823ntf    on512219   4.052   2.477   2.897 -0.0100  0.8122 -0.8356
 1823ntf    on512220   4.113   2.365   2.684  0.0555 -0.7900  0.1056
 1823ntf    on512221   4.218   2.360   3.121  0.4969 -0.1278  0.7844
 1823ntf    on512222   4.396   2.210   3.053  0.3208  0.4970  0.3981
 1823ntf    fn412223   4.184   2.037   2.918 -0.3146 -0.0976  0.2530
 1823ntf    fn412224   4.154   2.068   3.131 -0.1163 -0.0881 -0.0341
 1823ntf    fn412225   4.034   2.165   2.982 -0.1947 -0.3650  0.6526
 1824ntf    cn112226   4.301   6.203   3.044  0.0758 -0.0666  0.2988
 1824ntf    sn212227   4.296   6.114   3.202 -0.2026 -0.0565  0.2957
 1824ntf    nn312228   4.142   6.083   3.212 -0.2354 -0.2352 -0.6916
 1824ntf    sn212229   4.035   6.172   3.283  0.2047 -0.4363  0.2529
 1824ntf    cn112230   4.048   6.094   3.446 -0.1952 -0.0783  0.4578
 1824ntf    fn412231   4.284   6.128   2.936  0.2739 -0.0047  0.2245
 1824ntf    fn412232   4.210   6.297   3.026 -0.1086 -0.2672  0.1817
 1824ntf    fn412233   4.421   6.256   3.030  0.0312 -0.0154  0.1105
 1824ntf    on512234   4.371   5.996   3.166  0.7288  0.6431 -0.0836
 1824ntf    on512235   4.351   6.193   3.310  0.1768 -0.0070  0.0653
 1824ntf    on512236   3.899   6.137   3.247  0.0122  0.2880  0.2585
 1824ntf    on512237   4.061   6.312   3.303  0.2944 -0.4752  0.4024
 1824ntf    fn412238   3.995   6.170   3.541  0.2450 -0.3004  0.8846
 1824ntf    fn412239   3.987   5.978   3.460  0.0585 -0.3226 -0.4213
 1824ntf    fn412240   4.173   6.074   3.484 -0.0402 -0.2632 -0.1492
 1825ntf    cn112241   4.065   2.532   1.879 -0.1318 -0.0698 -0.0335
 1825ntf    sn212242   4.086   2.388   1.988  0.0505 -0.2862 -0.3499
 1825ntf    nn312243   3.938   2.346   2.021 -0.1894  0.4577 -0.4710
 1825ntf    sn212244   3.849   2.270   1.917 -0.3085 -0.1381  0.0652
 1825ntf    cn112245   3.870   2.102   1.985 -0.3383  0.0258  0.4823
 1825ntf    fn412246   4.177   2.602   1.872  0.0038 -0.2434  0.3615
 1825ntf    fn412247   4.035   2.496   1.755  0.4929 -0.5790 -0.0428
 1825ntf    fn412248   3.964   2.609   1.915 -0.2311  0.1177 -0.7019
 1825ntf    on512249   4.162   2.296   1.908  0.3568 -0.6733  0.3793
 1825ntf    on512250   4.144   2.434   2.112  0.0027  0.4418 -0.5914
 1825ntf    on512251   3.899   2.275   1.782  0.1366  0.6377  0.2579
 1825ntf    on512252   3.710   2.303   1.935 -0.1310  0.9464 -0.4994
 1825ntf    fn412253   3.996   2.085   2.022 -0.1686  0.6772  0.2150
 1825ntf    fn412254   3.797   2.080   2.093 -0.5634  0.0890  0.3429
 1825ntf    fn412255   3.848   2.005   1.899  1.1035 -0.0895  0.2149
 1826ntf    cn112256   1.597   0.467   6.380 -0.4302  0.2983  0.0595
 1826ntf    sn212257   1.549   0.619   6.294 -0.0305  0.3537 -0.0669
 1826ntf    nn312258   1.600   0.725   6.398 -0.2536  0.4184 -0.0212
 1826ntf    sn212259   1.526   0.780   6.524 -0.3318 -0.2259  0.2161
 1826ntf    cn112260   1.672   0.813   6.627 -0.1594 -0.0136 -0.0946
 1826ntf    fn412261   1.522   0.462   6.489 -0.6920  0.5408 -0.1089
 1826ntf    fn412262   1.562   0.369   6.299  0.1646  0.2972 -0.1972
 1826ntf    fn412263   1.726   0.465   6.407 -0.3330 -0.4431 -0.4304
 1826ntf    on512264   1.630   0.628   6.175  0.0533  0.2891 -0.0142
 1826ntf    on512265   1.408   0.611   6.263 -0.1233  0.4229  0.3292
 1826ntf    on512266   1.454   0.691   6.612 -0.5115 -0.4399 -0.1467
 1826ntf    on512267   1.465   0.910   6.510 -0.2265 -0.1641  0.3297
 1826ntf    fn412268   1.752   0.900   6.568  0.2345 -0.2397  0.1019
 1826ntf    fn412269   1.626   0.854   6.744  0.0811  0.0916 -0.0368
 1826ntf    fn412270   1.748   0.706   6.648 -0.3848 -0.0222  0.7208
 1827ntf    cn112271   6.002   0.155   0.601 -0.1137 -0.0630  0.1973
 1827ntf    sn212272   5.832   0.156   0.666 -0.1148 -0.1043  0.1954
 1827ntf    nn312273   5.799   0.309   0.674  0.1123 -0.0280 -0.2909
 1827ntf    sn212274   5.818   0.420   0.783  0.2165 -0.2134 -0.1192
 1827ntf    cn112275   5.666   0.404   0.883  0.2851  0.3819  0.0832
 1827ntf    fn412276   6.088   0.243   0.650 -0.3304  0.5823 -0.5667
 1827ntf    fn412277   6.053   0.035   0.624 -0.0051  0.0164  0.3748
 1827ntf    fn412278   6.006   0.171   0.470  0.2294  0.2300  0.2406
 1827ntf    on512279   5.752   0.111   0.555  0.1341 -0.9801  0.3559
 1827ntf    on512280   5.837   0.089   0.794 -0.0462  0.9236  0.7378
 1827ntf    on512281   5.801   0.554   0.733  0.2607 -0.3063 -0.3797
 1827ntf    on512282   5.929   0.410   0.875  0.1463  0.1686  0.0102
 1827ntf    fn412283   5.556   0.464   0.842  0.0414  0.0048  0.1845
 1827ntf    fn412284   5.625   0.280   0.901 -0.1967  0.5187 -0.0542
 1827ntf    fn412285   5.672   0.458   1.003 -0.2224 -0.0398  0.2997
 1828ntf    cn112286   4.526   3.511   3.007 -0.1882  0.3205  0.4116
 1828ntf    sn212287   4.371   3.429   3.054 -0.2936  0.4688  0.3229
 1828ntf    nn312288   4.347   3.513   3.185  0.1095  0.0088  0.6980
 1828ntf    sn212289   4.211   3.562   3.246 -0.0686  0.3244  0.0633
 1828ntf    cn112290   4.268   3.551   3.419  0.1540 -0.3158 -0.0495
 1828ntf    fn412291   4.512   3.636   2.965  0.0916  0.2629  0.1443
 1828ntf    fn412292   4.610   3.528   3.109 -0.1225 -0.4352  0.4915
 1828ntf    fn412293   4.600   3.447   2.918 -0.3492  0.0085  0.5027
 1828ntf    on512294   4.284   3.464   2.945  0.2194 -0.0576 -0.2596
 1828ntf    on512295   4.410   3.292   3.075  0.0415  0.4960 -0.1111
 1828ntf    on512296   4.097   3.474   3.245  0.5889 -0.5546  0.4171
 1828ntf    on512297   4.192   3.705   3.241 -0.1832  0.3032 -0.0805
 1828ntf    fn412298   4.374   3.626   3.445 -0.3102  0.0201  0.9105
 1828ntf    fn412299   4.173   3.597   3.498 -0.2050  0.1647 -0.7481
 1828ntf    fn412300   4.296   3.429   3.462  0.4106 -0.0550  0.5288
 1829ntf    cn112301   3.181   4.877   0.111 -0.0684 -0.2209 -0.4221
 1829ntf    sn212302   3.208   5.032   0.021  0.2619 -0.2033 -0.2894
 1829ntf    nn312303   3.332   5.081   0.106  0.0718  0.5445 -0.4347
 1829ntf    sn212304   3.487   5.070   0.086  0.0800  0.1687 -0.1601
 1829ntf    cn112305   3.537   4.948   0.212 -0.2282  0.1653 -0.0388
 1829ntf    fn412306   3.078   4.809   0.062  0.2496 -0.8633 -0.2081
 1829ntf    fn412307   3.288   4.800   0.120  0.0580 -0.0939 -0.8168
 1829ntf    fn412308   3.144   4.903   0.235  0.0438 -0.2043 -0.3920
 1829ntf    on512309   3.233   4.980  -0.111  0.0840 -0.3543 -0.2629
 1829ntf    on512310   3.086   5.106   0.042  0.0280 -0.5548 -0.4096
 1829ntf    on512311   3.556   5.191   0.121  0.6597 -0.1611 -0.1478
 1829ntf    on512312   3.544   5.020  -0.036 -0.0593  0.2377 -0.2538
 1829ntf    fn412313   3.454   4.930   0.313 -0.1408  0.5190  0.0955
 1829ntf    fn412314   3.556   4.829   0.156  0.1838 -0.0591  0.5652
 1829ntf    fn412315   3.654   4.977   0.266 -0.0745 -0.1609 -0.1879
 1830ntf    cn112316   0.802   2.702   0.116 -0.2910  0.1774 -0.1932
 1830ntf    sn212317   0.886   2.578   0.219 -0.2234  0.2168 -0.2008
 1830ntf    nn312318   0.761   2.486   0.239 -0.7503  0.8994 -0.3492
 1830ntf    sn212319   0.651   2.504   0.350 -0.4834 -0.1968  0.1041
 1830ntf    cn112320   0.688   2.363   0.459  0.2430  0.4477  0.7084
 1830ntf    fn412321   0.755   2.642   0.008 -0.2624  0.0260 -0.1228
 1830ntf    fn412322   0.698   2.764   0.170 -0.1378  0.1179  0.1708
 1830ntf    fn412323   0.884   2.789   0.060  0.2966  0.0010  0.3736
 1830ntf    on512324   0.973   2.506   0.129  0.0762 -0.0431  0.2886
 1830ntf    on512325   0.938   2.657   0.328 -0.7940  0.4226 -0.0754
 1830ntf    on512326   0.516   2.477   0.308 -0.3823  0.0652 -0.3859
 1830ntf    on512327   0.673   2.619   0.435  0.2761  0.2540 -0.6882
 1830ntf    fn412328   0.803   2.376   0.524  0.6529  0.0299  0.0789
 1830ntf    fn412329   0.593   2.341   0.548 -0.3005 -0.7558 -0.1516
 1830ntf    fn412330   0.708   2.255   0.386  0.0621  0.5845  0.4552
 1831ntf    cn112331   4.321   6.141   6.003  0.1876  0.1375 -0.0231
 1831ntf    sn212332   4.461   6.256   6.013  0.3503 -0.0331 -0.3169
 1831ntf    nn312333   4.454   6.312   6.160  0.2322 -0.0694 -0.3095
 1831ntf    sn212334   4.460   6.459   6.216  0.2358 -0.3017  0.3053
 1831ntf    cn112335   4.283   6.500   6.230  0.2709  0.0085 -0.1154
 1831ntf    fn412336   4.202   6.198   5.989  0.1080  0.1229  0.5521
 1831ntf    fn412337   4.331   6.059   5.900  0.1210  0.2075 -0.0852
 1831ntf    fn412338   4.308   6.059   6.107  0.7744 -0.6578 -0.5688
 1831ntf    on512339   4.580   6.177   5.993  0.4897  0.1151 -0.0951
 1831ntf    on512340   4.433   6.355   5.912  0.7480  0.1905 -0.2103
 1831ntf    on512341   4.499   6.559   6.119  0.6256 -0.2301  0.5361
 1831ntf    on512342   4.502   6.471   6.353 -0.9571 -0.1406  0.6718
 1831ntf    fn412343   4.218   6.411   6.303  0.4066  0.1137  0.1381
 1831ntf    fn412344   4.272   6.615   6.295 -0.1169 -0.2819  0.3423
 1831ntf    fn412345   4.222   6.510   6.113  0.0796 -0.7232 -0.0806
 1832ntf    cn112346   6.570   4.743   6.540  0.0205 -0.2532  0.2865
 1832ntf    sn212347   6.397   4.777   6.581 -0.0142 -0.2369  0.1259
 1832ntf    nn312348   6.335   4.725   6.446 -0.2341  0.2385  0.0407
 1832ntf    sn212349   6.233   4.797   6.351 -0.3838  0.1015  0.0981
 1832ntf    cn112350   6.335   4.900   6.241  0.0101 -0.1731  0.2046
 1832ntf    fn412351   6.655   4.760   6.641  0.3890 -0.2036 -0.0289
 1832ntf    fn412352   6.586   4.615   6.509 -0.2915 -0.1345 -0.3761
 1832ntf    fn412353   6.622   4.809   6.438  0.0064 -0.4282  0.1641
 1832ntf    on512354   6.370   4.703   6.702 -0.1874 -0.4408 -0.0359
 1832ntf    on512355   6.396   4.921   6.592  0.0700 -0.2516  0.3210
 1832ntf    on512356   6.141   4.894   6.405 -0.1533  0.0469  0.5960
 1832ntf    on512357   6.171   4.701   6.263 -0.0826 -0.4568  0.4929
 1832ntf    fn412358   6.421   4.979   6.303  0.0385 -0.1202  0.0968
 1832ntf    fn412359   6.418   4.825   6.170  0.0973  0.1938 -0.0845
 1832ntf    fn412360   6.262   4.977   6.163  0.0083 -0.3640  0.0180
 1833ntf    cn112361   1.981   0.292   4.382  0.0351  0.2514  0.0064
 1833ntf    sn212362   2.092   0.313   4.240  0.1932 -0.1733  0.0642
 1833ntf    nn312363   2.008   0.257   4.120  0.1065  0.1791 -0.0406
 1833ntf    sn212364   1.952   0.331   3.993 -0.2669  0.0226  0.0297
 1833ntf    cn112365   2.010   0.216   3.865 -0.2326 -0.2323  0.2728
 1833ntf    fn412366   1.962   0.164   4.410 -0.3702  0.2987 -0.0404
 1833ntf    fn412367   2.037   0.341   4.492  0.1327  0.1722 -0.0074
 1833ntf    fn412368   1.865   0.353   4.363 -0.2514 -0.3699 -0.2809
 1833ntf    on512369   2.109   0.455   4.256 -0.5062 -0.0954  0.1278
 1833ntf    on512370   2.207   0.237   4.283 -0.0522 -0.3887  0.3421
 1833ntf    on512371   2.006   0.462   3.965  0.4522 -0.0234  1.1100
 1833ntf    on512372   1.809   0.319   3.990 -0.2907  0.2289  0.2474
 1833ntf    fn412373   1.970   0.092   3.891 -0.1882 -0.3803 -0.3320
 1833ntf    fn412374   1.977   0.246   3.740 -0.4368  0.0413  0.3933
 1833ntf    fn412375   2.142   0.209   3.862 -0.2210  0.1446 -0.1474
 1834ntf    cn112376   6.348   0.583   3.918 -0.1763  0.0664  0.2400
 1834ntf    sn212377   6.413   0.498   4.065  0.2963  0.2099  0.1170
 1834ntf    nn312378   6.429   0.627   4.153  0.2400  0.1572  0.2053
 1834ntf    sn212379   6.557   0.708   4.195  0.3517 -0.0389  0.2505
 1834ntf    cn112380   6.486   0.874   4.216  0.1265 -0.1350  0.2544
 1834ntf    fn412381   6.432   0.671   3.865 -0.5083  0.0722 -0.2867
 1834ntf    fn412382   6.313   0.506   3.816 -0.3187  0.7049 -0.2034
 1834ntf    fn412383   6.243   0.658   3.948 -0.1483  0.1655  0.0897
 1834ntf    on512384   6.307   0.409   4.105  0.6670 -0.2629  0.0627
 1834ntf    on512385   6.533   0.434   4.016  0.1487  0.2305 -0.2725
 1834ntf    on512386   6.652   0.731   4.089  0.1569  0.2739  0.1403
 1834ntf    on512387   6.606   0.680   4.327  0.1658  0.0008  0.3280
 1834ntf    fn412388   6.581   0.963   4.242  0.1862 -0.2038  0.2735
 1834ntf    fn412389   6.425   0.926   4.110  0.7494 -0.8456 -0.4601
 1834ntf    fn412390   6.398   0.867   4.314 -0.6291  0.2002 -0.3893
 1835ntf    cn112391   2.635   5.013   2.233  0.2277 -0.1174 -0.3383
 1835ntf    sn212392   2.670   4.946   2.398 -0.2060  0.0246 -0.1868
 1835ntf    nn312393   2.759   4.822   2.358  0.1669  0.2973 -0.2047
 1835ntf    sn212394   2.705   4.675   2.352  0.0397  0.3263  0.1936
 1835ntf    cn112395   2.772   4.621   2.192 -0.0983  0.3945  0.1120
 1835ntf    fn412396   2.741   5.067   2.175 -0.0901  0.1884 -0.6375
 1835ntf    fn412397   2.589   4.920   2.151 -0.2985  0.0085 -0.1870
 1835ntf    fn412398   2.547   5.111   2.232  0.0476 -0.2760 -0.0893
 1835ntf    on512399   2.743   5.047   2.471 -0.0737 -0.0055 -0.2755
 1835ntf    on512400   2.539   4.916   2.449 -0.2525  0.3610 -0.1092
 1835ntf    on512401   2.565   4.665   2.319  0.0566  0.1980  0.1609
 1835ntf    on512402   2.756   4.580   2.447 -0.7795 -1.0564 -0.7050
 1835ntf    fn412403   2.904   4.624   2.187 -0.0876 -0.0266  0.1862
 1835ntf    fn412404   2.745   4.494   2.168 -0.3288  0.3731  0.4925
 1835ntf    fn412405   2.725   4.687   2.087 -0.1986  0.1806  0.0230
 1836ntf    cn112406   0.871   3.513   0.232 -0.4285  0.0807 -0.1232
 1836ntf    sn212407   0.977   3.595   0.356 -0.2168 -0.0681 -0.2068
 1836ntf    nn312408   1.116   3.563   0.291 -0.2233 -0.4701 -0.0252
 1836ntf    sn212409   1.249   3.501   0.349 -0.0862 -0.2090 -0.0612
 1836ntf    cn112410   1.343   3.652   0.388 -0.5807  0.0476  0.1517
 1836ntf    fn412411   0.880   3.570   0.113 -0.4746  0.8038  0.2071
 1836ntf    fn412412   0.900   3.385   0.216  0.3442  0.2244  0.0877
 1836ntf    fn412413   0.742   3.507   0.264 -0.3381 -0.1506  0.1952
 1836ntf    on512414   0.952   3.736   0.351  0.0168 -0.0309 -0.3359
 1836ntf    on512415   0.940   3.515   0.470 -0.3056  0.3236  0.0402
 1836ntf    on512416   1.333   3.437   0.252 -0.4916 -0.3340 -0.3346
 1836ntf    on512417   1.244   3.440   0.479 -0.0382  0.3477  0.2041
 1836ntf    fn412418   1.355   3.721   0.275 -0.2873 -0.1748  0.0454
 1836ntf    fn412419   1.288   3.727   0.482  0.3703  0.2970  0.5184
 1836ntf    fn412420   1.466   3.622   0.425 -0.6818 -0.3338  0.1889
 1837ntf    cn112421   4.000   0.783   5.142  0.2284  0.1991  0.0067
 1837ntf    sn212422   3.824   0.776   5.096  0.2606 -0.3129 -0.0447
 1837ntf    nn312423   3.753   0.759   5.235 -0.0063  0.0267 -0.1382
 1837ntf    sn212424   3.598   0.768   5.260  0.0406  0.3934  0.0237
 1837ntf    cn112425   3.538   0.602   5.217 -0.2560  0.4284  0.3019
 1837ntf    fn412426   4.079   0.846   5.057  0.3437  0.1588  0.0843
 1837ntf    fn412427   4.014   0.831   5.264 -0.3460 -0.3323  0.2854
 1837ntf    fn412428   4.042   0.659   5.158 -0.4084  0.0055  0.1954
 1837ntf    on512429   3.793   0.898   5.024 -0.0157 -0.1095  0.4165
 1837ntf    on512430   3.816   0.656   5.016 -0.2663 -0.4426  0.1979
 1837ntf    on512431   3.516   0.850   5.175  0.3976  0.7851  0.0533
 1837ntf    on512432   3.578   0.767   5.403  0.3374 -0.3688  0.0632
 1837ntf    fn412433   3.610   0.512   5.282 -0.0488  0.5589  0.2550
 1837ntf    fn412434   3.410   0.576   5.241 -0.3490  0.1667 -0.4762
 1837ntf    fn412435   3.558   0.578   5.089  0.4381  0.2249  0.4463
 1838ntf    cn112436   2.293   5.508   6.841  0.0995  0.0990 -0.0832
 1838ntf    sn212437   2.422   5.388   6.796 -0.0989 -0.3243  0.4590
 1838ntf    nn312438   2.363   5.332   6.661  0.4636 -0.0476  0.0926
 1838ntf    sn212439   2.385   5.379   6.513  0.0972 -0.1179  0.0150
 1838ntf    cn112440   2.487   5.239   6.456  0.0204 -0.0280 -0.3493
 1838ntf    fn412441   2.337   5.595   6.930  0.6500 -0.3855  0.1312
 1838ntf    fn412442   2.244   5.574   6.738 -0.0588 -0.1954 -0.1988
 1838ntf    fn412443   2.190   5.452   6.902  0.4365 -0.1313  0.2856
 1838ntf    on512444   2.546   5.458   6.777 -0.1206 -0.2210  0.6953
 1838ntf    on512445   2.415   5.286   6.897  0.0311 -0.5318  0.2605
 1838ntf    on512446   2.461   5.498   6.486  0.4475 -0.4933 -0.6730
 1838ntf    on512447   2.262   5.363   6.438 -0.5081  0.0722  0.9473
 1838ntf    fn412448   2.423   5.123   6.462  0.1844 -0.0803  0.6515
 1838ntf    fn412449   2.516   5.264   6.330 -0.1607 -0.1582 -0.4159
 1838ntf    fn412450   2.596   5.220   6.528 -0.2763  0.3377  0.2138
 1839ntf    cn112451   2.281   1.034   1.444  0.1171  0.0569 -0.0269
 1839ntf    sn212452   2.107   1.056   1.398  0.1200 -0.0013 -0.0654
 1839ntf    nn312453   2.063   0.908   1.370  0.5456 -0.1500  0.0441
 1839ntf    sn212454   2.024   0.840   1.234 -0.0054  0.2007  0.0250
 1839ntf    cn112455   2.049   0.667   1.284  0.0535  0.1982 -0.0129
 1839ntf    fn412456   2.284   0.966   1.558 -0.1950 -0.5043 -0.3505
 1839ntf    fn412457   2.340   0.958   1.353 -0.1892  0.4305 -0.5435
 1839ntf    fn412458   2.351   1.146   1.457 -0.5545  0.5352 -0.4397
 1839ntf    on512459   2.034   1.115   1.507  0.0320  0.6340 -0.4614
 1839ntf    on512460   2.112   1.144   1.283 -0.8059  0.0082 -0.1063
 1839ntf    on512461   2.121   0.850   1.127 -0.6487 -0.0644 -0.5936
 1839ntf    on512462   1.887   0.868   1.196 -0.2410 -0.6214  0.2506
 1839ntf    fn412463   1.946   0.603   1.337  0.3841 -0.1979  0.1466
 1839ntf    fn412464   2.073   0.597   1.175  0.1329 -0.2749  0.3085
 1839ntf    fn412465   2.154   0.656   1.363 -0.3421 -0.3305  0.4425
 1840ntf    cn112466   6.755   4.553   4.149  0.1315 -0.1167  0.3107
 1840ntf    sn212467   6.784   4.666   4.010 -0.1913 -0.2114  0.1669
 1840ntf    nn312468   6.929   4.620   3.972 -0.2253 -0.3533  0.2088
 1840ntf    sn212469   6.977   4.546   3.843 -0.1309 -0.2122  0.1631
 1840ntf    cn112470   7.076   4.672   3.757  0.3012 -0.2100  0.6611
 1840ntf    fn412471   6.866   4.538   4.220  0.3284  0.0698  0.0436
 1840ntf    fn412472   6.649   4.582   4.223 -0.0874 -0.1472  0.0083
 1840ntf    fn412473   6.732   4.433   4.100  0.0701  0.1883 -0.4144
 1840ntf    on512474   6.672   4.637   3.923 -0.2228 -0.4454  0.2855
 1840ntf    on512475   6.793   4.799   4.065 -0.4836 -0.2072  0.2060
 1840ntf    on512476   6.871   4.510   3.752  0.0707 -0.5321  0.0526
 1840ntf    on512477   7.075   4.443   3.869  0.0164 -0.0582  0.2124
 1840ntf    fn412478   7.142   4.754   3.838  0.1264  0.7575 -0.1558
 1840ntf    fn412479   7.156   4.630   3.661 -0.1765  0.3132  0.0306
 1840ntf    fn412480   6.989   4.751   3.697  0.5241 -0.2277  0.3113
 1841ntf    cn112481   1.681   3.112   1.040 -0.0027 -0.0062  0.0296
 1841ntf    sn212482   1.591   3.047   0.895  0.0578  0.0512 -0.0336
 1841ntf    nn312483   1.668   2.910   0.890 -0.1994 -0.0703 -0.6419
 1841ntf    sn212484   1.612   2.768   0.926 -0.2230  0.1581  0.2403
 1841ntf    cn112485   1.627   2.774   1.107  0.1489 -0.0601  0.2184
 1841ntf    fn412486   1.649   3.041   1.146 -0.2036  0.4915  0.3066
 1841ntf    fn412487   1.811   3.111   1.020 -0.0388 -0.0709 -0.2120
 1841ntf    fn412488   1.655   3.237   1.077 -0.5165 -0.1662  0.2216
 1841ntf    on512489   1.457   3.055   0.947  0.0048  0.2950 -0.2081
 1841ntf    on512490   1.628   3.131   0.783 -0.1394 -0.4342 -0.4651
 1841ntf    on512491   1.702   2.663   0.883  0.2474  0.6350  0.0459
 1841ntf    on512492   1.474   2.736   0.899 -0.1599  0.2010 -0.1454
 1841ntf    fn412493   1.746   2.803   1.159 -0.0299 -0.0551  0.6290
 1841ntf    fn412494   1.548   2.867   1.158  0.3552  0.1618  0.1373
 1841ntf    fn412495   1.585   2.665   1.169  0.3096 -0.2559 -0.0132
 1842ntf    cn112496   2.846   2.836   4.624 -0.0449  0.2821 -0.1114
 1842ntf    sn212497   2.899   2.971   4.735 -0.1771  0.3967 -0.1870
 1842ntf    nn312498   2.915   2.903   4.875  0.0375 -0.3851 -0.5841
 1842ntf    sn212499   3.003   2.777   4.910  0.2050 -0.1404 -0.1046
 1842ntf    cn112500   2.876   2.719   5.026 -0.2069  0.6771 -0.1377
 1842ntf    fn412501   2.740   2.779   4.679 -0.0951  0.4393 -0.0442
 1842ntf    fn412502   2.806   2.882   4.507  0.1392  0.2878 -0.1721
 1842ntf    fn412503   2.944   2.754   4.590 -0.2920 -0.1665  0.2468
 1842ntf    on512504   3.021   3.020   4.677 -0.0960  0.3699 -0.0374
 1842ntf    on512505   2.778   3.049   4.723 -0.9617 -0.7125  0.2858
 1842ntf    on512506   3.116   2.814   4.991  0.0182 -0.1188  0.1459
 1842ntf    on512507   3.024   2.665   4.821 -0.3916 -0.8491  0.6307
 1842ntf    fn412508   2.757   2.713   4.968 -0.0812 -0.5857 -0.3109
 1842ntf    fn412509   2.912   2.594   5.053 -0.0729  0.6615 -0.3846
 1842ntf    fn412510   2.874   2.791   5.137 -0.1507  0.3092  0.1058
 1843ntf    cn112511   0.871   1.786   5.608 -0.1091 -0.2281  0.4329
 1843ntf    sn212512   1.015   1.894   5.585  0.0095 -0.4763 -0.0194
 1843ntf    nn312513   1.081   1.831   5.458  0.2529 -0.3523  0.0443
 1843ntf    sn212514   1.231   1.836   5.411  0.1959  0.0197 -0.1017
 1843ntf    cn112515   1.290   1.664   5.423  0.3238  0.0715  0.0053
 1843ntf    fn412516   0.901   1.667   5.658  0.0775 -0.2803  0.2026
 1843ntf    fn412517   0.786   1.834   5.697 -0.3292  0.0102  0.0994
 1843ntf    fn412518   0.809   1.770   5.492  0.3942  0.0485  0.1233
 1843ntf    on512519   0.954   2.022   5.556  0.0169 -0.6327 -0.7361
 1843ntf    on512520   1.090   1.879   5.708 -0.3406  0.1839  0.2796
 1843ntf    on512521   1.323   1.902   5.500 -0.2861  0.0308  0.3899
 1843ntf    on512522   1.244   1.860   5.269 -0.3071 -0.2047 -0.1867
 1843ntf    fn412523   1.295   1.617   5.547  0.3377  0.4144  0.1382
 1843ntf    fn412524   1.213   1.581   5.356  0.3433 -0.1551  0.2636
 1843ntf    fn412525   1.407   1.653   5.362  0.5012 -0.9832  0.5172
 1844ntf    cn112526   4.545   2.813   3.669 -0.1032  0.1544 -0.0082
 1844ntf    sn212527   4.666   2.819   3.805  0.1301  0.1733 -0.2158
 1844ntf    nn312528   4.757   2.699   3.760 -0.0075  0.0786 -0.2433
 1844ntf    sn212529   4.786   2.569   3.843  0.1596  0.1371 -0.2104
 1844ntf    cn112530   4.631   2.479   3.815 -0.0037  0.3751 -0.0714
 1844ntf    fn412531   4.450   2.904   3.666 -0.1166  0.1741  0.8556
 1844ntf    fn412532   4.604   2.832   3.552 -0.4873  0.1761 -0.1973
 1844ntf    fn412533   4.488   2.694   3.669 -0.0614  0.1323  0.2660
 1844ntf    on512534   4.731   2.945   3.779 -0.1980  0.3869 -0.0121
 1844ntf    on512535   4.583   2.805   3.922  0.6455  0.5875  0.2034
 1844ntf    on512536   4.790   2.583   3.986 -0.2944 -0.3789 -0.1441
 1844ntf    on512537   4.880   2.477   3.783  0.2501 -0.1763  0.4017
 1844ntf    fn412538   4.596   2.475   3.688  0.0494 -0.1965 -0.0713
 1844ntf    fn412539   4.632   2.354   3.859  0.2119  0.3216 -0.2293
 1844ntf    fn412540   4.530   2.536   3.878 -0.2605 -0.4715  0.3004
 1845ntf    cn112541   6.262   3.077   1.874 -0.0098 -0.1809  0.1147
 1845ntf    sn212542   6.097   3.002   1.864 -0.0201 -0.1545  0.0956
 1845ntf    nn312543   6.004   3.127   1.877 -0.1896 -0.2184 -0.4828
 1845ntf    sn212544   5.849   3.138   1.900 -0.0553  0.0291  0.3340
 1845ntf    cn112545   5.794   3.133   1.727  0.2151 -0.1163  0.2528
 1845ntf    fn412546   6.265   3.174   1.784 -0.2347 -0.2207  0.0629
 1845ntf    fn412547   6.298   3.129   1.990 -0.2204 -0.2848  0.2288
 1845ntf    fn412548   6.352   2.987   1.839 -0.5433 -0.6543 -0.0549
 1845ntf    on512549   6.093   2.938   1.735 -0.8023 -0.0542  0.0618
 1845ntf    on512550   6.082   2.913   1.977  0.0828 -0.0832  0.1653
 1845ntf    on512551   5.810   3.272   1.935  0.0301  0.0505  0.3452
 1845ntf    on512552   5.778   3.035   1.972  0.0039  0.0694  0.4493
 1845ntf    fn412553   5.664   3.112   1.732  0.1576 -0.0464 -0.6677
 1845ntf    fn412554   5.815   3.244   1.659 -0.3371 -0.1110  0.0912
 1845ntf    fn412555   5.846   3.026   1.667 -0.4403 -0.3010  0.0040
 1846ntf    cn112556   3.252   2.910   5.753  0.4729  0.5656  0.1668
 1846ntf    sn212557   3.396   2.861   5.853  0.1463 -0.2407  0.2498
 1846ntf    nn312558   3.484   2.825   5.728  0.1511 -0.1203  0.2180
 1846ntf    sn212559   3.617   2.898   5.685  0.0918 -0.1815 -0.0759
 1846ntf    cn112560   3.626   2.841   5.513  0.1224 -0.2233 -0.0599
 1846ntf    fn412561   3.226   2.813   5.667  0.7476 -0.1480  0.8807
 1846ntf    fn412562   3.144   2.918   5.830  0.1997 -0.2559 -0.1277
 1846ntf    fn412563   3.268   3.019   5.680 -0.1311  0.4435 -0.1571
 1846ntf    on512564   3.431   2.974   5.935 -0.2696  0.1603 -0.1156
 1846ntf    on512565   3.354   2.741   5.921 -0.6573 -0.2937 -0.3185
 1846ntf    on512566   3.734   2.836   5.740 -0.3700 -0.7926  0.2304
 1846ntf    on512567   3.607   3.041   5.671  0.3397 -0.1131  0.4189
 1846ntf    fn412568   3.715   2.908   5.443  0.2679 -0.5442 -0.1842
 1846ntf    fn412569   3.665   2.716   5.493 -0.5601 -0.4483 -0.0350
 1846ntf    fn412570   3.510   2.869   5.455 -0.0815 -0.9713 -0.0217
 1847ntf    cn112571   3.687   1.504   2.151  0.2658  0.1908  0.0225
 1847ntf    sn212572   3.823   1.622   2.131  0.2095  0.2427 -0.0519
 1847ntf    nn312573   3.941   1.521   2.155  0.4457  0.4382 -0.3844
 1847ntf    sn212574   4.053   1.528   2.265  0.0039  0.1701  0.0824
 1847ntf    cn112575   4.148   1.671   2.205  0.3427 -0.2980 -0.5025
 1847ntf    fn412576   3.565   1.555   2.146 -0.1948 -0.9237 -0.6371
 1847ntf    fn412577   3.684   1.421   2.048  0.4854 -0.1267  0.2693
 1847ntf    fn412578   3.686   1.427   2.259 -0.4711 -0.0156 -0.1217
 1847ntf    on512579   3.807   1.652   1.991 -0.3102  0.0511 -0.0354
 1847ntf    on512580   3.782   1.721   2.227 -0.3555 -0.1949  0.1641
 1847ntf    on512581   4.148   1.420   2.262 -0.1155  0.0638  0.1096
 1847ntf    on512582   4.013   1.570   2.397  0.1362 -0.4839  0.3345
 1847ntf    fn412583   4.274   1.670   2.246  0.0273  0.0263  0.5137
 1847ntf    fn412584   4.146   1.660   2.074 -0.0905 -0.8785 -0.4507
 1847ntf    fn412585   4.088   1.786   2.231  0.2370 -0.4287 -0.1601
 1848ntf    cn112586   5.537   5.131   4.417 -0.2766 -0.2905  0.0316
 1848ntf    sn212587   5.623   4.972   4.434  0.1424 -0.0790 -0.0815
 1848ntf    nn312588   5.772   5.017   4.449  0.1300 -0.0863  0.0700
 1848ntf    sn212589   5.878   5.075   4.348  0.2415 -0.1014  0.1779
 1848ntf    cn112590   5.944   5.201   4.462 -0.4046  0.5827 -0.1998
 1848ntf    fn412591   5.492   5.180   4.532 -0.2590  0.3443 -0.2292
 1848ntf    fn412592   5.615   5.233   4.385 -0.7387 -0.0395 -0.3082
 1848ntf    fn412593   5.431   5.121   4.339 -0.1766  0.1831 -0.1703
 1848ntf    on512594   5.578   4.908   4.556  0.0176  0.8278  0.3588
 1848ntf    on512595   5.585   4.906   4.312 -0.4466  0.5419 -0.2356
 1848ntf    on512596   5.817   5.154   4.245 -1.1074 -0.4853  0.6704
 1848ntf    on512597   5.990   4.988   4.322  0.2725  0.0441 -0.1749
 1848ntf    fn412598   5.855   5.231   4.554 -0.2892 -0.9499  0.4282
 1848ntf    fn412599   6.051   5.163   4.529 -0.5113 -0.1328 -0.4229
 1848ntf    fn412600   5.973   5.308   4.389 -0.5669  0.0952 -0.9867
 1849ntf    cn112601   3.336   6.127   1.184 -0.2378  0.0105 -0.1593
 1849ntf    sn212602   3.375   6.232   1.328  0.2737 -0.3258 -0.0518
 1849ntf    nn312603   3.258   6.336   1.318  0.3842 -0.2079 -0.1176
 1849ntf    sn212604   3.264   6.485   1.267  0.1621 -0.2158 -0.1707
 1849ntf    cn112605   3.282   6.581   1.421  0.0735  0.0275 -0.3123
 1849ntf    fn412606   3.442   6.076   1.124  0.0691  0.3345  0.1030
 1849ntf    fn412607   3.258   6.024   1.212  0.1846 -0.1597  0.4105
 1849ntf    fn412608   3.275   6.201   1.092 -0.1495  0.1730 -0.0882
 1849ntf    on512609   3.369   6.140   1.439 -0.0189 -0.0726  0.1434
 1849ntf    on512610   3.504   6.282   1.288  0.4274 -0.8901 -0.2734
 1849ntf    on512611   3.133   6.524   1.223  0.2749  0.1373 -0.1917
 1849ntf    on512612   3.375   6.523   1.183 -0.3992  0.2722 -0.6945
 1849ntf    fn412613   3.276   6.712   1.403 -0.4043  0.0164 -0.2445
 1849ntf    fn412614   3.176   6.559   1.496  0.3414  0.2132  0.1240
 1849ntf    fn412615   3.387   6.551   1.495 -0.2357 -0.4328 -0.0559
 1850ntf    cn112616   0.397   2.088   4.586  0.0564 -0.3164 -0.0913
 1850ntf    sn212617   0.504   2.190   4.481  0.2291 -0.0654  0.3243
 1850ntf    nn312618   0.423   2.323   4.503  0.3302  0.1201 -0.3936
 1850ntf    sn212619   0.459   2.445   4.596 -0.3300 -0.0455  0.0840
 1850ntf    cn112620   0.289   2.495   4.638 -0.1267  0.6784  0.0519
 1850ntf    fn412621   0.431   1.960   4.585 -0.1807 -0.3817  0.0613
 1850ntf    fn412622   0.407   2.140   4.708 -0.3094 -0.4282 -0.0118
 1850ntf    fn412623   0.268   2.099   4.557  0.1052  0.0191 -0.1817
 1850ntf    on512624   0.635   2.178   4.539  0.3213 -0.4925  0.0255
 1850ntf    on512625   0.488   2.128   4.352  0.5462  0.1670  0.1704
 1850ntf    on512626   0.514   2.556   4.522 -0.0500 -0.2064  0.0501
 1850ntf    on512627   0.503   2.408   4.728 -0.5886  0.2565  0.2553
 1850ntf    fn412628   0.213   2.489   4.530  0.2381  0.2980 -0.1908
 1850ntf    fn412629   0.246   2.396   4.714  0.4908 -0.1667 -0.6736
 1850ntf    fn412630   0.275   2.605   4.711 -0.6882  0.0811  0.8632
 1851ntf    cn112631   1.453   1.439   4.057 -0.1420 -0.2758  0.1763
 1851ntf    sn212632   1.350   1.397   3.913  0.0475  0.1054 -0.0729
 1851ntf    nn312633   1.236   1.504   3.936  0.3286  0.3633  0.1300
 1851ntf    sn212634   1.165   1.586   3.822 -0.0470  0.3727  0.3694
 1851ntf    cn112635   1.027   1.651   3.920 -0.3717  0.1376  0.0668
 1851ntf    fn412636   1.553   1.354   4.075 -0.2661 -0.3985  0.2871
 1851ntf    fn412637   1.501   1.562   4.052 -0.4236 -0.1895 -0.4816
 1851ntf    fn412638   1.389   1.448   4.172 -0.0973  0.1009  0.1733
 1851ntf    on512639   1.437   1.417   3.800 -0.2182  0.2051 -0.2600
 1851ntf    on512640   1.312   1.261   3.943 -0.2611  0.1465 -0.2712
 1851ntf    on512641   1.094   1.516   3.719  0.2374  0.3289  0.2005
 1851ntf    on512642   1.234   1.707   3.787  0.4223 -0.1435 -0.5423
 1851ntf    fn412643   1.077   1.704   4.030  0.1967 -0.7184  0.2289
 1851ntf    fn412644   0.972   1.754   3.856  0.0277 -0.0201 -0.5345
 1851ntf    fn412645   0.922   1.576   3.949 -0.2461  0.3083  0.9852
 1852ntf    cn112646   0.933   3.719   3.605  0.2875 -0.1036 -0.1743
 1852ntf    sn212647   0.820   3.726   3.747  0.1403  0.4007 -0.3162
 1852ntf    nn312648   0.681   3.739   3.675  0.1024 -0.4772 -0.4170
 1852ntf    sn212649   0.540   3.729   3.744  0.1153  0.2635 -0.2713
 1852ntf    cn112650   0.502   3.904   3.715 -0.0892  0.2205 -0.2650
 1852ntf    fn412651   0.938   3.834   3.541  0.3678  0.3897  0.6932
 1852ntf    fn412652   1.062   3.714   3.637  0.1621 -0.4892  0.2985
 1852ntf    fn412653   0.912   3.627   3.512 -0.4140  0.2953 -0.4139
 1852ntf    on512654   0.845   3.599   3.811 -0.4622  0.1784 -0.5169
 1852ntf    on512655   0.868   3.843   3.815  0.1269  0.2043  0.0362
 1852ntf    on512656   0.532   3.702   3.886  0.7035 -0.2830 -0.3379
 1852ntf    on512657   0.447   3.656   3.661  0.0578 -0.2691  0.2514
 1852ntf    fn412658   0.493   3.951   3.591  0.7077 -0.3729 -0.5562
 1852ntf    fn412659   0.399   3.953   3.781  0.1321 -0.0063  0.2554
 1852ntf    fn412660   0.608   3.967   3.763 -0.0559  0.1397 -0.2327
 1853ntf    cn112661   2.039   6.532   3.147  0.0595  0.1414  0.0412
 1853ntf    sn212662   2.000   6.379   3.238  0.3315  0.1021  0.0923
 1853ntf    nn312663   1.923   6.438   3.361 -0.2071  0.4165 -0.3889
 1853ntf    sn212664   1.777   6.403   3.406  0.1803 -0.3661  0.2848
 1853ntf    cn112665   1.804   6.409   3.586 -0.2880 -0.0594  0.3474
 1853ntf    fn412666   2.096   6.511   3.030 -0.7297  0.8917 -0.4862
 1853ntf    fn412667   1.929   6.599   3.115  0.0556  0.1183  0.0073
 1853ntf    fn412668   2.125   6.613   3.207  0.3601 -0.1085 -0.0514
 1853ntf    on512669   1.915   6.314   3.141  0.2077  0.0965  0.2042
 1853ntf    on512670   2.128   6.321   3.271  0.4079  0.3341  0.2070
 1853ntf    on512671   1.728   6.268   3.392  0.1493 -0.3155 -0.1076
 1853ntf    on512672   1.681   6.510   3.389  0.4559 -0.1944 -0.2150
 1853ntf    fn412673   1.820   6.532   3.632 -0.2327 -0.2367  0.8061
 1853ntf    fn412674   1.707   6.351   3.654 -0.1513 -0.5317  0.1434
 1853ntf    fn412675   1.910   6.336   3.616  0.0835  0.3963  0.1579
 1854ntf    cn112676   1.811   1.569   3.822 -0.2277  0.4679  0.1166
 1854ntf    sn212677   1.907   1.415   3.828 -0.3092  0.4270  0.3813
 1854ntf    nn312678   1.845   1.350   3.956 -0.3577 -0.3451 -0.0273
 1854ntf    sn212679   1.831   1.202   4.008  0.0946 -0.3750  0.0175
 1854ntf    cn112680   1.836   1.217   4.189 -0.3200  0.2583 -0.0206
 1854ntf    fn412681   1.829   1.640   3.711  0.4361 -0.6692 -0.5254
 1854ntf    fn412682   1.683   1.537   3.836 -0.1622  0.0395 -0.2390
 1854ntf    fn412683   1.841   1.654   3.919  0.5203  0.3678 -0.0225
 1854ntf    on512684   1.851   1.339   3.719 -0.0440 -0.0205  0.5555
 1854ntf    on512685   2.044   1.458   3.827 -0.2252  0.1542 -0.0900
 1854ntf    on512686   1.937   1.111   3.973  0.3547 -0.3631  0.7592
 1854ntf    on512687   1.701   1.143   3.988 -0.3019  0.3869  0.2932
 1854ntf    fn412688   1.813   1.094   4.230 -0.3184  0.1940 -0.2117
 1854ntf    fn412689   1.946   1.267   4.243  0.5232 -1.4675 -0.0878
 1854ntf    fn412690   1.739   1.293   4.238 -0.3063  0.1862  0.1163
 1855ntf    cn112691   3.929   0.439   3.075  0.2935  0.0417 -0.0337
 1855ntf    sn212692   4.093   0.360   3.080  0.2501 -0.0420  0.0842
 1855ntf    nn312693   4.172   0.472   3.002 -0.2646  0.5969  0.4670
 1855ntf    sn212694   4.314   0.528   3.039 -0.0046  0.3013 -0.0773
 1855ntf    cn112695   4.282   0.649   3.171 -0.0650 -0.1173  0.2958
 1855ntf    fn412696   3.836   0.359   3.125  0.5563 -0.3680 -0.2003
 1855ntf    fn412697   3.926   0.542   3.159  0.0648  0.0974 -0.1095
 1855ntf    fn412698   3.886   0.487   2.960  0.0265 -0.4703 -0.1469
 1855ntf    on512699   4.108   0.336   3.221 -0.5193 -0.2807  0.1277
 1855ntf    on512700   4.066   0.252   2.989 -0.3984 -0.6138  0.9382
 1855ntf    on512701   4.379   0.600   2.932 -0.1422  0.2956 -0.1649
 1855ntf    on512702   4.395   0.431   3.108 -0.0915  0.2716 -0.0156
 1855ntf    fn412703   4.210   0.588   3.263 -0.3420 -0.0087  0.1526
 1855ntf    fn412704   4.399   0.688   3.218  0.0516 -0.4633  0.2919
 1855ntf    fn412705   4.212   0.749   3.119 -0.1001 -0.5788 -0.5721
 1856ntf    cn112706   6.789   6.081   3.886  0.1964  0.1087 -0.1056
 1856ntf    sn212707   6.888   6.164   3.758  0.2490  0.3115  0.0680
 1856ntf    nn312708   7.030   6.137   3.818  0.3621  0.2174 -0.2413
 1856ntf    sn212709   7.120   6.009   3.807  0.1405  0.0272  0.0972
 1856ntf    cn112710   7.252   6.059   3.692  0.0335  0.1697  0.0365
 1856ntf    fn412711   6.662   6.058   3.858 -0.0123  0.2951  0.6817
 1856ntf    fn412712   6.841   5.968   3.932  0.8008  0.5037  0.1896
 1856ntf    fn412713   6.786   6.163   3.989  0.1848 -0.0080 -0.0117
 1856ntf    on512714   6.855   6.091   3.638 -0.1756 -0.7405  0.8126
 1856ntf    on512715   6.853   6.304   3.767  0.0166  0.2883 -0.4273
 1856ntf    on512716   7.067   5.896   3.735  0.4903 -0.2343  0.2444
 1856ntf    on512717   7.187   5.978   3.931  0.2173 -0.0041  0.0483
 1856ntf    fn412718   7.315   6.166   3.737 -0.2417  0.0923  0.6079
 1856ntf    fn412719   7.339   5.960   3.677 -0.1639  0.0267 -0.1702
 1856ntf    fn412720   7.205   6.095   3.573 -0.4519  0.7773  0.4074
 1857ntf    cn112721   3.416   6.409   0.705  0.0514  0.1099 -0.0382
 1857ntf    sn212722   3.330   6.481   0.562 -0.2813  0.0888  0.1503
 1857ntf    nn312723   3.419   6.607   0.535  0.3850 -0.2837  0.5742
 1857ntf    sn212724   3.466   6.679   0.403 -0.1748 -0.0028  0.5222
 1857ntf    cn112725   3.428   6.853   0.437 -0.3823  0.0916 -0.1892
 1857ntf    fn412726   3.428   6.492   0.807  0.6584  0.0865 -0.0847
 1857ntf    fn412727   3.371   6.295   0.753  0.2834 -0.4044 -1.0237
 1857ntf    fn412728   3.539   6.384   0.664  0.1314 -0.3577  0.4814
 1857ntf    on512729   3.328   6.371   0.468 -0.3150 -0.1460  0.4259
 1857ntf    on512730   3.203   6.511   0.622  0.1148 -0.1383  1.1187
 1857ntf    on512731   3.394   6.649   0.282  0.7093 -0.4690  0.1026
 1857ntf    on512732   3.608   6.673   0.380 -0.1602 -0.3188  0.6748
 1857ntf    fn412733   3.362   6.871   0.550 -0.3296  0.4769 -0.2181
 1857ntf    fn412734   3.542   6.920   0.430 -0.2024 -0.1008  0.7664
 1857ntf    fn412735   3.354   6.904   0.340  0.0848  0.2273 -0.4754
 1858ntf    cn112736   6.851   6.701   4.102  0.1224  0.1078  0.2092
 1858ntf    sn212737   6.954   6.848   4.132  0.4111 -0.0561  0.0247
 1858ntf    nn312738   7.102   6.798   4.115  0.3950 -0.0836 -0.0333
 1858ntf    sn212739   7.205   6.811   3.997  0.0554  0.3278 -0.2891
 1858ntf    cn112740   7.328   6.922   4.072 -0.2040  0.5580 -0.2013
 1858ntf    fn412741   6.895   6.594   4.165 -0.5230 -0.3234 -0.0669
 1858ntf    fn412742   6.730   6.714   4.153 -0.1152 -0.1906 -0.2707
 1858ntf    fn412743   6.829   6.664   3.977 -0.8247 -0.0145  0.4047
 1858ntf    on512744   6.902   6.940   4.034  0.3999 -0.4590 -0.3497
 1858ntf    on512745   6.936   6.879   4.272  0.0927 -0.0956 -0.0081
 1858ntf    on512746   7.174   6.883   3.877  0.5549 -0.1649 -0.7195
 1858ntf    on512747   7.286   6.692   3.989 -0.9445 -0.3921  0.0061
 1858ntf    fn412748   7.450   6.930   4.021 -0.2009  0.2973 -0.2397
 1858ntf    fn412749   7.291   7.048   4.080  0.0536  0.5948  0.4559
 1858ntf    fn412750   7.348   6.885   4.197 -0.1683  0.0973 -0.3388
 1859ntf    cn112751   1.658   5.609   3.551  0.2677  0.4476  0.2067
 1859ntf    sn212752   1.501   5.572   3.634  0.2472 -0.1262 -0.0829
 1859ntf    nn312753   1.552   5.541   3.779  0.4385  0.0705 -0.1094
 1859ntf    sn212754   1.541   5.632   3.907  0.1206 -0.2478  0.0884
 1859ntf    cn112755   1.720   5.639   3.939  0.1123  0.3234  0.0193
 1859ntf    fn412756   1.729   5.499   3.530 -0.3651  0.0800 -0.0322
 1859ntf    fn412757   1.633   5.663   3.433 -0.0607 -0.4734 -0.1548
 1859ntf    fn412758   1.723   5.691   3.632  0.8440 -0.1756  0.3875
 1859ntf    on512759   1.420   5.691   3.623  0.2184 -0.1590 -0.2203
 1859ntf    on512760   1.449   5.450   3.576 -0.2422  0.2252 -0.3896
 1859ntf    on512761   1.479   5.567   4.020  0.0219  0.4699  0.4486
 1859ntf    on512762   1.502   5.769   3.886  0.6875 -0.0841  0.1007
 1859ntf    fn412763   1.750   5.735   4.025  0.5522  0.1387  0.0721
 1859ntf    fn412764   1.768   5.525   3.986 -0.1524  0.4363  0.5742
 1859ntf    fn412765   1.786   5.682   3.833 -0.3034 -0.4166 -0.5532
 1860ntf    cn112766   5.896   1.249   1.332  0.0940 -0.1506  0.1189
 1860ntf    sn212767   5.927   1.125   1.461  0.0274  0.2067  0.4768
 1860ntf    nn312768   6.055   1.184   1.531  0.5808 -0.1797 -0.2071
 1860ntf    sn212769   6.167   1.104   1.607  0.3175 -0.5254 -0.1788
 1860ntf    cn112770   6.112   1.104   1.781  0.3547 -0.2883 -0.1671
 1860ntf    fn412771   5.888   1.371   1.381  0.4139 -0.1048  0.0571
 1860ntf    fn412772   5.989   1.253   1.238  0.3458 -0.2242  0.3632
 1860ntf    fn412773   5.782   1.229   1.267 -0.2041  0.3809  0.4689
 1860ntf    on512774   5.810   1.148   1.542 -0.4223  0.2791 -0.1926
 1860ntf    on512775   5.936   0.994   1.403  0.1101  0.4039  0.0438
 1860ntf    on512776   6.293   1.175   1.615 -0.0444  0.0949  0.1121
 1860ntf    on512777   6.181   0.965   1.574  0.2389 -0.8074  0.9340
 1860ntf    fn412778   5.982   1.088   1.795  0.3233 -0.2444 -0.3946
 1860ntf    fn412779   6.171   1.011   1.853 -0.0741  0.0952  0.6840
 1860ntf    fn412780   6.136   1.226   1.826  0.4209 -0.0093 -0.9289
 1861ntf    cn112781   1.987   5.631   1.396  0.1772 -0.2784 -0.3004
 1861ntf    sn212782   2.008   5.640   1.215  0.2387 -0.0716 -0.2832
 1861ntf    nn312783   1.858   5.631   1.170 -0.0798  0.0835  0.7058
 1861ntf    sn212784   1.760   5.730   1.098  0.0162 -0.1690  0.2248
 1861ntf    cn112785   1.684   5.613   0.981  0.1608  0.0021 -0.0413
 1861ntf    fn412786   2.091   5.668   1.469 -0.0231 -0.0483 -0.1335
 1861ntf    fn412787   1.877   5.688   1.441  0.0826 -0.5187 -0.2233
 1861ntf    fn412788   1.964   5.503   1.421  0.1565 -0.2586 -0.2204
 1861ntf    on512789   2.079   5.764   1.195 -0.0198  0.1040 -0.1161
 1861ntf    on512790   2.081   5.520   1.181  0.0787 -0.3608  0.3679
 1861ntf    on512791   1.817   5.830   1.011  0.1959 -0.3933  0.0823
 1861ntf    on512792   1.645   5.761   1.178  0.1895  0.8716  0.0819
 1861ntf    fn412793   1.614   5.519   1.043  0.2321 -0.1666 -0.2118
 1861ntf    fn412794   1.600   5.662   0.892 -0.2464  0.0171  0.3525
 1861ntf    fn412795   1.773   5.550   0.905  0.0467  0.2208 -0.3601
 1862ntf    cn112796   3.081   5.098   3.101  0.0468  0.0154 -0.2152
 1862ntf    sn212797   3.085   4.921   3.064 -0.2277 -0.0726  0.1631
 1862ntf    nn312798   3.020   4.865   3.195  0.4423 -0.9669  0.1280
 1862ntf    sn212799   2.874   4.823   3.236  0.0886  0.0366 -0.0680
 1862ntf    cn112800   2.864   4.891   3.404 -0.1377 -0.0226 -0.0579
 1862ntf    fn412801   3.078   5.183   2.999  0.3191 -0.0815 -0.3034
 1862ntf    fn412802   2.967   5.112   3.167  0.2304  0.1766  0.0688
 1862ntf    fn412803   3.176   5.139   3.183  0.2302  0.4125 -0.6165
 1862ntf    on512804   3.005   4.911   2.944  0.3567 -0.6401 -0.1942
 1862ntf    on512805   3.224   4.886   3.046 -0.4507 -0.7424 -0.3035
 1862ntf    on512806   2.857   4.681   3.257  0.2994  0.1493  0.8967
 1862ntf    on512807   2.766   4.896   3.174  0.0833 -0.4642 -0.6576
 1862ntf    fn412808   2.752   4.851   3.461  0.0307 -0.1591  0.1771
 1862ntf    fn412809   2.964   4.841   3.475  0.0314  0.7477  0.2567
 1862ntf    fn412810   2.858   5.023   3.414 -0.1729  0.0002 -0.3799
 1863ntf    cn112811   3.710   0.091   1.411 -0.0233  0.0955  0.2798
 1863ntf    sn212812   3.649  -0.052   1.316  0.3678 -0.1005  0.3248
 1863ntf    nn312813   3.788  -0.095   1.258  0.4109 -0.0889  0.4183
 1863ntf    sn212814   3.841  -0.242   1.245  0.6034  0.0156 -0.0050
 1863ntf    cn112815   3.948  -0.237   1.392  0.8183 -0.2894 -0.1503
 1863ntf    fn412816   3.739   0.189   1.326 -0.0802 -0.1398 -0.0106
 1863ntf    fn412817   3.619   0.139   1.495 -0.0469 -0.2487  0.4505
 1863ntf    fn412818   3.823   0.065   1.474  0.2632  0.6803  0.0201
 1863ntf    on512819   3.588  -0.135   1.417 -0.2457  0.6061  0.5490
 1863ntf    on512820   3.561   0.016   1.225  0.0576 -0.7145  0.1644
 1863ntf    on512821   3.936  -0.259   1.138  0.0163  0.3741 -0.5899
 1863ntf    on512822   3.743  -0.346   1.261  0.3243  0.1134 -0.9929
 1863ntf    fn412823   4.016  -0.124   1.398 -0.2824  0.3452  0.5448
 1863ntf    fn412824   3.878  -0.248   1.504  0.3990 -0.1703 -0.3996
 1863ntf    fn412825   4.040  -0.333   1.397  0.0667 -1.0313 -0.2701
 1864ntf    cn112826   0.489   5.583   6.219 -0.0942  0.1611 -0.0758
 1864ntf    sn212827   0.385   5.447   6.157 -0.0556  0.0087  0.1936
 1864ntf    nn312828   0.245   5.512   6.131 -0.0273 -0.1543 -0.3574
 1864ntf    sn212829   0.118   5.506   6.223  0.0898 -0.0209 -0.1870
 1864ntf    cn112830  -0.007   5.583   6.116 -0.1358 -0.1375 -0.0105
 1864ntf    fn412831   0.470   5.612   6.347 -0.0749 -0.0049 -0.0357
 1864ntf    fn412832   0.617   5.554   6.202  0.0281  0.8428 -0.3481
 1864ntf    fn412833   0.470   5.693   6.148  0.2045  0.3073  0.0694
 1864ntf    on512834   0.452   5.422   6.032 -0.3005  0.8050 -0.1031
 1864ntf    on512835   0.388   5.350   6.264  0.4334 -0.5381 -0.3059
 1864ntf    on512836   0.120   5.604   6.328  0.2513  0.1593 -0.3589
 1864ntf    on512837   0.058   5.375   6.241  0.1370  0.0010  0.1284
 1864ntf    fn412838   0.023   5.709   6.089 -0.1006 -0.3069 -0.7929
 1864ntf    fn412839  -0.028   5.516   6.004  0.2423 -0.1212 -0.0912
 1864ntf    fn412840  -0.124   5.581   6.178  0.3016 -0.1833  0.8204
 1865ntf    cn112841   6.540   3.815   1.727  0.1861  0.0995  0.3803
 1865ntf    sn212842   6.720   3.820   1.696  0.1170  0.0202 -0.0391
 1865ntf    nn312843   6.733   3.763   1.551 -0.2021  0.3985 -0.2202
 1865ntf    sn212844   6.864   3.751   1.466 -0.2409  0.3393 -0.2722
 1865ntf    cn112845   6.811   3.846   1.320 -0.2317  0.1181 -0.4210
 1865ntf    fn412846   6.491   3.699   1.764 -0.1060 -0.0719 -0.5197
 1865ntf    fn412847   6.504   3.897   1.825 -0.0098  0.4565  0.0133
 1865ntf    fn412848   6.479   3.854   1.616  0.4794 -0.3778  0.0450
 1865ntf    on512849   6.749   3.962   1.696  0.9295 -0.1437  0.3793
 1865ntf    on512850   6.784   3.747   1.802 -0.1900 -0.4882 -0.2000
 1865ntf    on512851   6.884   3.617   1.416  0.0814  0.2355  0.1287
 1865ntf    on512852   6.987   3.807   1.517  0.2879 -0.5849 -0.4852
 1865ntf    fn412853   6.692   3.803   1.281 -0.3818  0.1153  0.0269
 1865ntf    fn412854   6.809   3.977   1.338 -0.2276  0.0798 -0.1310
 1865ntf    fn412855   6.888   3.815   1.217 -0.1345 -0.2387 -0.2457
 1866ntf    cn112856   0.419   5.850   2.635  0.0175  0.1688 -0.1402
 1866ntf    sn212857   0.352   5.714   2.735  0.0436  0.3540  0.1303
 1866ntf    nn312858   0.205   5.761   2.767 -0.1193 -0.2288  0.2565
 1866ntf    sn212859   0.073   5.678   2.786  0.0329 -0.5026  0.1182
 1866ntf    cn112860   0.061   5.706   2.965 -0.0053  0.1906  0.0085
 1866ntf    fn412861   0.428   5.970   2.690  0.3828  0.1576 -0.1703
 1866ntf    fn412862   0.534   5.819   2.579 -0.1173  0.0259 -0.3394
 1866ntf    fn412863   0.343   5.871   2.529 -0.1371 -0.5474 -0.1768
 1866ntf    on512864   0.358   5.597   2.652  0.3236  0.5090 -0.0651
 1866ntf    on512865   0.438   5.726   2.850  0.3625  0.2367 -0.0979
 1866ntf    on512866   0.095   5.536   2.769  0.4672 -0.3776 -0.4020
 1866ntf    on512867  -0.048   5.743   2.743  0.1873 -0.2894  0.0039
 1866ntf    fn412868  -0.058   5.688   3.022  0.1096  0.4453  0.3335
 1866ntf    fn412869   0.138   5.620   3.030 -0.3173 -0.2836 -0.2481
 1866ntf    fn412870   0.103   5.826   3.004 -0.5462  0.5107 -0.3782
 1867ntf    cn112871   3.150   5.118   0.946  0.3593  0.0027  0.3640
 1867ntf    sn212872   3.260   4.981   0.993  0.3390 -0.1628 -0.0718
 1867ntf    nn312873   3.384   5.070   1.031  0.4667 -0.4543  0.1966
 1867ntf    sn212874   3.517   5.091   0.950  0.1481  0.2345 -0.1531
 1867ntf    cn112875   3.631   5.088   1.091 -0.0792 -0.4456  0.0176
 1867ntf    fn412876   3.090   5.085   0.833  0.1240  0.4587  0.3525
 1867ntf    fn412877   3.060   5.144   1.040  0.3630  0.4191  0.2552
 1867ntf    fn412878   3.221   5.227   0.920  0.2213  0.0022 -0.0109
 1867ntf    on512879   3.197   4.927   1.111  0.0745  0.1795 -0.0532
 1867ntf    on512880   3.271   4.898   0.876  0.5149 -0.2376 -0.0024
 1867ntf    on512881   3.530   5.222   0.891 -0.1398  0.1785 -0.3409
 1867ntf    on512882   3.562   4.977   0.873 -0.4034  0.0075 -0.1398
 1867ntf    fn412883   3.628   4.978   1.165 -0.2564 -0.3839  0.1014
 1867ntf    fn412884   3.760   5.098   1.062 -0.0887  0.7725  0.3531
 1867ntf    fn412885   3.607   5.188   1.174  0.2561 -0.3879  0.0488
 1868ntf    cn112886   4.170   1.790   5.519  0.0240  0.2613  0.2614
 1868ntf    sn212887   4.052   1.760   5.654 -0.3185  0.1209 -0.0664
 1868ntf    nn312888   3.998   1.618   5.618 -0.3417  0.0650  0.1830
 1868ntf    sn212889   3.859   1.554   5.654 -0.3533 -0.0663 -0.0902
 1868ntf    cn112890   3.899   1.382   5.699 -0.4713 -0.1834 -0.4282
 1868ntf    fn412891   4.274   1.709   5.519 -0.2620 -0.1129  0.2566
 1868ntf    fn412892   4.117   1.776   5.399  0.3985  0.5901  0.0569
 1868ntf    fn412893   4.224   1.909   5.532 -0.5823  0.5228  0.4488
 1868ntf    on512894   4.136   1.763   5.771 -0.2967 -0.0918 -0.0779
 1868ntf    on512895   3.963   1.871   5.627 -0.0869  0.3202 -0.0171
 1868ntf    on512896   3.776   1.541   5.537  0.4059  0.0087 -0.6439
 1868ntf    on512897   3.792   1.614   5.767  0.3512 -0.2008  0.4033
 1868ntf    fn412898   3.795   1.300   5.699 -0.3140 -0.3960  0.6562
 1868ntf    fn412899   3.990   1.332   5.618  0.3641  0.2749  0.2145
 1868ntf    fn412900   3.954   1.377   5.819 -0.6162 -0.5906 -0.3793
 1869ntf    cn112901   5.106   0.850   3.296  0.0028  0.2818  0.2779
 1869ntf    sn212902   5.130   0.671   3.281 -0.4276  0.2530 -0.0944
 1869ntf    nn312903   5.278   0.653   3.332 -0.5573  0.1911  0.2563
 1869ntf    sn212904   5.370   0.526   3.331 -0.2096  0.4446 -0.1008
 1869ntf    cn112905   5.516   0.600   3.253  0.1721 -0.1863  0.0093
 1869ntf    fn412906   4.988   0.876   3.243  0.2556  0.4192 -0.2255
 1869ntf    fn412907   5.108   0.889   3.422  0.1914 -0.1555  0.4098
 1869ntf    fn412908   5.195   0.926   3.232  0.1721  0.0328  0.2169
 1869ntf    on512909   5.027   0.613   3.363 -0.3646  0.1716 -0.0728
 1869ntf    on512910   5.115   0.646   3.139 -0.5433 -0.4706  0.0387
 1869ntf    on512911   5.338   0.421   3.237  0.1117 -0.4775  0.7973
 1869ntf    on512912   5.414   0.489   3.463 -0.3961 -0.1624 -0.2033
 1869ntf    fn412913   5.564   0.699   3.326  0.3128 -0.5918  0.4779
 1869ntf    fn412914   5.606   0.503   3.242  0.1959 -0.1604 -0.0191
 1869ntf    fn412915   5.490   0.645   3.132  0.2895 -0.5221 -0.1407
 1870ntf    cn112916   2.346   2.048   1.005 -0.3924  0.4641 -0.0572
 1870ntf    sn212917   2.500   2.090   0.919 -0.1130 -0.0952  0.1618
 1870ntf    nn312918   2.448   2.155   0.786 -0.5529  0.2382  0.4958
 1870ntf    sn212919   2.436   2.308   0.751  0.2796  0.1922 -0.0232
 1870ntf    cn112920   2.580   2.327   0.642  0.2823 -0.3831 -0.1245
 1870ntf    fn412921   2.279   1.950   0.946  0.4485 -0.1554 -0.0178
 1870ntf    fn412922   2.376   1.996   1.124 -0.2250  0.4501 -0.1046
 1870ntf    fn412923   2.272   2.154   1.031 -0.2365  0.4993  0.2465
 1870ntf    on512924   2.562   2.181   1.012 -0.4109  0.4027 -0.1220
 1870ntf    on512925   2.561   1.962   0.893 -0.2273 -0.0273 -0.4583
 1870ntf    on512926   2.459   2.401   0.859 -0.5515 -0.2141  0.5134
 1870ntf    on512927   2.314   2.326   0.676  0.1534 -0.0655  0.1174
 1870ntf    fn412928   2.596   2.450   0.595 -0.6508 -0.2573 -0.1422
 1870ntf    fn412929   2.693   2.297   0.703 -0.0402  0.2968  0.8266
 1870ntf    fn412930   2.584   2.245   0.538 -0.3585 -0.4703 -0.0864
 1871ntf    cn112931   5.350   5.452   0.080 -0.0356 -0.2875 -0.0253
 1871ntf    sn212932   5.521   5.505   0.110 -0.0913 -0.0878 -0.0513
 1871ntf    nn312933   5.504   5.660   0.101  0.2588 -0.0624 -0.3006
 1871ntf    sn212934   5.606   5.769   0.148 -0.0137 -0.0649  0.3023
 1871ntf    cn112935   5.604   5.896   0.018 -0.3982 -0.2725  0.1060
 1871ntf    fn412936   5.286   5.513  -0.019 -0.4400 -0.7384 -0.0450
 1871ntf    fn412937   5.345   5.322   0.058  0.4948 -0.1775 -0.8309
 1871ntf    fn412938   5.275   5.470   0.188 -0.1935  0.2147 -0.2138
 1871ntf    on512939   5.550   5.466   0.246 -0.1457  0.1799  0.0378
 1871ntf    on512940   5.589   5.439   0.001  0.2236  0.2296 -0.0481
 1871ntf    on512941   5.744   5.729   0.138  0.0765  0.3319 -0.0880
 1871ntf    on512942   5.563   5.841   0.266 -0.0597 -0.5519  0.5825
 1871ntf    fn412943   5.482   5.936  -0.013 -0.0502  0.5662 -0.2187
 1871ntf    fn412944   5.668   6.009   0.041 -0.6394 -0.1181  0.0251
 1871ntf    fn412945   5.656   5.860  -0.098 -0.1782 -0.6526  0.3216
 1872ntf    cn112946   6.818   5.998   6.797  0.0391  0.2166  0.1027
 1872ntf    sn212947   6.922   5.857   6.845 -0.0510  0.1063 -0.0247
 1872ntf    nn312948   6.971   5.917   6.982 -0.2569  0.2972 -0.0352
 1872ntf    sn212949   7.110   5.967   7.033 -0.0662  0.0432 -0.3039
 1872ntf    cn112950   7.095   6.141   6.982 -0.2456  0.0451 -0.2427
 1872ntf    fn412951   6.880   6.115   6.798  0.0644  0.2030  0.1378
 1872ntf    fn412952   6.770   5.978   6.676  0.4556 -0.2052  0.0043
 1872ntf    fn412953   6.712   6.021   6.874  0.0086  0.1554  0.0792
 1872ntf    on512954   6.830   5.746   6.847  0.0936 -0.0137 -0.0569
 1872ntf    on512955   7.026   5.843   6.746 -0.6352 -0.0046 -0.6292
 1872ntf    on512956   7.227   5.918   6.963 -0.0678 -0.2925 -0.0708
 1872ntf    on512957   7.120   5.978   7.176 -0.2088 -0.4416 -0.2584
 1872ntf    fn412958   7.004   6.200   7.059  0.4409 -0.2577  0.8211
 1872ntf    fn412959   7.211   6.200   7.003 -0.2191 -0.2973  0.5949
 1872ntf    fn412960   7.071   6.159   6.853 -0.1686  0.6217 -0.1804
 1873ntf    cn112961   1.845   6.678   5.109  0.0183  0.0170  0.6478
 1873ntf    sn212962   2.021   6.636   5.120  0.1279  0.1933 -0.3516
 1873ntf    nn312963   2.081   6.766   5.053 -0.1955  0.5231 -0.0056
 1873ntf    sn212964   2.152   6.890   5.117  0.0037  0.3369  0.1342
 1873ntf    cn112965   2.305   6.810   5.174  0.0086  0.1209 -0.1796
 1873ntf    fn412966   1.808   6.801   5.139 -0.0521  0.0249  0.5323
 1873ntf    fn412967   1.794   6.675   4.987  0.3130 -0.2888  0.5288
 1873ntf    fn412968   1.764   6.597   5.176 -0.3273 -0.0118  0.2035
 1873ntf    on512969   2.041   6.612   5.260 -0.9564  0.5548 -0.1305
 1873ntf    on512970   2.034   6.521   5.034 -0.5053 -0.1134 -0.0385
 1873ntf    on512971   2.103   6.944   5.241  0.5447  0.3171  0.3608
 1873ntf    on512972   2.186   6.990   5.019  0.1515  0.2225  0.0687
 1873ntf    fn412973   2.385   6.894   5.238 -0.1397  0.0601  0.0833
 1873ntf    fn412974   2.286   6.714   5.262  0.2137 -0.0974 -0.3720
 1873ntf    fn412975   2.369   6.752   5.073 -0.2416 -0.6015  0.0694
 1874ntf    cn112976   3.993   3.644   2.122 -0.4519 -0.2669 -0.0020
 1874ntf    sn212977   3.837   3.660   2.213 -0.3397  0.3492  0.0823
 1874ntf    nn312978   3.743   3.717   2.100  0.1090  0.1605 -0.3885
 1874ntf    sn212979   3.613   3.803   2.119 -0.0201 -0.1407  0.0981
 1874ntf    cn112980   3.490   3.671   2.095  0.2513 -0.3974  0.1059
 1874ntf    fn412981   3.994   3.552   2.027  0.5676  0.3667 -0.6267
 1874ntf    fn412982   4.022   3.755   2.057 -0.7461 -0.0295  0.2745
 1874ntf    fn412983   4.091   3.606   2.203 -0.0305 -0.5050 -0.6118
 1874ntf    on512984   3.802   3.526   2.252  0.4511  0.2343  0.4094
 1874ntf    on512985   3.867   3.760   2.312  1.0201 -0.3968  0.4424
 1874ntf    on512986   3.591   3.889   2.006 -0.5719 -0.1272  0.2151
 1874ntf    on512987   3.588   3.848   2.254 -0.2153  0.8950 -0.2781
 1874ntf    fn412988   3.374   3.719   2.055  0.2956 -0.1975  0.2164
 1874ntf    fn412989   3.524   3.580   2.006 -0.0753  0.0924 -0.5294
 1874ntf    fn412990   3.464   3.614   2.212  0.3195 -0.2185  0.2083
 1875ntf    cn112991   3.261   0.956   4.594 -0.3412 -0.1943 -0.2132
 1875ntf    sn212992   3.240   0.784   4.537  0.1892 -0.3878  0.1608
 1875ntf    nn312993   3.391   0.750   4.509  0.0588 -0.4077 -0.5373
 1875ntf    sn212994   3.469   0.754   4.372  0.5910 -0.0159 -0.2269
 1875ntf    cn112995   3.421   0.590   4.312 -0.2497 -0.0659  0.5491
 1875ntf    fn412996   3.336   1.017   4.504 -0.4828  0.1354 -0.1061
 1875ntf    fn412997   3.151   1.026   4.608  0.0874  0.3968  0.2454
 1875ntf    fn412998   3.329   0.959   4.708 -0.7203 -0.3166  0.0180
 1875ntf    on512999   3.198   0.718   4.658  0.4404 -0.3149  0.2880
 1875ntf    on513000   3.153   0.797   4.423 -0.1257 -0.5388  0.3856
 1875ntf    on513001   3.607   0.737   4.408  0.4270 -0.3687  0.2411
 1875ntf    on513002   3.428   0.856   4.279  0.8637 -0.0104 -0.3394
 1875ntf    fn413003   3.290   0.572   4.315 -0.2640  0.0670  0.7346
 1875ntf    fn413004   3.462   0.557   4.190  0.1941 -0.1376  0.7149
 1875ntf    fn413005   3.477   0.494   4.384  0.1362 -0.9333 -0.8514
 1876ntf    cn113006   2.884   3.643   3.875 -0.3171 -0.5359  0.0840
 1876ntf    sn213007   2.842   3.571   4.036 -0.2686 -0.0780  0.3037
 1876ntf    nn313008   2.790   3.428   3.997 -0.3044  0.0273 -0.0353
 1876ntf    sn213009   2.862   3.288   3.993  0.2062  0.2970 -0.3976
 1876ntf    cn113010   2.721   3.186   4.045  0.2468  0.5055  0.1307
 1876ntf    fn413011   2.981   3.585   3.804  0.5481  0.6007  0.3087
 1876ntf    fn413012   2.778   3.633   3.797 -0.5138  0.6068  0.1827
 1876ntf    fn413013   2.925   3.768   3.893 -0.3793 -0.2644 -1.5116
 1876ntf    on513014   2.969   3.556   4.104  0.2235  0.1869 -0.5355
 1876ntf    on513015   2.743   3.656   4.097 -0.2786 -0.3747  0.7058
 1876ntf    on513016   2.967   3.266   4.090  0.1403 -0.4383 -0.4892
 1876ntf    on513017   2.903   3.240   3.864  0.7093 -0.6293  0.1001
 1876ntf    fn413018   2.626   3.184   3.953 -0.1566 -0.4828  0.5583
 1876ntf    fn413019   2.742   3.057   4.060 -0.3846  0.4100  0.2122
 1876ntf    fn413020   2.665   3.212   4.162 -0.3419 -0.5493  0.0890
 1877ntf    cn113021   4.200   5.939   3.891 -0.0147 -0.1353  0.0840
 1877ntf    sn213022   4.063   5.961   4.008  0.1343 -0.0672  0.2454
 1877ntf    nn313023   3.949   5.976   3.901 -0.0029 -0.4811  0.3328
 1877ntf    sn213024   3.815   6.058   3.910  0.1692 -0.1222 -0.3188
 1877ntf    cn113025   3.695   5.944   3.835 -0.2848  0.3887 -0.3714
 1877ntf    fn413026   4.314   5.939   3.958  0.2933 -0.4134 -0.4319
 1877ntf    fn413027   4.198   5.829   3.816 -0.0052 -0.1057  0.0400
 1877ntf    fn413028   4.207   6.042   3.808 -0.2754 -0.4259 -0.3072
 1877ntf    on513029   4.071   5.839   4.083  0.0492 -0.0861  0.2237
 1877ntf    on513030   4.100   6.082   4.079  0.6253 -0.0133 -0.0938
 1877ntf    on513031   3.807   6.175   3.826  0.6065  0.2108  0.0896
 1877ntf    on513032   3.760   6.071   4.043 -0.0325  0.3480 -0.4446
 1877ntf    fn413033   3.719   5.822   3.878 -0.1041  0.5755  0.0694
 1877ntf    fn413034   3.573   5.970   3.880 -0.0349  0.0576  0.5013
 1877ntf    fn413035   3.690   5.945   3.703 -0.4575  0.5183 -0.3654
 1878ntf    cn113036   0.565   4.858   2.925  0.0460  0.0122  0.0990
 1878ntf    sn213037   0.503   4.982   3.043 -0.2020 -0.0825  0.0678
 1878ntf    nn313038   0.453   4.887   3.157 -0.2646 -0.6043 -0.3915
 1878ntf    sn213039   0.302   4.855   3.187 -0.2942  0.1565  0.3015
 1878ntf    cn113040   0.248   5.016   3.251 -0.0694  0.3525 -0.0044
 1878ntf    fn413041   0.650   4.911   2.839  0.1585 -0.1639  0.1004
 1878ntf    fn413042   0.630   4.757   2.982  0.3847 -0.0438 -0.3754
 1878ntf    fn413043   0.468   4.807   2.852  0.6143  0.0412 -0.6968
 1878ntf    on513044   0.621   5.057   3.078 -0.2035  0.2518 -0.6100
 1878ntf    on513045   0.410   5.056   2.962 -0.1658  0.1588  0.2464
 1878ntf    on513046   0.286   4.772   3.305  0.2135 -0.1202  0.1825
 1878ntf    on513047   0.216   4.835   3.073  0.2843 -0.2541 -0.0757
 1878ntf    fn413048   0.166   5.011   3.354  0.1477  0.4792  0.1770
 1878ntf    fn413049   0.358   5.082   3.287  0.2162  0.0587 -0.3297
 1878ntf    fn413050   0.198   5.093   3.156  0.0665  0.0911 -0.2902
 1879ntf    cn113051   2.799   4.399   5.642 -0.0084 -0.0390 -0.0960
 1879ntf    sn213052   2.706   4.275   5.738 -0.2179 -0.0175 -0.2705
 1879ntf    nn313053   2.799   4.270   5.864 -0.6746  0.0034  0.0687
 1879ntf    sn213054   2.783   4.341   6.003 -0.0842  0.0088  0.1374
 1879ntf    cn113055   2.897   4.239   6.102  0.0470 -0.1609 -0.1871
 1879ntf    fn413056   2.840   4.352   5.525  0.1377 -0.4411  0.1132
 1879ntf    fn413057   2.722   4.504   5.622 -0.3130 -0.2046  0.1935
 1879ntf    fn413058   2.911   4.437   5.702  0.1954 -0.0134 -0.4905
 1879ntf    on513059   2.578   4.335   5.764  0.1119  0.6294 -0.1178
 1879ntf    on513060   2.719   4.151   5.665  0.0649  0.0024 -0.2553
 1879ntf    on513061   2.659   4.329   6.075  0.0173 -0.0043  0.3105
 1879ntf    on513062   2.843   4.472   6.011  0.5119 -0.2115 -0.5955
 1879ntf    fn413063   2.919   4.295   6.220  0.0391  0.0702 -0.2956
 1879ntf    fn413064   2.835   4.125   6.128 -0.2838  0.0875  0.1409
 1879ntf    fn413065   3.018   4.220   6.053  0.2452  0.5022  0.0251
 1880ntf    cn113066   1.108   6.674   2.819 -0.0197  0.0305 -0.1771
 1880ntf    sn213067   0.958   6.747   2.746 -0.1338 -0.1715 -0.1468
 1880ntf    nn313068   1.026   6.788   2.610  0.2017  0.1855  0.1254
 1880ntf    sn213069   1.001   6.918   2.526 -0.1006  0.2272  0.2775
 1880ntf    cn113070   0.886   6.845   2.406 -0.1345 -0.0490  0.4772
 1880ntf    fn413071   1.091   6.550   2.863 -0.0458  0.0954 -0.0067
 1880ntf    fn413072   1.208   6.669   2.733  0.0913 -0.1512 -0.0390
 1880ntf    fn413073   1.153   6.746   2.920 -0.5056  0.1098 -0.0134
 1880ntf    on513074   0.867   6.636   2.736 -0.0416 -0.2281 -0.3819
 1880ntf    on513075   0.935   6.853   2.841  0.3096 -0.3044  0.1135
 1880ntf    on513076   1.108   6.930   2.430 -0.3256  0.0012 -0.0040
 1880ntf    on513077   0.931   7.038   2.564  0.5638  0.8517 -0.4265
 1880ntf    fn413078   0.946   6.754   2.330  0.2149 -0.0463  0.7507
 1880ntf    fn413079   0.777   6.798   2.465 -0.1349 -0.9694 -0.2224
 1880ntf    fn413080   0.843   6.935   2.319  0.1300 -0.3205  0.0628
 1881ntf    cn113081   5.850   4.486   2.790  0.0718 -0.2735 -0.2639
 1881ntf    sn213082   5.701   4.516   2.689 -0.0886 -0.1668  0.0051
 1881ntf    nn313083   5.587   4.528   2.797 -0.1096  0.1073 -0.0484
 1881ntf    sn213084   5.487   4.420   2.852 -0.1986  0.0574 -0.3084
 1881ntf    cn113085   5.351   4.436   2.732 -0.3935 -0.3584 -0.1426
 1881ntf    fn413086   5.960   4.466   2.720  0.3098 -0.5686  0.1904
 1881ntf    fn413087   5.870   4.593   2.864  0.0030 -0.4866  0.0640
 1881ntf    fn413088   5.840   4.373   2.859 -0.8707 -0.1425 -0.1729
 1881ntf    on513089   5.721   4.646   2.632 -0.5546 -0.1327 -0.0817
 1881ntf    on513090   5.700   4.402   2.601  0.4250 -0.4352  0.3400
 1881ntf    on513091   5.427   4.463   2.976 -0.3221 -0.2909 -0.2486
 1881ntf    on513092   5.525   4.282   2.840 -0.2164 -0.0129  0.4193
 1881ntf    fn413093   5.378   4.384   2.614 -0.0659 -0.7131  0.0878
 1881ntf    fn413094   5.247   4.369   2.780 -0.4413 -0.2807 -0.1369
 1881ntf    fn413095   5.320   4.564   2.721 -0.6236 -0.4183 -0.2132
 1882ntf    cn113096   0.698   5.620   1.828 -0.0225 -0.3868 -0.0766
 1882ntf    sn213097   0.573   5.497   1.779 -0.1521 -0.1960 -0.2247
 1882ntf    nn313098   0.667   5.379   1.736 -0.0756 -0.3141  0.2608
 1882ntf    sn213099   0.704   5.306   1.602 -0.1725  0.1532 -0.0253
 1882ntf    cn113100   0.667   5.133   1.644 -0.0862  0.1247 -0.0689
 1882ntf    fn413101   0.785   5.579   1.919  0.0373 -0.7330 -0.2880
 1882ntf    fn413102   0.764   5.662   1.722  0.0123  0.1333  0.1474
 1882ntf    fn413103   0.650   5.732   1.880  0.5414 -0.0178 -0.3430
 1882ntf    on513104   0.501   5.471   1.901  0.6673  0.0359  0.3179
 1882ntf    on513105   0.499   5.561   1.673  0.2705 -0.2485 -0.5536
 1882ntf    on513106   0.843   5.322   1.567 -0.0409 -0.6873  0.0865
 1882ntf    on513107   0.612   5.333   1.494 -0.4177 -0.7637 -0.0560
 1882ntf    fn413108   0.743   5.103   1.748  0.5357  0.1721 -0.5059
 1882ntf    fn413109   0.542   5.096   1.668 -0.2412  0.2546 -0.6543
 1882ntf    fn413110   0.719   5.069   1.540  0.3464  0.6993 -0.2141
 1883ntf    cn113111   2.591   0.601   4.919 -0.2519 -0.2427  0.3074
 1883ntf    sn213112   2.687   0.704   5.034 -0.2914 -0.2001  0.3018
 1883ntf    nn313113   2.619   0.841   4.996 -0.0271 -0.0641  0.3179
 1883ntf    sn213114   2.620   0.974   5.080 -0.0780  0.2430 -0.1649
 1883ntf    cn113115   2.441   1.004   5.093 -0.0825  0.2153 -0.1580
 1883ntf    fn413116   2.461   0.622   4.930 -0.1022  0.6534  0.4245
 1883ntf    fn413117   2.614   0.636   4.793  0.0363 -0.1404  0.3864
 1883ntf    fn413118   2.617   0.471   4.926 -0.2638 -0.2746 -0.2232
 1883ntf    on513119   2.656   0.647   5.162 -0.5940 -0.2419  0.2103
 1883ntf    on513120   2.823   0.686   4.990 -0.1106  0.4785  0.5598
 1883ntf    on513121   2.660   1.081   4.993 -0.2806  0.3669 -0.1065
 1883ntf    on513122   2.670   0.975   5.215 -0.0928  0.1421 -0.1576
 1883ntf    fn413123   2.395   0.908   5.172 -0.4338  0.4175 -0.1188
 1883ntf    fn413124   2.412   1.123   5.142 -0.4043 -0.1005  0.4365
 1883ntf    fn413125   2.365   0.992   4.986 -0.5754  0.0615  0.2061
 1884ntf    cn113126   0.191   3.391   0.977 -0.1894  0.0252 -0.0925
 1884ntf    sn213127   0.043   3.291   0.940 -0.1700 -0.0150 -0.0622
 1884ntf    nn313128   0.035   3.345   0.793  0.3623  0.0260 -0.0802
 1884ntf    sn213129  -0.099   3.351   0.710  0.1336 -0.1410  0.2740
 1884ntf    cn113130  -0.033   3.327   0.542  0.0510 -0.0557  0.2294
 1884ntf    fn413131   0.270   3.330   1.064 -0.0328  0.2016 -0.1120
 1884ntf    fn413132   0.260   3.409   0.866 -0.2189  0.8237  0.0160
 1884ntf    fn413133   0.152   3.510   1.020  0.0579  0.2192 -0.4011
 1884ntf    on513134   0.077   3.151   0.944 -0.5177 -0.0820  0.6986
 1884ntf    on513135  -0.054   3.337   1.036  0.4252  0.6088  0.2531
 1884ntf    on513136  -0.156   3.483   0.707 -0.0062 -0.2052  0.1220
 1884ntf    on513137  -0.183   3.236   0.733  0.1800 -0.2044  0.1206
 1884ntf    fn413138  -0.129   3.338   0.452  0.0552  0.3337  0.2714
 1884ntf    fn413139   0.071   3.405   0.520 -0.0700  0.0274 -0.0503
 1884ntf    fn413140   0.017   3.206   0.524  0.3725  0.0826  0.1974
 1885ntf    cn113141   6.892   5.900   0.978 -0.1862 -0.0965 -0.0240
 1885ntf    sn213142   6.825   6.029   0.869 -0.2418 -0.1880 -0.0995
 1885ntf    nn313143   6.918   6.146   0.918 -0.0080 -0.4599  0.1107
 1885ntf    sn213144   6.883   6.262   1.018  0.0016 -0.3959  0.0399
 1885ntf    cn113145   6.858   6.188   1.182 -0.6167 -0.0551  0.1027
 1885ntf    fn413146   6.830   5.783   0.966 -0.5992  0.1423 -0.2188
 1885ntf    fn413147   7.021   5.870   0.967  0.0387  0.7859  0.1289
 1885ntf    fn413148   6.878   5.937   1.104  0.6079 -0.0104  0.0439
 1885ntf    on513149   6.852   5.976   0.738  0.4024  0.2380 -0.1379
 1885ntf    on513150   6.688   6.045   0.913 -0.2227 -0.5320  0.0906
 1885ntf    on513151   6.755   6.318   0.981  0.1617 -0.3453 -0.4440
 1885ntf    on513152   6.991   6.357   1.029 -0.3477 -0.0179  0.2369
 1885ntf    fn413153   6.965   6.121   1.222 -0.2122  0.4718 -0.0841
 1885ntf    fn413154   6.841   6.274   1.280  0.0342 -0.5480  0.6531
 1885ntf    fn413155   6.754   6.106   1.188 -0.5148 -0.1500  0.6322
 1886ntf    cn113156   1.914   4.147   4.195 -0.3933  0.1123  0.4358
 1886ntf    sn213157   1.857   4.297   4.108 -0.2290  0.0019  0.1375
 1886ntf    nn313158   1.704   4.295   4.142 -0.2505 -0.0128  0.0398
 1886ntf    sn213159   1.589   4.232   4.057 -0.2190 -0.0606  0.0320
 1886ntf    cn113160   1.566   4.350   3.920 -0.3163  0.2633  0.3287
 1886ntf    fn413161   1.913   4.150   4.327  0.9224 -0.1688  0.4611
 1886ntf    fn413162   1.844   4.041   4.159 -0.8367  0.4852  0.1768
 1886ntf    fn413163   2.038   4.115   4.164 -0.5774 -0.4597  0.2833
 1886ntf    on513164   1.928   4.402   4.177  0.6379 -0.7613  0.4337
 1886ntf    on513165   1.889   4.279   3.969 -0.4764 -0.8059  0.1782
 1886ntf    on513166   1.465   4.235   4.131 -0.4903 -0.5064 -0.3905
 1886ntf    on513167   1.617   4.106   3.993  0.0851 -0.6317  1.2748
 1886ntf    fn413168   1.676   4.367   3.848 -0.3897 -0.3218  0.0764
 1886ntf    fn413169   1.475   4.313   3.832 -0.6093  0.3388  0.5983
 1886ntf    fn413170   1.526   4.465   3.972 -0.2273  0.3007  0.3161
 1887ntf    cn113171   5.140   3.670   3.035  0.5469 -0.2369 -0.0039
 1887ntf    sn213172   5.189   3.844   3.044 -0.3826  0.0434 -0.2673
 1887ntf    nn313173   5.082   3.906   2.946 -0.2163  0.1332 -0.3924
 1887ntf    sn213174   4.970   4.012   2.971 -0.1539  0.1595 -0.2214
 1887ntf    cn113175   5.050   4.145   2.877  0.0312  0.1900 -0.0235
 1887ntf    fn413176   5.166   3.609   2.920  0.1681  0.5917 -0.5383
 1887ntf    fn413177   5.205   3.596   3.123  0.4663 -0.2095  0.0783
 1887ntf    fn413178   5.012   3.651   3.062  0.4108  0.2040 -0.3329
 1887ntf    on513179   5.180   3.866   3.186 -0.4634  0.9300 -0.4036
 1887ntf    on513180   5.323   3.841   2.991 -0.3388 -0.0614 -0.1506
 1887ntf    on513181   4.958   4.055   3.108 -0.0819 -0.4851 -0.0091
 1887ntf    on513182   4.847   3.982   2.901 -0.5806  0.1870  0.5073
 1887ntf    fn413183   5.035   4.127   2.746  0.2989  1.2050 -0.2045
 1887ntf    fn413184   4.993   4.259   2.912  0.3698  0.5611 -0.6512
 1887ntf    fn413185   5.178   4.161   2.905  0.0370  0.2392 -0.0784
 1888ntf    cn113186   6.469   6.341   0.274 -0.1691  0.0835 -0.4126
 1888ntf    sn213187   6.345   6.471   0.243 -0.1655  0.2222  0.1533
 1888ntf    nn313188   6.234   6.382   0.175 -0.1986  0.1060  0.3569
 1888ntf    sn213189   6.151   6.425   0.049  0.1278  0.2386  0.1851
 1888ntf    cn113190   5.984   6.428   0.121 -0.0491  0.3224 -0.2228
 1888ntf    fn413191   6.490   6.263   0.169  0.3187  0.1849 -0.3897
 1888ntf    fn413192   6.583   6.386   0.321 -0.1389 -0.1574 -0.2561
 1888ntf    fn413193   6.430   6.254   0.365 -0.4051  0.2120 -0.3905
 1888ntf    on513194   6.307   6.514   0.375 -0.7106  0.0150  0.0712
 1888ntf    on513195   6.406   6.563   0.151 -0.5066  0.1853 -0.1121
 1888ntf    on513196   6.139   6.314  -0.042 -0.0767  0.2676  0.1765
 1888ntf    on513197   6.174   6.555  -0.008 -0.0662  0.3344  0.3231
 1888ntf    fn413198   5.977   6.523   0.213  0.1436  0.0715  0.0518
 1888ntf    fn413199   5.888   6.453   0.034 -0.6650 -1.2292 -0.0329
 1888ntf    fn413200   5.952   6.314   0.180 -0.1044  0.2627 -0.3674
 1889ntf    cn113201   5.674   4.894   0.138 -0.0500 -0.0046  0.0538
 1889ntf    sn213202   5.735   4.734   0.078  0.4379  0.1282  0.1902
 1889ntf    nn313203   5.705   4.749  -0.076  0.5079 -0.8226  0.0779
 1889ntf    sn213204   5.811   4.768  -0.189  0.2971  0.1836  0.0382
 1889ntf    cn113205   5.847   4.592  -0.219 -0.3696  0.1503 -0.6053
 1889ntf    fn413206   5.703   5.000   0.065 -0.0135 -0.3681 -0.4606
 1889ntf    fn413207   5.542   4.901   0.140 -0.0044  1.0678  0.3573
 1889ntf    fn413208   5.706   4.915   0.265  0.2610 -0.4313  0.0480
 1889ntf    on513209   5.873   4.741   0.120  0.5603 -0.0836 -0.1690
 1889ntf    on513210   5.660   4.632   0.147  0.5886 -0.3555 -0.3504
 1889ntf    on513211   5.932   4.836  -0.150 -0.0162  0.5063  0.4519
 1889ntf    on513212   5.746   4.802  -0.313 -0.4658 -0.6461  0.2066
 1889ntf    fn413213   5.956   4.573  -0.291 -0.0983 -0.3570 -0.0787
 1889ntf    fn413214   5.864   4.535  -0.100  0.2497  0.0599 -0.7308
 1889ntf    fn413215   5.741   4.540  -0.277 -0.0819 -1.2683  0.0844
 1890ntf    cn113216   1.793   1.524   5.990  0.1368 -0.1318  0.3791
 1890ntf    sn213217   1.889   1.647   5.897 -0.0581  0.0396  0.4059
 1890ntf    nn313218   1.969   1.715   6.013  0.1419 -0.4564  0.5603
 1890ntf    sn213219   1.976   1.860   6.074 -0.0958 -0.2521  0.1103
 1890ntf    cn113220   1.909   1.829   6.240  0.0283 -0.0416  0.1993
 1890ntf    fn413221   1.866   1.460   6.081  0.7944 -0.2415 -0.2196
 1890ntf    fn413222   1.692   1.579   6.054 -0.3596  0.0228 -0.5278
 1890ntf    fn413223   1.738   1.437   5.907 -0.2078  0.0147  0.4517
 1890ntf    on513224   1.978   1.568   5.816 -0.4233 -0.1355  0.1705
 1890ntf    on513225   1.796   1.732   5.826 -0.1979 -0.3646  0.1007
 1890ntf    on513226   1.883   1.956   6.022  0.2052 -0.0278 -0.0169
 1890ntf    on513227   2.112   1.904   6.091  0.1203 -0.7159 -0.3936
 1890ntf    fn413228   1.793   1.767   6.251 -0.0611  0.1582  0.4014
 1890ntf    fn413229   1.992   1.749   6.304 -0.0529  0.1041  0.4925
 1890ntf    fn413230   1.901   1.940   6.312  0.4888  0.6225 -0.7529
 1891ntf    cn113231   3.651   0.223   2.603  0.0086 -0.0498 -0.4323
 1891ntf    sn213232   3.742   0.073   2.554 -0.0064 -0.1497 -0.1566
 1891ntf    nn313233   3.638  -0.044   2.557  0.1157 -0.2592 -0.1723
 1891ntf    sn213234   3.503  -0.023   2.480  0.0785  0.1129 -0.0091
 1891ntf    cn113235   3.508  -0.165   2.367 -0.0897  0.1563 -0.0711
 1891ntf    fn413236   3.552   0.207   2.690  0.6370  0.2932  0.3688
 1891ntf    fn413237   3.732   0.313   2.657  0.2945 -0.3748 -0.3133
 1891ntf    fn413238   3.604   0.290   2.499  0.5715  0.6535 -0.2454
 1891ntf    on513239   3.802   0.099   2.426  0.5594  0.7005  0.2653
 1891ntf    on513240   3.847   0.060   2.652  0.2525  0.4068 -0.3512
 1891ntf    on513241   3.485   0.087   2.388 -0.0371  0.2302  0.1521
 1891ntf    on513242   3.391  -0.059   2.563  0.5208 -0.3675  0.3814
 1891ntf    fn413243   3.537  -0.276   2.434  0.0538  0.1205 -0.1920
 1891ntf    fn413244   3.395  -0.183   2.300  0.1080 -0.2972 -0.2848
 1891ntf    fn413245   3.602  -0.155   2.275 -0.1874 -0.0155 -0.1894
 1892ntf    cn113246   5.478   3.204   1.431 -0.1080 -0.2273 -0.1753
 1892ntf    sn213247   5.476   3.027   1.393  0.3734 -0.2940  0.1013
 1892ntf    nn313248   5.361   2.981   1.490 -0.4140  0.3807 -0.4929
 1892ntf    sn213249   5.267   2.856   1.496  0.1597 -0.0441 -0.1262
 1892ntf    cn113250   5.127   2.931   1.406  0.1342 -0.1714 -0.1948
 1892ntf    fn413251   5.381   3.273   1.372 -0.3601  0.1961  0.7127
 1892ntf    fn413252   5.461   3.229   1.560 -0.3757  0.6680 -0.3748
 1892ntf    fn413253   5.589   3.258   1.383 -0.4934  0.5379 -0.2300
 1892ntf    on513254   5.459   3.022   1.250  0.3443 -0.3130  0.1053
 1892ntf    on513255   5.606   2.978   1.432  0.5065 -0.3216 -0.3738
 1892ntf    on513256   5.222   2.830   1.630 -0.3118  0.4494 -0.1873
 1892ntf    on513257   5.287   2.742   1.409  0.5537  0.0305 -0.1312
 1892ntf    fn413258   5.018   2.856   1.405 -0.3138  0.4739 -0.2910
 1892ntf    fn413259   5.079   3.045   1.452 -0.1589 -0.4792  0.2738
 1892ntf    fn413260   5.160   2.957   1.281  0.1562 -0.3709 -0.2303
 1893ntf    cn113261   5.951   2.335   1.036 -0.0267 -0.4637  0.1694
 1893ntf    sn213262   5.824   2.215   1.089 -0.2431 -0.3341 -0.0561
 1893ntf    nn313263   5.921   2.099   1.046 -0.0313 -0.0899 -0.2449
 1893ntf    sn213264   5.999   1.992   1.131  0.1982  0.0795 -0.2395
 1893ntf    cn113265   6.163   2.061   1.095  0.0919  0.2045 -0.4910
 1893ntf    fn413266   6.020   2.287   0.934 -0.3993 -0.2832 -0.1685
 1893ntf    fn413267   5.907   2.447   0.982  0.8332 -0.3110 -0.2302
 1893ntf    fn413268   6.043   2.357   1.128 -0.0061  0.3098 -0.0357
 1893ntf    on513269   5.814   2.253   1.227 -0.6268  0.0271 -0.1809
 1893ntf    on513270   5.707   2.236   1.008  0.0301  0.0347 -0.3600
 1893ntf    on513271   6.003   1.857   1.080 -0.4478  0.0940 -0.3449
 1893ntf    on513272   5.988   1.997   1.274 -0.2953  0.1551 -0.2779
 1893ntf    fn413273   6.263   1.980   1.124 -0.1951  0.2648  0.7069
 1893ntf    fn413274   6.185   2.097   0.970  0.1677  0.1826 -0.4842
 1893ntf    fn413275   6.186   2.170   1.167 -0.3904  0.1102 -0.1874
 1894ntf    cn113276   5.829   6.881   1.540 -0.2163  0.4175  0.2123
 1894ntf    sn213277   5.768   6.784   1.399  0.1825 -0.0523  0.3598
 1894ntf    nn313278   5.862   6.818   1.278  0.1926 -0.0948  0.3560
 1894ntf    sn213279   6.019   6.816   1.281  0.2018  0.0580  0.0739
 1894ntf    cn113280   6.056   6.674   1.173  0.2160  0.1910 -0.0967
 1894ntf    fn413281   5.740   6.900   1.635 -0.2489  0.1226  0.2430
 1894ntf    fn413282   5.936   6.824   1.594 -0.2229  0.4917  0.3023
 1894ntf    fn413283   5.857   7.005   1.503 -0.7837  0.4666 -0.0754
 1894ntf    on513284   5.771   6.646   1.441  0.4937 -0.1845 -0.0788
 1894ntf    on513285   5.640   6.843   1.369  0.4361  0.4710  0.3020
 1894ntf    on513286   6.099   6.795   1.399 -0.5955  0.2966  0.6691
 1894ntf    on513287   6.063   6.929   1.203  0.2095  0.2835  0.4040
 1894ntf    fn413288   6.020   6.694   1.048  0.5581 -0.5258 -0.3112
 1894ntf    fn413289   6.185   6.644   1.181  0.1479 -0.1025 -0.0860
 1894ntf    fn413290   5.996   6.563   1.213  0.5606  0.0059 -0.0898
 1895ntf    cn113291   1.379   6.221   6.682 -0.0482  0.1001  0.1348
 1895ntf    sn213292   1.495   6.309   6.573 -0.0248 -0.0159  0.0650
 1895ntf    nn313293   1.496   6.208   6.453 -0.3245  0.4400 -0.3234
 1895ntf    sn213294   1.613   6.161   6.360  0.0283 -0.0938  0.3810
 1895ntf    cn113295   1.578   6.275   6.222  0.2210 -0.2574  0.1957
 1895ntf    fn413296   1.412   6.093   6.696 -0.8498 -0.1371 -0.0801
 1895ntf    fn413297   1.382   6.272   6.804  0.0594 -0.0189  0.1829
 1895ntf    fn413298   1.255   6.218   6.635  0.1153 -0.7341 -0.2750
 1895ntf    on513299   1.425   6.431   6.542 -0.1847 -0.1784 -0.2088
 1895ntf    on513300   1.617   6.322   6.650  0.0219 -0.2278  0.0277
 1895ntf    on513301   1.580   6.030   6.309  0.1875 -0.0481  0.1580
 1895ntf    on513302   1.746   6.192   6.406 -0.0057  0.5575  0.0583
 1895ntf    fn413303   1.449   6.286   6.196  0.1786 -0.2752  0.3933
 1895ntf    fn413304   1.619   6.398   6.248  0.4708 -0.3252  0.1213
 1895ntf    fn413305   1.636   6.232   6.111  0.6729  0.1920  0.2550
 1896ntf    cn113306   6.514   2.248   6.177  0.1195  0.0989  0.5714
 1896ntf    sn213307   6.339   2.243   6.227 -0.0861  0.1837 -0.1359
 1896ntf    nn313308   6.334   2.105   6.301 -0.0727  0.0452 -0.3895
 1896ntf    sn213309   6.267   1.971   6.254 -0.1627 -0.1230  0.2116
 1896ntf    cn113310   6.092   2.017   6.250 -0.0522  0.2349 -0.5458
 1896ntf    fn413311   6.538   2.136   6.112 -0.5849  0.4249 -0.2652
 1896ntf    fn413312   6.554   2.353   6.107 -0.2370 -0.0621  0.1227
 1896ntf    fn413313   6.592   2.243   6.283  0.7431 -1.2754  0.0679
 1896ntf    on513314   6.331   2.354   6.319  0.5143 -0.0166  0.1605
 1896ntf    on513315   6.270   2.252   6.100  0.2702 -0.0096 -0.3453
 1896ntf    on513316   6.282   1.873   6.360 -0.0850 -0.4901 -0.1378
 1896ntf    on513317   6.301   1.937   6.118  0.1319 -0.7192  0.4260
 1896ntf    fn413318   6.034   2.027   6.369  0.5451  0.0383 -0.2368
 1896ntf    fn413319   6.069   2.133   6.191 -0.2653  0.4995  0.0499
 1896ntf    fn413320   6.025   1.933   6.173 -0.4006 -0.1428  0.1620
 1897ntf    cn113321   6.080   6.210   2.234 -0.1480 -0.0685 -0.2640
 1897ntf    sn213322   6.159   6.056   2.291  0.3327  0.0929 -0.4880
 1897ntf    nn313323   6.169   6.087   2.445  0.1501 -0.4010 -0.3758
 1897ntf    sn213324   6.284   6.058   2.547  0.3349  0.4103 -0.3475
 1897ntf    cn113325   6.190   6.028   2.699  0.6655 -0.2770 -0.2748
 1897ntf    fn413326   6.073   6.226   2.103  0.0494 -0.1470 -0.2849
 1897ntf    fn413327   5.959   6.207   2.287 -0.0861 -0.6776 -0.1517
 1897ntf    fn413328   6.154   6.310   2.279 -0.0673 -0.1092 -0.3061
 1897ntf    on513329   6.077   5.942   2.257  0.2783 -0.0968  0.2673
 1897ntf    on513330   6.283   6.061   2.218  0.3528  0.8621 -0.4088
 1897ntf    on513331   6.365   6.173   2.580  0.1692  0.6156 -0.6422
 1897ntf    on513332   6.356   5.934   2.529  0.0857  0.2402 -0.1754
 1897ntf    fn413333   6.113   6.132   2.724  0.0516 -0.5885 -0.8724
 1897ntf    fn413334   6.120   5.916   2.705 -0.5452  0.4568 -0.4404
 1897ntf    fn413335   6.277   6.030   2.799  0.3525 -0.2045 -0.0008
 1898ntf    cn113336   5.640   1.957   4.047  0.2469  0.0215 -0.0647
 1898ntf    sn213337   5.803   1.879   4.063  0.1289 -0.1958  0.0884
 1898ntf    nn313338   5.901   2.000   4.083  0.1056 -0.2229  0.3713
 1898ntf    sn213339   6.012   2.046   3.981 -0.4361  0.0149 -0.1129
 1898ntf    cn113340   5.915   2.160   3.877  0.0037  0.5489  0.0573
 1898ntf    fn413341   5.624   2.007   3.925 -0.3067  0.0689  0.0249
 1898ntf    fn413342   5.544   1.869   4.072  0.1881  0.2204  0.4142
 1898ntf    fn413343   5.628   2.054   4.136 -0.2030 -0.0658 -0.0248
 1898ntf    on513344   5.799   1.808   4.188 -0.2156 -0.8313 -0.2761
 1898ntf    on513345   5.811   1.799   3.943 -0.3621  0.2184 -0.2256
 1898ntf    on513346   6.069   1.947   3.894  0.4505  0.0835  0.3790
 1898ntf    on513347   6.105   2.133   4.049 -0.9016  0.5371 -0.1245
 1898ntf    fn413348   5.815   2.094   3.821  0.3325  0.1973 -0.1156
 1898ntf    fn413349   5.868   2.254   3.958 -1.1387  0.0869 -0.0498
 1898ntf    fn413350   5.982   2.218   3.779  0.1412  0.0306 -0.1582
 1899ntf    cn113351   2.122   4.372   1.269 -0.2079 -0.2490  0.0252
 1899ntf    sn213352   2.130   4.378   1.450  0.1489 -0.4592  0.0162
 1899ntf    nn313353   1.985   4.433   1.474  0.2451 -0.2034  0.0039
 1899ntf    sn213354   1.937   4.582   1.484 -0.2037 -0.3541  0.0998
 1899ntf    cn113355   1.849   4.605   1.327  0.2513  0.0551 -0.0971
 1899ntf    fn413356   2.122   4.493   1.215 -0.1051 -0.1650  0.2136
 1899ntf    fn413357   2.219   4.309   1.206  0.0090 -0.0404  0.1471
 1899ntf    fn413358   2.007   4.319   1.231 -0.3517  0.0986 -0.0365
 1899ntf    on513359   2.135   4.242   1.498  0.1329 -0.0693  1.1625
 1899ntf    on513360   2.237   4.470   1.479 -0.1872 -0.0552 -0.0117
 1899ntf    on513361   2.030   4.691   1.467  0.0617 -0.5050  0.5627
 1899ntf    on513362   1.829   4.593   1.579 -0.0316  0.1128  0.2473
 1899ntf    fn413363   1.919   4.610   1.215 -0.3346  0.2316 -0.4612
 1899ntf    fn413364   1.763   4.508   1.300 -0.2800  0.5290 -0.1285
 1899ntf    fn413365   1.770   4.710   1.345  0.4061  0.1117  0.2738
 1900ntf    cn113366   1.624   4.945   4.323 -0.1882  0.4132  0.1579
 1900ntf    sn213367   1.498   5.073   4.352 -0.2298  0.3858  0.0993
 1900ntf    nn313368   1.373   4.990   4.399  0.1561 -0.0445  0.3812
 1900ntf    sn213369   1.253   4.942   4.309  0.4080 -0.3216  0.1947
 1900ntf    cn113370   1.152   5.092   4.315  0.0837 -0.5153 -0.3592
 1900ntf    fn413371   1.726   4.990   4.252 -0.0670 -0.0678  0.0213
 1900ntf    fn413372   1.677   4.893   4.432  0.3412 -0.5859 -0.5594
 1900ntf    fn413373   1.569   4.843   4.259  0.5614 -0.1453  0.3951
 1900ntf    on513374   1.552   5.142   4.467 -0.1339  0.3316  0.0870
 1900ntf    on513375   1.500   5.156   4.235 -0.0491  0.4971  0.1825
 1900ntf    on513376   1.169   4.843   4.372  0.4547 -0.3852  0.1582
 1900ntf    on513377   1.282   4.919   4.170 -0.0934 -0.1505  0.0625
 1900ntf    fn413378   1.194   5.182   4.228 -0.3798  0.6981  0.6358
 1900ntf    fn413379   1.026   5.059   4.291  0.1524 -0.4016 -0.8947
 1900ntf    fn413380   1.159   5.141   4.438 -0.0857  0.0993 -0.5896
 1901ntf    cn113381   6.800   1.585   1.176 -0.1118  0.1616 -0.3713
 1901ntf    sn213382   6.646   1.681   1.191 -0.1167  0.1270 -0.1970
 1901ntf    nn313383   6.627   1.732   1.043  0.4515  0.0384 -0.3022
 1901ntf    sn213384   6.549   1.674   0.920  0.0654 -0.2028  0.0552
 1901ntf    cn113385   6.404   1.784   0.912  0.1122 -0.1337  0.1444
 1901ntf    fn413386   6.905   1.658   1.145 -0.2252  0.3460 -0.3261
 1901ntf    fn413387   6.832   1.523   1.289 -0.5140  0.1263 -0.2744
 1901ntf    fn413388   6.791   1.496   1.079  0.0942 -0.4725  0.1854
 1901ntf    on513389   6.550   1.585   1.239  0.3223 -0.3806 -0.3270
 1901ntf    on513390   6.685   1.786   1.282  0.3603 -0.3917  0.2018
 1901ntf    on513391   6.501   1.538   0.928 -0.6048  0.0513  0.4664
 1901ntf    on513392   6.622   1.711   0.802 -0.0711 -0.0000  0.0339
 1901ntf    fn413393   6.332   1.776   1.023  0.0443 -0.3758  0.0842
 1901ntf    fn413394   6.434   1.908   0.879  0.4984 -0.1576  0.4075
 1901ntf    fn413395   6.320   1.741   0.819 -0.2042  1.2784 -0.2355
 1902ntf    cn113396   2.492   5.053   1.359  0.1142 -0.1293  0.2463
 1902ntf    sn213397   2.339   5.114   1.434  0.0513 -0.1011  0.0941
 1902ntf    nn313398   2.390   5.174   1.570  0.2789  0.1127 -0.0847
 1902ntf    sn213399   2.420   5.322   1.612 -0.1380  0.1314  0.1465
 1902ntf    cn113400   2.276   5.359   1.717 -0.2119  0.1729  0.0311
 1902ntf    fn413401   2.586   5.143   1.337 -0.1725  0.1284  0.0696
 1902ntf    fn413402   2.541   4.952   1.430 -0.2012 -0.1173  0.4845
 1902ntf    fn413403   2.475   5.001   1.238 -0.0812 -0.2149  0.3095
 1902ntf    on513404   2.291   5.213   1.340 -0.3176 -0.2260  0.1474
 1902ntf    on513405   2.262   4.993   1.441  0.2075 -0.1942  0.1882
 1902ntf    on513406   2.410   5.425   1.512  0.0789 -0.9177 -0.9715
 1902ntf    on513407   2.532   5.329   1.703  0.1256  0.1643 -0.1800
 1902ntf    fn413408   2.277   5.336   1.847  0.3268  0.3920  0.0662
 1902ntf    fn413409   2.246   5.487   1.721  0.3429  0.2871  0.5797
 1902ntf    fn413410   2.166   5.301   1.669 -0.3482 -0.1559  0.7234
 1903ntf    cn113411   2.827   4.353   0.838 -0.0418 -0.1989  0.0450
 1903ntf    sn213412   2.804   4.527   0.789 -0.2913 -0.2939 -0.1783
 1903ntf    nn313413   2.702   4.516   0.670 -0.1098 -0.0421 -0.3598
 1903ntf    sn213414   2.728   4.491   0.518 -0.3533  0.1235 -0.4281
 1903ntf    cn113415   2.699   4.652   0.439 -0.4079  0.3709  0.0943
 1903ntf    fn413416   2.877   4.289   0.734  0.2421  0.3479 -0.1639
 1903ntf    fn413417   2.899   4.342   0.948  0.1780  0.1918 -0.0553
 1903ntf    fn413418   2.713   4.289   0.856 -0.4487  0.5284  0.1218
 1903ntf    on513419   2.747   4.594   0.903 -0.0008 -0.1922 -0.0900
 1903ntf    on513420   2.934   4.582   0.756 -0.0166 -0.4217  0.6657
 1903ntf    on513421   2.620   4.412   0.462 -0.9086  0.5420  0.0421
 1903ntf    on513422   2.861   4.449   0.480 -0.2888 -0.1427  0.0818
 1903ntf    fn413423   2.709   4.648   0.307  0.7258 -0.1867  0.1836
 1903ntf    fn413424   2.583   4.707   0.470 -0.7328 -0.2514 -0.0015
 1903ntf    fn413425   2.791   4.743   0.467 -0.0396  0.0869 -0.1835
 1904ntf    cn113426   1.569   1.171   2.808  0.3177  0.0391  0.0860
 1904ntf    sn213427   1.465   1.072   2.920  0.0795  0.0131 -0.1549
 1904ntf    nn313428   1.530   1.110   3.058 -0.1520  0.1027 -0.0701
 1904ntf    sn213429   1.459   1.110   3.198 -0.1047 -0.3268 -0.0422
 1904ntf    cn113430   1.522   0.965   3.286 -0.0683 -0.6061 -0.5225
 1904ntf    fn413431   1.561   1.301   2.830  0.1001  0.0204  0.1253
 1904ntf    fn413432   1.693   1.129   2.825  0.3536  0.1836  0.1789
 1904ntf    fn413433   1.528   1.142   2.685  0.2597 -0.0287  0.1208
 1904ntf    on513434   1.330   1.116   2.898  0.0526  0.0502  0.0767
 1904ntf    on513435   1.499   0.937   2.883 -0.3110 -0.1939  0.2412
 1904ntf    on513436   1.317   1.089   3.185 -0.3144  0.9007  0.0915
 1904ntf    on513437   1.499   1.224   3.277 -0.1361 -0.2800 -0.0933
 1904ntf    fn413438   1.485   0.851   3.231 -0.1920 -0.8912  0.1351
 1904ntf    fn413439   1.654   0.975   3.284 -0.0947  0.1392  0.3917
 1904ntf    fn413440   1.478   0.963   3.411 -0.3784 -0.1945 -0.6244
 1905ntf    cn113441   6.354   3.073   6.671 -0.0475 -0.1973  0.0814
 1905ntf    sn213442   6.425   3.200   6.561 -0.1278 -0.1167  0.1229
 1905ntf    nn313443   6.553   3.235   6.645  0.2116 -0.2030 -0.3530
 1905ntf    sn213444   6.672   3.336   6.634  0.1903 -0.1302  0.0590
 1905ntf    cn113445   6.604   3.474   6.732  0.0003  0.0806 -0.3643
 1905ntf    fn413446   6.246   3.019   6.619 -0.2778 -0.1711  0.5305
 1905ntf    fn413447   6.448   2.985   6.703  0.1578  0.0321  0.1104
 1905ntf    fn413448   6.313   3.122   6.786  0.2705  0.0511  0.0921
 1905ntf    on513449   6.437   3.125   6.439  0.1198 -0.1316  0.1561
 1905ntf    on513450   6.323   3.302   6.561  0.1328  0.1483 -0.2484
 1905ntf    on513451   6.696   3.391   6.503 -0.3102 -0.2034 -0.0655
 1905ntf    on513452   6.781   3.300   6.721  0.7036  0.5627 -0.2831
 1905ntf    fn413453   6.672   3.584   6.707 -0.6101  0.3824 -0.6982
 1905ntf    fn413454   6.475   3.494   6.710 -0.1045  0.1945  0.3269
 1905ntf    fn413455   6.608   3.444   6.861  0.3308  0.3877 -0.3008
 1906ntf    cn113456   5.475   2.010   5.825 -0.7771 -0.3069 -0.0225
 1906ntf    sn213457   5.554   2.071   5.672 -0.2496  0.2019  0.4469
 1906ntf    nn313458   5.627   1.941   5.624 -0.4030  0.3142 -0.0998
 1906ntf    sn213459   5.763   1.925   5.547 -0.5127 -0.3675 -0.1618
 1906ntf    cn113460   5.878   1.909   5.687 -0.0476  0.3559 -0.4551
 1906ntf    fn413461   5.551   1.931   5.899 -0.2612 -0.1510 -0.3739
 1906ntf    fn413462   5.434   2.111   5.899 -0.6505 -0.5458  0.3793
 1906ntf    fn413463   5.370   1.934   5.797 -0.3319 -0.9722  0.0855
 1906ntf    on513464   5.437   2.104   5.595  0.1571 -0.2471 -0.3718
 1906ntf    on513465   5.635   2.182   5.714  0.1437  0.0164  0.1879
 1906ntf    on513466   5.808   2.037   5.467  0.1641 -0.4527  0.0955
 1906ntf    on513467   5.762   1.791   5.494 -0.0745 -0.5423  0.2588
 1906ntf    fn413468   5.873   2.013   5.769 -0.0919 -0.2086  0.2716
 1906ntf    fn413469   5.840   1.805   5.759 -0.2130  0.4967 -0.3362
 1906ntf    fn413470   6.000   1.900   5.637 -0.0278 -0.1172 -0.3247
 1907ntf    cn113471   3.668   6.808   6.473 -0.0197  0.1985  0.2961
 1907ntf    sn213472   3.588   6.650   6.434  0.2687  0.1480 -0.0873
 1907ntf    nn313473   3.669   6.603   6.307 -0.4382  0.2941 -0.5968
 1907ntf    sn213474   3.679   6.460   6.243  0.0798 -0.0134  0.1528
 1907ntf    cn113475   3.856   6.450   6.204  0.0201 -0.1757 -0.0848
 1907ntf    fn413476   3.607   6.873   6.571 -0.0031 -0.0872  0.4956
 1907ntf    fn413477   3.793   6.799   6.514  0.0275 -0.2704  0.0466
 1907ntf    fn413478   3.674   6.899   6.377 -0.5168 -0.5348 -0.4431
 1907ntf    on513479   3.599   6.571   6.554 -0.3174 -0.3583 -0.3575
 1907ntf    on513480   3.456   6.687   6.389  0.4201 -0.0595 -0.7195
 1907ntf    on513481   3.617   6.455   6.113  0.0389 -0.0845  0.1749
 1907ntf    on513482   3.657   6.355   6.339 -0.4138  0.0398  0.1026
 1907ntf    fn413483   3.932   6.505   6.298  0.7539 -0.4568 -0.5077
 1907ntf    fn413484   3.899   6.329   6.172 -0.1426 -0.2291 -0.0988
 1907ntf    fn413485   3.881   6.525   6.097 -0.6329  0.7144  0.3679
 1908ntf    cn113486   4.449   2.798   1.769  0.5012  0.1463  0.0570
 1908ntf    sn213487   4.412   2.840   1.596 -0.4228  0.1175  0.2426
 1908ntf    nn313488   4.509   2.738   1.525 -0.6548  0.0177  0.0666
 1908ntf    sn213489   4.573   2.732   1.382 -0.2660 -0.2229  0.2512
 1908ntf    cn113490   4.745   2.766   1.431 -0.2017 -0.2766  0.0647
 1908ntf    fn413491   4.468   2.668   1.780  0.0535  0.0619 -0.1341
 1908ntf    fn413492   4.561   2.852   1.815  0.4974  0.2512 -0.0544
 1908ntf    fn413493   4.345   2.834   1.843  0.2389  0.1077 -0.2912
 1908ntf    on513494   4.271   2.819   1.578 -0.4183 -0.0726  0.4170
 1908ntf    on513495   4.454   2.977   1.583 -0.1432 -0.0071 -0.1923
 1908ntf    on513496   4.526   2.835   1.293  0.1612 -0.0533  0.2189
 1908ntf    on513497   4.577   2.598   1.329  0.0264 -0.2698  0.3869
 1908ntf    fn413498   4.824   2.788   1.327 -0.1256  0.0216  0.1837
 1908ntf    fn413499   4.750   2.876   1.505 -0.2007 -0.3233  0.1345
 1908ntf    fn413500   4.802   2.671   1.504 -0.4984 -0.1360  0.4804
 1909ntf    cn113501   0.818   5.598   0.908 -0.2852  0.2740  0.1064
 1909ntf    sn213502   0.683   5.490   0.965  0.0023 -0.0812  0.1157
 1909ntf    nn313503   0.558   5.556   0.897  0.0349 -0.1998 -0.0616
 1909ntf    sn213504   0.436   5.490   0.825 -0.0245 -0.0253 -0.1228
 1909ntf    cn113505   0.478   5.520   0.651 -0.0898 -0.2843 -0.1840
 1909ntf    fn413506   0.836   5.612   0.778 -0.1015  0.5861  0.1653
 1909ntf    fn413507   0.785   5.718   0.950 -0.7064  0.1511  0.1302
 1909ntf    fn413508   0.939   5.569   0.952 -0.3523 -0.4231 -0.1509
 1909ntf    on513509   0.717   5.363   0.905  0.3237 -0.2522  0.6506
 1909ntf    on513510   0.677   5.511   1.107  0.0582  0.5951  0.0216
 1909ntf    on513511   0.320   5.574   0.842  0.0877  0.0543  0.2619
 1909ntf    on513512   0.422   5.346   0.827 -0.0482 -0.0170  0.4032
 1909ntf    fn413513   0.601   5.483   0.620  0.1446  0.4269 -0.1026
 1909ntf    fn413514   0.400   5.464   0.560 -0.6867 -0.2879  0.3237
 1909ntf    fn413515   0.484   5.649   0.623  0.1681 -0.2691 -0.0572
 1910ntf    cn113516   0.107   0.054   1.758 -0.4183  0.4819 -0.2960
 1910ntf    sn213517   0.064  -0.119   1.723  0.1712  0.2725  0.0001
 1910ntf    nn313518  -0.093  -0.112   1.712  0.2026  0.7538 -0.1968
 1910ntf    sn213519  -0.187  -0.107   1.586  0.1632 -0.0782 -0.2078
 1910ntf    cn113520  -0.164  -0.274   1.518  0.2152 -0.3799  0.5374
 1910ntf    fn413521   0.062   0.095   1.876  0.2096 -0.0133  0.1173
 1910ntf    fn413522   0.237   0.075   1.763 -0.3270 -0.1686  0.1399
 1910ntf    fn413523   0.066   0.135   1.661 -0.7424 -0.0829 -0.6354
 1910ntf    on513524   0.138  -0.159   1.606  0.0664  0.3664 -0.0995
 1910ntf    on513525   0.103  -0.182   1.846  0.5042  0.4181 -0.0308
 1910ntf    on513526  -0.146  -0.024   1.476  0.0410 -0.2623 -0.3924
 1910ntf    on513527  -0.329  -0.102   1.611  0.1972 -0.6271  0.1248
 1910ntf    fn413528  -0.241  -0.286   1.411  0.6065  1.1844  0.0540
 1910ntf    fn413529  -0.037  -0.288   1.482  0.0108  0.3090 -0.4929
 1910ntf    fn413530  -0.193  -0.369   1.605 -0.3182 -0.3437  0.4004
 1911ntf    cn113531   0.767   2.884   3.699 -0.4822 -0.0566  0.3417
 1911ntf    sn213532   0.879   2.843   3.837 -0.1145 -0.0008  0.0613
 1911ntf    nn313533   0.838   2.692   3.844 -0.0502 -0.0132  0.1616
 1911ntf    sn213534   0.914   2.579   3.767 -0.0434  0.0753  0.0392
 1911ntf    cn113535   1.040   2.537   3.891 -0.2440  0.0948  0.2499
 1911ntf    fn413536   0.646   2.833   3.719 -0.6585 -0.1479 -0.8974
 1911ntf    fn413537   0.738   3.009   3.666  0.2778 -0.1277 -0.6551
 1911ntf    fn413538   0.810   2.835   3.584 -0.2520  0.3663  0.2459
 1911ntf    on513539   1.011   2.872   3.788 -0.3322  0.8960 -0.0246
 1911ntf    on513540   0.830   2.916   3.951  0.5492  0.5852 -0.0172
 1911ntf    on513541   0.981   2.620   3.646  0.5718 -0.2096  0.2783
 1911ntf    on513542   0.836   2.459   3.755 -0.0694  0.0619  0.3498
 1911ntf    fn413543   1.125   2.447   3.843  0.1945  0.4406  0.3746
 1911ntf    fn413544   1.119   2.637   3.926  0.0257 -0.0628  0.0903
 1911ntf    fn413545   0.984   2.482   3.998  0.3640 -0.5246  0.2593
 1912ntf    cn113546   4.125   3.500   0.345  0.4672  0.3868 -0.3429
 1912ntf    sn213547   4.093   3.343   0.431  0.4573  0.4523 -0.2286
 1912ntf    nn313548   3.996   3.275   0.329  0.6420  0.0420 -0.1303
 1912ntf    sn213549   3.970   3.125   0.288 -0.0474  0.2056 -0.3108
 1912ntf    cn113550   4.029   3.137   0.117  0.4830  0.1780 -0.1319
 1912ntf    fn413551   4.013   3.570   0.332 -0.0329 -0.1800  0.7978
 1912ntf    fn413552   4.213   3.575   0.409  0.0938  0.5154  0.0206
 1912ntf    fn413553   4.175   3.482   0.224 -0.0922 -0.4433 -0.4596
 1912ntf    on513554   4.226   3.288   0.440  0.3816  0.3454  0.3232
 1912ntf    on513555   4.023   3.386   0.550 -0.4111  0.2655 -0.6700
 1912ntf    on513556   3.831   3.091   0.276 -0.1272  0.4002  0.0356
 1912ntf    on513557   4.053   3.029   0.355 -0.5140  0.2691  0.3696
 1912ntf    fn413558   4.143   3.201   0.099  0.1090  0.9797  0.3141
 1912ntf    fn413559   4.045   3.012   0.077 -0.1163  0.1182 -0.1961
 1912ntf    fn413560   3.950   3.202   0.033 -0.2880 -0.5194  0.0493
 1913ntf    cn113561   6.605   5.840   4.176  0.4860  0.4057  0.1176
 1913ntf    sn213562   6.653   5.795   4.345  0.1296 -0.3047  0.0372
 1913ntf    nn313563   6.669   5.639   4.341  0.2735 -0.2993  0.3722
 1913ntf    sn213564   6.774   5.554   4.421  0.7470  0.1814  0.2690
 1913ntf    cn113565   6.914   5.541   4.305  0.2111 -0.2488 -0.3307
 1913ntf    fn413566   6.482   5.802   4.143  0.7097  0.3575 -0.6750
 1913ntf    fn413567   6.607   5.971   4.164  0.2725  0.4029  0.0491
 1913ntf    fn413568   6.688   5.790   4.086  0.0194  0.0795 -0.1364
 1913ntf    on513569   6.771   5.876   4.366 -0.3185  0.3330  0.1241
 1913ntf    on513570   6.537   5.821   4.427  0.3028  0.6912 -0.0207
 1913ntf    on513571   6.733   5.416   4.432 -0.0561  0.3794 -0.1824
 1913ntf    on513572   6.817   5.614   4.545 -0.3828  0.1984  0.6655
 1913ntf    fn413573   6.982   5.653   4.294 -0.4144  0.1676 -0.0054
 1913ntf    fn413574   7.007   5.465   4.359  0.5072  0.1433 -0.2896
 1913ntf    fn413575   6.894   5.498   4.181  0.0702 -0.1526 -0.3411
 1914ntf    cn113576   5.351   5.463   6.075 -0.5348 -0.0636 -0.1611
 1914ntf    sn213577   5.285   5.547   5.928 -0.0303 -0.0158 -0.3624
 1914ntf    nn313578   5.168   5.631   5.992  0.1130 -0.2994  0.2783
 1914ntf    sn213579   5.189   5.764   6.072  0.0789  0.0069 -0.2197
 1914ntf    cn113580   5.168   5.711   6.244 -0.2443  0.6552 -0.0536
 1914ntf    fn413581   5.409   5.548   6.158 -1.0031  0.1430 -0.0435
 1914ntf    fn413582   5.263   5.390   6.141 -0.0151 -0.7170 -0.1895
 1914ntf    fn413583   5.442   5.370   6.054  0.1915  0.7313 -0.6140
 1914ntf    on513584   5.403   5.613   5.878  0.0533  0.3497  0.3120
 1914ntf    on513585   5.239   5.449   5.833  0.0849  0.2538 -0.6991
 1914ntf    on513586   5.075   5.851   6.054 -0.1106 -0.1329  0.2960
 1914ntf    on513587   5.317   5.829   6.064  0.4329 -0.6599 -0.0322
 1914ntf    fn413588   5.048   5.733   6.294 -0.3992  0.0432 -0.1475
 1914ntf    fn413589   5.189   5.580   6.252  0.0574  0.7661  1.3299
 1914ntf    fn413590   5.252   5.766   6.330  0.0988  0.1227 -0.0378
 1915ntf    cn113591   5.540   6.254   1.926  0.1113 -0.0610 -0.0488
 1915ntf    sn213592   5.629   6.341   2.058  0.0049  0.1837 -0.1371
 1915ntf    nn313593   5.649   6.480   1.988 -0.2923  0.0879 -0.4106
 1915ntf    sn213594   5.547   6.600   1.978 -0.0727  0.2904 -0.2181
 1915ntf    cn113595   5.662   6.733   2.025  0.0573  0.0881  0.0395
 1915ntf    fn413596   5.508   6.129   1.955 -0.1847 -0.0071 -0.1382
 1915ntf    fn413597   5.429   6.320   1.897  0.1241 -0.2190 -0.4724
 1915ntf    fn413598   5.612   6.245   1.815 -0.3071  0.0026 -0.3274
 1915ntf    on513599   5.544   6.344   2.175 -0.2517 -0.3304 -0.3073
 1915ntf    on513600   5.754   6.270   2.070 -0.0930  0.0515  0.1120
 1915ntf    on513601   5.448   6.617   2.081  0.2258  0.3806  0.0566
 1915ntf    on513602   5.512   6.639   1.844  0.3568 -0.0888 -0.4452
 1915ntf    fn413603   5.685   6.720   2.155 -0.2707 -0.3879  0.0512
 1915ntf    fn413604   5.772   6.733   1.953  0.1680 -0.0258  0.2068
 1915ntf    fn413605   5.612   6.855   2.017 -0.3912 -0.0833  0.1681
 1916ntf    cn113606   1.285   2.226   4.022  0.3619  0.3089  0.3449
 1916ntf    sn213607   1.433   2.258   3.922 -0.0353  0.1798 -0.2923
 1916ntf    nn313608   1.552   2.208   4.012 -0.2126  0.3849  0.0583
 1916ntf    sn213609   1.683   2.281   4.058 -0.2000  0.3386  0.0951
 1916ntf    cn113610   1.728   2.145   4.170 -0.0338  0.3228  0.0091
 1916ntf    fn413611   1.246   2.100   4.011 -0.4721  0.6267 -0.4991
 1916ntf    fn413612   1.302   2.250   4.150  0.5772 -0.3891  0.4542
 1916ntf    fn413613   1.181   2.301   3.989  0.0149 -0.2509  0.1469
 1916ntf    on513614   1.425   2.167   3.811  0.3216 -0.0652 -0.1181
 1916ntf    on513615   1.431   2.400   3.898  0.3259  0.2442  0.0470
 1916ntf    on513616   1.668   2.393   4.147 -0.1889  0.2285  0.2368
 1916ntf    on513617   1.790   2.290   3.962 -0.4531 -0.4738 -0.2755
 1916ntf    fn413618   1.626   2.126   4.253  0.0337 -0.2353 -0.0306
 1916ntf    fn413619   1.747   2.030   4.107  0.0421 -0.0021  0.6180
 1916ntf    fn413620   1.838   2.163   4.241 -0.2109  0.3941  0.2674
 1917ntf    cn113621   2.222   4.132   6.825  0.5957  0.2966  0.2215
 1917ntf    sn213622   2.262   3.959   6.787  0.2051  0.2241  0.1358
 1917ntf    nn313623   2.336   3.925   6.921  0.1459  0.1593  0.1520
 1917ntf    sn213624   2.323   3.794   7.006  0.0181  0.1436  0.1091
 1917ntf    cn113625   2.191   3.836   7.123  0.1048  0.4399  0.0999
 1917ntf    fn413626   2.190   4.196   6.714 -0.0017  0.1048  0.2779
 1917ntf    fn413627   2.130   4.152   6.918  0.0650  0.7569 -0.3894
 1917ntf    fn413628   2.329   4.193   6.873  0.4437  0.3220  0.5324
 1917ntf    on513629   2.134   3.897   6.766  0.5876 -0.4337 -0.2951
 1917ntf    on513630   2.339   3.995   6.670 -0.0740  0.5144  0.0421
 1917ntf    on513631   2.436   3.763   7.090 -0.1396 -0.2689  0.1717
 1917ntf    on513632   2.268   3.686   6.927  0.1963  0.0280  0.1399
 1917ntf    fn413633   2.081   3.886   7.068 -0.0709 -0.0935 -0.0380
 1917ntf    fn413634   2.168   3.723   7.187  0.3348  0.4676  0.2313
 1917ntf    fn413635   2.236   3.926   7.209 -0.2784  0.5795  0.1558
 1918ntf    cn113636   5.818   2.984   4.934  0.2713  0.2973 -0.1803
 1918ntf    sn213637   5.729   3.089   4.816 -0.1892  0.2751  0.1409
 1918ntf    nn313638   5.698   3.212   4.908  0.1923  0.1192  0.4822
 1918ntf    sn213639   5.779   3.346   4.925  0.1784  0.1886  0.0339
 1918ntf    cn113640   5.661   3.447   4.832 -0.1722  0.1470  0.4325
 1918ntf    fn413641   5.747   2.957   5.043  0.9121  0.2962  0.2432
 1918ntf    fn413642   5.861   2.870   4.882  0.3480  0.0461  0.4142
 1918ntf    fn413643   5.922   3.047   4.985  0.2671 -0.4162  0.7574
 1918ntf    on513644   5.823   3.109   4.708 -0.4037  0.0382 -0.0914
 1918ntf    on513645   5.605   3.023   4.782  0.1678 -0.5650  0.4563
 1918ntf    on513646   5.899   3.366   4.847  0.2332  0.1116  0.0979
 1918ntf    on513647   5.783   3.397   5.060 -0.3129  0.3450 -0.0095
 1918ntf    fn413648   5.542   3.453   4.890 -0.5961 -0.4444 -0.3694
 1918ntf    fn413649   5.706   3.569   4.806  0.4623 -0.1387  0.1766
 1918ntf    fn413650   5.651   3.402   4.708  0.3949 -0.3241  0.5549
 1919ntf    cn113651   2.833   5.246   5.325 -0.2010 -0.3174 -0.4644
 1919ntf    sn213652   2.733   5.378   5.400  0.0496 -0.4271  0.0771
 1919ntf    nn313653   2.748   5.345   5.552 -0.4106 -0.4420  0.1215
 1919ntf    sn213654   2.685   5.417   5.676  0.0487  0.0577  0.0715
 1919ntf    cn113655   2.595   5.273   5.741 -0.0538  0.0482 -0.0922
 1919ntf    fn413656   2.779   5.132   5.364 -0.2656  0.1373  0.8366
 1919ntf    fn413657   2.831   5.244   5.193  0.7140 -0.5289 -0.4808
 1919ntf    fn413658   2.959   5.254   5.367 -0.2317 -0.0284 -0.4285
 1919ntf    on513659   2.810   5.494   5.360  0.0544 -0.4475  0.0259
 1919ntf    on513660   2.605   5.353   5.337  0.1997  0.1179 -0.4649
 1919ntf    on513661   2.578   5.513   5.657  0.0597 -0.0091 -0.3242
 1919ntf    on513662   2.777   5.449   5.782 -0.3824 -0.1733  0.5247
 1919ntf    fn413663   2.551   5.272   5.866  0.3117 -0.2211  0.0362
 1919ntf    fn413664   2.491   5.250   5.663 -0.0996  0.0418 -0.0294
 1919ntf    fn413665   2.682   5.174   5.734  0.0153  0.1031 -0.0086
 1920ntf    cn113666   5.172   4.982   0.631 -0.5673  0.1245  0.0347
 1920ntf    sn213667   5.128   5.106   0.506  0.0594  0.3908  0.0745
 1920ntf    nn313668   5.021   5.188   0.587 -0.1700  0.3254 -0.1607
 1920ntf    sn213669   5.034   5.333   0.646  0.2528  0.0917  0.3267
 1920ntf    cn113670   4.897   5.324   0.765  0.0019  0.3340  0.0551
 1920ntf    fn413671   5.235   5.040   0.732 -0.2878  0.1203 -0.1357
 1920ntf    fn413672   5.068   4.918   0.682 -0.2122  0.0827  0.7138
 1920ntf    fn413673   5.252   4.887   0.585 -0.2780  0.3762  0.0114
 1920ntf    on513674   5.252   5.174   0.475  0.2453  0.3462  0.7044
 1920ntf    on513675   5.068   5.023   0.405 -0.0351  0.4782  0.0585
 1920ntf    on513676   4.982   5.431   0.554 -0.1654  0.3226  0.8059
 1920ntf    on513677   5.153   5.360   0.723  0.5176 -0.2468  0.0399
 1920ntf    fn413678   4.813   5.236   0.713  0.0342  0.2749  0.1036
 1920ntf    fn413679   4.942   5.274   0.879 -0.4790  0.5523  0.3448
 1920ntf    fn413680   4.844   5.444   0.784 -0.1454  0.2438  0.2158
 1921ntf    cn113681   5.875   2.122   6.850 -0.2110 -0.1362  0.0226
 1921ntf    sn213682   5.747   2.178   6.967 -0.1013  0.0330  0.0616
 1921ntf    nn313683   5.643   2.213   6.855 -0.2503 -0.0133  0.1859
 1921ntf    sn213684   5.551   2.118   6.770  0.1460 -0.2522  0.0251
 1921ntf    cn113685   5.617   2.150   6.604 -0.2209  0.0080 -0.0719
 1921ntf    fn413686   5.888   2.205   6.747  0.1804 -0.2342 -0.0076
 1921ntf    fn413687   5.995   2.106   6.902 -0.0196  0.0305 -0.3605
 1921ntf    fn413688   5.851   2.006   6.791 -0.1961 -0.1761  0.0945
 1921ntf    on513689   5.717   2.066   7.052 -0.5247  0.0745 -0.0350
 1921ntf    on513690   5.813   2.293   7.025  0.1297  0.0014 -0.1366
 1921ntf    on513691   5.413   2.158   6.771  0.2865  0.2496 -0.1319
 1921ntf    on513692   5.574   1.977   6.790  0.1847 -0.3044 -0.3746
 1921ntf    fn413693   5.583   2.272   6.563 -0.1050 -0.1208 -0.5594
 1921ntf    fn413694   5.750   2.154   6.606 -0.1889 -0.6466 -0.5493
 1921ntf    fn413695   5.586   2.066   6.507  0.6789 -0.3743 -0.0447
 1922ntf    cn113696   1.376   6.865   4.656  0.0869  0.0027  0.3002
 1922ntf    sn213697   1.367   6.846   4.475 -0.3169  0.3157  0.2857
 1922ntf    nn313698   1.212   6.851   4.452 -0.2878 -0.1187 -0.0148
 1922ntf    sn213699   1.139   6.931   4.338 -0.1300  0.0518  0.0026
 1922ntf    cn113700   1.213   6.866   4.185  0.0667  0.0960  0.0788
 1922ntf    fn413701   1.502   6.866   4.694  0.2159  0.0415 -0.1239
 1922ntf    fn413702   1.318   6.976   4.698 -0.0304  0.0733 -0.0391
 1922ntf    fn413703   1.312   6.768   4.719  0.0726 -0.1116  0.1119
 1922ntf    on513704   1.443   6.961   4.434  0.2692 -0.0249  0.4033
 1922ntf    on513705   1.421   6.716   4.445 -0.0696  0.4650  0.0765
 1922ntf    on513706   1.167   7.072   4.335 -0.2440  0.0654 -0.5935
 1922ntf    on513707   1.000   6.893   4.327 -0.5176  1.2737  0.5902
 1922ntf    fn413708   1.229   6.735   4.190 -0.4984  0.0321  0.2699
 1922ntf    fn413709   1.129   6.895   4.086 -0.0020  0.0180  0.1139
 1922ntf    fn413710   1.329   6.913   4.141  0.1696 -0.2476 -0.0254
 1923ntf    cn113711   3.346   2.227   1.212 -0.1217 -0.2051 -0.0568
 1923ntf    sn213712   3.482   2.338   1.167 -0.2638  0.0668  0.1805
 1923ntf    nn313713   3.610   2.272   1.231  0.0006  0.1418 -0.2661
 1923ntf    sn213714   3.711   2.175   1.161 -0.0347 -0.0613 -0.0366
 1923ntf    cn113715   3.738   2.055   1.295 -0.1370 -0.2046 -0.1441
 1923ntf    fn413716   3.229   2.255   1.157  0.0423 -0.2592 -0.4368
 1923ntf    fn413717   3.382   2.110   1.164 -0.1040 -0.1008 -0.2967
 1923ntf    fn413718   3.327   2.210   1.342 -0.1628 -0.4171 -0.0905
 1923ntf    on513719   3.477   2.342   1.023  0.2170  0.1745  0.1625
 1923ntf    on513720   3.458   2.463   1.235 -0.4105  0.1749 -0.0723
 1923ntf    on513721   3.838   2.243   1.153 -0.4057  0.6191 -0.1517
 1923ntf    on513722   3.670   2.090   1.052  0.1616 -0.3686  0.1254
 1923ntf    fn413723   3.642   1.963   1.307 -0.4777  0.0378 -0.9700
 1923ntf    fn413724   3.857   1.998   1.296  0.0488  0.1818  0.7707
 1923ntf    fn413725   3.733   2.119   1.410 -0.6520  0.2706 -0.4260
 1924ntf    cn113726   6.075   0.125   6.240 -0.4534  0.1112 -0.0791
 1924ntf    sn213727   5.976  -0.018   6.293  0.2239 -0.3132  0.0473
 1924ntf    nn313728   5.948  -0.072   6.148 -0.2725 -0.0389  0.0372
 1924ntf    sn213729   5.949  -0.221   6.098  0.0804 -0.0450  0.0561
 1924ntf    cn113730   5.790  -0.231   6.011  0.0152 -0.3233  0.2047
 1924ntf    fn413731   6.194   0.082   6.204 -0.2572  0.1049  0.5602
 1924ntf    fn413732   6.030   0.201   6.141  0.0946  0.1577 -0.2931
 1924ntf    fn413733   6.101   0.214   6.335  0.1222  0.2747 -0.3885
 1924ntf    on513734   6.059  -0.102   6.376  0.7658  0.2815  0.1142
 1924ntf    on513735   5.864   0.046   6.356  0.0216 -0.3537 -0.2651
 1924ntf    on513736   5.934  -0.310   6.211 -0.4739 -0.1396 -0.0895
 1924ntf    on513737   6.048  -0.249   5.997 -0.2256  0.3329 -0.3492
 1924ntf    fn413738   5.785  -0.144   5.911  0.0435 -0.3476  0.1823
 1924ntf    fn413739   5.762  -0.349   5.960  0.4926 -0.3554  0.0107
 1924ntf    fn413740   5.689  -0.188   6.086  0.0011  0.2934 -0.1567
 1925ntf    cn113741   6.080   0.023   3.882 -0.6896 -0.0767 -0.3418
 1925ntf    sn213742   6.086  -0.134   3.789  0.2401 -0.1738 -0.1295
 1925ntf    nn313743   5.946  -0.191   3.831  0.2117  0.3529  0.5079
 1925ntf    sn213744   5.820  -0.187   3.738  0.4029 -0.0056  0.2283
 1925ntf    cn113745   5.687  -0.136   3.852 -0.0965 -0.2235 -0.2556
 1925ntf    fn413746   6.177   0.106   3.848 -0.2820 -0.3650  0.1147
 1925ntf    fn413747   5.968   0.092   3.873 -0.4858  0.3410  0.3025
 1925ntf    fn413748   6.097  -0.007   4.009 -0.0244 -0.7297 -0.5731
 1925ntf    on513749   6.102  -0.103   3.649  0.0750  0.6937  0.0329
 1925ntf    on513750   6.195  -0.207   3.848  0.4590  0.3144  0.0744
 1925ntf    on513751   5.775  -0.316   3.693 -0.0026  0.0014  0.6098
 1925ntf    on513752   5.804  -0.077   3.645 -0.1300 -0.0169  0.3003
 1925ntf    fn413753   5.671  -0.223   3.950  0.4114 -0.0865 -0.0506
 1925ntf    fn413754   5.710  -0.027   3.922  0.3792 -0.7022  0.3484
 1925ntf    fn413755   5.571  -0.128   3.789 -0.1463  0.1077 -0.1194
 1926ntf    cn113756   5.770   0.642   1.710  0.0717  0.1084  0.3821
 1926ntf    sn213757   5.925   0.596   1.626 -0.0893  0.1767  0.0453
 1926ntf    nn313758   5.873   0.533   1.492  0.0788  0.6195 -0.2279
 1926ntf    sn213759   5.860   0.591   1.346 -0.7224 -0.0296 -0.4195
 1926ntf    cn113760   5.920   0.451   1.247 -0.1705 -0.1361  0.0576
 1926ntf    fn413761   5.800   0.681   1.833  0.4842 -0.6377  0.5251
 1926ntf    fn413762   5.711   0.739   1.643 -0.1733  0.0211  0.4695
 1926ntf    fn413763   5.686   0.540   1.714 -0.4257  0.4940 -0.0901
 1926ntf    on513764   5.994   0.721   1.604 -0.2229  0.3001  0.3172
 1926ntf    on513765   5.997   0.506   1.712 -0.4603 -0.0694  0.1014
 1926ntf    on513766   5.949   0.700   1.314 -0.1789 -0.3196  0.0815
 1926ntf    on513767   5.721   0.599   1.308 -0.8446 -0.6510 -0.1276
 1926ntf    fn413768   5.982   0.485   1.135 -0.1966 -0.2538  0.0072
 1926ntf    fn413769   6.012   0.383   1.312 -0.1109 -0.0976  0.0134
 1926ntf    fn413770   5.821   0.375   1.203 -0.1029 -0.0986 -0.1621
 1927ntf    cn113771   3.694   0.954   1.279  0.1492 -0.1420 -0.4915
 1927ntf    sn213772   3.646   1.127   1.304  0.0986 -0.2043 -0.1396
 1927ntf    nn313773   3.699   1.185   1.168  0.4321 -0.1004  0.0351
 1927ntf    sn213774   3.834   1.248   1.116  0.2143  0.2704 -0.0826
 1927ntf    cn113775   3.868   1.155   0.964  0.0654  0.2131 -0.0814
 1927ntf    fn413776   3.667   0.863   1.372 -0.4291  0.4935 -0.0314
 1927ntf    fn413777   3.632   0.919   1.168  0.2581  0.1685 -0.6496
 1927ntf    fn413778   3.822   0.939   1.248  0.2925  0.1065 -0.0317
 1927ntf    on513779   3.501   1.124   1.302  0.0987 -0.2237 -0.1142
 1927ntf    on513780   3.713   1.180   1.419  0.4466 -0.8019 -0.0666
 1927ntf    on513781   3.952   1.221   1.193  0.3397  0.0067 -0.3687
 1927ntf    on513782   3.816   1.381   1.065  0.2754  0.3432  0.0853
 1927ntf    fn413783   3.901   1.031   0.995  0.5283  0.1977 -0.6234
 1927ntf    fn413784   3.759   1.149   0.888 -0.0976 -0.0860  0.1759
 1927ntf    fn413785   3.967   1.206   0.892 -0.1943  0.0767 -0.5373
 1928ntf    cn113786   6.570   0.808   1.216  0.0846 -0.0663 -0.6061
 1928ntf    sn213787   6.620   0.754   1.383  0.0903  0.1187 -0.5482
 1928ntf    nn313788   6.480   0.744   1.452  0.2988 -0.0994 -0.1533
 1928ntf    sn213789   6.353   0.660   1.411  0.0928  0.1636 -0.0551
 1928ntf    cn113790   6.326   0.578   1.571  0.1784  0.1861 -0.0294
 1928ntf    fn413791   6.670   0.801   1.129  0.5938 -0.3700 -0.0070
 1928ntf    fn413792   6.475   0.730   1.167 -0.3843  0.4296 -0.4917
 1928ntf    fn413793   6.517   0.928   1.208  0.1927 -0.0164 -0.5807
 1928ntf    on513794   6.685   0.628   1.358 -0.0563 -0.1895  0.5922
 1928ntf    on513795   6.697   0.859   1.445  0.2327  0.1051 -0.7011
 1928ntf    on513796   6.380   0.547   1.326 -0.6640 -0.3925  0.4315
 1928ntf    on513797   6.239   0.746   1.391  0.3134  0.6382  0.6910
 1928ntf    fn413798   6.231   0.486   1.570  0.2791  0.0757  0.2567
 1928ntf    fn413799   6.439   0.513   1.595  0.3671  0.4508 -0.1788
 1928ntf    fn413800   6.301   0.659   1.673 -0.9341 -0.4526  0.2104
 1929ntf    cn113801   4.872   3.186   1.059  0.2406  0.0263  0.2763
 1929ntf    sn213802   4.925   3.288   0.918  0.3296  0.1836  0.4236
 1929ntf    nn313803   4.934   3.177   0.807 -0.2222 -0.0377  0.5982
 1929ntf    sn213804   4.820   3.137   0.707  0.2565  0.0023  0.0363
 1929ntf    cn113805   4.873   3.245   0.570 -0.0787 -0.0131 -0.1062
 1929ntf    fn413806   4.874   3.254   1.172 -0.2526 -0.0848  0.3535
 1929ntf    fn413807   4.747   3.144   1.043  0.0263  0.7940 -0.1115
 1929ntf    fn413808   4.955   3.086   1.082  0.2677 -0.0981 -0.3288
 1929ntf    on513809   4.820   3.387   0.908  0.2209  0.0958  0.6984
 1929ntf    on513810   5.057   3.326   0.962  0.5259  0.2068 -0.1692
 1929ntf    on513811   4.685   3.176   0.740  0.2420  0.7309 -0.8390
 1929ntf    on513812   4.839   3.008   0.644  0.5888  0.3701 -0.6312
 1929ntf    fn413813   4.902   3.365   0.616 -0.1585 -0.0719  0.1009
 1929ntf    fn413814   4.987   3.192   0.529  0.0072 -0.0540  0.1812
 1929ntf    fn413815   4.789   3.256   0.469 -0.6358 -0.5714  0.2838
 1930ntf    cn113816   6.754   3.562   2.380 -0.1371  0.0158 -0.1784
 1930ntf    sn213817   6.846   3.719   2.393  0.3588 -0.3021  0.1635
 1930ntf    nn313818   6.944   3.685   2.512 -0.2156 -0.6152  0.5507
 1930ntf    sn213819   6.984   3.774   2.634  0.0422 -0.1444  0.1238
 1930ntf    cn113820   7.146   3.710   2.686  0.0122 -0.3488 -0.0371
 1930ntf    fn413821   6.741   3.503   2.498 -0.1545  0.3692  0.0004
 1930ntf    fn413822   6.633   3.584   2.332 -0.2036 -0.1985 -0.1110
 1930ntf    fn413823   6.817   3.477   2.301  0.6451  0.2200  0.2104
 1930ntf    on513824   6.913   3.732   2.266  0.0130  0.0918  0.0231
 1930ntf    on513825   6.740   3.813   2.418  0.6049  0.1768 -0.5736
 1930ntf    on513826   6.901   3.745   2.748 -0.4334  0.3439 -0.0963
 1930ntf    on513827   7.007   3.914   2.605 -0.3900 -0.2555 -0.7857
 1930ntf    fn413828   7.199   3.783   2.783 -0.4839  0.1474 -0.1349
 1930ntf    fn413829   7.136   3.585   2.729 -0.2447 -0.2764  0.1155
 1930ntf    fn413830   7.231   3.704   2.584 -0.0589 -0.2792 -0.1009
 1931ntf    cn113831   4.599   3.487   6.098 -0.3188  0.2143  0.1061
 1931ntf    sn213832   4.501   3.637   6.070 -0.1645  0.2872 -0.0496
 1931ntf    nn313833   4.367   3.572   6.019 -0.2220  0.1633  0.2557
 1931ntf    sn213834   4.292   3.556   5.882  0.0751 -0.3076  0.1477
 1931ntf    cn113835   4.150   3.668   5.895  0.0647 -0.3130  0.0785
 1931ntf    fn413836   4.719   3.514   6.148 -0.2192 -0.2032  0.0963
 1931ntf    fn413837   4.543   3.397   6.176  0.6260 -0.2320  0.2889
 1931ntf    fn413838   4.622   3.424   5.984  0.5291 -0.6006  0.7196
 1931ntf    on513839   4.494   3.696   6.202 -0.5630 -0.6533  0.3609
 1931ntf    on513840   4.579   3.715   5.977  0.2459 -0.2016 -0.1126
 1931ntf    on513841   4.239   3.423   5.869 -0.1052 -0.3431  1.1768
 1931ntf    on513842   4.369   3.615   5.776 -0.0863  0.1689  0.2920
 1931ntf    fn413843   4.062   3.623   5.983 -0.6964  0.5467 -0.2262
 1931ntf    fn413844   4.184   3.790   5.932 -0.1292 -0.1943 -0.1300
 1931ntf    fn413845   4.079   3.677   5.783  0.0418 -0.0379  0.1140
 1932ntf    cn113846   6.370   0.200   2.121  0.1513 -0.0674  0.0370
 1932ntf    sn213847   6.267   0.082   2.214  0.7573 -0.4223  0.2663
 1932ntf    nn313848   6.287   0.127   2.363  0.5380  0.2880  0.0840
 1932ntf    sn213849   6.341   0.048   2.487 -0.0101  0.0824  0.1943
 1932ntf    cn113850   6.412   0.185   2.582  0.0495  0.1661  0.0294
 1932ntf    fn413851   6.327   0.323   2.139  0.2554  0.0489 -0.4865
 1932ntf    fn413852   6.500   0.189   2.148  0.0427  0.0515  0.6229
 1932ntf    fn413853   6.364   0.178   1.991 -0.4692  0.4139 -0.0188
 1932ntf    on513854   6.135   0.106   2.162  0.7196  0.0011  0.5517
 1932ntf    on513855   6.322  -0.048   2.182  0.9781 -0.1135 -0.6621
 1932ntf    on513856   6.456  -0.037   2.468 -0.3018 -0.2314 -0.1906
 1932ntf    on513857   6.236  -0.005   2.571 -0.5922  0.7597 -0.0969
 1932ntf    fn413858   6.485   0.145   2.685  0.2572  0.4434 -0.0099
 1932ntf    fn413859   6.489   0.266   2.511  0.0517  0.1065 -0.0357
 1932ntf    fn413860   6.308   0.256   2.624 -0.2652  0.0897 -0.6039
 1933ntf    cn113861   0.351   4.345   6.732 -0.1463 -0.1220 -0.1070
 1933ntf    sn213862   0.390   4.499   6.643  0.2002 -0.1493 -0.0068
 1933ntf    nn313863   0.267   4.508   6.546  0.0626  0.3385  0.2123
 1933ntf    sn213864   0.261   4.462   6.396 -0.2823  0.2202  0.2637
 1933ntf    cn113865   0.126   4.566   6.332 -0.3607 -0.0345  0.0100
 1933ntf    fn413866   0.240   4.358   6.802 -0.1369  0.4847 -0.2040
 1933ntf    fn413867   0.349   4.248   6.642  0.8004 -0.6013  0.3668
 1933ntf    fn413868   0.444   4.311   6.820 -0.5416 -0.9169  0.0095
 1933ntf    on513869   0.390   4.593   6.752 -0.3674  0.2285 -0.3264
 1933ntf    on513870   0.515   4.451   6.589  0.3347  0.1013  0.0814
 1933ntf    on513871   0.204   4.329   6.384 -0.1973  0.1701  0.4188
 1933ntf    on513872   0.371   4.491   6.309 -0.4575  0.5445  0.1505
 1933ntf    fn413873   0.088   4.516   6.216 -0.2920  0.0156 -0.0344
 1933ntf    fn413874   0.019   4.558   6.410 -0.1217 -0.4000  0.3077
 1933ntf    fn413875   0.169   4.690   6.320  0.0689 -0.2257 -0.4269
 1934ntf    cn113876   0.265   6.482   5.190  0.0619 -0.0740  0.5323
 1934ntf    sn213877   0.175   6.345   5.111  0.2615  0.1908 -0.1623
 1934ntf    nn313878   0.269   6.317   4.988 -0.0990  0.0292 -0.4038
 1934ntf    sn213879   0.405   6.238   4.987  0.0248  0.2403 -0.3289
 1934ntf    cn113880   0.512   6.375   4.933  0.0560  0.2576 -0.2225
 1934ntf    fn413881   0.390   6.448   5.217  0.1165 -0.1793  0.1528
 1934ntf    fn413882   0.268   6.595   5.120 -0.0659  0.0242  0.6861
 1934ntf    fn413883   0.209   6.526   5.301 -0.2366 -0.4169  0.5174
 1934ntf    on513884   0.168   6.249   5.218 -0.3252  0.2176 -0.1766
 1934ntf    on513885   0.058   6.413   5.061  0.1481 -0.3303 -0.6094
 1934ntf    on513886   0.402   6.147   4.875 -0.4463  0.3272 -0.3875
 1934ntf    on513887   0.456   6.191   5.113 -0.2357 -0.2024 -0.3855
 1934ntf    fn413888   0.506   6.406   4.805  0.0024  0.0508 -0.2693
 1934ntf    fn413889   0.512   6.480   5.014  0.6202  0.1620 -0.0987
 1934ntf    fn413890   0.638   6.335   4.942 -0.0372  0.0538  0.1922
 1935ntf    cn113891   2.335   3.579   5.271  0.1375 -0.1523  0.1314
 1935ntf    sn213892   2.458   3.533   5.397  0.4409 -0.2231 -0.1880
 1935ntf    nn313893   2.581   3.484   5.313  0.4760  0.0460 -0.2946
 1935ntf    sn213894   2.603   3.334   5.270  0.1702 -0.2528  0.5580
 1935ntf    cn113895   2.705   3.266   5.404  0.2113  0.1834  0.7486
 1935ntf    fn413896   2.232   3.642   5.325  0.0438 -0.3715  0.2080
 1935ntf    fn413897   2.374   3.663   5.176 -0.0129  0.2129  0.3911
 1935ntf    fn413898   2.281   3.474   5.212  0.3411 -0.2358  0.0914
 1935ntf    on513899   2.481   3.657   5.466  0.1626 -0.0458 -0.4090
 1935ntf    on513900   2.390   3.435   5.479 -0.4798  0.1447 -0.4996
 1935ntf    on513901   2.692   3.322   5.157 -0.3919 -0.3547  0.1215
 1935ntf    on513902   2.487   3.248   5.268 -0.2809  0.3468  0.4110
 1935ntf    fn413903   2.817   3.336   5.416  0.1933  0.2698  0.4240
 1935ntf    fn413904   2.651   3.260   5.525 -0.0436  0.1427  0.6335
 1935ntf    fn413905   2.740   3.142   5.375 -0.2041  0.2627 -0.1166
 1936ntf    cn113906   5.096   4.507   0.619  0.0333 -0.1764 -0.3081
 1936ntf    sn213907   5.253   4.428   0.572  0.1566  0.0193 -0.2283
 1936ntf    nn313908   5.235   4.278   0.616 -0.4582  0.1241 -0.1206
 1936ntf    sn213909   5.174   4.158   0.535  0.1567 -0.0886 -0.2704
 1936ntf    cn113910   5.130   4.040   0.666  0.5196  0.3946  0.2957
 1936ntf    fn413911   5.105   4.588   0.723  0.0545 -0.7708  0.1553
 1936ntf    fn413912   5.052   4.584   0.521 -0.1241  0.1453  0.0118
 1936ntf    fn413913   5.000   4.422   0.650  0.3960 -0.4581  0.0658
 1936ntf    on513914   5.264   4.438   0.428  0.3063 -0.6922 -0.2698
 1936ntf    on513915   5.349   4.492   0.659 -0.4773  0.1217  0.4026
 1936ntf    on513916   5.266   4.080   0.456 -0.1414 -0.4567 -0.2548
 1936ntf    on513917   5.052   4.193   0.468 -0.2266 -0.5318  0.1905
 1936ntf    fn413918   5.102   3.920   0.616  0.4442  0.6661 -0.3235
 1936ntf    fn413919   5.230   4.023   0.751  0.5428  0.2039  0.2312
 1936ntf    fn413920   5.019   4.082   0.724  0.2064  0.1197 -0.0933
 1937ntf    cn113921   4.465   0.271   5.648 -0.2482  0.1491  0.6291
 1937ntf    sn213922   4.602   0.277   5.767  0.3686  0.1350 -0.0756
 1937ntf    nn313923   4.730   0.316   5.684  0.6177 -0.1481  0.1741
 1937ntf    sn213924   4.752   0.445   5.598  0.1362 -0.1053  0.1126
 1937ntf    cn113925   4.897   0.523   5.675 -0.1050  0.2104  0.2471
 1937ntf    fn413926   4.480   0.163   5.572 -0.1283  0.4720  0.1926
 1937ntf    fn413927   4.349   0.250   5.708 -0.7236 -0.1668 -0.3712
 1937ntf    fn413928   4.461   0.381   5.575  0.2944 -0.0532  0.2848
 1937ntf    on513929   4.564   0.375   5.865  0.0823  0.1897 -0.2390
 1937ntf    on513930   4.614   0.142   5.816 -0.2375  0.0884 -0.0505
 1937ntf    on513931   4.641   0.536   5.602  0.4133  0.2593 -0.4009
 1937ntf    on513932   4.798   0.394   5.471 -0.6188  0.2068 -0.2948
 1937ntf    fn413933   5.005   0.447   5.680 -0.2989 -0.1133 -0.4086
 1937ntf    fn413934   4.935   0.634   5.614 -0.1839 -0.1331 -0.4376
 1937ntf    fn413935   4.870   0.558   5.800  0.6383  0.2142  0.4111
 1938ntf    cn113936   5.192   3.520   0.027 -0.1613 -0.1648 -0.0046
 1938ntf    sn213937   5.186   3.701   0.047 -0.1735 -0.1928  0.2486
 1938ntf    nn313938   5.032   3.725   0.071 -0.2650 -0.3777 -0.1502
 1938ntf    sn213939   4.939   3.750   0.195 -0.3205 -0.1205 -0.2428
 1938ntf    cn113940   4.953   3.931   0.199 -0.2340 -0.1314 -0.0423
 1938ntf    fn413941   5.118   3.464  -0.067 -0.4284  0.2322 -0.0353
 1938ntf    fn413942   5.315   3.474   0.014  0.0905  0.5686 -0.3093
 1938ntf    fn413943   5.148   3.462   0.137 -0.1422  0.0257  0.1042
 1938ntf    on513944   5.272   3.729   0.159 -0.0961 -0.1071  0.1682
 1938ntf    on513945   5.227   3.754  -0.081 -0.4249  0.4387  0.4272
 1938ntf    on513946   4.998   3.708   0.320 -0.3688  0.0200 -0.1725
 1938ntf    on513947   4.798   3.733   0.172 -0.5199  0.3772  0.6039
 1938ntf    fn413948   5.072   3.985   0.220 -0.3288  0.0067  0.1455
 1938ntf    fn413949   4.902   3.993   0.094  0.4424  0.9364  0.2458
 1938ntf    fn413950   4.881   3.985   0.296  0.0445  0.4964 -0.1804
 1939ntf    cn113951   0.830   5.462   4.543 -0.2181  0.5417 -0.2215
 1939ntf    sn213952   0.661   5.459   4.612  0.0025 -0.3477  0.2984
 1939ntf    nn313953   0.641   5.304   4.627  1.3571 -0.5540  0.1535
 1939ntf    sn213954   0.664   5.214   4.754  0.2549 -0.1719  0.6333
 1939ntf    cn113955   0.687   5.051   4.677  0.5298  0.0379  0.2681
 1939ntf    fn413956   0.861   5.384   4.441 -0.2290  0.0850  0.1204
 1939ntf    fn413957   0.864   5.586   4.511 -0.5802  0.6403 -0.2255
 1939ntf    fn413958   0.918   5.429   4.636 -0.2207 -0.3241 -0.5133
 1939ntf    on513959   0.658   5.536   4.734  0.3997  0.5501 -0.2428
 1939ntf    on513960   0.588   5.516   4.501 -0.2242 -0.4675  0.3869
 1939ntf    on513961   0.547   5.191   4.836 -0.1226 -0.4782  0.0195
 1939ntf    on513962   0.786   5.240   4.826  0.2542  0.7167  0.3292
 1939ntf    fn413963   0.582   4.993   4.622  0.2492  0.2793  0.5422
 1939ntf    fn413964   0.779   5.064   4.582  0.3512  0.5580  0.1629
 1939ntf    fn413965   0.737   4.960   4.759  0.6188  0.5716  0.8202
 1940ntf    cn113966   1.512   2.105   6.450 -0.2711 -0.1074  0.3793
 1940ntf    sn213967   1.522   1.929   6.497  0.1056 -0.2530 -0.2360
 1940ntf    nn313968   1.439   1.877   6.374  0.2302  0.0212 -0.4393
 1940ntf    sn213969   1.286   1.843   6.368  0.2831 -0.3315  0.0993
 1940ntf    cn113970   1.292   1.668   6.318  0.1972 -0.2415 -0.2274
 1940ntf    fn413971   1.420   2.128   6.357  0.0734  0.0024  0.0645
 1940ntf    fn413972   1.491   2.193   6.546  0.1745  0.3124  0.0963
 1940ntf    fn413973   1.624   2.145   6.392 -0.0763 -0.9263  0.1824
 1940ntf    on513974   1.663   1.902   6.488  0.2272  0.2109  0.2101
 1940ntf    on513975   1.459   1.929   6.626  0.7174  0.2678  0.0670
 1940ntf    on513976   1.220   1.914   6.260  0.0610 -0.3885  0.1967
 1940ntf    on513977   1.213   1.834   6.492  0.3258  0.1409  0.1608
 1940ntf    fn413978   1.367   1.653   6.210 -0.3403 -0.0457 -0.6329
 1940ntf    fn413979   1.348   1.589   6.407  0.1028  0.0512  0.0921
 1940ntf    fn413980   1.171   1.625   6.287  0.2926 -0.4896 -0.2555
 1941ntf    cn113981   4.540   6.427   1.323  0.3501 -0.0871 -0.1890
 1941ntf    sn213982   4.659   6.337   1.220  0.2133  0.1572 -0.5601
 1941ntf    nn313983   4.782   6.434   1.219  0.3608 -0.0268 -0.2169
 1941ntf    sn213984   4.922   6.426   1.289  0.1714  0.0646  0.1727
 1941ntf    cn113985   5.026   6.500   1.160 -0.0568  0.0217 -0.0360
 1941ntf    fn413986   4.430   6.359   1.353  0.1748  0.1847 -0.2103
 1941ntf    fn413987   4.598   6.462   1.437  0.3825 -0.3403 -0.1265
 1941ntf    fn413988   4.504   6.542   1.269 -0.3885 -0.0697  0.3267
 1941ntf    on513989   4.667   6.216   1.298 -0.2925  0.5825  0.1565
 1941ntf    on513990   4.592   6.328   1.092 -0.6607 -0.3119 -0.0820
 1941ntf    on513991   4.980   6.295   1.307 -0.4603 -0.2104  0.2136
 1941ntf    on513992   4.931   6.512   1.404 -0.6633  0.3575  0.0209
 1941ntf    fn413993   5.000   6.462   1.036 -0.3732 -0.3665  0.1480
 1941ntf    fn413994   5.020   6.632   1.163 -0.1904  0.0197 -0.2415
 1941ntf    fn413995   5.151   6.471   1.192 -0.1831 -0.0130  0.4328
 1942ntf    cn113996   0.519   0.649   5.820  0.1426 -0.4242  0.0520
 1942ntf    sn213997   0.629   0.619   5.679  0.4008  0.0349  0.1519
 1942ntf    nn313998   0.625   0.759   5.609 -0.0445 -0.2734 -0.4481
 1942ntf    sn213999   0.535   0.808   5.490 -0.1880  0.1454 -0.1670
 1942ntf    cn114000   0.643   0.751   5.355  0.0018  0.0444  0.0261
 1942ntf    fn414001   0.563   0.754   5.888 -0.6726 -0.1598  0.1833
 1942ntf    fn414002   0.390   0.663   5.797  0.1773 -0.0493  0.0791
 1942ntf    fn414003   0.528   0.549   5.907  0.1125 -0.5751 -0.1189
 1942ntf    on514004   0.760   0.590   5.734  0.6263  0.4987 -0.1353
 1942ntf    on514005   0.567   0.511   5.605  0.0998  0.0699  0.3534
 1942ntf    on514006   0.536   0.951   5.469  0.2880  0.1575 -0.0702
 1942ntf    on514007   0.412   0.735   5.477 -0.4149  0.4721  0.1301
 1942ntf    fn414008   0.701   0.850   5.289  0.6110 -0.1729  0.2328
 1942ntf    fn414009   0.746   0.679   5.394 -0.3272  0.0159  0.8595
 1942ntf    fn414010   0.570   0.689   5.263  0.1207 -0.0328 -0.0158
 1943ntf    cn114011   5.464   1.351   2.407  0.2934 -0.2990  0.0716
 1943ntf    sn214012   5.407   1.359   2.234 -0.1457 -0.3107  0.2139
 1943ntf    nn314013   5.257   1.396   2.264 -0.0963  0.1318 -0.0728
 1943ntf    sn214014   5.132   1.301   2.256  0.3870 -0.5256  0.0767
 1943ntf    cn114015   5.046   1.363   2.109  0.4953  0.0132  0.2382
 1943ntf    fn414016   5.594   1.335   2.418  0.1784 -0.6185  1.0061
 1943ntf    fn414017   5.437   1.457   2.481 -0.3148 -0.3979 -0.0003
 1943ntf    fn414018   5.408   1.254   2.478 -0.1143  0.3078  0.5928
 1943ntf    on514019   5.477   1.475   2.185 -0.2842 -0.1997  0.2799
 1943ntf    on514020   5.435   1.235   2.165  0.0517 -0.2663  0.2125
 1943ntf    on514021   5.040   1.329   2.363  0.5445  0.0035  0.0772
 1943ntf    on514022   5.157   1.161   2.231 -0.3200 -0.6733  0.1791
 1943ntf    fn414023   4.977   1.273   2.041  0.1454  0.2821  0.2346
 1943ntf    fn414024   4.968   1.466   2.139  0.6086  0.3342 -0.5249
 1943ntf    fn414025   5.134   1.417   2.026  0.0300 -0.4202 -0.5528
 1944ntf    cn114026   5.075   4.392   2.137 -0.1171 -0.2397  0.5895
 1944ntf    sn214027   5.048   4.556   2.065 -0.2366 -0.4826  0.0784
 1944ntf    nn314028   4.958   4.514   1.943 -0.0524  0.0110 -0.2319
 1944ntf    sn214029   4.804   4.530   1.921 -0.0203  0.4099 -0.1692
 1944ntf    cn114030   4.767   4.472   1.752 -0.0642 -0.1075  0.0182
 1944ntf    fn414031   5.133   4.307   2.054  0.2872  0.6933 -0.0962
 1944ntf    fn414032   5.148   4.394   2.248 -0.1363 -0.0827  0.6001
 1944ntf    fn414033   4.961   4.340   2.180 -0.1915 -0.3487  0.2585
 1944ntf    on514034   4.991   4.635   2.171 -0.1921 -0.4639  0.0884
 1944ntf    on514035   5.179   4.598   2.024 -0.4830  0.3116  0.0896
 1944ntf    on514036   4.767   4.669   1.917 -0.3553  0.3242 -0.0960
 1944ntf    on514037   4.726   4.434   1.996  0.8756  0.4784  0.8663
 1944ntf    fn414038   4.826   4.541   1.657 -0.0163  0.4756  0.4640
 1944ntf    fn414039   4.802   4.344   1.744  0.4241  0.0254  0.0073
 1944ntf    fn414040   4.639   4.472   1.716 -0.0061  0.1643 -0.1898
 1945ntf    cn114041   2.215   5.650   2.510  0.4090 -0.2158  0.1165
 1945ntf    sn214042   2.121   5.618   2.357  0.0591 -0.6314  0.4187
 1945ntf    nn314043   2.027   5.503   2.409  0.1874 -0.6787  0.5484
 1945ntf    sn214044   1.893   5.451   2.345  0.1297  0.2234 -0.0797
 1945ntf    cn114045   1.788   5.416   2.489  0.1046 -0.3936 -0.2439
 1945ntf    fn414046   2.136   5.659   2.616  0.0482  0.5950 -0.2102
 1945ntf    fn414047   2.297   5.555   2.549 -0.0966 -0.8291 -0.2900
 1945ntf    fn414048   2.283   5.763   2.518  0.2153 -0.1238  0.4801
 1945ntf    on514049   2.063   5.745   2.325  0.4621 -0.5263  0.0998
 1945ntf    on514050   2.223   5.576   2.264  0.1497 -0.7416  0.5658
 1945ntf    on514051   1.916   5.321   2.288  0.6558  0.2883 -0.0267
 1945ntf    on514052   1.831   5.551   2.262 -0.1944  0.3463  0.3084
 1945ntf    fn414053   1.662   5.386   2.460  0.2768 -0.9298 -0.4399
 1945ntf    fn414054   1.841   5.325   2.569 -0.1837 -0.4023 -0.0610
 1945ntf    fn414055   1.771   5.526   2.561  0.2521 -0.7633  0.3596
 1946ntf    cn114056   6.413   5.055   4.775  0.0620  0.0220 -0.1428
 1946ntf    sn214057   6.519   4.973   4.897 -0.0605  0.0502 -0.0180
 1946ntf    nn314058   6.665   4.975   4.840 -0.2000 -0.4575 -0.3974
 1946ntf    sn214059   6.779   4.870   4.862  0.1114  0.0348  0.3986
 1946ntf    cn114060   6.933   4.962   4.890  0.0651  0.1841  0.1640
 1946ntf    fn414061   6.436   5.181   4.742 -0.5721  0.1991  0.0951
 1946ntf    fn414062   6.421   4.989   4.660 -0.1118 -0.5215  0.1530
 1946ntf    fn414063   6.286   5.047   4.809  0.0169  0.2477 -0.2533
 1946ntf    on514064   6.508   5.057   5.014 -0.0779  0.0474 -0.0174
 1946ntf    on514065   6.457   4.843   4.907  0.3952 -0.1399  0.4285
 1946ntf    on514066   6.810   4.790   4.746  0.4447  0.5314  0.1413
 1946ntf    on514067   6.777   4.791   4.983 -0.0304 -0.0944  0.3129
 1946ntf    fn414068   6.923   5.027   5.005 -0.2860 -0.3079  0.4127
 1946ntf    fn414069   7.035   4.878   4.907 -0.2749 -0.1919  0.3713
 1946ntf    fn414070   6.962   5.040   4.787 -0.2603 -0.2532 -0.2660
 1947ntf    cn114071   5.412   5.257   5.015  0.3246  0.0905  0.0526
 1947ntf    sn214072   5.303   5.119   5.061 -0.1502  0.2751 -0.5048
 1947ntf    nn314073   5.167   5.195   5.074 -0.1132  0.2708 -0.0743
 1947ntf    sn214074   5.020   5.160   5.030 -0.0038 -0.0834 -0.1565
 1947ntf    cn114075   4.927   5.243   5.162  0.0062  0.3811 -0.4403
 1947ntf    fn414076   5.425   5.340   5.117 -0.1162  0.2077  0.0132
 1947ntf    fn414077   5.532   5.213   4.979 -0.1339 -0.7493 -0.4656
 1947ntf    fn414078   5.370   5.333   4.914  0.7426 -0.2820 -0.4066
 1947ntf    on514079   5.310   5.031   4.947  0.5635  0.1402 -0.3649
 1947ntf    on514080   5.337   5.078   5.195 -1.4107 -0.5925 -0.4401
 1947ntf    on514081   4.983   5.023   5.056  0.1318 -0.0612  0.1596
 1947ntf    on514082   4.976   5.226   4.910  0.2047 -0.5740 -0.5078
 1947ntf    fn414083   4.842   5.338   5.126 -0.3040  0.1414 -0.3428
 1947ntf    fn414084   4.838   5.167   5.225  0.2590  0.4637  0.0208
 1947ntf    fn414085   5.003   5.306   5.250  0.1078 -0.4294  0.0702
 1948ntf    cn114086   6.898   4.654   0.877  0.1495  0.2917  0.3772
 1948ntf    sn214087   6.807   4.670   1.033 -0.0505 -0.4511  0.3382
 1948ntf    nn314088   6.737   4.811   1.034  0.6276 -0.1107  0.3130
 1948ntf    sn214089   6.792   4.947   1.088  0.1257  0.3372 -0.2985
 1948ntf    cn114090   6.742   4.940   1.262  0.2303 -0.1828 -0.2880
 1948ntf    fn414091   7.023   4.696   0.877  0.1364  0.3546 -0.5609
 1948ntf    fn414092   6.899   4.527   0.843 -0.6260  0.3535  0.0927
 1948ntf    fn414093   6.843   4.716   0.773  0.0995  0.4383  0.4901
 1948ntf    on514094   6.711   4.562   1.029 -0.2556 -0.2505 -0.1960
 1948ntf    on514095   6.912   4.655   1.131  0.8099 -0.3319 -0.5586
 1948ntf    on514096   6.717   5.054   1.024  0.2224  0.2233 -0.6038
 1948ntf    on514097   6.935   4.963   1.093  0.0902  0.5401  0.1443
 1948ntf    fn414098   6.752   5.058   1.323  0.2592 -0.2110 -0.2379
 1948ntf    fn414099   6.616   4.899   1.264  0.1347  0.1151  0.4763
 1948ntf    fn414100   6.814   4.859   1.337 -0.1254  0.0850  0.3526
 1949ntf    cn114101   0.221   6.149   3.187 -0.1388 -0.3340 -0.3309
 1949ntf    sn214102   0.343   6.267   3.252 -0.4171 -0.2911  0.1152
 1949ntf    nn314103   0.378   6.343   3.119  0.3496 -0.3804  0.2634
 1949ntf    sn214104   0.337   6.492   3.092  0.1913 -0.4972 -0.1547
 1949ntf    cn114105   0.453   6.531   2.957  0.1428  0.1955  0.0017
 1949ntf    fn414106   0.174   6.082   3.291 -0.0028  0.1236  0.0247
 1949ntf    fn414107   0.117   6.201   3.124  0.4404  0.1703 -0.8881
 1949ntf    fn414108   0.274   6.055   3.110 -0.4440 -0.1721 -0.7422
 1949ntf    on514109   0.263   6.335   3.351  0.1616  0.2970  0.1871
 1949ntf    on514110   0.451   6.189   3.307 -0.2071 -0.1724 -0.1250
 1949ntf    on514111   0.374   6.576   3.203 -0.3772  0.0049 -0.3461
 1949ntf    on514112   0.208   6.506   3.029  0.3621  0.5446 -0.2934
 1949ntf    fn414113   0.576   6.492   2.982  0.1075  0.3885  0.4766
 1949ntf    fn414114   0.429   6.473   2.840  0.2669  0.3688 -0.1095
 1949ntf    fn414115   0.454   6.657   2.918  0.1924  0.0807 -0.3688
 1950ntf    cn114116   5.846   1.120   4.356 -0.2308 -0.3709  0.4016
 1950ntf    sn214117   5.940   1.206   4.486 -0.0086 -0.1748  0.1158
 1950ntf    nn314118   6.073   1.123   4.480 -0.1868 -0.4574 -0.0093
 1950ntf    sn214119   6.172   1.090   4.598  0.2818  0.3192 -0.1784
 1950ntf    cn114120   6.343   1.123   4.544  0.3106  0.0889 -0.2250
 1950ntf    fn414121   5.905   1.128   4.237 -0.0728  0.3145  0.5178
 1950ntf    fn414122   5.844   0.992   4.389  0.3098 -0.4954 -0.0273
 1950ntf    fn414123   5.720   1.158   4.342 -0.1182 -0.0112  0.3250
 1950ntf    on514124   5.946   1.340   4.434 -0.8681 -0.3112 -0.3590
 1950ntf    on514125   5.842   1.174   4.587  0.1882  0.2856  0.4545
 1950ntf    on514126   6.191   0.949   4.620  0.4805  0.2898 -0.5233
 1950ntf    on514127   6.147   1.170   4.715  0.1553 -0.0805  0.0666
 1950ntf    fn414128   6.356   1.250   4.510  0.0078  0.0966 -0.3202
 1950ntf    fn414129   6.439   1.111   4.634  0.2945  0.2684 -0.1823
 1950ntf    fn414130   6.375   1.051   4.438 -0.1226 -0.1230 -0.2128
 1951ntf    cn114131   4.076   4.973   0.729 -0.2329  0.1420 -0.5025
 1951ntf    sn214132   4.238   5.044   0.686 -0.2177  0.5073  0.1371
 1951ntf    nn314133   4.217   5.132   0.557 -0.1507  0.2412 -0.0577
 1951ntf    sn214134   4.234   5.287   0.540  0.1126  0.1892 -0.2702
 1951ntf    cn114135   4.231   5.299   0.359 -0.6515 -0.0957 -0.2787
 1951ntf    fn414136   4.088   4.862   0.800  0.2723  0.0519 -0.7226
 1951ntf    fn414137   4.002   5.053   0.804 -0.1513 -0.8266  0.6541
 1951ntf    fn414138   4.004   4.948   0.621 -0.8285 -0.2142 -0.0273
 1951ntf    on514139   4.259   5.115   0.809  0.0382 -0.0752  0.4282
 1951ntf    on514140   4.319   4.926   0.667 -0.4193  0.3279  0.3862
 1951ntf    on514141   4.368   5.330   0.576  0.5095 -1.0505 -0.2318
 1951ntf    on514142   4.121   5.367   0.580  0.0112 -0.0876 -0.0017
 1951ntf    fn414143   4.347   5.272   0.302 -0.3669  0.3494  0.0732
 1951ntf    fn414144   4.136   5.222   0.309 -0.4300 -0.2258 -0.4961
 1951ntf    fn414145   4.202   5.422   0.319 -0.1899  0.1820  0.2222
 1952ntf    cn114146   0.849   3.310   3.314 -0.1144  0.0249 -0.2803
 1952ntf    sn214147   0.701   3.287   3.210 -0.1399  0.1511 -0.2731
 1952ntf    nn314148   0.592   3.290   3.322 -0.1645 -0.0672 -0.2893
 1952ntf    sn214149   0.466   3.197   3.332 -0.1589 -0.0440  0.0134
 1952ntf    cn114150   0.348   3.320   3.396 -0.1585 -0.0459  0.0176
 1952ntf    fn414151   0.961   3.334   3.249  0.1212 -0.7212 -0.1542
 1952ntf    fn414152   0.835   3.404   3.407  0.0943 -0.0480 -0.1758
 1952ntf    fn414153   0.885   3.198   3.375 -0.4625  0.2174  0.2928
 1952ntf    on514154   0.698   3.401   3.122  0.2069  0.4181  0.0561
 1952ntf    on514155   0.736   3.166   3.140  0.0144 -0.0957  0.2228
 1952ntf    on514156   0.474   3.111   3.448 -0.1939 -0.1136 -0.0359
 1952ntf    on514157   0.405   3.141   3.214 -0.5394 -0.2294  0.2974
 1952ntf    fn414158   0.401   3.421   3.463 -0.0181  0.2641 -0.5528
 1952ntf    fn414159   0.289   3.382   3.295  1.2409 -0.3453 -1.0066
 1952ntf    fn414160   0.258   3.273   3.481 -0.2876  0.6456  0.2660
 1953ntf    cn114161   4.206   4.771   6.126 -0.1183 -0.0894  0.1717
 1953ntf    sn214162   4.328   4.749   5.993 -0.1055  0.0315  0.1642
 1953ntf    nn314163   4.431   4.652   6.061 -0.1424  0.1959  0.4555
 1953ntf    sn214164   4.471   4.503   6.032 -0.2187  0.2464  0.0782
 1953ntf    cn114165   4.495   4.447   6.203 -0.0251  0.0318 -0.0181
 1953ntf    fn414166   4.147   4.884   6.092 -0.2195  0.0245  0.7149
 1953ntf    fn414167   4.132   4.662   6.134 -0.0658 -0.1376  0.0093
 1953ntf    fn414168   4.255   4.800   6.246  0.2528 -0.0518  0.0130
 1953ntf    on514169   4.265   4.683   5.881  0.6061  0.4145 -0.4692
 1953ntf    on514170   4.384   4.879   5.970 -0.4469  0.0862 -0.4003
 1953ntf    on514171   4.603   4.489   5.976 -0.3571  0.1938 -0.2347
 1953ntf    on514172   4.368   4.413   5.988  0.0017  0.3119 -0.5926
 1953ntf    fn414173   4.579   4.520   6.276 -0.0280 -0.1160  0.1345
 1953ntf    fn414174   4.380   4.450   6.268 -0.6917 -0.0578 -1.1810
 1953ntf    fn414175   4.551   4.328   6.217 -0.0422 -0.0082 -0.2933
 1954ntf    cn114176   6.636   5.292   3.607 -0.1820  0.2319 -0.1833
 1954ntf    sn214177   6.492   5.249   3.709 -0.3191  0.4727 -0.2773
 1954ntf    nn314178   6.491   5.369   3.810  0.2242  0.2271  0.0184
 1954ntf    sn214179   6.394   5.389   3.932  0.3127  0.1075  0.1078
 1954ntf    cn114180   6.518   5.346   4.059  0.2736 -0.1168  0.0700
 1954ntf    fn414181   6.657   5.207   3.507  0.7154 -0.2147  0.3767
 1954ntf    fn414182   6.623   5.411   3.550  0.0678  0.3237 -0.0505
 1954ntf    fn414183   6.750   5.294   3.674 -0.4320  0.3822  0.2393
 1954ntf    on514184   6.385   5.247   3.612 -0.6262 -0.2284  0.0711
 1954ntf    on514185   6.539   5.127   3.767 -0.6183  0.6844  0.4214
 1954ntf    on514186   6.291   5.291   3.955  0.5841 -0.2959 -0.3855
 1954ntf    on514187   6.368   5.529   3.952  0.1883  0.1098 -0.0732
 1954ntf    fn414188   6.632   5.410   4.044  0.2119 -0.0405 -0.0797
 1954ntf    fn414189   6.480   5.370   4.183  0.5266  0.1987  0.0881
 1954ntf    fn414190   6.536   5.215   4.060  0.0760 -0.1446  0.1435
 1955ntf    cn114191   0.274   0.812   0.783  0.4136  0.0535 -0.4747
 1955ntf    sn214192   0.216   0.832   0.954  0.0811 -0.2300 -0.5538
 1955ntf    nn314193   0.237   0.988   0.965  0.5121 -0.2803 -0.6860
 1955ntf    sn214194   0.135   1.098   0.921  0.2530 -0.2045  0.1023
 1955ntf    cn114195   0.064   1.163   1.076 -0.1370 -0.1646 -0.0931
 1955ntf    fn414196   0.388   0.876   0.761  0.3841  0.4240  0.3889
 1955ntf    fn414197   0.301   0.687   0.750 -0.1105 -0.1483 -0.1480
 1955ntf    fn414198   0.185   0.855   0.696  0.2318 -0.3500 -0.4883
 1955ntf    on514199   0.084   0.774   0.960  0.0607 -0.1718 -0.4196
 1955ntf    on514200   0.313   0.757   1.029  0.0019  0.2467  0.0373
 1955ntf    on514201   0.027   1.045   0.842 -0.1677  0.1745  0.4126
 1955ntf    on514202   0.202   1.216   0.872  0.4667 -0.2873  0.1928
 1955ntf    fn414203   0.138   1.244   1.149 -0.1231 -0.4302  0.1872
 1955ntf    fn414204  -0.046   1.228   1.041  0.1520  0.0726 -0.5764
 1955ntf    fn414205   0.034   1.067   1.161 -0.5002  0.0336  0.0047
 1956ntf    cn114206   2.749   0.825   0.513  0.2179 -0.2574 -0.1657
 1956ntf    sn214207   2.636   0.910   0.399  0.1334  0.0063  0.1152
 1956ntf    nn314208   2.577   1.017   0.499  0.2395 -0.0362  0.2231
 1956ntf    sn214209   2.498   1.147   0.461  0.3258  0.0459  0.3255
 1956ntf    cn114210   2.620   1.278   0.494  0.0758  0.3579  0.0187
 1956ntf    fn414211   2.678   0.740   0.586 -0.2941  0.1423 -0.1953
 1956ntf    fn414212   2.847   0.757   0.455  0.5910  0.2815 -0.1679
 1956ntf    fn414213   2.807   0.908   0.597  0.2686 -0.4174 -0.0419
 1956ntf    on514214   2.720   0.967   0.296  0.1951 -0.9609 -0.3735
 1956ntf    on514215   2.540   0.812   0.357  0.3950 -0.3251  0.2918
 1956ntf    on514216   2.385   1.170   0.548  0.2397  0.5463  0.0812
 1956ntf    on514217   2.462   1.161   0.322  0.1625  0.1841  0.3812
 1956ntf    fn414218   2.653   1.282   0.622  0.1234  0.1154  0.0149
 1956ntf    fn414219   2.733   1.256   0.429 -0.0463  0.3710 -0.1984
 1956ntf    fn414220   2.580   1.398   0.456 -0.1824  0.2883  0.0691
 1957ntf    cn114221   6.084   5.912   6.381  0.0836  0.3351  0.1175
 1957ntf    sn214222   6.065   5.736   6.421  0.2896  0.2371 -0.2060
 1957ntf    nn314223   6.188   5.663   6.357 -0.0025 -0.6991  0.2920
 1957ntf    sn214224   6.192   5.601   6.212 -0.2822 -0.4469  0.1751
 1957ntf    cn114225   6.360   5.653   6.166 -0.4295  0.1309  0.2834
 1957ntf    fn414226   6.211   5.947   6.365  0.1941  0.2871  0.8663
 1957ntf    fn414227   6.024   5.938   6.266 -0.1009 -0.6451 -0.0108
 1957ntf    fn414228   6.041   6.000   6.470 -0.1189  0.1536  0.2003
 1957ntf    on514229   6.072   5.734   6.565 -0.8015 -0.1171 -0.1454
 1957ntf    on514230   5.940   5.696   6.362  0.4872 -0.3163 -0.2499
 1957ntf    on514231   6.108   5.657   6.109  0.1790 -0.7116 -0.3479
 1957ntf    on514232   6.202   5.457   6.217  0.3367 -0.4076  0.1642
 1957ntf    fn414233   6.354   5.780   6.129 -0.0566  0.2167  0.5168
 1957ntf    fn414234   6.440   5.638   6.270 -0.1062  0.6184  0.1053
 1957ntf    fn414235   6.425   5.591   6.069 -0.3276 -0.4513  0.7184
 1958ntf    cn114236   5.960   1.429   6.226  0.5401  0.2205 -0.4558
 1958ntf    sn214237   5.974   1.287   6.114  0.3608 -0.2967  0.1740
 1958ntf    nn314238   5.851   1.199   6.157 -0.2530  0.5322  0.1356
 1958ntf    sn214239   5.835   1.090   6.269  0.1052  0.1410 -0.1885
 1958ntf    cn114240   5.836   0.946   6.159  0.0190  0.0664 -0.0918
 1958ntf    fn414241   5.842   1.488   6.214  0.4800  0.2323  0.1986
 1958ntf    fn414242   5.973   1.398   6.354 -0.2149  0.2819 -0.3606
 1958ntf    fn414243   6.050   1.524   6.206  0.2512  0.4889 -0.4931
 1958ntf    on514244   5.945   1.337   5.982  0.6187 -0.4938  0.0430
 1958ntf    on514245   6.102   1.225   6.139  0.5447  0.0512  0.0977
 1958ntf    on514246   5.701   1.090   6.322  0.0531 -0.3570 -0.3197
 1958ntf    on514247   5.952   1.074   6.351  0.1301  0.6094 -0.1295
 1958ntf    fn414248   5.752   0.960   6.058 -0.3109  0.6142  0.2576
 1958ntf    fn414249   5.951   0.930   6.094  0.1214  0.6944 -0.0687
 1958ntf    fn414250   5.809   0.827   6.211 -0.0195  0.0763 -0.0887
 1959ntf    cn114251   0.892   4.769   6.860  0.2389  0.2010  0.0677
 1959ntf    sn214252   0.921   4.596   6.907  0.0469  0.1813  0.1149
 1959ntf    nn314253   0.863   4.593   7.052  0.3857 -0.7086  0.2404
 1959ntf    sn214254   0.932   4.619   7.191  0.3857  0.3252  0.0513
 1959ntf    cn114255   0.790   4.660   7.296  0.2300  0.4242 -0.1959
 1959ntf    fn414256   0.952   4.850   6.946 -0.1013 -0.0928  0.5905
 1959ntf    fn414257   0.938   4.796   6.739  0.1203  0.8773  0.1694
 1959ntf    fn414258   0.765   4.805   6.870  0.1974  0.0284  0.1700
 1959ntf    on514259   0.855   4.511   6.809  0.4199 -0.2869  0.2646
 1959ntf    on514260   1.064   4.584   6.909  0.0297 -0.1283 -0.1895
 1959ntf    on514261   1.014   4.736   7.211 -0.0604  0.5195  0.7910
 1959ntf    on514262   0.974   4.494   7.249 -0.7945 -0.3620 -0.5320
 1959ntf    fn414263   0.724   4.765   7.249 -0.1450 -0.0606 -0.7724
 1959ntf    fn414264   0.694   4.568   7.291  0.1160  0.5079  0.4062
 1959ntf    fn414265   0.820   4.693   7.420 -0.0202 -0.1775  0.0304
 1960ntf    cn114266   6.002   6.013   0.802  0.5403  0.3753 -0.0918
 1960ntf    sn214267   5.966   6.148   0.919 -0.0625  0.0880  0.0606
 1960ntf    nn314268   6.014   6.271   0.833 -0.0944  0.1438  0.1228
 1960ntf    sn214269   5.969   6.313   0.689 -0.1777 -0.1029  0.0772
 1960ntf    cn114270   6.036   6.481   0.682 -0.0930 -0.1525 -0.3170
 1960ntf    fn414271   5.988   5.896   0.861 -0.4136  0.3936 -0.2584
 1960ntf    fn414272   5.922   6.005   0.697 -0.1305  0.0959  0.4306
 1960ntf    fn414273   6.124   6.009   0.752  0.3254 -0.0486 -0.5852
 1960ntf    on514274   5.822   6.148   0.932 -0.0625  0.5908  0.0811
 1960ntf    on514275   6.045   6.138   1.039  0.2338 -0.0929 -0.1489
 1960ntf    on514276   5.828   6.340   0.675 -0.2587 -0.5918 -0.0951
 1960ntf    on514277   6.042   6.241   0.587 -0.7691  0.5164 -0.7984
 1960ntf    fn414278   6.167   6.481   0.699 -0.1058  0.3386 -0.1978
 1960ntf    fn414279   6.011   6.546   0.569 -0.1592  0.6512  0.1493
 1960ntf    fn414280   5.985   6.567   0.769  0.2906 -0.2395 -0.0012
 1961ntf    cn114281   0.012   4.890   0.440  0.0098 -0.1227 -0.3427
 1961ntf    sn214282  -0.032   5.064   0.411 -0.0869 -0.1580 -0.4097
 1961ntf    nn314283   0.083   5.122   0.321  0.0367  0.0218 -0.1359
 1961ntf    sn214284   0.096   5.112   0.165 -0.0517  0.2053 -0.1553
 1961ntf    cn114285   0.245   5.214   0.155 -0.0947  0.3475  0.6017
 1961ntf    fn414286  -0.008   4.812   0.335 -0.0450 -0.2658 -0.2249
 1961ntf    fn414287   0.138   4.882   0.479 -0.0925 -0.2321 -0.0281
 1961ntf    fn414288  -0.066   4.845   0.537  0.1470  0.3864  0.0099
 1961ntf    on514289  -0.164   5.050   0.355 -0.3406  0.4743  0.0222
 1961ntf    on514290  -0.017   5.121   0.543  0.1913 -0.6752 -0.2179
 1961ntf    on514291   0.008   5.196   0.088  0.3003  0.0669 -0.7135
 1961ntf    on514292   0.141   4.987   0.109 -0.1706 -0.1431  0.5145
 1961ntf    fn414293   0.256   5.307   0.249 -0.0172  0.5498  0.3914
 1961ntf    fn414294   0.359   5.147   0.168  0.0121  0.4923  0.4130
 1961ntf    fn414295   0.256   5.271   0.036  0.0321  0.2470  0.5642
 1962ntf    cn114296   4.772   5.645   1.248  0.2088  0.0145  0.3507
 1962ntf    sn214297   4.626   5.743   1.297 -0.0719 -0.1293 -0.1895
 1962ntf    nn314298   4.586   5.649   1.416  0.3810 -0.0557  0.0241
 1962ntf    sn214299   4.612   5.661   1.571 -0.0028 -0.3768  0.1149
 1962ntf    cn114300   4.446   5.676   1.644 -0.2520 -0.0124 -0.5198
 1962ntf    fn414301   4.865   5.643   1.343 -0.2651 -0.2143  0.8170
 1962ntf    fn414302   4.743   5.520   1.215  0.5407 -0.1726  0.7567
 1962ntf    fn414303   4.830   5.690   1.138  0.0684 -0.0901  0.2336
 1962ntf    on514304   4.670   5.877   1.326 -0.0725 -0.2808  0.5301
 1962ntf    on514305   4.525   5.719   1.197  0.5002 -0.4632 -0.6963
 1962ntf    on514306   4.674   5.786   1.607  0.3762 -0.6151  0.2982
 1962ntf    on514307   4.655   5.534   1.625  0.5674 -0.1615  0.1779
 1962ntf    fn414308   4.442   5.634   1.769  0.3142  0.0411 -0.4801
 1962ntf    fn414309   4.399   5.800   1.642 -0.0505  0.0616 -0.7625
 1962ntf    fn414310   4.356   5.604   1.579 -0.6229  0.3165 -0.3749
 1963ntf    cn114311   6.318   5.805   0.575  0.4361 -0.3299 -0.0521
 1963ntf    sn214312   6.350   5.665   0.464 -0.0223 -0.3416 -0.1708
 1963ntf    nn314313   6.247   5.558   0.517 -0.0059 -0.1883  0.1712
 1963ntf    sn214314   6.263   5.444   0.623  0.3404 -0.5296 -0.2403
 1963ntf    cn114315   6.287   5.301   0.513  0.4076 -0.4944 -0.2707
 1963ntf    fn414316   6.354   5.782   0.700  0.4213 -0.3440 -0.0505
 1963ntf    fn414317   6.377   5.915   0.533 -0.3355  0.1948  0.2047
 1963ntf    fn414318   6.188   5.832   0.574  0.5600  0.2828 -0.1913
 1963ntf    on514319   6.303   5.714   0.336 -0.2699 -0.1428 -0.0052
 1963ntf    on514320   6.490   5.642   0.486 -0.1184 -0.2672  0.5350
 1963ntf    on514321   6.135   5.397   0.673 -0.0862  0.9797  0.1348
 1963ntf    on514322   6.380   5.448   0.707  0.0517 -0.7754  0.1831
 1963ntf    fn414323   6.256   5.185   0.569  0.0492 -0.5647 -0.6111
 1963ntf    fn414324   6.201   5.315   0.414 -0.1455  0.2138  0.2993
 1963ntf    fn414325   6.401   5.284   0.448  0.3931  0.0312 -0.4435
 1964ntf    cn114326   5.198   3.292   3.965 -0.2729 -0.2440 -0.2190
 1964ntf    sn214327   5.180   3.139   3.868  0.0455 -0.2014 -0.3463
 1964ntf    nn314328   5.231   3.031   3.970  0.2575 -0.0005 -0.2394
 1964ntf    sn214329   5.214   2.876   3.954  0.1651  0.0153 -0.2940
 1964ntf    cn114330   5.059   2.856   4.047  0.3640 -0.1809 -0.0039
 1964ntf    fn414331   5.319   3.317   4.012 -0.3964  0.0039 -0.0344
 1964ntf    fn414332   5.177   3.390   3.879 -1.0179  0.1931  0.4446
 1964ntf    fn414333   5.114   3.316   4.064  0.3347 -0.2424  0.3001
 1964ntf    on514334   5.038   3.131   3.842 -0.0147 -0.1677 -0.0360
 1964ntf    on514335   5.270   3.152   3.756  0.6722  0.1357  0.1941
 1964ntf    on514336   5.310   2.804   4.033  0.3449  0.1593 -0.3817
 1964ntf    on514337   5.190   2.817   3.824  0.2027 -0.0397 -0.2762
 1964ntf    fn414338   4.960   2.907   3.975  0.2127 -0.3875  0.0555
 1964ntf    fn414339   5.029   2.730   4.076 -0.2589 -0.1214 -0.3598
 1964ntf    fn414340   5.056   2.927   4.159  0.3074  0.6951 -0.5528
 1965ntf    cn114341   4.683   6.593   4.172 -0.1228 -0.1862 -0.2887
 1965ntf    sn214342   4.765   6.653   4.322 -0.2182 -0.3200 -0.1832
 1965ntf    nn314343   4.718   6.803   4.329 -0.1098 -0.2724 -0.4588
 1965ntf    sn214344   4.809   6.929   4.350 -0.2758 -0.2392  0.0786
 1965ntf    cn114345   4.873   6.896   4.517 -0.1644 -0.3411  0.0151
 1965ntf    fn414346   4.551   6.594   4.184 -0.1132 -0.0990 -0.1842
 1965ntf    fn414347   4.706   6.669   4.066  0.0107 -0.0483 -0.1608
 1965ntf    fn414348   4.720   6.471   4.139 -0.2746 -0.2531 -0.2126
 1965ntf    on514349   4.706   6.563   4.418 -0.8802  0.4137  0.1150
 1965ntf    on514350   4.904   6.623   4.294 -0.1886 -0.0271 -0.3543
 1965ntf    on514351   4.731   7.050   4.360  0.1741  0.0778 -0.1925
 1965ntf    on514352   4.923   6.933   4.263 -0.4511 -0.5395 -0.1643
 1965ntf    fn414353   4.946   6.994   4.569 -0.0930 -0.5454  0.3015
 1965ntf    fn414354   4.773   6.873   4.601  0.2845 -0.5516  0.4931
 1965ntf    fn414355   4.941   6.783   4.513  0.3444 -0.0281 -0.2449
 1966ntf    cn114356   2.402   0.672   3.174 -0.3153 -0.3010 -0.9837
 1966ntf    sn214357   2.238   0.719   3.236  0.3864  0.3756  0.3941
 1966ntf    nn314358   2.251   0.872   3.273 -0.4310  0.4836  0.2417
 1966ntf    sn214359   2.251   0.946   3.411  0.2445  0.1279  0.4358
 1966ntf    cn114360   2.072   0.949   3.440  0.1170 -0.1395 -0.3069
 1966ntf    fn414361   2.477   0.623   3.271 -0.7499 -0.1344 -0.5625
 1966ntf    fn414362   2.390   0.584   3.076 -0.0172 -1.5331  0.0612
 1966ntf    fn414363   2.472   0.777   3.132  0.4645 -0.3113  0.2363
 1966ntf    on514364   2.153   0.690   3.124  0.6067 -0.0518  0.3352
 1966ntf    on514365   2.214   0.635   3.351 -0.1736 -0.5528 -0.3959
 1966ntf    on514366   2.284   1.087   3.404  0.2649  0.1213  0.3947
 1966ntf    on514367   2.301   0.868   3.521  0.5278 -0.0706  0.1680
 1966ntf    fn414368   2.001   1.011   3.347 -0.5512 -0.0361  0.2698
 1966ntf    fn414369   2.026   0.825   3.453 -0.0571 -0.0530 -0.0967
 1966ntf    fn414370   2.041   1.010   3.553 -0.2070 -0.1636 -0.3821
 1967ntf    cn114371   6.736   0.152   5.471  0.2237 -0.0272  0.0463
 1967ntf    sn214372   6.912   0.114   5.496  0.2867  0.2185 -0.0268
 1967ntf    nn314373   6.918   0.106   5.652 -0.1962 -0.2040 -0.0278
 1967ntf    sn214374   6.944  -0.017   5.746  0.3337  0.1601  0.3090
 1967ntf    cn114375   6.887   0.058   5.901  0.1238  0.1827  0.2208
 1967ntf    fn414376   6.710   0.195   5.349  0.3109  0.5988  0.2490
 1967ntf    fn414377   6.656   0.047   5.486  0.2452 -0.0441  0.0415
 1967ntf    fn414378   6.709   0.248   5.557 -0.0581 -0.1800  0.1309
 1967ntf    on514379   6.931  -0.010   5.425 -0.5411 -0.1771  0.4365
 1967ntf    on514380   6.968   0.232   5.436 -0.1813  0.5008  0.0849
 1967ntf    on514381   7.083  -0.049   5.768  0.1512 -0.5851  0.3972
 1967ntf    on514382   6.844  -0.121   5.738  0.3198  0.1607  0.4737
 1967ntf    fn414383   6.764   0.106   5.896 -0.0969 -0.4231 -0.3203
 1967ntf    fn414384   6.892  -0.032   5.998  0.7162 -0.2879 -0.2346
 1967ntf    fn414385   6.967   0.155   5.943  0.2480 -0.0555  0.5354
 1968ntf    cn114386   4.027   5.451   3.420 -0.1121 -0.3754  0.1704
 1968ntf    sn214387   4.083   5.405   3.253 -0.2512 -0.0986  0.0467
 1968ntf    nn314388   3.951   5.347   3.193 -0.1208 -0.3173 -0.0311
 1968ntf    sn214389   3.935   5.291   3.047 -0.2300 -0.0375 -0.1255
 1968ntf    cn114390   3.767   5.346   3.004 -0.3050  0.0783  0.3143
 1968ntf    fn414391   4.128   5.488   3.497 -0.2341  0.0196  0.1408
 1968ntf    fn414392   3.933   5.544   3.412 -0.1858 -0.4178  0.5523
 1968ntf    fn414393   3.970   5.354   3.490 -0.5550 -0.6250 -0.5181
 1968ntf    on514394   4.130   5.528   3.193  0.0852 -0.2110  0.0771
 1968ntf    on514395   4.178   5.300   3.284  0.1976  0.2228 -0.2250
 1968ntf    on514396   3.933   5.147   3.045  0.5058 -0.0487 -0.2104
 1968ntf    on514397   4.025   5.363   2.959  0.0485  0.0123  0.1994
 1968ntf    fn414398   3.747   5.307   2.880  0.1636  0.0846  0.2350
 1968ntf    fn414399   3.676   5.289   3.082  0.1613 -0.1817  0.6745
 1968ntf    fn414400   3.750   5.476   3.022 -0.5204  0.1346 -0.2800
 1969ntf    cn114401   2.515   0.664   4.365  0.5297  0.0708  0.0051
 1969ntf    sn214402   2.455   0.827   4.417 -0.1326 -0.2026  0.1041
 1969ntf    nn314403   2.428   0.876   4.271  0.5909  0.4730  0.1873
 1969ntf    sn214404   2.294   0.913   4.197  0.4273 -0.0911  0.1938
 1969ntf    cn114405   2.319   1.093   4.190 -0.2507 -0.0215 -0.5375
 1969ntf    fn414406   2.542   0.585   4.468 -0.1211 -0.3963 -0.1762
 1969ntf    fn414407   2.426   0.604   4.287  0.3698 -0.3280  0.4831
 1969ntf    fn414408   2.626   0.671   4.294  0.1753 -0.5572 -0.6236
 1969ntf    on514409   2.339   0.795   4.497 -0.2661 -0.2737 -0.1171
 1969ntf    on514410   2.571   0.894   4.470 -0.0100 -0.0144 -0.4049
 1969ntf    on514411   2.173   0.908   4.276  0.5558 -0.5052  0.3700
 1969ntf    on514412   2.281   0.869   4.061 -0.5107  0.5180  0.0758
 1969ntf    fn414413   2.218   1.162   4.139 -0.0780  0.2559 -0.5071
 1969ntf    fn414414   2.345   1.138   4.312 -0.0769  0.0367 -0.5970
 1969ntf    fn414415   2.427   1.120   4.119  0.0376  0.3170  0.0252
 1970ntf    cn114416   1.003   4.950   5.554  0.2852 -0.1054 -0.0395
 1970ntf    sn214417   0.928   4.835   5.436  0.2109 -0.0910 -0.0067
 1970ntf    nn314418   0.991   4.875   5.298 -0.1100 -0.6717 -0.3267
 1970ntf    sn214419   0.918   4.949   5.180  0.1233  0.0666 -0.0152
 1970ntf    cn114420   0.916   4.809   5.064  0.0105 -0.0844  0.1676
 1970ntf    fn414421   0.967   4.938   5.681  0.0328  0.0825 -0.0927
 1970ntf    fn414422   1.135   4.946   5.546  0.2870  0.2904 -0.2339
 1970ntf    fn414423   0.974   5.076   5.527 -0.2131 -0.1687  0.1961
 1970ntf    on514424   0.981   4.702   5.455  0.2203 -0.1349 -0.3309
 1970ntf    on514425   0.786   4.850   5.454  0.1473  0.1055 -0.6744
 1970ntf    on514426   0.993   5.052   5.114  0.7580 -0.5328 -0.2426
 1970ntf    on514427   0.778   4.975   5.205  0.0298 -0.3398 -0.1056
 1970ntf    fn414428   0.820   4.820   4.974 -0.2360 -0.8086  0.3292
 1970ntf    fn414429   1.034   4.791   5.007  0.1798  0.7789  0.2266
 1970ntf    fn414430   0.889   4.700   5.135  0.4030 -0.1510  0.2159
 1971ntf    cn114431   5.247   6.673   3.643 -0.1693  0.1337 -0.2644
 1971ntf    sn214432   5.110   6.743   3.546 -0.2750 -0.1401 -0.3134
 1971ntf    nn314433   5.033   6.610   3.513  0.0960 -0.4261 -0.0356
 1971ntf    sn214434   4.932   6.530   3.602 -0.0535 -0.1110  0.0801
 1971ntf    cn114435   4.998   6.363   3.576 -0.1842 -0.1587  0.0528
 1971ntf    fn414436   5.325   6.603   3.562 -0.3570  0.1413 -0.4542
 1971ntf    fn414437   5.333   6.763   3.688 -0.0028 -0.2677  0.2251
 1971ntf    fn414438   5.213   6.601   3.749  0.5263  0.2794  0.0677
 1971ntf    on514439   5.036   6.836   3.627 -0.8162 -0.1036 -0.8388
 1971ntf    on514440   5.176   6.802   3.433 -0.4837 -0.4003 -0.5717
 1971ntf    on514441   4.800   6.524   3.544  0.0851 -0.9864 -0.1636
 1971ntf    on514442   4.948   6.551   3.744  0.2061  0.3306 -0.0138
 1971ntf    fn414443   5.130   6.367   3.560 -0.2587 -0.0572 -0.5673
 1971ntf    fn414444   4.975   6.280   3.677  0.5474 -0.2993  0.1137
 1971ntf    fn414445   4.955   6.321   3.458  0.0631 -0.4304  0.0561
 1972ntf    cn114446   4.831   0.489   1.281 -0.3359 -0.1940 -0.2065
 1972ntf    sn214447   4.938   0.384   1.383 -0.3634 -0.1218 -0.1023
 1972ntf    nn314448   4.841   0.261   1.375 -0.4081 -0.0500 -0.6852
 1972ntf    sn214449   4.857   0.108   1.406  0.2771  0.0732 -0.4309
 1972ntf    cn114450   4.835   0.095   1.586 -0.2890  0.3275 -0.4817
 1972ntf    fn414451   4.788   0.412   1.183 -0.1721 -0.2310 -0.2499
 1972ntf    fn414452   4.719   0.531   1.338 -0.0629  0.3561 -0.0597
 1972ntf    fn414453   4.888   0.596   1.227  0.1406 -0.3708 -0.0536
 1972ntf    on514454   5.056   0.373   1.301 -0.3539 -0.4322 -0.0508
 1972ntf    on514455   4.947   0.453   1.509 -1.2885 -0.3310  0.0870
 1972ntf    on514456   4.989   0.056   1.379 -0.2077 -1.3682 -0.1179
 1972ntf    on514457   4.752   0.026   1.351 -0.4761  0.7485 -0.0190
 1972ntf    fn414458   4.861  -0.025   1.635  0.3102  0.4887 -0.3984
 1972ntf    fn414459   4.908   0.186   1.649 -0.1882 -0.1837  0.1548
 1972ntf    fn414460   4.711   0.132   1.616  0.0989  0.7787  0.6124
 1973ntf    cn114461   0.533   5.404   3.346 -0.0153 -0.3395 -0.1253
 1973ntf    sn214462   0.545   5.442   3.523  0.1292  0.0006 -0.2074
 1973ntf    nn314463   0.556   5.293   3.571  0.2192 -0.1143 -0.5784
 1973ntf    sn214464   0.644   5.242   3.691 -0.4303 -0.2310 -0.1477
 1973ntf    cn114465   0.514   5.208   3.813 -0.0268  0.3801  0.4575
 1973ntf    fn414466   0.636   5.337   3.298  0.1660 -0.0283 -0.1726
 1973ntf    fn414467   0.425   5.334   3.314 -0.2201 -0.3179  0.5092
 1973ntf    fn414468   0.526   5.517   3.276  0.3825  0.1808  0.6652
 1973ntf    on514469   0.668   5.517   3.536  0.2525 -0.3761  0.8799
 1973ntf    on514470   0.423   5.511   3.557  0.1913  0.0982 -0.1808
 1973ntf    on514471   0.728   5.338   3.757 -0.4750 -0.1629 -0.1891
 1973ntf    on514472   0.713   5.117   3.670  0.2222  0.0402  0.3502
 1973ntf    fn414473   0.435   5.106   3.784  0.2232  0.2990  0.0570
 1973ntf    fn414474   0.571   5.171   3.927  0.2755  0.1456  0.2318
 1973ntf    fn414475   0.439   5.315   3.832 -0.7003  0.0848 -0.4893
 1974ntf    cn114476   2.359   2.423   6.819 -0.1576 -0.0720  0.0232
 1974ntf    sn214477   2.285   2.271   6.752 -0.0129  0.0731 -0.4732
 1974ntf    nn314478   2.292   2.310   6.600  0.5327  0.2439 -0.4091
 1974ntf    sn214479   2.319   2.230   6.468 -0.2368 -0.3083 -0.2466
 1974ntf    cn114480   2.494   2.274   6.445 -0.2481 -0.4423 -0.6020
 1974ntf    fn414481   2.280   2.529   6.822 -0.1191 -0.0432  0.0228
 1974ntf    fn414482   2.398   2.409   6.944 -0.2152  0.0488  0.0558
 1974ntf    fn414483   2.469   2.455   6.754  0.2579 -1.1394  0.1826
 1974ntf    on514484   2.362   2.158   6.800 -0.4936  0.0538  0.2648
 1974ntf    on514485   2.150   2.270   6.802  0.3475  0.2360  0.5407
 1974ntf    on514486   2.250   2.279   6.352  0.0188 -0.0219 -0.2802
 1974ntf    on514487   2.331   2.086   6.474  0.2135 -0.2694 -0.1678
 1974ntf    fn414488   2.543   2.223   6.333  0.2852  0.0997 -0.6260
 1974ntf    fn414489   2.499   2.406   6.433 -0.6814 -0.3192  0.4393
 1974ntf    fn414490   2.571   2.238   6.547  0.2401  0.3919 -0.6661
 1975ntf    cn114491   0.048   0.996   2.556 -0.1905  0.2054 -0.0328
 1975ntf    sn214492  -0.001   1.120   2.680  0.0171 -0.0425  0.2997
 1975ntf    nn314493   0.008   1.027   2.806  0.6934  0.1693  0.4152
 1975ntf    sn214494  -0.040   1.055   2.953 -0.0606  0.1714  0.1729
 1975ntf    cn114495  -0.207   0.984   2.949  0.0179 -0.0203  0.2639
 1975ntf    fn414496   0.170   0.957   2.591 -0.5288 -0.3615  0.5476
 1975ntf    fn414497  -0.024   0.885   2.550 -0.6136  0.4828 -0.0959
 1975ntf    fn414498   0.062   1.047   2.435 -0.2372 -0.2771 -0.2439
 1975ntf    on514499   0.098   1.225   2.667  0.1271 -0.2209 -0.3710
 1975ntf    on514500  -0.133   1.156   2.637  0.0744 -0.1705  0.0156
 1975ntf    on514501  -0.066   1.193   2.985  0.2334  0.2325  0.1533
 1975ntf    on514502   0.037   0.972   3.043 -0.0648  0.0123  0.0300
 1975ntf    fn414503  -0.205   0.863   2.895 -0.2588  0.4003 -0.7058
 1975ntf    fn414504  -0.262   0.973   3.069 -0.0159 -0.1566  0.2358
 1975ntf    fn414505  -0.291   1.057   2.877 -0.2593 -0.5217  0.0712
 1976ntf    cn114506   2.587   1.867   5.087  0.7489 -0.4522 -0.7155
 1976ntf    sn214507   2.568   2.047   5.106  0.3220 -0.5906  0.1812
 1976ntf    nn314508   2.494   2.046   5.245 -0.7761  0.5228 -0.3783
 1976ntf    sn214509   2.526   2.099   5.389 -0.0823  0.0907 -0.3682
 1976ntf    cn114510   2.446   2.261   5.408  0.0979  0.1814 -0.3901
 1976ntf    fn414511   2.660   1.806   5.179  0.2451 -0.6149 -0.4227
 1976ntf    fn414512   2.475   1.797   5.086  0.3611  0.1397  0.3587
 1976ntf    fn414513   2.645   1.836   4.972  0.3405 -0.0423 -1.0356
 1976ntf    on514514   2.695   2.114   5.105  0.2564 -0.4665 -0.0928
 1976ntf    on514515   2.474   2.076   5.001  0.4703  0.2371  0.2738
 1976ntf    on514516   2.664   2.123   5.422 -0.0987 -0.1369 -0.1263
 1976ntf    on514517   2.454   2.025   5.490 -0.3449 -0.1047 -0.6951
 1976ntf    fn414518   2.443   2.297   5.536  0.3494 -0.1993 -0.2760
 1976ntf    fn414519   2.505   2.363   5.346  0.4571  0.0705 -0.2359
 1976ntf    fn414520   2.322   2.264   5.362  0.0127 -0.1000 -0.1766
 1977ntf    cn114521   1.273   3.946   1.402 -0.1306  0.3149  0.1256
 1977ntf    sn214522   1.326   4.076   1.518 -0.0096  0.2665  0.1245
 1977ntf    nn314523   1.198   4.066   1.609  0.2492 -0.0544  0.4553
 1977ntf    sn214524   1.071   4.158   1.616  0.3093  0.0794 -0.1618
 1977ntf    cn114525   1.061   4.148   1.797 -0.1077 -0.4532 -0.2136
 1977ntf    fn414526   1.175   3.883   1.465 -0.1354  0.3425  0.1458
 1977ntf    fn414527   1.221   3.984   1.286  0.2493 -0.6689 -0.3793
 1977ntf    fn414528   1.361   3.850   1.381 -0.2613  0.3024 -0.3964
 1977ntf    on514529   1.435   4.012   1.587 -0.0407 -0.4510 -0.4815
 1977ntf    on514530   1.354   4.189   1.433  0.1740  0.2555  0.1719
 1977ntf    on514531   0.948   4.095   1.575 -0.3035  0.8305  0.4807
 1977ntf    on514532   1.091   4.299   1.589 -0.8346  0.2930  0.0683
 1977ntf    fn414533   1.057   4.020   1.830 -0.0293 -0.3635  0.1467
 1977ntf    fn414534   1.170   4.197   1.853 -0.5677  0.1039  0.2091
 1977ntf    fn414535   0.959   4.205   1.858  0.4432 -0.2085  0.4959
 1978ntf    cn114536   0.544   4.334   1.011  0.0071  0.0491 -0.1873
 1978ntf    sn214537   0.616   4.181   0.944 -0.1648 -0.0662 -0.1081
 1978ntf    nn314538   0.486   4.094   0.933 -0.6853  0.5763  0.7969
 1978ntf    sn214539   0.486   3.939   0.905 -0.0047  0.6501  0.3787
 1978ntf    cn114540   0.319   3.899   0.965 -0.2045 -0.0803 -0.6433
 1978ntf    fn414541   0.430   4.363   0.950  0.1568 -0.1969 -0.5923
 1978ntf    fn414542   0.506   4.315   1.136 -0.2029 -0.0346 -0.2624
 1978ntf    fn414543   0.632   4.433   1.005  0.3024 -0.2123 -0.1657
 1978ntf    on514544   0.657   4.238   0.818 -0.1564  0.2848  0.0521
 1978ntf    on514545   0.713   4.151   1.047 -0.0838  0.1690 -0.1152
 1978ntf    on514546   0.571   3.864   0.995  0.0485  0.0234 -0.1861
 1978ntf    on514547   0.473   3.895   0.769 -0.4004  0.2455  0.5450
 1978ntf    fn414548   0.288   3.771   0.955 -0.2758 -0.1236  0.0951
 1978ntf    fn414549   0.304   3.917   1.095  0.3167  0.1410 -0.6107
 1978ntf    fn414550   0.233   3.979   0.903 -0.2686 -0.2956 -0.8331
 1979ntf    cn114551   0.870   0.719   5.082  0.1943  0.0568 -0.1719
 1979ntf    sn214552   0.945   0.724   4.916  0.1482 -0.0946 -0.1978
 1979ntf    nn314553   0.833   0.646   4.839  0.0998 -0.6473  0.4235
 1979ntf    sn214554   0.710   0.716   4.771  0.4904 -0.3595  0.0047
 1979ntf    cn114555   0.578   0.614   4.844 -0.0365  0.0898 -0.3144
 1979ntf    fn414556   0.959   0.712   5.179 -0.3944  0.2120  0.3875
 1979ntf    fn414557   0.789   0.822   5.103  0.5391  0.3312 -0.1828
 1979ntf    fn414558   0.791   0.613   5.083 -0.1827  0.3379  0.0942
 1979ntf    on514559   0.969   0.864   4.889  0.4699 -0.2271 -0.6013
 1979ntf    on514560   1.062   0.641   4.928  0.4990  0.3087 -0.7934
 1979ntf    on514561   0.708   0.677   4.632  0.1906 -0.2824 -0.0134
 1979ntf    on514562   0.679   0.851   4.811  0.6823 -0.4647  0.5140
 1979ntf    fn414563   0.605   0.557   4.961  0.2194  0.2682 -0.2854
 1979ntf    fn414564   0.466   0.683   4.854 -0.0451 -0.0599  0.7038
 1979ntf    fn414565   0.546   0.512   4.767  0.6649  0.0095 -0.5035
 1980ntf    cn114566   3.129   6.630   1.851  0.0006 -0.3518 -0.2998
 1980ntf    sn214567   3.069   6.730   1.990  0.0140 -0.4149 -0.2490
 1980ntf    nn314568   2.916   6.738   1.955  0.0334  0.6611 -0.0951
 1980ntf    sn214569   2.858   6.860   1.874 -0.2137  0.4359 -0.2560
 1980ntf    cn114570   2.811   6.987   1.996  0.0527  0.0454  0.2604
 1980ntf    fn414571   3.043   6.538   1.810 -0.3864 -0.0728 -0.1157
 1980ntf    fn414572   3.152   6.703   1.742  0.4904 -0.2464 -0.1269
 1980ntf    fn414573   3.238   6.566   1.889 -0.2181 -0.7014 -0.2595
 1980ntf    on514574   3.079   6.647   2.108 -0.5751 -0.0596  0.0530
 1980ntf    on514575   3.145   6.852   1.992  0.0168 -0.4192  0.0006
 1980ntf    on514576   2.730   6.816   1.824 -0.1519 -0.1967  0.1281
 1980ntf    on514577   2.942   6.929   1.780  0.1420  0.1772 -0.1305
 1980ntf    fn414578   2.723   7.079   1.960 -0.0640  0.1180  0.7269
 1980ntf    fn414579   2.772   6.937   2.112 -0.1775 -0.3086  0.0351
 1980ntf    fn414580   2.915   7.060   2.031  0.6651 -0.4112 -0.5752
 1981ntf    cn114581   1.010   1.510   0.766  0.3048 -0.3815  0.3087
 1981ntf    sn214582   1.007   1.331   0.800  0.0202 -0.3901  0.2407
 1981ntf    nn314583   1.033   1.294   0.649  0.2808 -0.3202  0.2683
 1981ntf    sn214584   1.026   1.152   0.583  0.0655  0.1197 -0.6655
 1981ntf    cn114585   0.884   1.186   0.475 -0.2427  0.1350 -0.2577
 1981ntf    fn414586   1.131   1.562   0.764  0.1868 -0.1297 -0.1923
 1981ntf    fn414587   0.955   1.532   0.648 -0.0294  0.0297  0.5411
 1981ntf    fn414588   0.941   1.579   0.855 -0.2305 -0.4309 -0.0634
 1981ntf    on514589   1.118   1.326   0.892  0.8628  0.2709 -0.7140
 1981ntf    on514590   0.873   1.305   0.847  0.0114  0.4446  0.6878
 1981ntf    on514591   0.982   1.042   0.665 -0.2881  0.5186 -0.3204
 1981ntf    on514592   1.135   1.130   0.490  0.7196 -0.3017  0.1782
 1981ntf    fn414593   0.872   1.098   0.377 -0.5932 -0.1877  0.0711
 1981ntf    fn414594   0.773   1.196   0.545 -0.1189 -0.7868  0.0740
 1981ntf    fn414595   0.910   1.304   0.420 -0.2935  0.0387 -0.4914
 1982ntf    cn114596   5.815   0.429   6.846  0.4107 -0.0919 -0.2519
 1982ntf    sn214597   5.716   0.422   6.998  0.3990 -0.1498 -0.2621
 1982ntf    nn314598   5.571   0.391   6.948  0.6082 -0.3325 -0.7615
 1982ntf    sn214599   5.483   0.491   6.866  0.0995  0.0047  0.1731
 1982ntf    cn114600   5.332   0.478   6.967 -0.0176 -0.2757 -0.0360
 1982ntf    fn414601   5.788   0.325   6.770  0.0305 -0.0605 -0.1624
 1982ntf    fn414602   5.788   0.536   6.772  0.1401  0.1871  0.2430
 1982ntf    fn414603   5.944   0.443   6.874  0.2226  0.0323  0.5909
 1982ntf    on514604   5.764   0.305   7.068 -0.6023 -0.4113 -0.0088
 1982ntf    on514605   5.732   0.550   7.063 -0.1143 -0.2269  0.0199
 1982ntf    on514606   5.448   0.434   6.738  0.4284  0.0420  0.0662
 1982ntf    on514607   5.517   0.631   6.866 -0.3883  0.1282 -0.0724
 1982ntf    fn414608   5.232   0.409   6.914 -0.4948  0.1806  0.2630
 1982ntf    fn414609   5.352   0.421   7.084 -0.1377 -0.0959  0.0723
 1982ntf    fn414610   5.284   0.600   6.986  0.0531 -0.2516 -0.0114
 1983ntf    cn114611   5.252   0.464   2.044  0.5339  0.1942 -0.4745
 1983ntf    sn214612   5.428   0.496   2.078  0.4938 -0.1817  0.0915
 1983ntf    nn314613   5.412   0.490   2.234  0.6170  0.5155  0.1311
 1983ntf    sn214614   5.498   0.422   2.346  0.2250 -0.1907  0.0066
 1983ntf    cn114615   5.416   0.260   2.362  0.1043 -0.1565 -0.2617
 1983ntf    fn414616   5.191   0.577   2.073 -0.1705 -0.2602 -0.1583
 1983ntf    fn414617   5.220   0.423   1.922  0.4752  0.6836 -0.6249
 1983ntf    fn414618   5.207   0.374   2.130 -0.2097  0.6129 -0.4173
 1983ntf    on514619   5.499   0.391   2.008  0.0908 -0.5358  0.2051
 1983ntf    on514620   5.451   0.627   2.024 -0.6071 -0.1916 -0.4433
 1983ntf    on514621   5.468   0.485   2.472 -0.2364 -0.5227  0.0656
 1983ntf    on514622   5.633   0.386   2.308  0.0302 -0.3052 -0.5827
 1983ntf    fn414623   5.473   0.184   2.454  0.0494  0.4541  0.2858
 1983ntf    fn414624   5.288   0.261   2.397  0.1952 -0.4307  0.0894
 1983ntf    fn414625   5.430   0.195   2.248  0.0467 -0.1460 -0.2747
 1984ntf    cn114626   3.679   2.558   2.592 -0.1388  0.2958 -0.0917
 1984ntf    sn214627   3.557   2.488   2.707  0.1342  0.0680  0.0609
 1984ntf    nn314628   3.635   2.361   2.757  0.6046  0.3194 -0.0327
 1984ntf    sn214629   3.693   2.346   2.902  0.0100 -0.0657  0.1667
 1984ntf    cn114630   3.551   2.290   3.000 -0.1231 -0.1227 -0.0577
 1984ntf    fn414631   3.795   2.540   2.652 -0.2103 -0.0668 -0.0591
 1984ntf    fn414632   3.687   2.489   2.479  0.0427 -0.1686  0.1981
 1984ntf    fn414633   3.659   2.688   2.582 -0.3856  0.2884  0.2993
 1984ntf    on514634   3.538   2.595   2.802 -0.2775  0.1904 -0.1585
 1984ntf    on514635   3.449   2.461   2.616 -0.3234  0.3361  0.5225
 1984ntf    on514636   3.733   2.464   2.974  0.3185 -0.3451  0.4569
 1984ntf    on514637   3.785   2.235   2.912  0.3954  0.3019  0.7782
 1984ntf    fn414638   3.568   2.301   3.131  0.5380  0.0327 -0.1552
 1984ntf    fn414639   3.448   2.371   2.982 -0.1889 -0.0879  0.4440
 1984ntf    fn414640   3.501   2.170   2.978 -0.5158  0.1366 -0.6062
 1985ntf    cn114641   5.410   2.114   2.091 -0.3315 -0.1738 -0.0135
 1985ntf    sn214642   5.420   2.253   2.209 -0.1756 -0.1279 -0.0790
 1985ntf    nn314643   5.456   2.377   2.120 -0.3258  0.5314  0.7647
 1985ntf    sn214644   5.601   2.430   2.091 -0.3119  0.0832 -0.0315
 1985ntf    cn114645   5.625   2.548   2.228 -0.0612 -0.0165  0.0104
 1985ntf    fn414646   5.318   2.138   1.999 -0.3601  0.0966  0.0852
 1985ntf    fn414647   5.524   2.094   2.027 -0.1941 -0.4967  0.3305
 1985ntf    fn414648   5.376   2.001   2.149  0.1339 -0.6378 -0.6265
 1985ntf    on514649   5.281   2.267   2.246 -0.0355 -0.2314  0.4847
 1985ntf    on514650   5.512   2.207   2.310 -0.1167 -0.2079 -0.1688
 1985ntf    on514651   5.601   2.516   1.975  0.2067  0.5579  0.3179
 1985ntf    on514652   5.704   2.330   2.091  0.0533  0.4488 -0.7436
 1985ntf    fn414653   5.710   2.643   2.194 -0.0070  0.0489  0.3319
 1985ntf    fn414654   5.516   2.614   2.261  0.2274  0.2874  0.3539
 1985ntf    fn414655   5.673   2.490   2.336 -0.2342  0.1216  0.1620
 1986ntf    cn114656   5.713   0.899   3.724 -0.1953  0.2612  0.1816
 1986ntf    sn214657   5.710   0.948   3.900 -0.3715  0.3996  0.1402
 1986ntf    nn314658   5.568   0.890   3.934  0.0418 -0.3735  0.5714
 1986ntf    sn214659   5.434   0.964   3.968 -0.0099 -0.1568 -0.0947
 1986ntf    cn114660   5.465   1.045   4.128 -0.1260 -0.4147  0.0589
 1986ntf    fn414661   5.630   0.971   3.651 -0.5707 -0.4869 -0.1380
 1986ntf    fn414662   5.835   0.926   3.679  0.0661 -0.1814  0.6044
 1986ntf    fn414663   5.699   0.770   3.701 -0.4533  0.2625  0.3279
 1986ntf    on514664   5.819   0.876   3.960 -0.2963 -0.1137 -0.5921
 1986ntf    on514665   5.715   1.091   3.888 -0.3569  0.3467 -0.5261
 1986ntf    on514666   5.329   0.868   3.991 -0.0187 -0.1720 -0.1980
 1986ntf    on514667   5.398   1.076   3.885  0.3561  0.6266  0.7837
 1986ntf    fn414668   5.461   0.964   4.232  0.0610  0.3102  0.6366
 1986ntf    fn414669   5.588   1.091   4.141 -0.1851 -0.1776 -0.1998
 1986ntf    fn414670   5.385   1.145   4.159  0.0882 -0.3470  0.3951
 1987ntf    cn114671   1.201   2.908   1.557  0.6216  0.1144 -0.3682
 1987ntf    sn214672   1.176   2.897   1.736 -0.2899  0.4427 -0.4717
 1987ntf    nn314673   1.176   2.740   1.742 -0.1310  0.4604  0.0881
 1987ntf    sn214674   1.087   2.653   1.837  0.2682  0.0945  0.1293
 1987ntf    cn114675   0.956   2.610   1.719  0.5220 -0.2255 -0.0376
 1987ntf    fn414676   1.144   2.805   1.496 -0.5755  0.3008  0.4115
 1987ntf    fn414677   1.154   3.022   1.508  0.2960  0.0783 -0.1372
 1987ntf    fn414678   1.329   2.902   1.521  0.6073 -0.2451 -0.3609
 1987ntf    on514679   1.297   2.961   1.784 -0.1459 -0.1231 -0.0771
 1987ntf    on514680   1.048   2.961   1.755 -0.5565 -0.0969 -0.4501
 1987ntf    on514681   1.032   2.730   1.946 -0.4723 -0.1122 -0.0921
 1987ntf    on514682   1.141   2.522   1.866 -0.1564 -0.0843  0.1167
 1987ntf    fn414683   0.864   2.533   1.776  0.8031 -0.3033  0.3115
 1987ntf    fn414684   0.879   2.707   1.673  0.4451  0.1376  0.8346
 1987ntf    fn414685   1.010   2.538   1.622  0.7242 -0.0800 -0.0345
 1988ntf    cn114686   1.235   4.476   3.716 -0.0587  0.0539 -0.3697
 1988ntf    sn214687   1.065   4.508   3.773  0.0434 -0.0395 -0.0135
 1988ntf    nn314688   0.976   4.450   3.658  0.4231 -0.2435 -0.2061
 1988ntf    sn214689   0.878   4.521   3.557  0.2613 -0.3665 -0.1361
 1988ntf    cn114690   0.959   4.502   3.395  0.3618  0.4892 -0.1887
 1988ntf    fn414691   1.263   4.347   3.708 -0.1536 -0.0236  0.4924
 1988ntf    fn414692   1.243   4.529   3.594  0.0743 -0.1913 -0.4679
 1988ntf    fn414693   1.327   4.530   3.794 -0.2913  0.2635 -0.2371
 1988ntf    on514694   1.043   4.439   3.897 -0.3219  0.2002  0.0579
 1988ntf    on514695   1.064   4.652   3.778 -0.0571 -0.0687  1.0149
 1988ntf    on514696   0.865   4.664   3.567 -0.1376 -0.4100 -0.0461
 1988ntf    on514697   0.758   4.443   3.543  0.1638 -0.2403 -0.0076
 1988ntf    fn414698   0.990   4.374   3.394 -0.5695  0.2527  0.1068
 1988ntf    fn414699   0.867   4.527   3.304 -0.7820  0.1633  0.8533
 1988ntf    fn414700   1.063   4.580   3.371  0.7214  0.1493  0.2341
 1989ntf    cn114701   4.691   4.883   1.104 -0.0306  0.6740 -0.4812
 1989ntf    sn214702   4.557   4.791   1.185  0.4034  0.1520 -0.3510
 1989ntf    nn314703   4.582   4.821   1.337 -0.2637 -0.3228 -0.1421
 1989ntf    sn214704   4.478   4.854   1.449 -0.2652  0.2490 -0.3103
 1989ntf    cn114705   4.445   4.694   1.528 -0.6289  0.5247  0.1103
 1989ntf    fn414706   4.677   5.013   1.128 -0.8636  0.5054 -0.0176
 1989ntf    fn414707   4.806   4.836   1.149 -0.4027  0.3370  0.1257
 1989ntf    fn414708   4.691   4.858   0.975  0.0612  0.5323 -0.4538
 1989ntf    on514709   4.436   4.857   1.141  0.2117  0.3031  0.4002
 1989ntf    on514710   4.591   4.655   1.149  0.6031  0.1415 -0.1233
 1989ntf    on514711   4.349   4.905   1.409 -0.4121  0.0617 -0.0771
 1989ntf    on514712   4.541   4.924   1.558 -0.3896  0.2309 -0.2263
 1989ntf    fn414713   4.365   4.705   1.632 -0.3711 -0.6403  0.4456
 1989ntf    fn414714   4.394   4.605   1.444  0.3381  0.0986 -0.0449
 1989ntf    fn414715   4.559   4.648   1.579 -0.7136  0.6052  0.3726
 1990ntf    cn114716   4.679   2.200   1.914  0.2417 -0.2455  0.5310
 1990ntf    sn214717   4.737   2.231   2.084 -0.0676  0.4197  0.5188
 1990ntf    nn314718   4.818   2.098   2.103 -0.3434  0.1355 -0.2230
 1990ntf    sn214719   4.952   2.070   2.180 -0.4232 -0.0150 -0.1396
 1990ntf    cn114720   4.899   1.977   2.327 -0.2211 -0.2024 -0.1848
 1990ntf    fn414721   4.784   2.184   1.835  0.0911 -0.1904  0.3207
 1990ntf    fn414722   4.600   2.095   1.901 -0.0212 -0.0795  0.7874
 1990ntf    fn414723   4.623   2.312   1.871 -0.2566 -0.4663  0.5930
 1990ntf    on514724   4.825   2.344   2.068  0.0371  0.1978 -0.6075
 1990ntf    on514725   4.616   2.236   2.162 -0.3709  0.6601  0.0412
 1990ntf    on514726   5.003   2.191   2.239 -0.3830 -0.1718  0.1501
 1990ntf    on514727   5.049   1.981   2.120 -0.5906 -1.1500  1.2204
 1990ntf    fn414728   4.830   2.060   2.404  0.5379 -0.0821  0.3796
 1990ntf    fn414729   4.814   1.882   2.292  0.0747 -0.2847 -0.6779
 1990ntf    fn414730   4.994   1.921   2.400 -0.7577 -0.3204  0.4344
 1991ntf    cn114731   0.226   4.521   5.672  0.1889 -0.1747 -0.1625
 1991ntf    sn214732   0.297   4.649   5.779 -0.0968  0.1429 -0.3511
 1991ntf    nn314733   0.176   4.749   5.786 -0.1027  0.0937  0.2960
 1991ntf    sn214734   0.125   4.820   5.916 -0.1308  0.5553  0.0347
 1991ntf    cn114735  -0.004   4.704   5.970  0.4344 -0.0261  0.1457
 1991ntf    fn414736   0.119   4.465   5.727 -0.1535  0.3717 -0.2637
 1991ntf    fn414737   0.190   4.581   5.560 -0.7462 -0.1888  0.1232
 1991ntf    fn414738   0.312   4.424   5.645  0.2480 -0.3677  0.6988
 1991ntf    on514739   0.343   4.587   5.901  0.3139  0.0287 -0.5634
 1991ntf    on514740   0.406   4.698   5.698  0.4510 -0.5479 -0.0485
 1991ntf    on514741   0.050   4.938   5.881 -0.2733  0.3683 -0.2900
 1991ntf    on514742   0.213   4.826   6.030  0.0472  0.5215 -0.1022
 1991ntf    fn414743  -0.085   4.679   5.868 -0.3118  0.4072  0.6230
 1991ntf    fn414744   0.036   4.583   6.006 -0.0375 -0.1883  0.1391
 1991ntf    fn414745  -0.078   4.749   6.070  0.1038 -0.2675  0.0156
 1992ntf    cn114746   3.566   4.422   0.309  0.0676  0.1371  0.0237
 1992ntf    sn214747   3.726   4.388   0.387  0.0372 -0.3586 -0.1311
 1992ntf    nn314748   3.764   4.256   0.311 -0.3115 -0.2158 -0.5541
 1992ntf    sn214749   3.878   4.152   0.340 -0.2099  0.0299 -0.0708
 1992ntf    cn114750   3.786   4.006   0.285 -0.0554 -0.1811  0.2264
 1992ntf    fn414751   3.474   4.343   0.362 -0.5486  0.4194 -0.6047
 1992ntf    fn414752   3.526   4.545   0.340  0.3985  0.3432 -0.3485
 1992ntf    fn414753   3.565   4.414   0.177  0.3265  0.1385  0.0222
 1992ntf    on514754   3.801   4.502   0.339 -0.6441  0.2142  0.1547
 1992ntf    on514755   3.702   4.378   0.529  0.7665 -0.0546  0.0182
 1992ntf    on514756   3.901   4.132   0.481 -0.0714  0.3459 -0.0457
 1992ntf    on514757   3.997   4.182   0.263 -0.0636 -0.3108  0.0207
 1992ntf    fn414758   3.687   3.968   0.364 -0.0158 -0.3013  0.2186
 1992ntf    fn414759   3.729   4.020   0.166  0.4337 -0.1381 -0.0058
 1992ntf    fn414760   3.862   3.898   0.276 -0.4389 -0.4775  0.5549
 1993ntf    cn114761   6.770   3.500   4.253 -0.1475 -0.0454 -0.1058
 1993ntf    sn214762   6.617   3.514   4.157 -0.0321  0.0811 -0.2710
 1993ntf    nn314763   6.648   3.632   4.058 -0.1044  0.2718 -0.0658
 1993ntf    sn214764   6.628   3.786   4.082 -0.2243  0.2618 -0.1014
 1993ntf    cn114765   6.733   3.839   3.943 -0.2953 -0.0203 -0.2629
 1993ntf    fn414766   6.757   3.585   4.353  0.1408 -0.2296  0.0881
 1993ntf    fn414767   6.782   3.380   4.307 -0.5878 -0.0866 -0.0982
 1993ntf    fn414768   6.884   3.533   4.196 -0.0038  0.1879  0.3129
 1993ntf    on514769   6.618   3.387   4.088  0.2452 -0.0503 -0.0231
 1993ntf    on514770   6.504   3.525   4.246  0.4389  0.2598  0.3021
 1993ntf    on514771   6.695   3.841   4.197 -0.1166  0.7278 -0.3853
 1993ntf    on514772   6.494   3.831   4.055 -0.5343 -0.6525 -0.1168
 1993ntf    fn414773   6.767   3.966   3.945 -0.1239 -0.0694 -0.0611
 1993ntf    fn414774   6.843   3.766   3.932 -0.3857 -0.1794 -0.1169
 1993ntf    fn414775   6.672   3.817   3.827  0.0299 -0.0409 -0.4322
 1994ntf    cn114776   5.711   4.017   1.981  0.2682  0.2755  0.1254
 1994ntf    sn214777   5.867   3.999   1.889  0.1995 -0.1541  0.0935
 1994ntf    nn314778   5.969   4.043   1.999 -0.3263  0.1676  0.4563
 1994ntf    sn214779   6.035   4.183   2.028  0.0007  0.0563  0.2635
 1994ntf    cn114780   6.182   4.162   1.924 -0.2577 -0.0646 -0.0820
 1994ntf    fn414781   5.697   4.141   2.024 -0.1427  0.3769 -0.3023
 1994ntf    fn414782   5.600   4.001   1.911 -0.0803  0.0726  0.7153
 1994ntf    fn414783   5.706   3.936   2.085  0.3339 -0.4125 -0.4017
 1994ntf    on514784   5.879   3.858   1.858 -0.2205 -0.1411 -0.1446
 1994ntf    on514785   5.856   4.084   1.773 -0.5295 -0.3796 -0.0073
 1994ntf    on514786   6.089   4.186   2.162  0.1770 -0.0918  0.1954
 1994ntf    on514787   5.958   4.292   1.973 -0.1723 -0.4223 -0.4508
 1994ntf    fn414788   6.154   4.155   1.795 -0.4299 -0.5234 -0.0194
 1994ntf    fn414789   6.259   4.268   1.942 -0.3379 -0.0238  0.0210
 1994ntf    fn414790   6.253   4.056   1.956  0.4467  0.3084 -0.3837
 1995ntf    cn114791   3.352   3.251   1.674  0.5033 -0.0330  0.2236
 1995ntf    sn214792   3.439   3.093   1.654  0.0617 -0.2572  0.0655
 1995ntf    nn314793   3.574   3.153   1.602 -0.0554  0.2563  0.3480
 1995ntf    sn214794   3.712   3.080   1.582 -0.3555 -0.1408 -0.3089
 1995ntf    cn114795   3.760   3.140   1.417 -0.1481 -0.0989 -0.2334
 1995ntf    fn414796   3.420   3.348   1.733  0.3072  0.2960 -0.0851
 1995ntf    fn414797   3.299   3.301   1.563  0.4331 -0.3325  0.1219
 1995ntf    fn414798   3.248   3.230   1.753 -0.1179  0.6708 -0.3800
 1995ntf    on514799   3.454   3.056   1.793  0.4360  0.0938  0.1197
 1995ntf    on514800   3.347   3.020   1.571 -0.6724  0.3658  0.3148
 1995ntf    on514801   3.704   2.938   1.564  0.2001 -0.2740  0.4681
 1995ntf    on514802   3.808   3.129   1.678 -0.0019 -0.3950 -0.5296
 1995ntf    fn414803   3.882   3.105   1.381  0.0377 -0.3269  0.5858
 1995ntf    fn414804   3.681   3.091   1.323 -0.2995  0.4753 -0.4094
 1995ntf    fn414805   3.753   3.272   1.407  0.1077 -0.1085 -0.5316
 1996ntf    cn114806   0.413   4.178   5.008  0.2772  0.4573  0.3511
 1996ntf    sn214807   0.293   4.048   4.965  0.4251  0.4405 -0.0129
 1996ntf    nn314808   0.208   4.126   4.858 -0.1523 -0.5036 -0.2565
 1996ntf    sn214809   0.181   4.097   4.706 -0.3086 -0.1777 -0.2929
 1996ntf    cn114810   0.026   4.005   4.731 -0.2775 -0.1154  0.1499
 1996ntf    fn414811   0.352   4.273   5.077 -0.1327  0.2310  0.3001
 1996ntf    fn414812   0.503   4.137   5.096  0.7108 -0.0016 -0.2952
 1996ntf    fn414813   0.481   4.244   4.916  0.2051  0.4075  0.2616
 1996ntf    on514814   0.369   3.937   4.913 -0.1824  0.0117  0.0065
 1996ntf    on514815   0.213   4.014   5.079  0.6426  0.0514  0.0246
 1996ntf    on514816   0.272   4.009   4.637  0.1222  0.0098  0.0325
 1996ntf    on514817   0.125   4.210   4.638 -0.2069  0.3233  0.4443
 1996ntf    fn414818   0.045   3.895   4.803  0.4697 -0.0174  0.1153
 1996ntf    fn414819  -0.072   4.067   4.793 -0.4805 -0.3772  0.0939
 1996ntf    fn414820  -0.027   3.977   4.613 -0.3401 -0.0356  0.1598
 1997ntf    cn114821   4.906   2.266   0.506 -0.0913 -0.1095  0.0486
 1997ntf    sn214822   5.076   2.214   0.466  0.0508  0.1109  0.3520
 1997ntf    nn314823   5.091   2.095   0.567  0.2639  0.4463  0.7180
 1997ntf    sn214824   5.206   1.989   0.578 -0.1628 -0.0958  0.0699
 1997ntf    cn114825   5.126   1.850   0.491 -0.1312 -0.2511  0.2890
 1997ntf    fn414826   4.898   2.301   0.634  0.1860  0.0046  0.0372
 1997ntf    fn414827   4.867   2.367   0.430 -0.4589 -0.0589  0.3058
 1997ntf    fn414828   4.817   2.170   0.492  0.0238 -0.1605 -0.3522
 1997ntf    on514829   5.058   2.162   0.332 -0.1922  0.2920  0.3131
 1997ntf    on514830   5.159   2.330   0.485 -0.2657  0.3863  0.0830
 1997ntf    on514831   5.228   1.940   0.712  0.1422 -0.0573  0.0347
 1997ntf    on514832   5.321   2.022   0.497  0.1371 -0.0722  0.5044
 1997ntf    fn414833   5.002   1.828   0.532 -0.1541 -0.4291  0.1214
 1997ntf    fn414834   5.115   1.875   0.362  0.0402 -0.1236  0.2973
 1997ntf    fn414835   5.198   1.740   0.501  0.3551  0.0483  0.1242
 1998ntf    cn114836   5.957   3.753   2.575  0.1175  0.0643  0.4181
 1998ntf    sn214837   6.113   3.662   2.587  0.0858 -0.0717 -0.1700
 1998ntf    nn314838   6.063   3.525   2.527  0.0793 -0.0274 -0.2659
 1998ntf    sn214839   6.162   3.420   2.465 -0.0779 -0.0893 -0.4122
 1998ntf    cn114840   6.150   3.459   2.288  0.2493  0.0467 -0.4049
 1998ntf    fn414841   5.885   3.745   2.464  0.0344 -0.1191  0.4849
 1998ntf    fn414842   5.875   3.721   2.673 -0.2745 -0.0263  0.0657
 1998ntf    fn414843   5.975   3.884   2.588 -0.1641  0.1110  0.3457
 1998ntf    on514844   6.195   3.741   2.498  0.0360  0.0700 -0.0888
 1998ntf    on514845   6.135   3.665   2.729  0.3993  0.4250 -0.2282
 1998ntf    on514846   6.105   3.288   2.479  0.6350 -0.3040  0.5952
 1998ntf    on514847   6.300   3.442   2.501 -0.2173  0.0980  0.0207
 1998ntf    fn414848   6.069   3.373   2.228  0.5168  0.0562 -0.7811
 1998ntf    fn414849   6.102   3.578   2.259  0.0145 -0.0418 -0.3815
 1998ntf    fn414850   6.268   3.455   2.229  0.5774 -0.2771  0.2596
 1999ntf    cn114851   5.954   3.848   4.530 -0.1092 -0.0128 -0.0287
 1999ntf    sn214852   6.097   3.886   4.424  0.0212 -0.2063  0.0770
 1999ntf    nn314853   6.037   3.981   4.315 -0.0947 -0.1057  0.2293
 1999ntf    sn214854   6.108   4.101   4.242  0.1922 -0.1764  0.3911
 1999ntf    cn114855   6.044   4.242   4.337 -0.2545 -0.1546  0.0650
 1999ntf    fn414856   5.872   3.765   4.467  0.2183  0.2289 -0.7879
 1999ntf    fn414857   6.001   3.779   4.632  0.7371  0.6513  0.0399
 1999ntf    fn414858   5.871   3.944   4.568  0.1780  0.0298  0.4956
 1999ntf    on514859   6.185   3.956   4.514 -0.0456 -0.1433  0.0944
 1999ntf    on514860   6.131   3.757   4.369 -0.2564 -0.3745  0.2978
 1999ntf    on514861   6.051   4.140   4.115 -0.2097 -0.7493  0.3906
 1999ntf    on514862   6.251   4.110   4.253  0.2157  0.2652 -0.2335
 1999ntf    fn414863   6.078   4.227   4.464  0.0928 -0.7301 -0.0889
 1999ntf    fn414864   6.096   4.359   4.305 -0.0021 -0.2343  0.1764
 1999ntf    fn414865   5.912   4.242   4.337 -0.2544  0.4030  0.4672
 2000ntf    cn114866   5.521   2.143   4.427  0.2971 -0.0083 -0.2051
 2000ntf    sn214867   5.490   2.264   4.559  0.2414 -0.1197 -0.1149
 2000ntf    nn314868   5.403   2.183   4.661 -0.2477  0.0875 -0.3636
 2000ntf    sn214869   5.328   2.229   4.790 -0.1233 -0.0934 -0.2255
 2000ntf    cn114870   5.182   2.123   4.766  0.0954 -0.3987 -0.2163
 2000ntf    fn414871   5.545   2.024   4.480 -0.9211 -0.1830 -0.0043
 2000ntf    fn414872   5.416   2.122   4.349  0.1438  0.1079 -0.0319
 2000ntf    fn414873   5.628   2.164   4.352  0.1200  0.2607 -0.3873
 2000ntf    on514874   5.625   2.286   4.607  0.0349  0.0932  0.3699
 2000ntf    on514875   5.430   2.378   4.495  0.2129  0.5609  1.1028
 2000ntf    on514876   5.269   2.361   4.784 -0.2349 -0.1009  0.5285
 2000ntf    on514877   5.393   2.186   4.912 -0.2920 -0.1003 -0.1373
 2000ntf    fn414878   5.094   2.121   4.866  0.1822  0.0322 -0.1286
 2000ntf    fn414879   5.104   2.165   4.667 -0.2239  0.6543  0.4598
 2000ntf    fn414880   5.205   1.994   4.752 -0.5237 -0.5903  0.4464
 2001ntf    cn114881   3.908   3.909   4.219  0.0560  0.0591  0.3777
 2001ntf    sn214882   3.931   4.063   4.126 -0.1315 -0.0490  0.1497
 2001ntf    nn314883   4.046   4.138   4.203  0.0087  0.2955 -0.3876
 2001ntf    sn214884   4.199   4.102   4.203 -0.1310 -0.3484  0.4773
 2001ntf    cn114885   4.246   4.190   4.050 -0.0865 -0.6436  0.3203
 2001ntf    fn414886   3.822   3.824   4.165  0.7618 -0.5651  0.2073
 2001ntf    fn414887   4.016   3.837   4.247 -0.0011 -0.3024 -0.2934
 2001ntf    fn414888   3.841   3.938   4.329  0.3158 -0.0854  0.5757
 2001ntf    on514889   3.964   4.026   3.991  0.1485 -0.4774  0.3341
 2001ntf    on514890   3.805   4.132   4.141 -0.1893 -0.2612  0.6768
 2001ntf    on514891   4.237   3.966   4.173  0.6850 -0.0692  0.2292
 2001ntf    on514892   4.270   4.167   4.310 -0.1526 -0.1776  0.3887
 2001ntf    fn414893   4.217   4.125   3.939 -0.1781 -0.1551  0.0576
 2001ntf    fn414894   4.187   4.308   4.037 -0.0913 -0.6739  0.0620
 2001ntf    fn414895   4.375   4.218   4.043 -0.2284 -0.1377 -0.3360
 2002ntf    cn114896   0.471   6.387   1.953  0.3936  0.2824  0.1323
 2002ntf    sn214897   0.409   6.406   2.122  0.0415  0.4300 -0.0135
 2002ntf    nn314898   0.412   6.258   2.176  0.6402  0.5589  0.3146
 2002ntf    sn214899   0.528   6.168   2.230  0.0222 -0.2120  0.3789
 2002ntf    cn114900   0.455   6.033   2.328 -0.3219 -0.0402  0.3615
 2002ntf    fn414901   0.592   6.334   1.969  0.2721 -0.0219  0.0530
 2002ntf    fn414902   0.415   6.298   1.872 -0.2730  0.1436  0.7382
 2002ntf    fn414903   0.475   6.496   1.878 -0.1616  0.1217 -0.1298
 2002ntf    on514904   0.495   6.505   2.181 -0.0075  0.7131 -0.4141
 2002ntf    on514905   0.276   6.450   2.087  0.0194  0.6705  0.3638
 2002ntf    on514906   0.609   6.235   2.329  0.7079 -0.4822  0.0130
 2002ntf    on514907   0.599   6.101   2.124  0.4015  0.0610  0.4557
 2002ntf    fn414908   0.548   5.970   2.398  0.1583  0.3642  0.0976
 2002ntf    fn414909   0.357   6.077   2.405 -0.3805 -0.0084  0.2690
 2002ntf    fn414910   0.391   5.943   2.257  0.1091 -0.2972  0.2935
 2003ntf    cn114911   1.866   0.046   0.161 -0.0066  0.4003 -0.0313
 2003ntf    sn214912   1.934   0.134   0.017  0.4453  0.0863 -0.0129
 2003ntf    nn314913   1.804   0.152  -0.070  0.1774 -0.2527  0.3130
 2003ntf    sn214914   1.677   0.239  -0.040  0.1929 -0.0676 -0.1411
 2003ntf    cn114915   1.668   0.352  -0.182 -0.2162  0.0979  0.0153
 2003ntf    fn414916   1.764   0.106   0.220  0.3405  0.7631  0.2037
 2003ntf    fn414917   1.815  -0.066   0.112 -0.2457  0.7248 -0.5361
 2003ntf    fn414918   1.962   0.015   0.246  0.0979  0.0397 -0.2755
 2003ntf    on514919   1.976   0.260   0.072 -0.3133  0.4140 -0.1591
 2003ntf    on514920   2.028   0.044  -0.044  0.0910  0.0028 -0.4428
 2003ntf    on514921   1.681   0.323   0.078 -0.8158 -0.0692 -0.1039
 2003ntf    on514922   1.554   0.169  -0.064  0.2582 -0.4647  0.6353
 2003ntf    fn414923   1.782   0.418  -0.189 -0.1686 -0.0108 -0.2320
 2003ntf    fn414924   1.658   0.280  -0.292 -0.5328  0.1188  0.0297
 2003ntf    fn414925   1.567   0.437  -0.175 -0.1976  0.0521  1.1401
 2004ntf    cn114926   1.826   1.860   0.417  0.4287 -0.5916  0.4584
 2004ntf    sn214927   1.906   1.775   0.557  0.1792 -0.4025  0.7163
 2004ntf    nn314928   1.895   1.890   0.664 -0.1950 -0.0839  0.3399
 2004ntf    sn214929   2.006   1.977   0.732  0.0177 -0.0090 -0.0952
 2004ntf    cn114930   2.005   1.916   0.904 -0.1466  0.1161 -0.0507
 2004ntf    fn414931   1.813   1.798   0.301  0.5571 -0.2470  0.2588
 2004ntf    fn414932   1.708   1.904   0.457  0.4842 -0.2207  0.2159
 2004ntf    fn414933   1.897   1.968   0.388  0.0418 -0.5951 -0.5238
 2004ntf    on514934   1.821   1.662   0.581  0.5259 -0.8699 -0.1990
 2004ntf    on514935   2.041   1.746   0.513  0.1240  0.2486  0.0871
 2004ntf    on514936   1.974   2.115   0.762 -1.4487 -0.3490 -0.0259
 2004ntf    on514937   2.143   1.961   0.691 -0.0710  0.0529 -0.4203
 2004ntf    fn414938   2.076   1.986   0.991 -0.0687 -0.0948  0.0551
 2004ntf    fn414939   1.882   1.922   0.950 -0.0987  0.2792  0.0593
 2004ntf    fn414940   2.051   1.793   0.916  0.1523  0.2240 -0.0796
 2005ntf    cn114941   3.170   1.767   4.820 -0.3572  0.0305 -0.0686
 2005ntf    sn214942   3.171   1.585   4.815 -0.2639  0.0273  0.0714
 2005ntf    nn314943   3.227   1.560   4.671  0.2595 -0.4266  0.3512
 2005ntf    sn214944   3.369   1.520   4.618  0.1867 -0.1068 -0.0869
 2005ntf    cn114945   3.340   1.342   4.598 -0.1424 -0.0413 -0.1967
 2005ntf    fn414946   3.074   1.808   4.739  0.0130 -0.1888 -0.6294
 2005ntf    fn414947   3.124   1.820   4.932  0.3476 -0.0654  0.2718
 2005ntf    fn414948   3.284   1.824   4.785 -0.4874  0.4564  0.1956
 2005ntf    on514949   3.258   1.528   4.915 -0.3593 -0.1823  0.0346
 2005ntf    on514950   3.031   1.552   4.831 -0.3450  0.0587 -0.5591
 2005ntf    on514951   3.478   1.535   4.711  0.3965  0.0314 -0.3505
 2005ntf    on514952   3.391   1.562   4.481 -0.3126  0.1974 -0.0728
 2005ntf    fn414953   3.278   1.288   4.702 -0.0857  0.6685  0.2105
 2005ntf    fn414954   3.249   1.317   4.505  0.0226  0.2179 -0.4305
 2005ntf    fn414955   3.448   1.273   4.564  0.1714  0.2970  0.1090
 2006ntf    cn114956   3.605   3.141   3.334 -0.2374 -0.0283 -0.0860
 2006ntf    sn214957   3.426   3.107   3.327 -0.1750 -0.3376 -0.2019
 2006ntf    nn314958   3.375   3.255   3.334  0.0730 -0.2647  0.1542
 2006ntf    sn214959   3.246   3.317   3.399  0.2746  0.1369  0.1773
 2006ntf    cn114960   3.296   3.370   3.566 -0.4240 -0.6797  0.6586
 2006ntf    fn414961   3.632   3.222   3.435  0.1024 -0.2827  0.0274
 2006ntf    fn414962   3.677   3.031   3.342 -0.0956  0.0605 -0.1419
 2006ntf    fn414963   3.641   3.202   3.223 -0.0775  0.4800  0.2399
 2006ntf    on514964   3.403   3.042   3.201 -0.4950  0.4293 -0.5471
 2006ntf    on514965   3.404   3.025   3.444 -0.5002 -0.0957 -0.0907
 2006ntf    on514966   3.140   3.225   3.436  0.3799  0.0534  0.2749
 2006ntf    on514967   3.212   3.438   3.329 -0.8172 -0.2026  0.1071
 2006ntf    fn414968   3.380   3.471   3.555 -0.5332 -0.6379  0.1733
 2006ntf    fn414969   3.193   3.412   3.637 -0.6294 -0.3913  0.1898
 2006ntf    fn414970   3.366   3.273   3.623 -0.1036 -0.5720  0.4550
 2007ntf    cn114971   3.185   4.876   4.471  0.1229  0.1370 -0.1689
 2007ntf    sn214972   3.097   4.923   4.623  0.4913  0.2862  0.0004
 2007ntf    nn314973   3.053   5.069   4.588  0.1052  0.0706 -0.4266
 2007ntf    sn214974   3.084   5.210   4.650 -0.4998 -0.2273  0.5805
 2007ntf    cn114975   2.922   5.262   4.714 -0.5123  0.2569  0.1611
 2007ntf    fn414976   3.118   4.876   4.357 -0.4186  0.6428  0.1457
 2007ntf    fn414977   3.288   4.956   4.448 -0.0575  0.4082 -0.0354
 2007ntf    fn414978   3.238   4.756   4.487 -0.3405 -0.1281 -0.6128
 2007ntf    on514979   2.982   4.838   4.640  0.4404  0.3256 -0.1465
 2007ntf    on514980   3.200   4.902   4.723  0.0766 -0.4068  0.2862
 2007ntf    on514981   3.124   5.309   4.553  0.0732 -0.6121  0.4233
 2007ntf    on514982   3.160   5.215   4.773 -0.3020 -0.2529  0.4597
 2007ntf    fn414983   2.829   5.259   4.620 -0.0720  1.0456 -0.3115
 2007ntf    fn414984   2.889   5.172   4.806  0.1223 -0.2518 -0.1038
 2007ntf    fn414985   2.926   5.383   4.767  0.2762  0.6059 -0.6665
 2008ntf    cn114986   0.317   0.476   1.867  0.0105 -0.1279  0.0009
 2008ntf    sn214987   0.220   0.475   2.021 -0.2860 -0.1859 -0.1867
 2008ntf    nn314988   0.224   0.626   2.063 -0.4500 -0.2709  0.1403
 2008ntf    sn214989   0.122   0.739   2.023 -0.1013 -0.0738 -0.1991
 2008ntf    cn114990   0.004   0.734   2.161 -0.0045 -0.1766 -0.1194
 2008ntf    fn414991   0.296   0.361   1.806 -0.1232 -0.1111  0.0148
 2008ntf    fn414992   0.285   0.577   1.788 -0.2213 -0.2279 -0.0314
 2008ntf    fn414993   0.447   0.496   1.886  0.0766 -0.4595 -0.1020
 2008ntf    on514994   0.090   0.423   1.984 -0.4828  0.1053  0.0945
 2008ntf    on514995   0.298   0.393   2.111  0.1118  0.3875 -0.0029
 2008ntf    on514996   0.044   0.712   1.904 -0.3400  0.2981 -0.1275
 2008ntf    on514997   0.189   0.866   2.029  0.7141 -0.5291  0.5694
 2008ntf    fn414998  -0.084   0.831   2.142  0.2458 -0.0007 -0.3923
 2008ntf    fn414999  -0.065   0.623   2.145 -0.4996  0.0014  0.7297
 2008ntf    fn415000   0.053   0.729   2.284  0.6715  0.7568 -0.3356
 2009ntf    cn115001   4.525   0.181   6.857 -0.2675  0.1199 -0.0673
 2009ntf    sn215002   4.639   0.280   6.757  0.4260 -0.4734  0.1280
 2009ntf    nn315003   4.540   0.331   6.647  0.4744 -0.3326  0.1495
 2009ntf    sn215004   4.572   0.370   6.498 -0.2322 -0.1001  0.0546
 2009ntf    cn115005   4.504   0.539   6.504  0.1290  0.0469  0.0204
 2009ntf    fn415006   4.469   0.081   6.790  0.0774 -0.2507  0.1944
 2009ntf    fn415007   4.588   0.124   6.959 -0.5625 -0.5695 -0.2618
 2009ntf    fn415008   4.427   0.249   6.916 -0.2986 -0.0870  0.1235
 2009ntf    on515009   4.681   0.383   6.848 -0.2947  0.0369 -0.1062
 2009ntf    on515010   4.737   0.182   6.716  0.7121 -0.2134  0.1850
 2009ntf    on515011   4.498   0.303   6.394  0.0515 -0.4950  0.1052
 2009ntf    on515012   4.711   0.400   6.473 -0.2474 -0.2595 -0.2209
 2009ntf    fn415013   4.567   0.625   6.425  0.2903 -0.2936 -0.2299
 2009ntf    fn415014   4.377   0.547   6.468  0.0506  0.0354  0.2906
 2009ntf    fn415015   4.513   0.595   6.623 -0.5226  0.3927 -0.0913
 2010ntf    cn115016   0.294   6.809   0.610 -0.1622  0.3205 -0.1084
 2010ntf    sn215017   0.140   6.905   0.603 -0.1124  0.4142  0.0888
 2010ntf    nn315018   0.120   6.938   0.756  0.1741 -0.1467  0.2517
 2010ntf    sn215019  -0.021   6.961   0.821  0.0282  0.0177 -0.1156
 2010ntf    cn115020  -0.053   7.131   0.766 -0.1169 -0.0354 -0.1981
 2010ntf    fn415021   0.297   6.723   0.509  0.3040 -0.0815  0.2408
 2010ntf    fn415022   0.404   6.882   0.606  0.3133 -0.3925 -0.4190
 2010ntf    fn415023   0.311   6.731   0.716  0.2887  0.4441 -0.0888
 2010ntf    on515024   0.175   7.020   0.524  0.1630 -0.2217 -0.7335
 2010ntf    on515025   0.048   6.812   0.542 -0.4551  0.6576  0.2254
 2010ntf    on515026  -0.005   6.964   0.964  0.2951  0.1134 -0.1478
 2010ntf    on515027  -0.131   6.889   0.760  0.3092 -0.7974  0.3210
 2010ntf    fn415028  -0.166   7.171   0.821  0.0749 -0.1687  0.3021
 2010ntf    fn415029   0.037   7.221   0.805  0.1744 -0.1664 -0.5576
 2010ntf    fn415030  -0.068   7.139   0.635 -0.1192 -0.5604 -0.2331
 2011ntf    cn115031   5.082   0.546   0.570  0.1057 -0.3717  0.1469
 2011ntf    sn215032   4.903   0.549   0.539  0.1582 -0.1016 -0.1247
 2011ntf    nn315033   4.859   0.654   0.647 -0.1513 -0.2691 -0.0875
 2011ntf    sn215034   4.731   0.660   0.737  0.2571  0.1168  0.4776
 2011ntf    cn115035   4.800   0.656   0.905 -0.0255  0.2805  0.5981
 2011ntf    fn415036   5.110   0.511   0.695  0.7709  0.8174  0.3464
 2011ntf    fn415037   5.139   0.459   0.489  0.2078  0.0160 -0.2004
 2011ntf    fn415038   5.141   0.663   0.550  0.1058 -0.3236  0.4137
 2011ntf    on515039   4.896   0.592   0.401 -0.3648  0.9575  0.2262
 2011ntf    on515040   4.868   0.411   0.561  0.5339 -0.2586 -0.4907
 2011ntf    on515041   4.649   0.541   0.731  0.3378  0.0215  1.2457
 2011ntf    on515042   4.662   0.786   0.729  1.0467  0.5404  0.2819
 2011ntf    fn415043   4.873   0.548   0.927 -0.5583 -0.2650 -0.2339
 2011ntf    fn415044   4.883   0.755   0.932  0.7907 -0.2629  0.1008
 2011ntf    fn415045   4.709   0.666   1.001 -0.6274 -0.1794  0.0906
 2012ntf    cn115046   2.670   2.019   2.761 -0.1465 -0.3561 -0.2842
 2012ntf    sn215047   2.514   2.064   2.678 -0.2450  0.0088  0.0909
 2012ntf    nn315048   2.423   1.969   2.764  0.5880 -0.1882  0.7680
 2012ntf    sn215049   2.274   1.982   2.811  0.4118  0.1027  0.1448
 2012ntf    cn115050   2.207   1.837   2.724  0.1289  0.1904  0.2148
 2012ntf    fn415051   2.659   2.033   2.893 -0.2825  0.0084 -0.3317
 2012ntf    fn415052   2.690   1.890   2.742  0.7978 -0.3581  0.6593
 2012ntf    fn415053   2.781   2.081   2.723 -0.1966  0.0255  0.1743
 2012ntf    on515054   2.505   2.206   2.703  0.3500  0.0801 -0.0861
 2012ntf    on515055   2.528   2.034   2.538 -0.4424  0.6706 -0.0727
 2012ntf    on515056   2.201   2.099   2.770  0.0872 -0.1286  0.0588
 2012ntf    on515057   2.259   1.953   2.952 -0.3312  0.2698  0.1050
 2012ntf    fn415058   2.287   1.733   2.738 -0.0812  0.0444  0.3228
 2012ntf    fn415059   2.096   1.794   2.780 -0.0208  0.4436  0.1142
 2012ntf    fn415060   2.195   1.852   2.593 -0.1289  0.4843  0.2713
 2013ntf    cn115061   0.643   2.231   1.263 -0.0743  0.3811  0.1062
 2013ntf    sn215062   0.479   2.262   1.192 -0.1308 -0.0657  0.0336
 2013ntf    nn315063   0.480   2.188   1.053  0.0035 -0.5941  0.3165
 2013ntf    sn215064   0.374   2.172   0.938  0.1216  0.1634  0.0973
 2013ntf    cn115065   0.413   2.306   0.822  0.5220  0.1265  0.1853
 2013ntf    fn415066   0.750   2.245   1.187 -0.2144  0.8393 -0.0049
 2013ntf    fn415067   0.661   2.288   1.381  0.7437 -0.8085  0.5806
 2013ntf    fn415068   0.647   2.101   1.291  0.0670  0.2725 -0.4175
 2013ntf    on515069   0.389   2.197   1.283 -0.3591 -0.2850 -0.3435
 2013ntf    on515070   0.489   2.406   1.192  0.2163 -0.0911  0.2239
 2013ntf    on515071   0.236   2.197   0.969  0.0835  0.3750 -0.2337
 2013ntf    on515072   0.398   2.054   0.859 -0.5761 -0.1999  0.4268
 2013ntf    fn415073   0.388   2.426   0.873 -0.0803  0.0082  0.1798
 2013ntf    fn415074   0.541   2.309   0.787  0.4205  0.8350 -0.1548
 2013ntf    fn415075   0.349   2.293   0.707  0.0585 -0.1951  0.4762
 2014ntf    cn115076   5.070   5.680   4.034 -0.1133  0.4005 -0.2526
 2014ntf    sn215077   5.021   5.661   4.208  0.0738  0.4883 -0.1896
 2014ntf    nn315078   4.901   5.762   4.217 -0.2415  0.1581 -0.6191
 2014ntf    sn215079   4.761   5.761   4.288  0.0289  0.1779 -0.0778
 2014ntf    cn115080   4.655   5.766   4.140 -0.2451  0.0531  0.1120
 2014ntf    fn415081   4.971   5.656   3.950  0.0617 -0.3531 -0.2521
 2014ntf    fn415082   5.119   5.800   4.006  0.7459  0.1801  0.2882
 2014ntf    fn415083   5.167   5.597   4.000 -0.1840  0.2180 -0.0051
 2014ntf    on515084   4.992   5.520   4.208  0.6155  0.3755 -0.0046
 2014ntf    on515085   5.132   5.703   4.290 -0.1230  0.2075  0.2233
 2014ntf    on515086   4.733   5.890   4.347 -0.4803  0.0470 -0.0264
 2014ntf    on515087   4.719   5.642   4.358  0.1010  0.2588  0.1038
 2014ntf    fn415088   4.527   5.750   4.166 -0.2583 -0.4745 -0.2726
 2014ntf    fn415089   4.676   5.877   4.071  0.6379 -0.1281  0.0660
 2014ntf    fn415090   4.700   5.662   4.072 -0.1367  0.0003  0.2643
 2015ntf    cn115091   6.280   2.122   2.163 -0.3079 -0.1905  0.2640
 2015ntf    sn215092   6.142   2.145   2.047 -0.2168 -0.2581  0.1421
 2015ntf    nn315093   6.189   2.275   1.972 -0.4361 -0.0988  0.2780
 2015ntf    sn215094   6.178   2.417   2.037  0.0691 -0.0114  0.1737
 2015ntf    cn115095   6.021   2.488   1.980  0.0445  0.2182  0.5236
 2015ntf    fn415096   6.397   2.117   2.102 -0.1940 -0.0730  0.4697
 2015ntf    fn415097   6.293   2.213   2.258  0.1402  0.4052 -0.3574
 2015ntf    fn415098   6.275   2.003   2.219 -0.3455 -0.1183  0.4159
 2015ntf    on515099   6.135   2.031   1.959 -0.1238 -0.2730  0.1545
 2015ntf    on515100   6.033   2.162   2.141 -0.2668  0.1145  0.0209
 2015ntf    on515101   6.275   2.510   1.983  0.3364 -0.3762  0.0223
 2015ntf    on515102   6.166   2.419   2.181 -0.0178 -0.4497  0.1728
 2015ntf    fn415103   5.935   2.399   1.934  0.0497  0.1519  0.6415
 2015ntf    fn415104   5.967   2.553   2.082  0.1635  0.1883  0.6056
 2015ntf    fn415105   6.038   2.579   1.885  0.0655 -0.1270  0.1952
 2016ntf    cn115106   4.604   5.282   5.486  0.1818  0.2269 -0.1427
 2016ntf    sn215107   4.641   5.317   5.660  0.2329  0.1777 -0.1432
 2016ntf    nn315108   4.615   5.471   5.661 -0.3956  0.0738 -0.2977
 2016ntf    sn215109   4.553   5.556   5.778  0.0357 -0.1306  0.0822
 2016ntf    cn115110   4.375   5.546   5.740  0.0303 -0.2045  0.1253
 2016ntf    fn415111   4.622   5.155   5.454  0.1785  0.1856  0.0226
 2016ntf    fn415112   4.476   5.300   5.459  0.0997  0.1180  0.1666
 2016ntf    fn415113   4.671   5.359   5.402  0.1112  0.1504 -0.2710
 2016ntf    on515114   4.552   5.232   5.736  0.1237 -0.4503 -0.9615
 2016ntf    on515115   4.780   5.279   5.669  0.1867  0.0785  0.1992
 2016ntf    on515116   4.596   5.692   5.760 -0.4478  0.0207  0.0404
 2016ntf    on515117   4.560   5.499   5.910 -0.0849  0.3908  0.3153
 2016ntf    fn415118   4.331   5.428   5.782 -0.6256  0.2065  0.6168
 2016ntf    fn415119   4.299   5.634   5.803  0.3003 -0.0320  0.2134
 2016ntf    fn415120   4.353   5.539   5.610  0.0932 -0.0635  0.1066
 2017ntf    cn115121   1.271   0.875   1.569  0.5287 -0.1062 -0.1251
 2017ntf    sn215122   1.298   0.947   1.733 -0.0254  0.1528 -0.1449
 2017ntf    nn315123   1.170   1.036   1.749  0.0276  0.1579  0.2770
 2017ntf    sn215124   1.035   1.016   1.827  0.0673 -0.0634  0.2901
 2017ntf    cn115125   1.056   1.143   1.956 -0.0943  0.1444  0.1130
 2017ntf    fn415126   1.165   0.795   1.569  0.1068  0.4408  0.5798
 2017ntf    fn415127   1.263   0.972   1.480  0.1841  0.2415  0.2855
 2017ntf    fn415128   1.381   0.806   1.542  0.5237 -0.1107 -0.1342
 2017ntf    on515129   1.316   0.836   1.824 -0.9364  0.0762 -0.0478
 2017ntf    on515130   1.422   1.015   1.703 -0.3813  0.5577 -0.7093
 2017ntf    on515131   1.022   0.884   1.883  0.6986 -0.0169  0.5623
 2017ntf    on515132   0.923   1.051   1.743  0.0911 -0.0219  0.2757
 2017ntf    fn415133   1.148   1.232   1.922 -0.1060 -0.0921 -0.5542
 2017ntf    fn415134   0.945   1.206   1.990 -0.3751 -0.2953  0.0277
 2017ntf    fn415135   1.103   1.088   2.067  0.1710  0.1343 -0.0031
 2018ntf    cn115136   3.424   2.585   3.891 -0.0441  0.0248 -0.1312
 2018ntf    sn215137   3.263   2.559   3.811 -0.2432  0.2612  0.1919
 2018ntf    nn315138   3.180   2.649   3.909  0.0732 -0.2538  0.9413
 2018ntf    sn215139   3.093   2.778   3.887  0.3818 -0.1647  0.2042
 2018ntf    cn115140   2.960   2.756   4.009  0.0704 -0.0985 -0.1230
 2018ntf    fn415141   3.520   2.517   3.830 -0.1980 -0.5697  0.2774
 2018ntf    fn415142   3.459   2.711   3.912  0.4251 -0.0673 -0.3351
 2018ntf    fn415143   3.420   2.530   4.012 -0.6599  0.0631 -0.1337
 2018ntf    on515144   3.285   2.615   3.680 -0.2832 -0.1511  0.0050
 2018ntf    on515145   3.244   2.416   3.818  0.0691  0.2089  0.0074
 2018ntf    on515146   3.018   2.778   3.764 -0.1069 -0.7137  0.4936
 2018ntf    on515147   3.154   2.900   3.932  0.0444  0.1877 -0.2872
 2018ntf    fn415148   2.862   2.845   4.005  0.8670  0.8187  0.2769
 2018ntf    fn415149   2.911   2.636   3.983  0.1000 -0.1330 -0.0231
 2018ntf    fn415150   3.012   2.759   4.131 -0.0781 -0.2980 -0.0539
 2019ntf    cn115151   4.423   1.659   1.118  0.0964 -0.4089 -0.2382
 2019ntf    sn215152   4.434   1.840   1.120  0.1102 -0.4133  0.4232
 2019ntf    nn315153   4.365   1.854   0.979  0.2383 -0.9053  0.3112
 2019ntf    sn215154   4.436   1.862   0.840 -0.0515 -0.1942  0.2002
 2019ntf    cn115155   4.450   2.041   0.812  0.1068 -0.1540  0.5334
 2019ntf    fn415156   4.300   1.612   1.131 -0.1697  0.5204  0.6769
 2019ntf    fn415157   4.482   1.608   1.011  0.0791 -0.4236 -0.2410
 2019ntf    fn415158   4.486   1.606   1.222 -0.3303 -0.4236  0.0155
 2019ntf    on515159   4.347   1.862   1.233 -0.1425  0.0561  0.1434
 2019ntf    on515160   4.574   1.873   1.129  0.1036 -0.1776 -0.2632
 2019ntf    on515161   4.347   1.822   0.734  0.5548 -1.1681  0.0415
 2019ntf    on515162   4.570   1.807   0.835 -0.1686 -0.4598 -0.1223
 2019ntf    fn415163   4.329   2.094   0.807  0.1285 -0.1478  0.0432
 2019ntf    fn415164   4.507   2.109   0.910 -0.2685  0.5627  0.2613
 2019ntf    fn415165   4.504   2.082   0.699 -0.5657 -0.0789  0.2360
 2020ntf    cn115166   0.711   4.445   2.850 -0.4606 -0.3087  0.0139
 2020ntf    sn215167   0.780   4.320   2.737  0.1691 -0.0682  0.1322
 2020ntf    nn315168   0.811   4.214   2.848 -0.3710 -0.3656 -0.0031
 2020ntf    sn215169   0.908   4.091   2.836 -0.1685 -0.2282  0.2265
 2020ntf    cn115170   1.052   4.172   2.913  0.3441 -0.5549 -0.3824
 2020ntf    fn415171   0.804   4.493   2.931 -0.3353 -0.5462  0.0125
 2020ntf    fn415172   0.675   4.553   2.783  0.2521 -0.1764 -0.1607
 2020ntf    fn415173   0.622   4.399   2.937  0.4571 -0.2337  1.0198
 2020ntf    on515174   0.671   4.292   2.648 -0.4968  0.3011  0.8169
 2020ntf    on515175   0.897   4.386   2.684  0.0592 -0.0957 -0.1453
 2020ntf    on515176   0.946   4.055   2.702 -0.2424 -0.5367  0.2873
 2020ntf    on515177   0.870   3.987   2.929 -0.1796 -0.4161  0.0129
 2020ntf    fn415178   1.065   4.300   2.881  0.2698 -0.4644 -0.0498
 2020ntf    fn415179   1.045   4.169   3.045  0.4133 -0.3082 -0.3719
 2020ntf    fn415180   1.168   4.123   2.872  0.8942  0.4358 -0.0494
 2021ntf    cn115181   2.892   0.329   3.849  0.0079  0.2957 -0.1636
 2021ntf    sn215182   3.039   0.285   3.946 -0.0850  0.1350 -0.0956
 2021ntf    nn315183   3.136   0.372   3.859 -0.5080  0.4943 -0.2080
 2021ntf    sn215184   3.236   0.321   3.750 -0.3440  0.0227  0.1637
 2021ntf    cn115185   3.307   0.475   3.684 -0.0652 -0.4126 -0.5746
 2021ntf    fn415186   2.897   0.283   3.725  0.8633  0.0781 -0.0545
 2021ntf    fn415187   2.781   0.278   3.900 -0.1492  0.6482 -0.1469
 2021ntf    fn415188   2.870   0.460   3.847  0.1433  0.3135 -0.6413
 2021ntf    on515189   3.010   0.344   4.074 -0.1406  0.1848 -0.1311
 2021ntf    on515190   3.046   0.141   3.938  0.2731  0.1529 -0.1578
 2021ntf    on515191   3.179   0.271   3.627  0.1295  0.1897 -0.1320
 2021ntf    on515192   3.359   0.265   3.802 -0.3393  0.0842  0.2179
 2021ntf    fn415193   3.385   0.533   3.774 -0.5708  0.0393 -0.4255
 2021ntf    fn415194   3.371   0.467   3.569 -0.0226 -0.2374 -0.5624
 2021ntf    fn415195   3.212   0.565   3.665 -0.0797 -0.1792  0.5205
 2022ntf    cn115196   3.991   6.011   1.730 -0.1281  0.0841 -0.2922
 2022ntf    sn215197   4.050   5.865   1.820 -0.3707  0.1211 -0.0726
 2022ntf    nn315198   4.032   5.754   1.711 -0.3511 -0.1942  0.2423
 2022ntf    sn215199   3.974   5.610   1.733 -0.2130 -0.2639  0.1531
 2022ntf    cn115200   4.076   5.548   1.870  0.0922 -0.1000 -0.0002
 2022ntf    fn415201   3.859   6.019   1.718 -0.1224 -0.1837 -0.5518
 2022ntf    fn415202   4.030   6.127   1.780 -0.1028 -0.1557  0.2407
 2022ntf    fn415203   4.036   6.010   1.605 -0.2234  0.2127 -0.3275
 2022ntf    on515204   4.188   5.894   1.853 -0.3655  0.5787 -0.4852
 2022ntf    on515205   3.960   5.857   1.933  0.2691  0.1422  0.4476
 2022ntf    on515206   3.998   5.512   1.630 -0.1432  0.5271 -0.5953
 2022ntf    on515207   3.841   5.610   1.790 -0.4528  0.3115 -0.3840
 2022ntf    fn415208   4.095   5.634   1.968  0.0241 -0.2319  0.1292
 2022ntf    fn415209   4.025   5.436   1.919  0.0330 -0.0935 -0.0472
 2022ntf    fn415210   4.197   5.513   1.829  0.0478 -0.2063 -0.0423
 2023ntf    cn115211   5.014   1.606   6.456  0.1198 -0.0470  0.1498
 2023ntf    sn215212   5.097   1.463   6.532 -0.0964 -0.2088  0.0828
 2023ntf    nn315213   5.035   1.342   6.455  0.3912 -0.7572  0.5447
 2023ntf    sn215214   5.107   1.215   6.396  0.2547 -0.3370 -0.5618
 2023ntf    cn115215   5.141   1.290   6.234  0.2146  0.7388 -0.0778
 2023ntf    fn415216   5.027   1.604   6.324  0.0135 -0.6695  0.1490
 2023ntf    fn415217   4.884   1.609   6.480  0.0887 -0.8193  0.0893
 2023ntf    fn415218   5.056   1.726   6.492  0.0345  0.1722 -0.4725
 2023ntf    on515219   5.236   1.491   6.506 -0.2188  0.1950 -0.1438
 2023ntf    on515220   5.063   1.466   6.672 -0.0565 -0.7953  0.1059
 2023ntf    on515221   5.009   1.113   6.367 -0.5189  0.2321  0.0101
 2023ntf    on515222   5.236   1.171   6.445  0.1038 -0.0993  0.0678
 2023ntf    fn415223   5.047   1.376   6.197 -0.6024  0.1119  0.5011
 2023ntf    fn415224   5.257   1.352   6.236  0.5494  0.1119  0.0784
 2023ntf    fn415225   5.160   1.199   6.141  0.0451  0.1276  0.4782
 2024ntf    cn115226   4.029   4.570   3.198  0.2034 -0.0867 -0.1227
 2024ntf    sn215227   3.956   4.436   3.297 -0.0511 -0.0392 -0.2453
 2024ntf    nn315228   3.827   4.504   3.355  0.1973  0.2051  0.0212
 2024ntf    sn215229   3.677   4.464   3.332  0.1283  0.3966  0.1305
 2024ntf    cn115230   3.597   4.490   3.493  0.0065  0.3256  0.0823
 2024ntf    fn415231   4.114   4.646   3.264 -0.0576  0.0965  0.0040
 2024ntf    fn415232   4.094   4.525   3.091 -0.1543 -0.1589 -0.3128
 2024ntf    fn415233   3.941   4.661   3.158  0.2306  0.1183  0.2895
 2024ntf    on515234   3.938   4.332   3.199 -0.3769 -0.0388 -0.1893
 2024ntf    on515235   4.049   4.419   3.405  0.1137  0.3218 -0.3284
 2024ntf    on515236   3.650   4.323   3.318  0.2279  0.4251 -0.3666
 2024ntf    on515237   3.604   4.549   3.242  0.4303 -0.0043 -0.4987
 2024ntf    fn415238   3.480   4.430   3.505  0.4526 -0.6927 -0.6140
 2024ntf    fn415239   3.675   4.431   3.582  0.2403  0.1516 -0.2387
 2024ntf    fn415240   3.592   4.620   3.518  0.2589  0.4747 -0.6110
 2025ntf    cn115241   4.972   0.845   1.330 -0.2195 -0.2369  0.1805
 2025ntf    sn215242   5.055   0.994   1.393 -0.4407 -0.1182  0.1924
 2025ntf    nn315243   5.167   1.006   1.284 -0.3784  0.3794  0.3074
 2025ntf    sn215244   5.202   1.104   1.166  0.0070 -0.3771 -0.2196
 2025ntf    cn115245   5.330   1.204   1.248 -0.0813 -0.3446 -0.1205
 2025ntf    fn415246   4.926   0.871   1.208 -0.5398  0.1998  0.3902
 2025ntf    fn415247   5.053   0.742   1.315 -0.4692 -0.3850 -0.1814
 2025ntf    fn415248   4.873   0.798   1.403  0.0229 -0.2156  0.5263
 2025ntf    on515249   4.953   1.095   1.374 -0.1900 -0.0263 -0.7051
 2025ntf    on515250   5.092   0.957   1.527 -0.7965 -0.5172  0.1830
 2025ntf    on515251   5.094   1.194   1.133 -0.3420 -0.5586  0.3926
 2025ntf    on515252   5.268   1.044   1.053  0.4139 -0.3644  0.0099
 2025ntf    fn415253   5.404   1.284   1.173 -0.1003 -0.2979 -0.0900
 2025ntf    fn415254   5.273   1.294   1.326  0.1862 -0.1805 -0.1159
 2025ntf    fn415255   5.419   1.142   1.323  0.1952  0.1239 -0.0575
 2026ntf    cn115256   3.551   0.749   1.704  0.3746  0.0746  0.0073
 2026ntf    sn215257   3.436   0.610   1.684  0.3616  0.0955 -0.0646
 2026ntf    nn315258   3.401   0.614   1.531 -0.4441  0.5465  0.1215
 2026ntf    sn215259   3.276   0.589   1.439 -0.1050 -0.3766 -0.0989
 2026ntf    cn115260   3.210   0.758   1.444  0.2269 -0.2463 -0.1204
 2026ntf    fn415261   3.651   0.738   1.618  0.3371  0.3446 -0.0705
 2026ntf    fn415262   3.492   0.864   1.677  0.3437  0.0650  0.0331
 2026ntf    fn415263   3.601   0.745   1.826  0.7893  0.1941 -0.1590
 2026ntf    on515264   3.520   0.498   1.719 -0.0322 -0.4192 -0.7347
 2026ntf    on515265   3.319   0.636   1.765 -0.1599 -0.3384 -0.6640
 2026ntf    on515266   3.179   0.505   1.504 -0.1803  0.1466  0.4705
 2026ntf    on515267   3.308   0.565   1.300  0.4819 -0.3886  0.0330
 2026ntf    fn415268   3.176   0.779   1.570  0.4015  0.6140 -0.2100
 2026ntf    fn415269   3.291   0.853   1.399 -0.0469 -0.0509 -0.1975
 2026ntf    fn415270   3.108   0.769   1.361  0.3513 -0.0470 -0.2502
 2027ntf    cn115271   1.358   5.406   5.645  0.2902 -0.1477 -0.3683
 2027ntf    sn215272   1.425   5.370   5.810 -0.3342 -0.3570 -0.1585
 2027ntf    nn315273   1.333   5.462   5.896  0.1682  0.6124 -0.6446
 2027ntf    sn215274   1.350   5.589   5.988 -0.0851 -0.0695  0.3578
 2027ntf    cn115275   1.239   5.709   5.909  0.1124  0.2865  0.6171
 2027ntf    fn415276   1.227   5.399   5.631  0.3063 -0.2975 -0.4429
 2027ntf    fn415277   1.398   5.524   5.600  0.1329  0.1018  0.1424
 2027ntf    fn415278   1.399   5.321   5.552  0.9173 -0.4369  0.1721
 2027ntf    on515279   1.403   5.228   5.822 -0.2427 -0.3497  0.0857
 2027ntf    on515280   1.563   5.410   5.802 -0.3965  0.0460  0.7308
 2027ntf    on515281   1.476   5.659   5.982 -0.5167  0.6356 -0.7309
 2027ntf    on515282   1.304   5.561   6.122  0.6404 -0.1515  0.5981
 2027ntf    fn415283   1.120   5.669   5.868  0.2732  0.1735  0.2589
 2027ntf    fn415284   1.216   5.818   5.979  0.0266  0.5045  0.2519
 2027ntf    fn415285   1.287   5.764   5.799 -0.5799 -0.1873  0.0711
 2028ntf    cn115286   1.336   2.268   4.661  0.1262 -0.3256 -0.0351
 2028ntf    sn215287   1.455   2.135   4.694  0.1351 -0.3366 -0.1117
 2028ntf    nn315288   1.453   2.146   4.851  0.0105  0.7672 -0.1820
 2028ntf    sn215289   1.559   2.124   4.964  0.0050  0.0877 -0.3017
 2028ntf    cn115290   1.450   2.137   5.109  0.2371 -0.4013 -0.0811
 2028ntf    fn415291   1.315   2.294   4.533 -0.2663  0.4027  0.1698
 2028ntf    fn415292   1.215   2.245   4.710  0.0265 -0.2087 -0.2244
 2028ntf    fn415293   1.365   2.389   4.708  0.2042  0.0632 -1.0672
 2028ntf    on515294   1.394   2.015   4.644 -0.1867 -0.1684 -0.1230
 2028ntf    on515295   1.569   2.181   4.619 -0.1099 -0.3790 -0.5092
 2028ntf    on515296   1.653   2.230   4.993  0.0077  0.1091 -0.3887
 2028ntf    on515297   1.610   1.989   4.964 -0.6405 -0.1586  0.0181
 2028ntf    fn415298   1.334   2.081   5.082  0.1496  0.0753 -0.7098
 2028ntf    fn415299   1.498   2.084   5.220  0.7380  0.1240 -0.0374
 2028ntf    fn415300   1.428   2.266   5.131 -0.0809 -0.4713  0.0110
 2029ntf    cn115301   1.626   1.605   0.153 -0.3991  0.5664  0.4219
 2029ntf    sn215302   1.645   1.426   0.178 -0.0715  0.4841 -0.3829
 2029ntf    nn315303   1.709   1.385   0.041 -0.1045 -0.7480 -0.0406
 2029ntf    sn215304   1.651   1.344  -0.099 -0.4059 -0.0728 -0.1160
 2029ntf    cn115305   1.712   1.173  -0.106 -0.0553  0.0472 -0.0261
 2029ntf    fn415306   1.580   1.663   0.262 -0.2678  0.4456  0.5428
 2029ntf    fn415307   1.743   1.661   0.125 -0.2448 -0.2425 -0.6229
 2029ntf    fn415308   1.561   1.638   0.043  0.1879  0.1349 -0.0654
 2029ntf    on515309   1.739   1.407   0.287 -0.6174  0.1834  0.0393
 2029ntf    on515310   1.511   1.382   0.208  0.0983  0.2368  0.0241
 2029ntf    on515311   1.723   1.406  -0.207  0.3624 -0.1708  0.3322
 2029ntf    on515312   1.509   1.322  -0.113 -0.4190 -0.0805  0.0309
 2029ntf    fn415313   1.803   1.152  -0.201  0.5915  0.3054  0.5296
 2029ntf    fn415314   1.770   1.132   0.005 -0.4119 -0.6810 -0.1000
 2029ntf    fn415315   1.615   1.084  -0.121  0.1431 -0.2014  0.1449
 2030ntf    cn115316   6.051   3.599   0.032 -0.3207 -0.0978 -0.2471
 2030ntf    sn215317   6.024   3.575   0.210 -0.0096  0.2395 -0.1521
 2030ntf    nn315318   5.926   3.695   0.238  0.3260  0.3161  0.7348
 2030ntf    sn215319   5.770   3.685   0.238  0.3280  0.1795 -0.3172
 2030ntf    cn115320   5.728   3.643   0.410 -0.1544  0.1408 -0.4439
 2030ntf    fn415321   6.155   3.674  -0.003 -0.3797  0.0806 -0.0443
 2030ntf    fn415322   6.071   3.482  -0.026  0.2439 -0.5292  0.7829
 2030ntf    fn415323   5.950   3.663  -0.024 -0.4782 -0.0410  0.0980
 2030ntf    on515324   5.968   3.442   0.216 -0.2134  0.3352  0.1317
 2030ntf    on515325   6.145   3.598   0.286 -0.2854  0.2091  0.3058
 2030ntf    on515326   5.706   3.586   0.155 -0.6615  0.0560  0.5705
 2030ntf    on515327   5.717   3.819   0.222  0.1297  0.1561  0.1401
 2030ntf    fn415328   5.784   3.730   0.493 -0.0251 -0.2018 -0.1724
 2030ntf    fn415329   5.598   3.632   0.436 -0.0568  0.0433  0.0073
 2030ntf    fn415330   5.773   3.527   0.452  0.2616  0.5803  0.3493
 2031ntf    cn115331   1.575   3.681   1.462  0.2640 -0.1019 -0.0130
 2031ntf    sn215332   1.670   3.555   1.552 -0.0563 -0.3087  0.0329
 2031ntf    nn315333   1.763   3.489   1.444  0.0710  0.1684 -0.1502
 2031ntf    sn215334   1.916   3.453   1.434  0.0842  0.1897 -0.0277
 2031ntf    cn115335   1.927   3.402   1.260 -0.1074  0.1274 -0.0216
 2031ntf    fn415336   1.665   3.769   1.419  0.3712 -0.1267  0.1587
 2031ntf    fn415337   1.511   3.629   1.359 -0.2450  0.6136 -0.0643
 2031ntf    fn415338   1.487   3.739   1.542  0.5108 -0.2616  0.3774
 2031ntf    on515339   1.734   3.634   1.654 -0.3492 -0.5097  0.3734
 2031ntf    on515340   1.559   3.472   1.592  0.2722 -0.7226  0.0878
 2031ntf    on515341   1.951   3.334   1.508 -0.3737  0.1031  0.0554
 2031ntf    on515342   1.999   3.571   1.436 -0.0151  0.2546  0.5293
 2031ntf    fn415343   2.053   3.399   1.222 -0.1816  0.0447 -0.2659
 2031ntf    fn415344   1.870   3.285   1.236 -0.3284  0.2782 -0.2364
 2031ntf    fn415345   1.870   3.491   1.181 -0.2782  0.1495  0.1247
 2032ntf    cn115346   4.010   3.091   6.524 -0.0382  0.1273 -0.1337
 2032ntf    sn215347   4.033   2.911   6.519 -0.0484  0.1348 -0.4848
 2032ntf    nn315348   4.177   2.915   6.456  0.0653  0.1976 -0.2230
 2032ntf    sn215349   4.218   2.914   6.305  0.1289  0.3942 -0.2072
 2032ntf    cn115350   4.386   2.982   6.314  0.3333 -0.0281 -0.7887
 2032ntf    fn415351   3.918   3.133   6.609 -0.0707  0.0045 -0.1091
 2032ntf    fn415352   4.118   3.158   6.562  0.2298 -0.2864 -0.1600
 2032ntf    fn415353   3.964   3.141   6.410 -0.8351 -0.6004 -0.1357
 2032ntf    on515354   4.041   2.866   6.656 -0.1175  0.6462 -0.3112
 2032ntf    on515355   3.925   2.856   6.441 -0.1096 -0.0023 -0.3049
 2032ntf    on515356   4.149   3.015   6.228  0.3608  0.1730 -0.7127
 2032ntf    on515357   4.242   2.791   6.234  0.3955  0.3888 -0.1075
 2032ntf    fn415358   4.440   2.941   6.428 -0.0317 -0.3909 -0.7422
 2032ntf    fn415359   4.471   2.940   6.222  0.6893 -0.2093 -0.3826
 2032ntf    fn415360   4.393   3.114   6.310  0.0241  0.0093 -0.1866
 2033ntf    cn115361   2.559   3.029   3.488 -0.3973 -0.3719 -0.0949
 2033ntf    sn215362   2.538   2.872   3.577  0.2705 -0.3479  0.1121
 2033ntf    nn315363   2.598   2.770   3.473  0.5029 -0.1018  0.0024
 2033ntf    sn215364   2.748   2.725   3.467  0.5465  0.0380  0.0466
 2033ntf    cn115365   2.745   2.597   3.596  0.3365  0.0103  0.0139
 2033ntf    fn415366   2.495   3.133   3.540  0.3459  0.0320  0.0178
 2033ntf    fn415367   2.680   3.082   3.494 -0.5373 -0.0992  0.3968
 2033ntf    fn415368   2.529   3.019   3.359 -0.4982  0.8527 -0.1806
 2033ntf    on515369   2.601   2.883   3.706  0.7591 -0.0170 -0.1530
 2033ntf    on515370   2.394   2.858   3.583  0.2772 -0.2142  0.5759
 2033ntf    on515371   2.846   2.820   3.513  0.4478  0.0789  0.1747
 2033ntf    on515372   2.778   2.649   3.348 -0.1393 -0.4126  0.1577
 2033ntf    fn415373   2.698   2.630   3.715  0.0620 -0.1160 -0.0583
 2033ntf    fn415374   2.675   2.492   3.556  0.3208  0.0593 -0.0889
 2033ntf    fn415375   2.867   2.549   3.616  0.2896 -0.3421 -0.5086
 2034ntf    cn115376   1.776   0.716   0.634  0.0666  0.1211 -0.1096
 2034ntf    sn215377   1.792   0.641   0.799 -0.0202  0.1187 -0.1023
 2034ntf    nn315378   1.662   0.556   0.824 -0.0758  0.2791  0.1459
 2034ntf    sn215379   1.523   0.602   0.883 -0.1093  0.2751  0.0699
 2034ntf    cn115380   1.410   0.466   0.839  0.5055 -0.2929  0.2241
 2034ntf    fn415381   1.692   0.817   0.620 -0.4597 -0.3157 -0.1754
 2034ntf    fn415382   1.892   0.765   0.592  0.1377 -0.0901 -0.1633
 2034ntf    fn415383   1.729   0.625   0.549 -0.2327 -0.1349  0.3256
 2034ntf    on515384   1.914   0.566   0.785 -0.6004 -0.9630  0.5447
 2034ntf    on515385   1.799   0.756   0.885  0.2144 -0.2618  0.3874
 2034ntf    on515386   1.466   0.715   0.814  0.2613  0.2213 -0.3317
 2034ntf    on515387   1.523   0.602   1.027 -0.0982  0.7810  0.0728
 2034ntf    fn415388   1.287   0.506   0.864  0.6092  0.3029 -0.1899
 2034ntf    fn415389   1.418   0.436   0.710 -0.9969 -0.2097  0.1034
 2034ntf    fn415390   1.420   0.349   0.898 -0.4412 -0.3042  0.3697
 2035ntf    cn115391   4.635   4.830   2.867  0.3855 -0.0233 -0.1493
 2035ntf    sn215392   4.732   4.971   2.929 -0.2446  0.3250  0.0570
 2035ntf    nn315393   4.775   5.051   2.801 -0.2588 -0.0214 -0.1678
 2035ntf    sn215394   4.915   5.034   2.733 -0.0103  0.0464  0.3213
 2035ntf    cn115395   4.931   5.172   2.617 -0.2302 -0.5371 -0.4128
 2035ntf    fn415396   4.703   4.752   2.785  0.3040 -0.0409 -0.2004
 2035ntf    fn415397   4.600   4.757   2.971  0.5727  0.3988  0.2141
 2035ntf    fn415398   4.527   4.876   2.805  0.0682 -0.4448  0.0888
 2035ntf    on515399   4.631   5.046   3.000  0.0518  0.7126  0.0720
 2035ntf    on515400   4.838   4.914   3.008 -0.4073  0.7298  0.5719
 2035ntf    on515401   4.927   4.920   2.645  0.9835  0.1592  0.2993
 2035ntf    on515402   5.025   5.060   2.822  0.0515  0.5104  0.1090
 2035ntf    fn415403   4.973   5.280   2.682  0.0196 -0.8926  0.0183
 2035ntf    fn415404   5.020   5.142   2.523  0.0207 -0.6922 -0.1252
 2035ntf    fn415405   4.818   5.204   2.555 -0.0306  0.4326 -0.2909
 2036ntf    cn115406   6.676   6.460   6.037  0.0035 -0.5049 -0.1660
 2036ntf    sn215407   6.730   6.327   5.925  0.2448 -0.2766 -0.3226
 2036ntf    nn315408   6.590   6.263   5.891  0.2436 -0.3992 -0.0913
 2036ntf    sn215409   6.507   6.146   5.953 -0.3884  0.0670 -0.0467
 2036ntf    cn115410   6.438   6.056   5.811 -0.6643 -0.3301  0.3361
 2036ntf    fn415411   6.631   6.559   5.962  0.3186 -0.5189 -0.3744
 2036ntf    fn415412   6.584   6.422   6.125 -0.3248 -0.2683 -0.4045
 2036ntf    fn415413   6.778   6.508   6.106  0.0378 -0.1774 -0.4423
 2036ntf    on515414   6.791   6.402   5.819  0.1421  0.4890  0.1514
 2036ntf    on515415   6.816   6.250   6.012 -0.8288 -0.9784  0.1574
 2036ntf    on515416   6.392   6.199   6.022 -0.7075 -0.6285 -0.0282
 2036ntf    on515417   6.578   6.037   6.017 -0.7375 -0.0683  0.1149
 2036ntf    fn415418   6.371   6.134   5.728  0.2067  0.2478  0.1682
 2036ntf    fn415419   6.527   6.011   5.725 -0.1796  0.1025  0.6049
 2036ntf    fn415420   6.352   5.959   5.839 -0.6234 -0.5878 -0.4186
 2037ntf    cn115421   1.751   2.585   3.423 -0.3518  0.2199 -0.1066
 2037ntf    sn215422   1.597   2.668   3.372 -0.4486  0.1011 -0.0067
 2037ntf    nn315423   1.663   2.761   3.264 -0.1096 -0.1052  0.0203
 2037ntf    sn215424   1.615   2.792   3.118 -0.2751 -0.1619  0.0615
 2037ntf    cn115425   1.703   2.675   3.010  0.3641  0.0832  0.3135
 2037ntf    fn415426   1.811   2.528   3.320 -0.1418 -0.6125  0.4652
 2037ntf    fn415427   1.845   2.663   3.473 -0.0432 -0.0185 -0.3173
 2037ntf    fn415428   1.730   2.486   3.508  0.1712  0.0357 -0.1937
 2037ntf    on515429   1.518   2.563   3.312  0.0683 -0.1912 -0.1827
 2037ntf    on515430   1.554   2.744   3.487  0.0010  0.4942 -0.0956
 2037ntf    on515431   1.663   2.919   3.071 -0.2509 -0.4711 -0.7743
 2037ntf    on515432   1.484   2.747   3.077 -0.1837 -0.2914 -0.0914
 2037ntf    fn415433   1.685   2.551   3.053 -0.2706  0.1524  0.2598
 2037ntf    fn415434   1.674   2.677   2.881 -0.5735 -0.2022  0.5163
 2037ntf    fn415435   1.833   2.697   3.023  0.4611  0.0286 -0.5181
 2038ntf    cn115436   2.017   4.785   0.338 -0.2651 -0.0113 -0.0877
 2038ntf    sn215437   1.906   4.672   0.429  0.0828  0.1228  0.5140
 2038ntf    nn315438   1.778   4.763   0.438 -0.1746 -0.1555 -0.2025
 2038ntf    sn215439   1.748   4.873   0.546 -0.0052 -0.2409 -0.0681
 2038ntf    cn115440   1.633   4.797   0.664 -0.0186 -0.1463 -0.0199
 2038ntf    fn415441   2.139   4.736   0.324  0.0265  0.4803  0.6605
 2038ntf    fn415442   1.969   4.816   0.219 -0.1084 -0.5396 -0.2931
 2038ntf    fn415443   2.028   4.895   0.411 -0.6333 -0.1035  0.1100
 2038ntf    on515444   1.892   4.564   0.335 -0.3920  0.0386  0.6785
 2038ntf    on515445   1.976   4.641   0.551  0.5521 -0.7541  0.0290
 2038ntf    on515446   1.666   4.977   0.489  0.0714 -0.2065 -0.1170
 2038ntf    on515447   1.857   4.905   0.636  0.1828  0.3064 -0.4825
 2038ntf    fn415448   1.667   4.671   0.684 -0.3810 -0.1221  0.7801
 2038ntf    fn415449   1.616   4.858   0.780 -0.6116 -0.2587 -0.0413
 2038ntf    fn415450   1.515   4.793   0.604 -0.0308  0.0444 -0.0091
 2039ntf    cn115451   0.744   2.836   2.667  0.0629 -0.1379  0.2842
 2039ntf    sn215452   0.852   2.700   2.613 -0.0509 -0.0659 -0.1276
 2039ntf    nn315453   0.772   2.565   2.600  0.2667 -0.2714  0.0532
 2039ntf    sn215454   0.785   2.433   2.685  0.2383 -0.1465  0.2516
 2039ntf    cn115455   0.911   2.341   2.593  0.3712  0.1171  0.1678
 2039ntf    fn415456   0.689   2.829   2.787 -0.0652 -0.4939  0.2060
 2039ntf    fn415457   0.800   2.956   2.658  0.8635 -0.4953  0.3900
 2039ntf    fn415458   0.643   2.842   2.582 -0.2628 -0.2175  0.6646
 2039ntf    on515459   0.884   2.743   2.479 -0.3855  0.2269 -0.1150
 2039ntf    on515460   0.970   2.693   2.695 -0.1375 -0.2498 -0.0179
 2039ntf    on515461   0.673   2.346   2.662  0.4071 -0.4583  0.6021
 2039ntf    on515462   0.822   2.437   2.824 -0.3471  1.0375  0.3925
 2039ntf    fn415463   0.935   2.228   2.658  0.0896  0.0081  0.0810
 2039ntf    fn415464   0.861   2.308   2.475 -0.0803  0.2323  0.3275
 2039ntf    fn415465   1.028   2.402   2.578  0.4961 -0.2373 -0.3190
 2040ntf    cn115466   1.997   4.775   3.577  0.1469  0.0296  0.1770
 2040ntf    sn215467   1.868   4.903   3.585  0.0351 -0.0702 -0.0181
 2040ntf    nn315468   1.963   5.027   3.573 -0.1148  0.0009 -0.4591
 2040ntf    sn215469   1.977   5.139   3.463  0.4431  0.1669 -0.2245
 2040ntf    cn115470   1.840   5.251   3.506 -0.1797 -0.5653 -0.2867
 2040ntf    fn415471   2.040   4.769   3.452 -0.0762 -0.0022  0.1021
 2040ntf    fn415472   2.099   4.804   3.657  0.5807  0.0151 -0.3628
 2040ntf    fn415473   1.952   4.658   3.619  0.3026  0.0479  0.4041
 2040ntf    on515474   1.789   4.874   3.469  0.2319 -0.1085 -0.1435
 2040ntf    on515475   1.807   4.886   3.715  0.7149 -0.2626  0.2822
 2040ntf    on515476   1.953   5.097   3.327 -0.4466  0.0023 -0.0242
 2040ntf    on515477   2.094   5.219   3.491  0.7285 -0.2713 -0.1604
 2040ntf    fn415478   1.873   5.329   3.607 -0.5371 -0.8861  0.0814
 2040ntf    fn415479   1.816   5.332   3.404  0.2588 -0.0730 -0.0027
 2040ntf    fn415480   1.728   5.188   3.539 -0.3771  0.1469  0.4294
 2041ntf    cn115481   3.965   3.599   0.038  0.2254  0.1196  0.1774
 2041ntf    sn215482   4.057   3.571  -0.116 -0.2767 -0.0951 -0.0842
 2041ntf    nn315483   4.109   3.713  -0.156 -0.3619  0.0424  0.2860
 2041ntf    sn215484   4.255   3.770  -0.149 -0.3012 -0.0491 -0.1658
 2041ntf    cn115485   4.259   3.824   0.025  0.1400  0.0051 -0.1894
 2041ntf    fn415486   3.849   3.659   0.015 -0.0031 -0.2632  0.3156
 2041ntf    fn415487   3.932   3.492   0.108  0.0972  0.0335 -0.0155
 2041ntf    fn415488   4.043   3.675   0.114  0.2545  0.2109  0.0574
 2041ntf    on515489   4.159   3.474  -0.086 -0.0450  0.0375 -0.4437
 2041ntf    on515490   3.959   3.527  -0.212 -0.5359 -0.1379  0.1966
 2041ntf    on515491   4.261   3.898  -0.214  0.0510 -0.1763 -0.3845
 2041ntf    on515492   4.366   3.679  -0.164  0.2156  0.6214 -0.4494
 2041ntf    fn415493   4.137   3.851   0.070  0.1602  0.2957 -0.3018
 2041ntf    fn415494   4.312   3.730   0.101 -0.2488 -0.0283  0.0465
 2041ntf    fn415495   4.333   3.933   0.038 -0.4246  0.3131  0.5375
 2042ntf    cn115496   4.879   2.339   2.893  0.0250 -0.1305 -0.1168
 2042ntf    sn215497   5.026   2.262   2.967  0.0045  0.3620  0.4414
 2042ntf    nn315498   5.044   2.148   2.860  0.2096  0.6309  0.1857
 2042ntf    sn215499   5.094   2.172   2.714  0.0618  0.2952  0.0799
 2042ntf    cn115500   5.258   2.094   2.715 -0.0450  0.0725  0.1815
 2042ntf    fn415501   4.896   2.440   2.809 -0.4255  0.3942  0.4162
 2042ntf    fn415502   4.812   2.244   2.831  0.6095 -0.6684  0.0615
 2042ntf    fn415503   4.799   2.395   2.982  0.0384  0.3873 -0.4241
 2042ntf    on515504   5.132   2.360   2.970  0.1603  0.2256 -0.4340
 2042ntf    on515505   4.979   2.209   3.092  0.3792  0.1438  0.4932
 2042ntf    on515506   5.121   2.305   2.664  0.7281  0.2326  0.2599
 2042ntf    on515507   5.027   2.080   2.625  1.0851 -0.2260 -0.1630
 2042ntf    fn415508   5.256   1.981   2.785 -0.7635  0.0799  0.1792
 2042ntf    fn415509   5.289   2.063   2.590 -0.8517  0.3028 -0.0806
 2042ntf    fn415510   5.348   2.173   2.771  0.5422 -0.5600  0.1542
 2043ntf    cn115511   3.635   0.309   6.497  0.6414 -0.4682 -0.2273
 2043ntf    sn215512   3.570   0.322   6.667 -0.1688  0.0131 -0.5653
 2043ntf    nn315513   3.620   0.464   6.711  0.2300 -0.3594  0.2111
 2043ntf    sn215514   3.746   0.513   6.790  0.0970  0.3123  0.0153
 2043ntf    cn115515   3.682   0.468   6.954 -0.3729  0.0207 -0.2448
 2043ntf    fn415516   3.615   0.416   6.421  0.3419  0.0713  0.5918
 2043ntf    fn415517   3.765   0.291   6.483  0.7011 -0.1774 -0.0588
 2043ntf    fn415518   3.577   0.210   6.432 -0.0509 -0.3469  0.1981
 2043ntf    on515519   3.428   0.307   6.651 -0.2193 -0.0497 -0.0791
 2043ntf    on515520   3.638   0.215   6.736  0.2453  0.4769 -0.2450
 2043ntf    on515521   3.750   0.657   6.796  0.4378  0.3315 -0.6028
 2043ntf    on515522   3.871   0.442   6.783 -0.4065 -0.6526  0.5876
 2043ntf    fn415523   3.589   0.553   6.997  0.3584  0.6692  0.0836
 2043ntf    fn415524   3.635   0.346   6.972 -0.3633  0.0835  0.2214
 2043ntf    fn415525   3.778   0.485   7.044  0.0642  0.1904 -0.7433
 2044ntf    cn115526   1.152   4.918   6.090 -0.2528 -0.5344  0.0580
 2044ntf    sn215527   1.019   4.794   6.095 -0.4920 -0.3026 -0.5143
 2044ntf    nn315528   1.095   4.672   6.159 -0.0653  0.1997 -0.0569
 2044ntf    sn215529   1.140   4.540   6.086  0.0625  0.2541 -0.0748
 2044ntf    cn115530   1.229   4.431   6.201 -0.2355  0.1613  0.0681
 2044ntf    fn415531   1.103   5.033   6.049 -0.0166 -0.3203  0.3728
 2044ntf    fn415532   1.193   4.937   6.214 -0.1453  0.3674 -0.1116
 2044ntf    fn415533   1.257   4.885   6.017 -0.1772 -0.1160 -0.0217
 2044ntf    on515534   0.919   4.854   6.180  0.0407  0.1394 -0.1938
 2044ntf    on515535   0.980   4.774   5.957 -0.4669 -0.5045 -0.4924
 2044ntf    on515536   1.252   4.558   5.997 -0.0711 -0.8144 -0.4618
 2044ntf    on515537   1.035   4.450   6.046  0.1738  0.1795 -0.1999
 2044ntf    fn415538   1.332   4.493   6.257 -0.4969  0.0527  0.6762
 2044ntf    fn415539   1.164   4.382   6.305  0.2115  0.1989  0.3714
 2044ntf    fn415540   1.284   4.323   6.147 -0.8376 -0.2105  0.1889
 2045ntf    cn115541   2.591   3.886   4.869  0.0060 -0.2270 -0.1409
 2045ntf    sn215542   2.772   3.901   4.856 -0.0387  0.0450 -0.4580
 2045ntf    nn315543   2.793   4.012   4.747 -0.3377  0.1000 -0.4607
 2045ntf    sn215544   2.901   4.012   4.633  0.2148  0.2487  0.0559
 2045ntf    cn115545   3.002   4.146   4.701  0.1973  0.2327  0.1138
 2045ntf    fn415546   2.547   3.827   4.760 -0.0839  0.0205 -0.2405
 2045ntf    fn415547   2.552   3.797   4.959  0.1905 -0.4967 -0.3277
 2045ntf    fn415548   2.531   4.003   4.882 -0.7300 -0.5472 -0.6337
 2045ntf    on515549   2.801   3.949   4.989  0.3419 -0.3858 -0.3828
 2045ntf    on515550   2.809   3.767   4.821  0.1144  0.3728 -1.6050
 2045ntf    on515551   2.845   4.069   4.513  0.5731  0.0063 -0.2255
 2045ntf    on515552   2.984   3.896   4.612 -0.4845 -0.2397 -0.0379
 2045ntf    fn415553   3.031   4.125   4.828  0.1073  0.1792  0.1258
 2045ntf    fn415554   3.117   4.166   4.637 -0.0556  0.0491 -0.4018
 2045ntf    fn415555   2.937   4.261   4.703 -0.1648  0.0201  0.6949
 2046ntf    cn115556   3.743   2.522   4.599 -0.3610  0.0283  0.2741
 2046ntf    sn215557   3.801   2.357   4.550  0.2283  0.2066  0.3569
 2046ntf    nn315558   3.718   2.344   4.417  0.6826  0.3771  0.0550
 2046ntf    sn215559   3.753   2.333   4.264  0.0491  0.0760 -0.0700
 2046ntf    cn115560   3.752   2.510   4.223  0.4269  0.0913 -0.0143
 2046ntf    fn415561   3.624   2.528   4.657 -0.4243 -0.3350  0.1829
 2046ntf    fn415562   3.815   2.586   4.690 -0.0152  0.0798 -0.0293
 2046ntf    fn415563   3.745   2.595   4.489 -0.1107  0.2615  0.4322
 2046ntf    on515564   3.943   2.369   4.528  0.2655  0.7908  0.8807
 2046ntf    on515565   3.750   2.274   4.656 -0.2529 -0.4050 -0.3409
 2046ntf    on515566   3.638   2.275   4.200 -0.2899  0.2205  0.3991
 2046ntf    on515567   3.882   2.285   4.224 -0.2631 -0.6070 -0.2669
 2046ntf    fn415568   3.727   2.535   4.096  0.3152  0.2288  0.0344
 2046ntf    fn415569   3.648   2.562   4.287 -0.0982 -0.2709 -0.5638
 2046ntf    fn415570   3.861   2.571   4.266  0.1964  0.0934  0.5864
 2047ntf    cn115571   4.261   0.443   1.600  0.2633  0.0519 -0.0274
 2047ntf    sn215572   4.227   0.621   1.597  0.0808  0.0188  0.0861
 2047ntf    nn315573   4.083   0.629   1.660  0.0576 -0.3881  0.0896
 2047ntf    sn215574   4.051   0.575   1.804 -0.2073 -0.0282  0.1691
 2047ntf    cn115575   3.960   0.725   1.849 -0.0170  0.2176 -0.2561
 2047ntf    fn415576   4.364   0.419   1.521  0.2799  0.7701 -0.2281
 2047ntf    fn415577   4.285   0.393   1.721 -0.1788  0.1152  0.0894
 2047ntf    fn415578   4.156   0.373   1.560 -0.1358  0.6573 -0.0491
 2047ntf    on515579   4.325   0.692   1.676  0.0932  0.2975 -0.1794
 2047ntf    on515580   4.222   0.643   1.455  0.3400  0.2317  0.1097
 2047ntf    on515581   4.159   0.573   1.900 -0.0208 -0.1546 -0.0420
 2047ntf    on515582   3.961   0.464   1.821  0.1957 -0.3668  0.1261
 2047ntf    fn415583   3.867   0.763   1.762 -0.2006  0.7047  0.1443
 2047ntf    fn415584   3.893   0.717   1.963  0.3751 -0.1511 -0.0488
 2047ntf    fn415585   4.037   0.832   1.852 -0.0337  0.2271 -0.1683
 2048ntf    cn115586   5.359   0.526   5.758 -0.3147 -0.1848  0.4775
 2048ntf    sn215587   5.344   0.690   5.834  0.1945  0.0563  0.0634
 2048ntf    nn315588   5.269   0.650   5.966  0.5120 -0.2204  0.1622
 2048ntf    sn215589   5.324   0.599   6.103 -0.2157 -0.2342  0.4560
 2048ntf    cn115590   5.326   0.750   6.204 -0.0149 -0.0483  0.1754
 2048ntf    fn415591   5.440   0.451   5.831  0.3054  0.2035  0.2030
 2048ntf    fn415592   5.245   0.464   5.734 -0.1951 -0.1853 -0.0967
 2048ntf    fn415593   5.432   0.530   5.647  0.1389  0.3790  0.7904
 2048ntf    on515594   5.478   0.739   5.858  0.3740 -0.7485  0.7322
 2048ntf    on515595   5.259   0.773   5.752 -0.0356 -0.4404 -0.2026
 2048ntf    on515596   5.455   0.539   6.116  0.3723  0.9630  0.2095
 2048ntf    on515597   5.222   0.525   6.173 -0.4510 -0.2003  0.1500
 2048ntf    fn415598   5.407   0.848   6.167 -0.2940  0.2831  0.4314
 2048ntf    fn415599   5.208   0.810   6.201  0.0783  0.1942  1.1179
 2048ntf    fn415600   5.354   0.724   6.331  0.3023 -0.2400  0.0663
 2049ntf    cn115601   4.342   4.934   3.994  0.2895  0.4802  0.1549
 2049ntf    sn215602   4.181   4.904   4.074  0.0931  0.7428 -0.1372
 2049ntf    nn315603   4.124   5.048   4.094 -0.4555  0.4678  0.2898
 2049ntf    sn215604   4.125   5.152   4.213  0.0385  0.4413  0.3131
 2049ntf    cn115605   3.950   5.171   4.258 -0.1484  0.1609 -0.2688
 2049ntf    fn415606   4.336   5.040   3.914 -0.8058  0.1723 -0.1864
 2049ntf    fn415607   4.431   4.960   4.088  0.1607  0.0889  0.3876
 2049ntf    fn415608   4.387   4.825   3.934  0.3874  0.2111  0.7173
 2049ntf    on515609   4.106   4.837   3.970  0.3298  0.1800  0.0474
 2049ntf    on515610   4.200   4.831   4.197  0.0232  0.2974 -0.3876
 2049ntf    on515611   4.167   5.279   4.161 -0.0306  0.1885 -0.3769
 2049ntf    on515612   4.185   5.103   4.334  0.7193 -0.2734 -0.3025
 2049ntf    fn415613   3.912   5.214   4.378  0.1909 -0.2934  0.0061
 2049ntf    fn415614   3.879   5.238   4.169  0.4815  0.2381 -0.7171
 2049ntf    fn415615   3.893   5.052   4.261 -0.4282  0.3066  0.4109
 2050ntf    cn115616   3.125   5.518   2.759  0.2311 -0.1375  0.0632
 2050ntf    sn215617   3.064   5.624   2.893  0.3505 -0.2373  0.1960
 2050ntf    nn315618   3.188   5.626   2.990  0.4039  0.3642  0.1162
 2050ntf    sn215619   3.317   5.713   3.004  0.6439  0.0213  0.0402
 2050ntf    cn115620   3.448   5.587   2.994  0.5093 -0.1122 -0.0439
 2050ntf    fn415621   3.116   5.390   2.794  0.2021  0.0008  0.5659
 2050ntf    fn415622   3.056   5.546   2.650  0.4380 -0.3826 -0.1323
 2050ntf    fn415623   3.252   5.542   2.732  0.0982 -0.0987 -0.5398
 2050ntf    on515624   3.034   5.754   2.839  0.5306 -0.3053 -0.0666
 2050ntf    on515625   2.955   5.550   2.953  0.0576  0.0138 -0.0219
 2050ntf    on515626   3.327   5.774   3.134 -0.2256 -0.0886  0.1611
 2050ntf    on515627   3.343   5.791   2.886  0.3635 -0.1293 -0.1211
 2050ntf    fn415628   3.445   5.523   2.879 -0.1315  0.2282 -0.2188
 2050ntf    fn415629   3.568   5.637   3.019  0.5769 -0.1779 -0.2366
 2050ntf    fn415630   3.429   5.498   3.090  0.0489 -0.5473 -0.5369
 2051ntf    cn115631   2.400   0.599   6.253  0.0521 -0.0813 -0.1265
 2051ntf    sn215632   2.437   0.680   6.412 -0.3270  0.0362 -0.0959
 2051ntf    nn315633   2.590   0.648   6.429 -0.2398  0.4218 -0.1467
 2051ntf    sn215634   2.674   0.660   6.562 -0.1790 -0.3220 -0.1141
 2051ntf    cn115635   2.816   0.754   6.498 -0.5057  0.0505 -0.3020
 2051ntf    fn415636   2.479   0.499   6.219 -0.3839 -0.4656 -0.0256
 2051ntf    fn415637   2.279   0.545   6.252 -0.1775  0.4328 -0.2928
 2051ntf    fn415638   2.395   0.683   6.151 -0.1713 -0.1004 -0.1313
 2051ntf    on515639   2.410   0.821   6.398 -0.1740  0.0299 -0.4736
 2051ntf    on515640   2.354   0.602   6.500  0.7377  0.2759  1.1387
 2051ntf    on515641   2.742   0.539   6.602  0.0686 -0.0219  0.3818
 2051ntf    on515642   2.614   0.751   6.656 -0.1014  0.7666 -1.0884
 2051ntf    fn415643   2.864   0.714   6.381  0.4864  0.3084  0.0050
 2051ntf    fn415644   2.784   0.880   6.476  0.4643  0.2383 -0.6751
 2051ntf    fn415645   2.919   0.750   6.581 -0.1956 -0.0627 -0.6930
 2052ntf    cn115646   4.328   3.688   1.721  0.1675 -0.0612  0.0196
 2052ntf    sn215647   4.399   3.716   1.555 -0.1335  0.0012 -0.1001
 2052ntf    nn315648   4.324   3.849   1.519  0.0284  0.1686  0.1756
 2052ntf    sn215649   4.201   3.873   1.424 -0.0019  0.0809  0.1923
 2052ntf    cn115650   4.242   4.033   1.347  0.1190 -0.0824 -0.0828
 2052ntf    fn415651   4.320   3.563   1.762  0.2194  0.0033  0.2264
 2052ntf    fn415652   4.390   3.750   1.820 -0.1889 -0.2660  0.3709
 2052ntf    fn415653   4.202   3.731   1.717  0.1118 -0.2399 -0.1278
 2052ntf    on515654   4.535   3.747   1.589 -0.3508  0.6541  0.1989
 2052ntf    on515655   4.368   3.597   1.480 -0.5489  0.3452 -0.4765
 2052ntf    on515656   4.078   3.903   1.493 -0.2949 -0.1042 -0.2481
 2052ntf    on515657   4.194   3.785   1.310  0.2277  0.2917  0.0125
 2052ntf    fn415658   4.328   4.020   1.247 -0.2283  0.1774 -0.4184
 2052ntf    fn415659   4.129   4.077   1.294  0.1858 -0.4250 -0.5133
 2052ntf    fn415660   4.288   4.126   1.429  0.2716 -0.2834  0.0640
 2053ntf    cn115661   5.420   1.737   3.233  0.2056 -0.5764  0.1075
 2053ntf    sn215662   5.534   1.877   3.208 -0.0763 -0.3377  0.1461
 2053ntf    nn315663   5.484   1.976   3.320  0.3762  0.2471 -0.1647
 2053ntf    sn215664   5.535   1.993   3.468  0.3525 -0.2368 -0.0987
 2053ntf    cn115665   5.670   2.113   3.447  0.1985 -0.0358  0.0696
 2053ntf    fn415666   5.299   1.755   3.181  0.2796  0.4826  0.2724
 2053ntf    fn415667   5.475   1.626   3.188  0.2335 -0.4914 -0.0702
 2053ntf    fn415668   5.410   1.719   3.364 -0.2704 -0.4320  0.0928
 2053ntf    on515669   5.664   1.822   3.238 -0.0796 -0.5769 -0.2818
 2053ntf    on515670   5.513   1.921   3.073 -0.3069  0.1075  0.3238
 2053ntf    on515671   5.596   1.879   3.533 -0.1782 -0.4909 -0.0355
 2053ntf    on515672   5.429   2.059   3.539  0.1525  0.0096 -0.6210
 2053ntf    fn415673   5.634   2.237   3.419  0.1204 -0.0489  0.1113
 2053ntf    fn415674   5.735   2.132   3.561 -0.2342  0.3856  0.2526
 2053ntf    fn415675   5.766   2.072   3.366  0.5526  0.4171  0.2520
 2054ntf    cn115676   3.843   4.596   1.426  0.1773  0.0424  0.1715
 2054ntf    sn215677   3.692   4.502   1.464 -0.0556  0.2766 -0.1724
 2054ntf    nn315678   3.724   4.361   1.402 -0.4969 -0.0679  0.3717
 2054ntf    sn215679   3.696   4.311   1.256 -0.0592  0.1140  0.2223
 2054ntf    cn115680   3.536   4.238   1.301 -0.2833  0.3653 -0.1524
 2054ntf    fn415681   3.838   4.633   1.299  0.0370 -0.3816  0.0532
 2054ntf    fn415682   3.848   4.716   1.483 -0.6086  0.2088 -0.0916
 2054ntf    fn415683   3.958   4.537   1.453 -0.2185 -0.8731 -0.1081
 2054ntf    on515684   3.699   4.489   1.607  0.7460 -0.2594 -0.2500
 2054ntf    on515685   3.583   4.580   1.411 -0.3951  0.0065  0.1288
 2054ntf    on515686   3.782   4.203   1.218 -0.2190  0.1764 -0.3304
 2054ntf    on515687   3.659   4.403   1.150 -0.3697  0.0769  0.2988
 2054ntf    fn415688   3.507   4.137   1.221  0.3655 -0.2164  0.3345
 2054ntf    fn415689   3.528   4.177   1.418 -0.1364 -0.3698 -0.5195
 2054ntf    fn415690   3.433   4.320   1.304 -0.2326  0.4073  0.8465
 2055ntf    cn115691   1.819   3.240   6.087  0.2278  0.0041 -0.4928
 2055ntf    sn215692   1.849   3.074   6.154  0.1697  0.1864 -0.0149
 2055ntf    nn315693   1.704   3.045   6.207  0.0325  0.3613 -0.2956
 2055ntf    sn215694   1.635   3.102   6.335  0.2372  0.2771 -0.1469
 2055ntf    cn115695   1.491   3.175   6.251 -0.1124 -0.2787 -0.0371
 2055ntf    fn415696   1.918   3.275   6.006  0.3266 -0.2499 -0.4799
 2055ntf    fn415697   1.706   3.249   6.019  0.2054 -0.0832 -0.4667
 2055ntf    fn415698   1.810   3.327   6.186 -0.3581 -0.4207 -0.1730
 2055ntf    on515699   1.894   2.996   6.042  1.0580 -0.3088  0.6677
 2055ntf    on515700   1.949   3.091   6.257 -0.0921 -0.2893  0.3180
 2055ntf    on515701   1.693   3.216   6.402  0.6629 -0.1636  0.2365
 2055ntf    on515702   1.570   3.011   6.426 -0.3534  0.1420 -0.6927
 2055ntf    fn415703   1.427   3.104   6.159 -0.6152 -0.0197  0.1080
 2055ntf    fn415704   1.399   3.221   6.334  0.2414  0.4253 -0.0270
 2055ntf    fn415705   1.531   3.282   6.184 -0.1864 -0.4942 -0.4296
 2056ntf    cn115706   1.104   2.980   6.216 -0.3593  0.0436 -0.0764
 2056ntf    sn215707   0.964   2.915   6.120 -0.4808  0.0084  0.1229
 2056ntf    nn315708   0.929   2.799   6.219 -0.3774  0.2959  0.5009
 2056ntf    sn215709   0.893   2.650   6.186  0.0915  0.2507  0.1787
 2056ntf    cn115710   0.713   2.650   6.157  0.1105  0.1525  0.0567
 2056ntf    fn415711   1.179   3.074   6.160 -0.0328  0.1430  0.5160
 2056ntf    fn415712   1.065   3.040   6.328  0.2055 -0.2384  0.2766
 2056ntf    fn415713   1.181   2.882   6.260 -0.2608  0.2597  0.2375
 2056ntf    on515714   0.864   3.019   6.117 -0.1887  0.2909  0.0080
 2056ntf    on515715   1.009   2.888   5.986 -0.5016 -0.1182  0.1421
 2056ntf    on515716   0.908   2.568   6.304  0.5333 -0.5759 -0.4429
 2056ntf    on515717   0.947   2.606   6.060  0.2517 -0.4747  0.4951
 2056ntf    fn415718   0.645   2.718   6.248 -0.2576 -0.2874  0.1129
 2056ntf    fn415719   0.682   2.703   6.040 -0.0573  0.1949  0.1210
 2056ntf    fn415720   0.662   2.529   6.153  0.2248  0.1112 -0.2062
 2057ntf    cn115721   3.171   1.650   1.515 -0.2211 -0.0402 -0.0952
 2057ntf    sn215722   3.087   1.655   1.354  0.0636 -0.3478 -0.2550
 2057ntf    nn315723   3.019   1.796   1.352  0.6610 -0.0576 -0.3001
 2057ntf    sn215724   3.094   1.930   1.318  0.3549  0.1833 -0.0290
 2057ntf    cn115725   3.052   1.957   1.143 -0.0440 -0.1921  0.0056
 2057ntf    fn415726   3.087   1.655   1.617 -0.0195  0.7299  0.0429
 2057ntf    fn415727   3.241   1.538   1.526  0.1095  0.0883 -0.8470
 2057ntf    fn415728   3.257   1.750   1.522 -0.5220  0.2094  0.0320
 2057ntf    on515729   3.188   1.641   1.252  0.1745 -0.1243 -0.1758
 2057ntf    on515730   2.990   1.549   1.369  0.4443 -0.7019 -0.2839
 2057ntf    on515731   3.238   1.925   1.322  0.3276 -0.3924  0.3449
 2057ntf    on515732   3.032   2.041   1.386 -0.4792 -0.1821 -0.1752
 2057ntf    fn415733   2.924   1.972   1.114  0.0974  0.4456 -0.3098
 2057ntf    fn415734   3.115   2.063   1.094  0.4064 -0.4575 -0.0027
 2057ntf    fn415735   3.096   1.851   1.076  0.0410 -0.3583  0.3216
 2058ntf    cn115736   0.767   3.130   1.263 -0.3137  0.2329 -0.2410
 2058ntf    sn215737   0.796   3.216   1.105 -0.1379  0.0506 -0.3088
 2058ntf    nn315738   0.761   3.102   1.003  0.5475  0.0624 -0.5611
 2058ntf    sn215739   0.662   3.115   0.882 -0.3052 -0.0359  0.1148
 2058ntf    cn115740   0.502   3.101   0.967 -0.4078  0.1248 -0.0512
 2058ntf    fn415741   0.831   3.178   1.368 -0.2044 -0.0926 -0.1604
 2058ntf    fn415742   0.636   3.126   1.283 -0.2324 -0.0326  0.2238
 2058ntf    fn415743   0.805   3.004   1.254 -0.2263  0.2901 -0.7330
 2058ntf    on515744   0.702   3.324   1.124 -0.3807 -0.1988 -0.0910
 2058ntf    on515745   0.936   3.248   1.095 -0.0511 -0.1517  0.2014
 2058ntf    on515746   0.676   3.002   0.794  0.4444  0.1789 -0.0502
 2058ntf    on515747   0.658   3.239   0.807  0.0787  0.0388  0.2158
 2058ntf    fn415748   0.482   2.974   0.997  1.1109 -0.0628  0.2452
 2058ntf    fn415749   0.481   3.176   1.074  0.3512  0.1379  0.0939
 2058ntf    fn415750   0.407   3.120   0.876 -0.1731  0.6403 -0.1921
 2059ntf    cn115751   1.239   0.645   2.557  0.4817  0.0602  0.2699
 2059ntf    sn215752   1.169   0.782   2.459 -0.1272 -0.2931  0.2059
 2059ntf    nn315753   1.033   0.794   2.536 -0.0570 -0.0925  0.2987
 2059ntf    sn215754   0.894   0.728   2.506  0.0676 -0.1376 -0.1892
 2059ntf    cn115755   0.835   0.827   2.365 -0.4073 -0.1912 -0.0299
 2059ntf    fn415756   1.238   0.658   2.688 -0.5232  0.1603  0.2566
 2059ntf    fn415757   1.168   0.537   2.531  0.1680  0.4070 -0.3646
 2059ntf    fn415758   1.365   0.633   2.518  0.0592 -0.3115 -1.0683
 2059ntf    on515759   1.269   0.882   2.486  0.1918 -0.6627  0.4008
 2059ntf    on515760   1.165   0.742   2.320 -0.0846  0.1617  0.0716
 2059ntf    on515761   0.796   0.753   2.609  0.1743 -0.2825 -0.0522
 2059ntf    on515762   0.895   0.595   2.450 -0.6151 -0.0591 -0.3960
 2059ntf    fn415763   0.919   0.823   2.263 -0.5728  0.0945 -0.1777
 2059ntf    fn415764   0.719   0.787   2.317 -0.1019 -0.2625 -0.7232
 2059ntf    fn415765   0.815   0.955   2.392 -0.1977 -0.1193 -0.2079
 2060ntf    cn115766   6.714   5.855   1.957  0.1231  0.0596  0.0615
 2060ntf    sn215767   6.769   5.717   1.852  0.2093 -0.0452  0.2422
 2060ntf    nn315768   6.788   5.606   1.961 -0.2673  0.3958  0.7771
 2060ntf    sn215769   6.816   5.453   1.945  0.3011  0.6017 -0.2548
 2060ntf    cn115770   6.973   5.430   2.035  0.1083 -0.3165 -0.1411
 2060ntf    fn415771   6.607   5.833   2.031 -0.1134  0.0008 -0.2987
 2060ntf    fn415772   6.806   5.899   2.042  0.4886 -0.5765  0.0037
 2060ntf    fn415773   6.687   5.959   1.880  0.0826 -0.1901 -0.2630
 2060ntf    on515774   6.655   5.700   1.764  0.4847 -0.1483 -0.0968
 2060ntf    on515775   6.895   5.766   1.804 -0.0010  0.3579  0.0973
 2060ntf    on515776   6.842   5.408   1.810  0.2432 -0.2697  0.0200
 2060ntf    on515777   6.726   5.372   2.023  1.3254 -0.0302  0.3050
 2060ntf    fn415778   6.971   5.495   2.150  0.5436  0.1420 -0.3895
 2060ntf    fn415779   7.000   5.307   2.074  0.2928 -0.0629  0.5426
 2060ntf    fn415780   7.074   5.471   1.960  0.0654 -0.3035 -0.1923
 2061ntf    cn115781   5.766   4.432   3.986 -0.2413  0.0580  0.0523
 2061ntf    sn215782   5.728   4.583   4.080  0.1065  0.1058  0.1141
 2061ntf    nn315783   5.649   4.664   3.971  0.0804 -0.1570 -0.0640
 2061ntf    sn215784   5.689   4.740   3.840 -0.1736  0.1174  0.0160
 2061ntf    cn115785   5.761   4.888   3.916 -0.0759  0.2192 -0.2722
 2061ntf    fn415786   5.762   4.322   4.059  0.6802  0.2638  0.4274
 2061ntf    fn415787   5.687   4.400   3.884  0.0240  1.0763 -0.4841
 2061ntf    fn415788   5.889   4.439   3.940 -0.1818  0.7015  0.2955
 2061ntf    on515789   5.654   4.531   4.192  0.3100 -0.2356  0.0939
 2061ntf    on515790   5.863   4.621   4.113  0.2786  0.2525 -0.7442
 2061ntf    on515791   5.575   4.788   3.765 -0.2067 -0.7800 -0.5297
 2061ntf    on515792   5.788   4.677   3.757 -0.3814  0.2271 -0.3190
 2061ntf    fn415793   5.883   4.875   3.964  0.1736  0.6544 -0.7763
 2061ntf    fn415794   5.792   4.982   3.828  0.0511  0.3058 -0.1360
 2061ntf    fn415795   5.680   4.947   4.003  0.3372 -0.0222  0.2816
 2062ntf    cn115796   4.244   2.672   3.435 -0.1354  0.3430 -0.3243
 2062ntf    sn215797   4.070   2.723   3.423 -0.1677  0.2982 -0.0611
 2062ntf    nn315798   4.083   2.813   3.295 -0.3208  0.0188 -0.2756
 2062ntf    sn215799   4.030   2.811   3.147  0.2272  0.1645 -0.4782
 2062ntf    cn115800   3.888   2.925   3.146  0.2199  0.1740  0.4708
 2062ntf    fn415801   4.288   2.629   3.318 -0.5307  0.2498 -0.4387
 2062ntf    fn415802   4.318   2.776   3.471 -0.1833  0.4826 -0.6259
 2062ntf    fn415803   4.272   2.575   3.521 -0.0305  0.8403  0.2171
 2062ntf    on515804   3.988   2.606   3.400 -0.4253  0.4271  0.2044
 2062ntf    on515805   4.041   2.797   3.543 -0.3128 -0.1315  0.1752
 2062ntf    on515806   3.963   2.691   3.102  0.3340 -0.1025  0.0619
 2062ntf    on515807   4.127   2.873   3.062  0.8680  0.8546  0.7259
 2062ntf    fn415808   3.913   3.055   3.141  0.4350  0.1183  0.0988
 2062ntf    fn415809   3.798   2.897   3.053  0.3895  0.3523  0.2518
 2062ntf    fn415810   3.812   2.914   3.254 -0.2797 -0.4810  0.0548
 2063ntf    cn115811   3.618   5.837   5.673 -0.1196 -0.2755  0.3868
 2063ntf    sn215812   3.534   5.965   5.575  0.0241 -0.3514  0.1639
 2063ntf    nn315813   3.407   5.882   5.534 -0.3635  0.4143 -0.1961
 2063ntf    sn215814   3.379   5.778   5.419  0.1963 -0.0303  0.0679
 2063ntf    cn115815   3.238   5.863   5.343 -0.0363  0.0091  0.5382
 2063ntf    fn415816   3.735   5.873   5.725 -0.1779  0.1388  0.2385
 2063ntf    fn415817   3.546   5.802   5.778 -0.3004 -0.6609  0.1354
 2063ntf    fn415818   3.643   5.722   5.612  0.0108 -0.3798  0.6342
 2063ntf    on515819   3.505   6.066   5.674 -0.1957 -0.2559  0.0028
 2063ntf    on515820   3.624   6.008   5.471 -0.3472  0.8230  0.3174
 2063ntf    on515821   3.326   5.649   5.456  0.3165  0.1131  0.7648
 2063ntf    on515822   3.477   5.781   5.313  0.1589  0.0466  0.0346
 2063ntf    fn415823   3.198   5.815   5.226  0.2278  0.3753  0.2956
 2063ntf    fn415824   3.130   5.856   5.419 -0.3120 -0.2957  0.1221
 2063ntf    fn415825   3.266   5.992   5.326 -0.0653 -0.0772 -0.1866
 2064ntf    cn115826   4.791   4.904   6.800 -0.1238 -0.3827 -0.4897
 2064ntf    sn215827   4.806   4.762   6.912 -0.0103  0.1794  0.2091
 2064ntf    nn315828   4.657   4.715   6.930 -0.0606  0.2352 -0.0557
 2064ntf    sn215829   4.592   4.603   7.019  0.0220  0.0585 -0.2174
 2064ntf    cn115830   4.618   4.456   6.916 -0.0562  0.0323 -0.2001
 2064ntf    fn415831   4.910   4.951   6.766 -0.4081  0.6833 -0.0297
 2064ntf    fn415832   4.726   4.876   6.688 -0.4273  0.4387 -0.5191
 2064ntf    fn415833   4.725   5.005   6.853  0.5059  0.2849 -0.9542
 2064ntf    on515834   4.891   4.668   6.843  0.0175  0.3178  0.0556
 2064ntf    on515835   4.862   4.818   7.033  0.1035  0.3042  0.0988
 2064ntf    on515836   4.449   4.618   7.028 -0.0592 -0.9001  0.1103
 2064ntf    on515837   4.669   4.574   7.137 -0.2446 -0.6981 -0.2298
 2064ntf    fn415838   4.745   4.420   6.905 -0.0727 -0.0592 -0.0845
 2064ntf    fn415839   4.548   4.353   6.959  0.4560  0.0122  0.6041
 2064ntf    fn415840   4.585   4.460   6.788 -0.0213 -0.1161 -0.2140
 2065ntf    cn115841   2.395   6.674   1.255 -0.3605  0.1869  0.2158
 2065ntf    sn215842   2.352   6.571   1.399 -0.2823  0.0358  0.1305
 2065ntf    nn315843   2.196   6.590   1.384 -0.3217 -0.4059 -0.0317
 2065ntf    sn215844   2.092   6.499   1.310 -0.3287 -0.1991 -0.2745
 2065ntf    cn115845   2.001   6.456   1.462  0.3864 -0.0561  0.1980
 2065ntf    fn415846   2.330   6.624   1.152  0.0222  0.1247  0.0032
 2065ntf    fn415847   2.368   6.803   1.269 -0.3608  0.2124 -0.0308
 2065ntf    fn415848   2.526   6.677   1.235 -0.3661  0.3850  0.1984
 2065ntf    on515849   2.403   6.439   1.372 -0.2242 -0.0250  0.5403
 2065ntf    on515850   2.418   6.640   1.507 -0.9355  0.4118  0.2968
 2065ntf    on515851   2.136   6.377   1.247 -0.1711 -0.2625 -0.0444
 2065ntf    on515852   1.994   6.576   1.237  0.4483  0.9687 -0.1130
 2065ntf    fn415853   2.086   6.414   1.554  0.5343  0.0355  0.1040
 2065ntf    fn415854   1.944   6.563   1.515 -0.0833 -0.1771 -0.0618
 2065ntf    fn415855   1.917   6.358   1.437  0.4250  0.0557 -0.3970
 2066ntf    cn115856   3.898   1.459   3.052 -0.1375  0.0822 -0.3667
 2066ntf    sn215857   3.974   1.296   3.082  0.0953  0.2629  0.0369
 2066ntf    nn315858   4.087   1.329   3.185  0.2115 -0.4750  0.1465
 2066ntf    sn215859   4.242   1.331   3.158  0.1055  0.2236 -0.4222
 2066ntf    cn115860   4.302   1.165   3.204 -0.4338  0.0388 -0.3737
 2066ntf    fn415861   3.976   1.563   3.031  0.3883 -0.1783  0.2483
 2066ntf    fn415862   3.825   1.453   2.942  0.2295  0.5034 -0.6295
 2066ntf    fn415863   3.819   1.494   3.153  0.2836  0.4657 -0.1662
 2066ntf    on515864   3.865   1.222   3.141 -0.3917  0.4616 -0.5925
 2066ntf    on515865   4.013   1.247   2.952 -0.6508 -0.2321 -0.0095
 2066ntf    on515866   4.304   1.421   3.252  0.0327 -0.7813  0.6107
 2066ntf    on515867   4.283   1.347   3.021  0.0978  0.0060 -0.4518
 2066ntf    fn415868   4.428   1.137   3.178 -0.2740  0.4961 -0.1059
 2066ntf    fn415869   4.288   1.130   3.330 -0.0329  0.0904 -0.3154
 2066ntf    fn415870   4.237   1.077   3.129  0.2391 -0.1555 -0.7322
 2067ntf    cn115871   2.358   2.792   5.131 -0.1537  0.5443 -0.0195
 2067ntf    sn215872   2.177   2.790   5.114 -0.1756 -0.1374  0.2298
 2067ntf    nn315873   2.139   2.643   5.152  0.2354 -0.3111 -0.0220
 2067ntf    sn215874   2.067   2.588   5.280 -0.2257  0.2495 -0.0408
 2067ntf    cn115875   2.007   2.428   5.217 -0.3412  0.3514 -0.1912
 2067ntf    fn415876   2.414   2.688   5.070 -0.4565  0.4800 -0.1877
 2067ntf    fn415877   2.407   2.903   5.078 -0.2240  0.7845  0.4118
 2067ntf    fn415878   2.406   2.787   5.255  0.0492 -0.6939 -0.1347
 2067ntf    on515879   2.134   2.892   5.206 -0.1684 -0.1851  0.2862
 2067ntf    on515880   2.147   2.818   4.976  0.1480 -0.5229  0.0774
 2067ntf    on515881   1.947   2.665   5.303 -0.2779  0.1538  0.0064
 2067ntf    on515882   2.153   2.553   5.390 -0.2124 -0.0206 -0.1364
 2067ntf    fn415883   1.896   2.387   5.276  0.0731 -0.5177  0.0075
 2067ntf    fn415884   1.987   2.429   5.087  0.4788 -0.5110 -0.3302
 2067ntf    fn415885   2.104   2.339   5.230  0.0818  0.8456  0.0931
 2068ntf    cn115886   4.390   6.565   2.189 -0.3878 -0.0061 -0.1988
 2068ntf    sn215887   4.406   6.685   2.053  0.1922  0.0652 -0.0710
 2068ntf    nn315888   4.548   6.750   2.072  0.2668 -0.0507 -0.2358
 2068ntf    sn215889   4.683   6.743   1.992  0.3150  0.1033 -0.1672
 2068ntf    cn115890   4.802   6.741   2.129  0.0475 -0.2582  0.0617
 2068ntf    fn415891   4.275   6.501   2.175  0.0437 -0.7471 -0.4239
 2068ntf    fn415892   4.488   6.476   2.180 -0.1819  0.1726  0.2242
 2068ntf    fn415893   4.393   6.617   2.311 -0.1929 -0.4660 -0.0038
 2068ntf    on515894   4.393   6.611   1.930  0.3162  0.1774 -0.1524
 2068ntf    on515895   4.294   6.772   2.078 -0.1324 -0.3718  0.0154
 2068ntf    on515896   4.724   6.866   1.927 -0.7238  0.0551 -0.9524
 2068ntf    on515897   4.709   6.619   1.924 -0.0967 -0.1243  0.0876
 2068ntf    fn415898   4.809   6.622   2.186 -0.2970 -0.2518  0.1189
 2068ntf    fn415899   4.923   6.773   2.085 -0.4363 -0.2816 -1.3290
 2068ntf    fn415900   4.774   6.827   2.226 -0.0750 -0.3968  0.1498
 2069ntf    cn115901   5.038   5.597   5.039  0.1585  0.0991 -0.1871
 2069ntf    sn215902   5.024   5.778   5.042 -0.0627  0.0784  0.0221
 2069ntf    nn315903   4.873   5.804   5.010 -0.3220 -0.6869  0.5758
 2069ntf    sn215904   4.785   5.928   5.050  0.0064 -0.3321  0.2113
 2069ntf    cn115905   4.650   5.825   5.115 -0.4179 -0.0375 -0.1941
 2069ntf    fn415906   4.964   5.535   5.130 -0.0401  0.6294  0.0125
 2069ntf    fn415907   5.012   5.554   4.916 -0.2126  0.4991 -0.2470
 2069ntf    fn415908   5.161   5.557   5.067  0.0648  0.1470  0.2905
 2069ntf    on515909   5.070   5.810   5.175 -0.2576 -0.4618  0.2216
 2069ntf    on515910   5.108   5.822   4.934  0.7382  0.4279  0.7795
 2069ntf    on515911   4.734   5.997   4.934  0.1700 -0.1544  0.2464
 2069ntf    on515912   4.836   6.000   5.164  0.3113 -0.2569  0.0274
 2069ntf    fn415913   4.604   5.746   5.020 -0.2780  0.1720 -0.4375
 2069ntf    fn415914   4.711   5.744   5.200  0.1125  0.1038 -0.4316
 2069ntf    fn415915   4.549   5.881   5.178  0.3181  0.3652  0.6483
 2070ntf    cn115916   2.222   6.472   6.817 -0.1977  0.2506 -0.1261
 2070ntf    sn215917   2.146   6.351   6.929  0.3746 -0.0220 -0.0290
 2070ntf    nn315918   2.241   6.226   6.920  0.0685 -0.2466 -0.1616
 2070ntf    sn215919   2.309   6.128   7.022  0.3536 -0.0922 -0.2029
 2070ntf    cn115920   2.184   5.996   7.011  0.3491 -0.1089  0.0475
 2070ntf    fn415921   2.344   6.497   6.860  0.0005 -0.2342 -0.3967
 2070ntf    fn415922   2.225   6.427   6.692 -0.1654 -0.0893 -0.0036
 2070ntf    fn415923   2.151   6.584   6.813  0.1102  0.4402 -0.2840
 2070ntf    on515924   2.133   6.412   7.059  0.1061  0.1988 -0.1578
 2070ntf    on515925   2.022   6.316   6.863  0.0643 -0.1030  0.5899
 2070ntf    on515926   2.300   6.171   7.159  0.1012 -0.2087 -0.1831
 2070ntf    on515927   2.435   6.072   6.981  0.4532 -0.2517  0.3150
 2070ntf    fn415928   2.203   5.899   7.099 -0.2109  0.0065  0.3005
 2070ntf    fn415929   2.060   6.038   7.023  0.2144 -0.4161 -0.2416
 2070ntf    fn415930   2.185   5.933   6.894  0.3859 -0.6462  0.3321
 2071ntf    cn115931   4.196   5.326   5.022 -0.0947 -0.2828 -0.2880
 2071ntf    sn215932   4.050   5.434   5.012  0.1100  0.0176 -0.0658
 2071ntf    nn315933   3.926   5.338   5.022 -0.1273  0.3537  0.2480
 2071ntf    sn215934   3.846   5.309   5.154 -0.0241 -0.0111  0.2307
 2071ntf    cn115935   3.704   5.229   5.074  0.0859  0.3670 -0.3489
 2071ntf    fn415936   4.214   5.291   5.148  0.4613 -0.2475 -0.3565
 2071ntf    fn415937   4.191   5.214   4.952  0.1933 -0.4021 -0.1187
 2071ntf    fn415938   4.301   5.397   4.984 -0.0395 -0.2988 -0.1655
 2071ntf    on515939   4.071   5.529   5.118  0.1899  0.5765 -0.5784
 2071ntf    on515940   4.075   5.478   4.877  0.2611 -0.2223 -0.1167
 2071ntf    on515941   3.804   5.429   5.221  0.4547  0.4237 -0.2412
 2071ntf    on515942   3.905   5.203   5.233  0.1536 -0.3449 -0.3386
 2071ntf    fn415943   3.616   5.322   5.040  0.1112  0.3779 -0.3841
 2071ntf    fn415944   3.731   5.170   4.959  0.0515 -0.7146  0.1845
 2071ntf    fn415945   3.641   5.143   5.153  0.5570  0.4719  0.1495
 2072ntf    cn115946   0.646   4.793   1.921  0.0291  0.2143  0.0991
 2072ntf    sn215947   0.574   4.669   2.032  0.5623 -0.1907 -0.0062
 2072ntf    nn315948   0.488   4.591   1.926 -0.3100  0.0795  0.4925
 2072ntf    sn215949   0.504   4.450   1.860 -0.1987  0.2827  0.0824
 2072ntf    cn115950   0.601   4.477   1.709  0.6274 -0.6357  0.4368
 2072ntf    fn415951   0.564   4.829   1.823 -0.2075  0.4531  0.3835
 2072ntf    fn415952   0.685   4.900   1.987  0.2090  0.2269 -0.0281
 2072ntf    fn415953   0.755   4.748   1.862 -0.2200 -0.3068  0.0311
 2072ntf    on515954   0.689   4.590   2.072  0.4730  0.0320  0.7167
 2072ntf    on515955   0.507   4.745   2.135 -0.0871 -0.0582 -0.5283
 2072ntf    on515956   0.381   4.408   1.799 -0.0329  0.1076 -0.1363
 2072ntf    on515957   0.589   4.353   1.925 -0.2665  0.2554  0.1299
 2072ntf    fn415958   0.731   4.478   1.737  0.6379 -0.2992  0.3707
 2072ntf    fn415959   0.584   4.393   1.608  0.0293  0.0996 -0.0852
 2072ntf    fn415960   0.569   4.595   1.659  0.0908 -0.9151  0.1179
 2073ntf    cn115961   1.629   4.254   0.625  0.2317 -0.4444 -0.1775
 2073ntf    sn215962   1.489   4.141   0.647  0.2366 -0.3537  0.3361
 2073ntf    nn315963   1.465   4.166   0.800 -0.5016  0.1613  0.1421
 2073ntf    sn215964   1.382   4.083   0.905 -0.4099  0.0666  0.1402
 2073ntf    cn115965   1.474   3.926   0.904 -0.2269  0.1706 -0.8701
 2073ntf    fn415966   1.695   4.241   0.511 -0.2707  0.1911 -0.5438
 2073ntf    fn415967   1.599   4.383   0.627  0.0951 -0.4717 -0.4671
 2073ntf    fn415968   1.719   4.236   0.721 -0.1997  0.1310  0.3412
 2073ntf    on515969   1.382   4.193   0.565  0.2960  0.0410  0.5112
 2073ntf    on515970   1.527   4.007   0.610  0.1960  0.0176 -1.1101
 2073ntf    on515971   1.250   4.050   0.857 -0.1295 -0.1064 -0.5335
 2073ntf    on515972   1.405   4.140   1.035  1.0730  0.0856 -0.1090
 2073ntf    fn415973   1.604   3.951   0.910 -0.1014 -0.5611 -0.3881
 2073ntf    fn415974   1.452   3.844   1.006  0.5124  0.2972 -0.6006
 2073ntf    fn415975   1.442   3.851   0.800 -0.2000  0.1997 -0.8998
 2074ntf    cn115976   3.547   0.694   2.638 -0.2383  0.1023 -0.3575
 2074ntf    sn215977   3.582   0.818   2.510 -0.1137  0.0725 -0.3516
 2074ntf    nn315978   3.715   0.748   2.463 -0.0270  0.0011 -0.0042
 2074ntf    sn215979   3.860   0.805   2.445 -0.0050  0.0124  0.2020
 2074ntf    cn115980   3.848   0.873   2.276 -0.2592 -0.1174  0.1677
 2074ntf    fn415981   3.652   0.643   2.700 -0.2008  0.4438 -0.1385
 2074ntf    fn415982   3.458   0.726   2.731  0.0518  0.0074 -0.0457
 2074ntf    fn415983   3.494   0.583   2.587  0.0493 -0.3011  0.2055
 2074ntf    on515984   3.475   0.799   2.416 -0.2534 -0.3492 -0.1122
 2074ntf    on515985   3.598   0.948   2.570 -0.2528 -0.1050  0.0764
 2074ntf    on515986   3.952   0.695   2.435  0.0670  0.1249 -0.4216
 2074ntf    on515987   3.905   0.919   2.521 -0.3454  0.1199  0.2465
 2074ntf    fn415988   3.929   0.973   2.247 -0.1660 -0.2016  0.1338
 2074ntf    fn415989   3.884   0.780   2.188  0.2290  0.3688 -0.1481
 2074ntf    fn415990   3.726   0.912   2.242 -0.0523 -0.3362 -0.8517
 2075ntf    cn115991   1.505   2.373   2.575  0.0041  0.0942  0.0472
 2075ntf    sn215992   1.641   2.465   2.497 -0.0764  0.0385 -0.1589
 2075ntf    nn315993   1.630   2.429   2.345 -0.4138  0.7913 -0.3164
 2075ntf    sn215994   1.732   2.418   2.226 -0.2315 -0.1728 -0.0781
 2075ntf    cn115995   1.720   2.584   2.153  0.4937 -0.1294 -0.1077
 2075ntf    fn415996   1.390   2.427   2.540  0.1800  0.1557 -0.4446
 2075ntf    fn415997   1.504   2.245   2.543 -0.5618  0.1364 -0.1027
 2075ntf    fn415998   1.502   2.377   2.708  0.0291 -0.2782  0.0602
 2075ntf    on515999   1.602   2.598   2.537 -0.0042 -0.1000  0.3830
 2075ntf    on516000   1.756   2.405   2.560 -0.6007 -0.6799  0.1257
 2075ntf    on516001   1.692   2.324   2.124  0.1256 -0.4394  0.0284
 2075ntf    on516002   1.869   2.411   2.271 -0.4131  0.7269  0.6423
 2075ntf    fn416003   1.744   2.681   2.240 -0.8209  0.0183  0.1229
 2075ntf    fn416004   1.796   2.594   2.046  0.7826  0.1140  0.1174
 2075ntf    fn416005   1.592   2.592   2.121  0.5627 -0.0092 -0.3495
 2076ntf    cn116006   6.248   1.801   2.746  0.0032  0.3130 -0.3780
 2076ntf    sn216007   6.210   1.628   2.705 -0.1894  0.1876  0.3081
 2076ntf    nn316008   6.101   1.595   2.812  0.0676  0.4296  0.6490
 2076ntf    sn216009   5.945   1.616   2.801  0.0560  0.0229 -0.0346
 2076ntf    cn116010   5.883   1.460   2.731  0.1420 -0.0591  0.0706
 2076ntf    fn416011   6.139   1.872   2.769  0.3105  0.5133  0.5007
 2076ntf    fn416012   6.313   1.815   2.861 -0.2845 -0.2064 -0.1474
 2076ntf    fn416013   6.316   1.866   2.653  0.6593 -0.2054 -0.2621
 2076ntf    on516014   6.169   1.615   2.567 -0.1129 -0.2481  0.3251
 2076ntf    on516015   6.335   1.562   2.733 -0.2368  0.0524  0.2042
 2076ntf    on516016   5.897   1.726   2.722 -0.4476 -0.0206  0.2082
 2076ntf    on516017   5.881   1.617   2.930 -0.3883 -0.3500 -0.2472
 2076ntf    fn416018   5.766   1.432   2.785  0.0595  0.0038 -0.0758
 2076ntf    fn416019   5.874   1.475   2.600 -0.3217  0.3162  0.1458
 2076ntf    fn416020   5.963   1.356   2.753 -0.0179 -0.1230  0.3434
 2077ntf    cn116021   1.838   6.163   5.901 -0.5960  0.3841 -0.2313
 2077ntf    sn216022   1.938   6.137   5.751 -0.1964 -0.0622  0.1143
 2077ntf    nn316023   2.080   6.107   5.813 -0.2521 -0.2057  0.1731
 2077ntf    sn216024   2.143   5.967   5.847  0.1424 -0.0457  0.1029
 2077ntf    cn116025   2.213   5.922   5.686 -0.1199 -0.1981  0.0303
 2077ntf    fn416026   1.859   6.067   5.989  0.0827  0.5108 -0.2499
 2077ntf    fn416027   1.858   6.275   5.968 -0.8946 -0.0834  0.6467
 2077ntf    fn416028   1.710   6.153   5.867 -0.5642 -0.6282 -0.0854
 2077ntf    on516029   1.870   6.028   5.686 -0.4799  0.1870 -0.0025
 2077ntf    on516030   1.941   6.260   5.676  0.6937 -0.1067  0.0681
 2077ntf    on516031   2.053   5.860   5.884  0.2121 -0.0376  0.2965
 2077ntf    on516032   2.255   5.978   5.937  0.2881 -0.2317 -0.0548
 2077ntf    fn416033   2.307   6.011   5.657 -0.0135 -0.3039  0.0520
 2077ntf    fn416034   2.263   5.800   5.700  0.3029 -0.0680 -0.3167
 2077ntf    fn416035   2.128   5.923   5.584  0.4577 -0.4054 -0.4646
 2078ntf    cn116036   3.789   2.812   0.579  0.1738 -0.2371  0.0613
 2078ntf    sn216037   3.807   2.708   0.727  0.1619 -0.2494  0.0540
 2078ntf    nn316038   3.956   2.660   0.719  0.1794 -0.1528 -0.2378
 2078ntf    sn216039   4.064   2.638   0.831 -0.1158 -0.0316  0.0725
 2078ntf    cn116040   3.963   2.575   0.969 -0.5627  0.5241  0.0007
 2078ntf    fn416041   3.764   2.733   0.476 -0.5986 -0.2776  0.2797
 2078ntf    fn416042   3.686   2.895   0.586  0.2441 -0.1666  0.2648
 2078ntf    fn416043   3.900   2.884   0.567  0.1212 -0.1211  0.2571
 2078ntf    on516044   3.783   2.795   0.839  0.1651 -0.5576  0.2953
 2078ntf    on516045   3.717   2.600   0.693  0.0596 -0.0869 -0.1931
 2078ntf    on516046   4.128   2.761   0.868 -0.0182 -0.1280  0.2254
 2078ntf    on516047   4.159   2.532   0.809 -0.2617 -0.1924  0.2079
 2078ntf    fn416048   3.883   2.474   0.939  0.1736 -0.1167  0.1934
 2078ntf    fn416049   4.048   2.526   1.057 -0.9011 -0.0528  0.0090
 2078ntf    fn416050   3.898   2.667   1.039 -0.8030  0.1749  0.2360
 2079ntf    cn116051   6.796   1.588   3.531 -0.0831  0.1587  0.3563
 2079ntf    sn216052   6.933   1.469   3.538 -0.2198 -0.0201 -0.0183
 2079ntf    nn316053   7.026   1.543   3.640  0.1373 -0.2648 -0.1611
 2079ntf    sn216054   7.072   1.500   3.784 -0.1387  0.0364  0.0183
 2079ntf    cn116055   7.241   1.565   3.794 -0.1584  0.1237 -0.1953
 2079ntf    fn416056   6.830   1.711   3.567  0.5202  0.1455 -0.1499
 2079ntf    fn416057   6.750   1.593   3.407  0.5826 -0.5939  0.0706
 2079ntf    fn416058   6.685   1.566   3.600  0.0013 -0.1143  0.4061
 2079ntf    on516059   6.871   1.345   3.578  0.1663 -0.3265 -0.3533
 2079ntf    on516060   6.982   1.474   3.402 -0.1995  0.0419 -0.0086
 2079ntf    on516061   7.099   1.361   3.807  0.1067 -0.0095 -0.5394
 2079ntf    on516062   7.006   1.579   3.885  0.0926  0.1894  0.0489
 2079ntf    fn416063   7.297   1.531   3.909  0.3676  0.1387 -0.4410
 2079ntf    fn416064   7.312   1.503   3.701 -0.1472 -0.0549 -0.0689
 2079ntf    fn416065   7.265   1.694   3.776  0.9685 -0.0663 -0.1424
 2080ntf    cn116066   2.210   3.804   1.150 -0.1297  0.4057 -0.0522
 2080ntf    sn216067   2.391   3.794   1.133 -0.1394 -0.2661  0.2032
 2080ntf    nn316068   2.421   3.918   1.040  0.3254 -0.2659  0.3545
 2080ntf    sn216069   2.442   3.942   0.887  0.4169 -0.1282  0.3890
 2080ntf    cn116070   2.619   3.898   0.880  0.3720 -0.2592  0.0723
 2080ntf    fn416071   2.173   3.707   1.232 -0.0418  0.2458 -0.2008
 2080ntf    fn416072   2.172   3.926   1.183 -0.3761  0.4088 -0.3401
 2080ntf    fn416073   2.152   3.775   1.035 -0.1719  0.2096  0.0182
 2080ntf    on516074   2.429   3.818   1.270 -0.7537 -0.4472  0.4057
 2080ntf    on516075   2.407   3.659   1.084  0.4797 -0.1128 -0.0224
 2080ntf    on516076   2.424   4.079   0.843 -0.1358 -0.5570 -0.7550
 2080ntf    on516077   2.386   3.839   0.803  0.6422  0.2369 -0.2217
 2080ntf    fn416078   2.646   3.772   0.851  0.3663 -0.3458  0.4342
 2080ntf    fn416079   2.680   3.968   0.786  0.3985  0.1237  0.3743
 2080ntf    fn416080   2.674   3.935   0.994 -0.1571  0.0774  0.2257
 2081ntf    cn116081   1.699   0.606   2.379  0.5230  0.1908  0.1381
 2081ntf    sn216082   1.802   0.459   2.355  0.3352  0.0558  0.1533
 2081ntf    nn316083   1.941   0.532   2.351  0.3859 -0.0591 -0.3416
 2081ntf    sn216084   2.014   0.603   2.232  0.1617  0.3488 -0.2353
 2081ntf    cn116085   2.141   0.688   2.330 -0.0610  0.3630  0.0433
 2081ntf    fn416086   1.691   0.680   2.270  0.3443  0.4233  0.3076
 2081ntf    fn416087   1.574   0.570   2.405  0.5294  0.0240 -0.0601
 2081ntf    fn416088   1.742   0.688   2.474  0.0591  0.7083 -0.0908
 2081ntf    on516089   1.782   0.378   2.472  0.1914  0.1613  0.2010
 2081ntf    on516090   1.750   0.409   2.230 -0.1432  0.0539  0.3510
 2081ntf    on516091   1.938   0.709   2.169 -0.1615  0.2851  0.0445
 2081ntf    on516092   2.083   0.519   2.138  0.3022  0.3350 -0.1188
 2081ntf    fn416093   2.208   0.598   2.399 -0.5653  0.1502  0.2601
 2081ntf    fn416094   2.228   0.759   2.260  0.0070  0.0553 -0.1867
 2081ntf    fn416095   2.098   0.776   2.418  0.2628  0.4036  0.1616
 2082ntf    cn116096   5.707   2.748   6.261  0.1071 -0.1700  0.3276
 2082ntf    sn216097   5.677   2.672   6.423 -0.0226  0.3318  0.5389
 2082ntf    nn316098   5.573   2.773   6.484 -0.0343  0.7016 -0.0857
 2082ntf    sn216099   5.418   2.768   6.464  0.0079  0.2405 -0.3009
 2082ntf    cn116100   5.366   2.663   6.602  0.4164 -0.0053 -0.3341
 2082ntf    fn416101   5.610   2.829   6.224  0.3945  0.0720  0.0975
 2082ntf    fn416102   5.814   2.826   6.263  0.0115 -0.0011 -0.5953
 2082ntf    fn416103   5.740   2.666   6.162  0.2562  0.3695 -0.0714
 2082ntf    on516104   5.638   2.535   6.399 -0.4493  0.3338  1.1988
 2082ntf    on516105   5.804   2.691   6.488  0.1086  0.3632  0.2720
 2082ntf    on516106   5.368   2.689   6.354  0.2121 -0.4020  0.0641
 2082ntf    on516107   5.355   2.895   6.492  0.3203  0.2491  0.3743
 2082ntf    fn416108   5.234   2.667   6.602  0.4038 -0.3599 -0.1535
 2082ntf    fn416109   5.407   2.537   6.594  0.2238 -0.0957  0.0602
 2082ntf    fn416110   5.409   2.709   6.719 -0.0206 -0.1202 -0.1252
 2083ntf    cn116111   4.040   5.948   5.651 -0.3339 -0.4269 -0.0925
 2083ntf    sn216112   4.054   5.778   5.587 -0.0904 -0.2974 -0.3845
 2083ntf    nn316113   4.207   5.764   5.557 -0.1117 -0.1539 -0.5619
 2083ntf    sn216114   4.282   5.795   5.423  0.2363 -0.1548 -0.3701
 2083ntf    cn116115   4.306   5.633   5.344  0.0583 -0.3900  0.0607
 2083ntf    fn416116   3.918   5.973   5.697  0.1706  0.6995  0.6884
 2083ntf    fn416117   4.126   5.983   5.745 -0.1491  0.5150 -0.6073
 2083ntf    fn416118   4.059   6.037   5.556 -0.0595  0.1736  0.5147
 2083ntf    on516119   4.006   5.690   5.690  0.1763 -0.2732 -0.2366
 2083ntf    on516120   3.964   5.798   5.476 -0.5196  0.2426  0.0508
 2083ntf    on516121   4.418   5.838   5.447 -0.1105  0.9159 -0.2766
 2083ntf    on516122   4.204   5.862   5.321 -1.0591  0.0967  0.7569
 2083ntf    fn416123   4.299   5.631   5.212  0.2128 -0.9336  0.0604
 2083ntf    fn416124   4.422   5.579   5.378  0.2814 -0.1072 -0.2399
 2083ntf    fn416125   4.221   5.537   5.376 -0.2647 -0.2326 -0.3203
 2084ntf    cn116126   0.691   6.164   4.063  0.0603  0.0275 -0.0058
 2084ntf    sn216127   0.781   6.084   4.199  0.0323  0.2181  0.1251
 2084ntf    nn316128   0.821   6.207   4.288  0.3965 -0.4159  0.8505
 2084ntf    sn216129   0.758   6.253   4.424 -0.2098 -0.0040  0.4347
 2084ntf    cn116130   0.833   6.143   4.548  0.3017 -0.3185 -0.1491
 2084ntf    fn416131   0.604   6.256   4.101 -0.2544 -0.1257 -0.3395
 2084ntf    fn416132   0.773   6.221   3.975  0.0076  0.1513  0.0250
 2084ntf    fn416133   0.621   6.070   4.001  0.2989 -0.2814  0.1861
 2084ntf    on516134   0.697   5.985   4.261  0.1360  0.2774  0.3606
 2084ntf    on516135   0.890   6.032   4.119  0.0198  0.4075 -0.0176
 2084ntf    on516136   0.617   6.224   4.437 -0.0792 -0.6089  0.5142
 2084ntf    on516137   0.803   6.381   4.473  0.4233  0.0373 -0.2428
 2084ntf    fn416138   0.827   6.016   4.509  0.4951 -0.1709 -0.6773
 2084ntf    fn416139   0.961   6.172   4.567  0.0503  1.0553 -0.4234
 2084ntf    fn416140   0.771   6.148   4.664  0.4845 -0.1271 -0.0585
 2085ntf    cn116141   4.240   6.302   0.537 -0.2641 -0.0763  0.3774
 2085ntf    sn216142   4.278   6.155   0.637  0.3642 -0.1698  0.0101
 2085ntf    nn316143   4.132   6.099   0.652  0.3539  0.0399  0.7592
 2085ntf    sn216144   4.011   6.138   0.744  0.0871  0.5088  0.2135
 2085ntf    cn116145   3.880   6.136   0.618  0.6053 -0.0792 -0.3261
 2085ntf    fn416146   4.349   6.376   0.521 -0.3283 -0.0244  0.1656
 2085ntf    fn416147   4.206   6.264   0.415 -0.5567 -0.2731  0.5202
 2085ntf    fn416148   4.138   6.376   0.579 -0.0246  0.2898  0.3189
 2085ntf    on516149   4.361   6.068   0.558 -0.3081 -0.9478  0.1481
 2085ntf    on516150   4.336   6.207   0.759  0.5626  0.1460 -0.2182
 2085ntf    on516151   4.009   6.271   0.798  0.2502  0.3304  0.6670
 2085ntf    on516152   3.974   6.033   0.835  0.5586 -0.6036 -0.8421
 2085ntf    fn416153   3.896   6.216   0.513  0.1105  0.7107  0.1872
 2085ntf    fn416154   3.863   6.016   0.567 -0.2311  0.1134 -0.5273
 2085ntf    fn416155   3.763   6.175   0.667  0.7281  0.2096 -0.2618
 2086ntf    cn116156   3.802   0.975   5.805 -0.5190 -0.0029 -0.1075
 2086ntf    sn216157   3.684   0.892   5.916 -0.1399  0.1211  0.3906
 2086ntf    nn316158   3.732   0.745   5.885  0.0834  0.1985  0.3673
 2086ntf    sn216159   3.843   0.657   5.952  0.1578  0.1876  0.2318
 2086ntf    cn116160   3.729   0.561   6.057  0.0296  0.1761  0.0816
 2086ntf    fn416161   3.920   0.916   5.819 -0.5787 -0.0689  0.1133
 2086ntf    fn416162   3.775   0.970   5.675 -0.4310 -0.4021 -0.1125
 2086ntf    fn416163   3.822   1.103   5.831  0.2303 -0.2026  0.3408
 2086ntf    on516164   3.704   0.936   6.051  0.0699  0.3891  0.2741
 2086ntf    on516165   3.561   0.928   5.849 -0.2253 -0.1451  0.4034
 2086ntf    on516166   3.928   0.728   6.044 -0.4855  0.2494  0.7826
 2086ntf    on516167   3.912   0.567   5.863  0.0346  0.2235  0.0991
 2086ntf    fn416168   3.633   0.493   5.996 -0.1115 -0.1087  0.6201
 2086ntf    fn416169   3.801   0.475   6.126  0.1949 -0.0605 -0.3796
 2086ntf    fn416170   3.661   0.637   6.141  0.0113 -0.2011  0.4106
 2087ntf    cn116171   0.428   3.136   4.590  0.0784  0.5717 -0.0932
 2087ntf    sn216172   0.447   3.304   4.523  0.4926  0.5786  0.0356
 2087ntf    nn316173   0.520   3.272   4.388  0.1305 -0.0625 -0.0150
 2087ntf    sn216174   0.643   3.349   4.328  0.1070 -0.3206 -0.3973
 2087ntf    cn116175   0.781   3.284   4.426 -0.2189 -0.1413  0.1870
 2087ntf    fn416176   0.540   3.067   4.609 -0.1057  0.2611 -0.1311
 2087ntf    fn416177   0.376   3.141   4.711  0.4170  0.5773  0.0528
 2087ntf    fn416178   0.345   3.063   4.517  0.6555  0.4864 -0.6770
 2087ntf    on516179   0.312   3.353   4.506  0.3841  0.2321 -0.1055
 2087ntf    on516180   0.527   3.375   4.620  0.2167  0.3349  0.4439
 2087ntf    on516181   0.639   3.489   4.363 -0.5218 -0.5915  0.6795
 2087ntf    on516182   0.672   3.316   4.191  0.6181  0.0995 -0.3926
 2087ntf    fn416183   0.892   3.356   4.416 -0.4455  0.1805  0.0123
 2087ntf    fn416184   0.758   3.279   4.557 -0.8037 -0.5708  0.0693
 2087ntf    fn416185   0.812   3.162   4.385  0.2306  0.1753 -0.4206
 2088ntf    cn116186   6.454   2.344   3.426  0.0004 -0.5759 -0.0328
 2088ntf    sn216187   6.465   2.304   3.603  0.0772  0.2136  0.1429
 2088ntf    nn316188   6.601   2.373   3.641  0.1081  0.1075  0.2247
 2088ntf    sn216189   6.699   2.350   3.761  0.1071  0.2134  0.2451
 2088ntf    cn116190   6.774   2.190   3.719 -0.2188  0.0729  0.1936
 2088ntf    fn416191   6.371   2.271   3.354  0.0638  0.0597 -0.7549
 2088ntf    fn416192   6.408   2.467   3.414  0.6170 -0.3926 -0.5638
 2088ntf    fn416193   6.575   2.340   3.371  0.0269  0.1415 -0.0309
 2088ntf    on516194   6.348   2.369   3.657 -0.2412 -0.2312 -0.0031
 2088ntf    on516195   6.471   2.160   3.595  0.1216  0.1826  0.6634
 2088ntf    on516196   6.644   2.331   3.893  0.3616  0.1004  0.3346
 2088ntf    on516197   6.813   2.438   3.756 -0.1413  0.5630  0.6534
 2088ntf    fn416198   6.689   2.090   3.737 -0.3919  0.2197  0.1901
 2088ntf    fn416199   6.794   2.193   3.589  0.0667 -0.0445  0.2330
 2088ntf    fn416200   6.887   2.163   3.782  0.0690 -0.4922 -0.5637
 2089ntf    cn116201   4.961   5.681   3.520  0.2492  0.2253  0.2067
 2089ntf    sn216202   4.869   5.551   3.431  0.1398  0.2318  0.3111
 2089ntf    nn316203   4.730   5.550   3.504 -0.3641  0.0931 -0.6441
 2089ntf    sn216204   4.635   5.429   3.535 -0.4394  0.2310 -0.3289
 2089ntf    cn116205   4.706   5.383   3.695 -0.1361  0.0595 -0.5125
 2089ntf    fn416206   4.911   5.802   3.502  0.0412  0.1516  0.2898
 2089ntf    fn416207   4.968   5.657   3.650  0.7534  0.1715  0.1704
 2089ntf    fn416208   5.086   5.687   3.476  0.3137  0.0646  0.3664
 2089ntf    on516209   4.868   5.611   3.300  0.0350  0.0799  0.2425
 2089ntf    on516210   4.952   5.433   3.443  0.2258  0.2441 -0.1474
 2089ntf    on516211   4.649   5.314   3.449  0.2718 -0.0667  0.1828
 2089ntf    on516212   4.499   5.463   3.570 -0.2523  0.1936  0.4329
 2089ntf    fn416213   4.830   5.344   3.673 -0.2206 -0.5559  0.0431
 2089ntf    fn416214   4.710   5.487   3.776  0.0709 -0.1043 -0.3092
 2089ntf    fn416215   4.642   5.284   3.756 -0.2025 -0.0022 -0.6844
 2090ntf    cn116216   2.529   4.498   0.055 -0.7118  0.1666  0.1193
 2090ntf    sn216217   2.651   4.582  -0.051 -0.5092 -0.0359  0.1914
 2090ntf    nn316218   2.770   4.481  -0.035 -0.1367  0.3620 -0.0593
 2090ntf    sn216219   2.923   4.492  -0.071 -0.2097  0.1869 -0.4268
 2090ntf    cn116220   3.007   4.484   0.089 -0.2320  0.0856 -0.4199
 2090ntf    fn416221   2.530   4.369   0.024 -0.1633  0.1665  0.1249
 2090ntf    fn416222   2.562   4.502   0.183 -0.3313  0.2681  0.0200
 2090ntf    fn416223   2.407   4.545   0.041 -0.3782  0.8088 -0.7405
 2090ntf    on516224   2.599   4.587  -0.185 -0.2003  0.1600  0.0769
 2090ntf    on516225   2.675   4.706   0.019  0.6931 -0.0596 -0.1590
 2090ntf    on516226   2.983   4.611  -0.126  0.3127  0.0712 -0.1143
 2090ntf    on516227   2.965   4.369  -0.133 -0.3501 -0.0434 -0.0678
 2090ntf    fn416228   3.136   4.516   0.088 -0.1678 -0.1663 -0.2431
 2090ntf    fn416229   2.951   4.576   0.167  0.3816  0.1185 -0.0059
 2090ntf    fn416230   2.990   4.372   0.157  0.4865  0.0451 -0.3012
 2091ntf    cn116231   3.559   6.586   4.222 -0.1466  0.3256 -0.5729
 2091ntf    sn216232   3.526   6.449   4.107  0.2019 -0.2801  0.0449
 2091ntf    nn316233   3.413   6.380   4.191 -0.0723  0.0460 -0.0596
 2091ntf    sn216234   3.409   6.235   4.251 -0.0032  0.0705  0.0042
 2091ntf    cn116235   3.434   6.287   4.423 -0.2045  0.2666 -0.0248
 2091ntf    fn416236   3.578   6.545   4.347 -1.1207  0.8139 -0.2573
 2091ntf    fn416237   3.661   6.662   4.187  0.0208  0.3277 -0.0942
 2091ntf    fn416238   3.456   6.667   4.237 -0.2289  0.1428 -0.1265
 2091ntf    on516239   3.480   6.518   3.990  0.6355 -0.0693 -0.0028
 2091ntf    on516240   3.650   6.374   4.103  0.5541  0.2686  0.4703
 2091ntf    on516241   3.528   6.158   4.224  0.1131  0.0917  0.4533
 2091ntf    on516242   3.276   6.179   4.245 -0.0392  0.1311  0.2311
 2091ntf    fn416243   3.337   6.370   4.457 -0.0998  0.2457  0.3281
 2091ntf    fn416244   3.431   6.187   4.510  0.4589  0.3560  0.1067
 2091ntf    fn416245   3.546   6.355   4.442 -0.3304  0.5112 -0.1556
 2092ntf    cn116246   1.087   3.153   2.495 -0.5447  0.0803 -0.2094
 2092ntf    sn216247   1.186   3.298   2.545  0.0757 -0.2987 -0.3246
 2092ntf    nn316248   1.268   3.320   2.413 -0.4999  0.4811 -0.5577
 2092ntf    sn216249   1.413   3.379   2.404 -0.3008  0.1153  0.1836
 2092ntf    cn116250   1.509   3.226   2.385  0.0773  0.3268  0.3945
 2092ntf    fn416251   1.161   3.053   2.449  0.5836  0.8348 -0.0871
 2092ntf    fn416252   1.014   3.100   2.591  0.3762  0.1293  0.5291
 2092ntf    fn416253   1.005   3.183   2.395 -0.2680 -0.2288 -0.5326
 2092ntf    on516254   1.082   3.396   2.566  0.4726 -0.0228  0.3982
 2092ntf    on516255   1.254   3.240   2.659  0.0179 -0.3432 -0.3127
 2092ntf    on516256   1.469   3.446   2.518  0.1959  0.2422 -0.1311
 2092ntf    on516257   1.425   3.443   2.275 -0.6846 -0.3305 -0.0787
 2092ntf    fn416258   1.456   3.124   2.451  0.1115  0.5474  0.7639
 2092ntf    fn416259   1.517   3.188   2.259  0.4051  0.1348  0.4699
 2092ntf    fn416260   1.634   3.236   2.429  0.3158  0.0809 -0.2157
 2093ntf    cn116261   1.020   0.819   0.299  0.4289 -0.4000 -0.1996
 2093ntf    sn216262   1.009   0.842   0.118 -0.2156 -0.5057 -0.1732
 2093ntf    nn316263   0.884   0.749   0.095  0.1658 -1.0106 -0.2123
 2093ntf    sn216264   0.769   0.744  -0.012 -0.0946 -0.3439  0.0314
 2093ntf    cn116265   0.647   0.839   0.083  0.6201  0.4353  0.1837
 2093ntf    fn416266   0.905   0.844   0.358  0.4407 -0.4833 -0.1421
 2093ntf    fn416267   1.044   0.694   0.335 -0.7020 -0.5311  0.1295
 2093ntf    fn416268   1.109   0.900   0.354 -0.2853  0.0002  0.3739
 2093ntf    on516269   0.967   0.979   0.103 -0.1674 -0.4588  0.0987
 2093ntf    on516270   1.138   0.804   0.069 -0.2883 -0.3268 -0.5030
 2093ntf    on516271   0.709   0.614  -0.029 -0.2207 -0.3178  0.2801
 2093ntf    on516272   0.775   0.826  -0.131  0.0063  0.3127  0.4826
 2093ntf    fn416273   0.698   0.934   0.160  0.2045  0.7042  0.1306
 2093ntf    fn416274   0.564   0.905   0.005  0.4903 -0.0365 -0.0812
 2093ntf    fn416275   0.585   0.760   0.169  0.6566  0.3371  0.1201
 2094ntf    cn116276   4.161   1.094   6.634 -0.1136  0.0727  0.3715
 2094ntf    sn216277   4.327   1.165   6.650 -0.0263 -0.0915  0.2019
 2094ntf    nn316278   4.384   1.154   6.504 -0.4471  0.6068 -0.0227
 2094ntf    sn216279   4.494   1.247   6.441 -0.0854  0.2401  0.0577
 2094ntf    cn116280   4.587   1.112   6.364  0.0008  0.4057 -0.1279
 2094ntf    fn416281   4.172   0.976   6.575 -0.3670  0.3246 -0.1783
 2094ntf    fn416282   4.111   1.078   6.756  0.0533 -0.0337  0.4272
 2094ntf    fn416283   4.079   1.164   6.559 -0.0430 -0.2973 -0.0566
 2094ntf    on516284   4.316   1.297   6.709 -1.1186 -0.4173  0.7559
 2094ntf    on516285   4.374   1.063   6.741  0.3396 -0.4206 -0.3537
 2094ntf    on516286   4.584   1.312   6.533 -0.2726  0.4348  0.1062
 2094ntf    on516287   4.448   1.322   6.327  0.3655 -0.3225 -0.4973
 2094ntf    fn416288   4.714   1.149   6.351  0.1633 -0.1729 -0.2018
 2094ntf    fn416289   4.599   1.001   6.434 -0.1449  0.1564 -0.4952
 2094ntf    fn416290   4.545   1.083   6.242 -0.0049 -0.1732  0.0077
 2095ntf    cn116291   3.474   1.594   0.573  0.2184 -0.4370 -0.2928
 2095ntf    sn216292   3.366   1.517   0.449 -0.1408  0.2608 -0.4170
 2095ntf    nn316293   3.326   1.645   0.369 -0.2847  0.4902  0.0171
 2095ntf    sn216294   3.186   1.674   0.304 -0.2780  0.1567 -0.1456
 2095ntf    cn116295   3.233   1.796   0.178  0.2871  0.0519 -0.0368
 2095ntf    fn416296   3.524   1.515   0.668  0.1472  0.1906  0.2730
 2095ntf    fn416297   3.579   1.638   0.505 -0.1152  0.0537 -0.4891
 2095ntf    fn416298   3.424   1.701   0.633 -0.0530 -0.1496 -1.0272
 2095ntf    on516299   3.458   1.431   0.379  0.3193  0.3356  0.0917
 2095ntf    on516300   3.261   1.456   0.527  0.5528 -0.2505  0.1308
 2095ntf    on516301   3.088   1.746   0.381 -0.0291 -0.0538  0.3743
 2095ntf    on516302   3.129   1.561   0.234  0.4628 -0.2612 -0.0870
 2095ntf    fn416303   3.137   1.843   0.100 -0.2401 -0.1892  0.4603
 2095ntf    fn416304   3.301   1.902   0.218  0.0657  0.0175  0.4353
 2095ntf    fn416305   3.315   1.741   0.089 -0.0347 -0.0594 -0.2679
 2096ntf    cn116306   4.601   4.503   3.383  0.2396  0.2873  0.3081
 2096ntf    sn216307   4.691   4.370   3.299  0.0419  0.1642  0.2904
 2096ntf    nn316308   4.620   4.385   3.160 -0.6016  0.5839  0.6594
 2096ntf    sn216309   4.541   4.276   3.079 -0.1651  0.2419  0.6896
 2096ntf    cn116310   4.375   4.350   3.083 -0.2701  0.0568 -0.1247
 2096ntf    fn416311   4.635   4.620   3.330  0.1747  0.1718  0.0091
 2096ntf    fn416312   4.469   4.501   3.374  0.2219  0.2804  0.5497
 2096ntf    fn416313   4.641   4.505   3.509  0.4657 -0.1990  0.2461
 2096ntf    on516314   4.825   4.422   3.313  0.2645 -0.3751  0.2053
 2096ntf    on516315   4.665   4.253   3.380  0.2097 -0.2053 -0.1850
 2096ntf    on516316   4.526   4.148   3.143 -0.1071 -0.2180 -0.2072
 2096ntf    on516317   4.574   4.276   2.939 -0.3154 -0.6454  0.6499
 2096ntf    fn416318   4.283   4.282   3.017  0.1818 -0.1691 -0.5281
 2096ntf    fn416319   4.328   4.380   3.203 -0.0257  0.3610 -0.1054
 2096ntf    fn416320   4.387   4.465   3.018 -0.1264 -0.1935 -0.5460
 2097ntf    cn116321   4.592   1.496   3.956  0.0140  0.0824  0.3042
 2097ntf    sn216322   4.607   1.677   3.947 -0.0771  0.0597 -0.3364
 2097ntf    nn316323   4.751   1.685   4.009 -0.3844 -0.2855  0.4290
 2097ntf    sn216324   4.829   1.817   4.043 -0.4730 -0.1573  0.1305
 2097ntf    cn116325   4.940   1.840   3.901 -0.5495  0.6099  0.1914
 2097ntf    fn416326   4.493   1.457   3.877  0.2092  0.0426  0.0799
 2097ntf    fn416327   4.704   1.437   3.916 -0.3465 -0.1709 -0.3413
 2097ntf    fn416328   4.572   1.446   4.077 -0.4398  0.2733  0.3116
 2097ntf    on516329   4.603   1.706   3.806  0.3775 -0.4715 -0.4653
 2097ntf    on516330   4.502   1.726   4.033  0.5112 -0.0804  0.4784
 2097ntf    on516331   4.913   1.799   4.159 -0.2953 -0.2698 -0.0150
 2097ntf    on516332   4.747   1.936   4.037  0.3913  0.4396  0.0481
 2097ntf    fn416333   4.880   1.806   3.788  0.1552  0.3411 -0.1071
 2097ntf    fn416334   4.995   1.959   3.884 -0.1506  0.3705 -0.2314
 2097ntf    fn416335   5.046   1.761   3.903 -0.7588  0.3367  0.5951
 2098ntf    cn116336   6.033   6.200   4.332 -0.0242  0.2713 -0.3199
 2098ntf    sn216337   6.195   6.259   4.390 -0.2204  0.1539  0.3469
 2098ntf    nn316338   6.195   6.251   4.547  0.0238 -0.0352  0.3371
 2098ntf    sn216339   6.140   6.360   4.646  0.0772  0.1479  0.1651
 2098ntf    cn116340   6.296   6.447   4.681  0.0510 -0.0639  0.8304
 2098ntf    fn416341   5.948   6.213   4.432 -0.0862  0.2514 -0.3701
 2098ntf    fn416342   5.988   6.273   4.231  0.2840  0.2645 -0.4648
 2098ntf    fn416343   6.028   6.072   4.297 -0.8157  0.1862  0.0885
 2098ntf    on516344   6.284   6.164   4.330 -0.7616  0.2035 -0.5442
 2098ntf    on516345   6.201   6.395   4.342  0.4087 -0.1249 -0.3793
 2098ntf    on516346   6.107   6.293   4.769  0.9520 -0.5316  0.0391
 2098ntf    on516347   6.043   6.454   4.597 -0.0276  0.0895  0.2603
 2098ntf    fn416348   6.394   6.373   4.731  0.3826 -0.0154  0.2730
 2098ntf    fn416349   6.349   6.506   4.575 -0.2436 -0.4541  0.4656
 2098ntf    fn416350   6.273   6.538   4.774 -1.0746  0.1803  0.3309
 2099ntf    cn116351   3.107   4.459   5.349  0.3041 -0.0427  0.0470
 2099ntf    sn216352   3.190   4.620   5.337  0.2380 -0.0279 -0.2132
 2099ntf    nn316353   3.329   4.582   5.399  0.3289  0.0948 -0.3398
 2099ntf    sn216354   3.420   4.682   5.478  0.0264  0.0301  0.0949
 2099ntf    cn116355   3.408   4.834   5.379  0.2794 -0.2070 -0.3026
 2099ntf    fn416356   2.986   4.465   5.295  0.4659 -0.3309 -0.3522
 2099ntf    fn416357   3.172   4.370   5.277  0.1564 -0.4519  0.4140
 2099ntf    fn416358   3.094   4.415   5.473 -0.5345 -0.2562 -0.1089
 2099ntf    on516359   3.189   4.639   5.194 -0.3380  0.0675 -0.2016
 2099ntf    on516360   3.111   4.711   5.418  0.0739  0.2193 -0.6466
 2099ntf    on516361   3.557   4.640   5.470  0.0015 -0.1242  0.4691
 2099ntf    on516362   3.370   4.723   5.607  0.0950  0.4693 -0.0143
 2099ntf    fn416363   3.295   4.899   5.405  0.1142 -0.4964 -0.2968
 2099ntf    fn416364   3.513   4.910   5.404  0.1920 -0.2198  0.1132
 2099ntf    fn416365   3.417   4.807   5.250 -0.0388 -0.0622 -0.3549
 2100ntf    cn116366   2.479   5.303   0.390  0.4265 -0.3944  0.0273
 2100ntf    sn216367   2.399   5.258   0.547  0.0299  0.1390 -0.0166
 2100ntf    nn316368   2.524   5.280   0.640 -0.0148  0.1195  0.0477
 2100ntf    sn216369   2.585   5.189   0.752 -0.4107 -0.1384  0.0579
 2100ntf    cn116370   2.699   5.099   0.643  0.1027  0.3818  0.1620
 2100ntf    fn416371   2.591   5.243   0.354  0.4036 -0.0476 -0.6409
 2100ntf    fn416372   2.399   5.305   0.285  0.4212 -0.0463  0.0351
 2100ntf    fn416373   2.520   5.429   0.401 -0.4982 -0.0042 -0.7672
 2100ntf    on516374   2.293   5.353   0.567  0.2084  0.2102  0.6032
 2100ntf    on516375   2.369   5.120   0.518 -0.7443  0.2634  0.1794
 2100ntf    on516376   2.502   5.081   0.799  0.1770 -0.2765  0.7944
 2100ntf    on516377   2.657   5.275   0.842 -0.1437 -0.2915 -0.0077
 2100ntf    fn416378   2.652   5.007   0.561 -0.3947  0.8236 -0.0545
 2100ntf    fn416379   2.760   5.185   0.563 -0.3988  0.3961 -0.2045
 2100ntf    fn416380   2.799   5.037   0.705  0.4681  0.7094 -0.0909
 2101ntf    cn116381   5.143   4.201   6.260 -0.1529 -0.1846 -0.1052
 2101ntf    sn216382   5.031   4.338   6.220  0.1044  0.0553 -0.0083
 2101ntf    nn316383   4.896   4.277   6.270  0.1666 -0.0501  0.0308
 2101ntf    sn216384   4.861   4.238   6.418 -0.2859  0.2371  0.0008
 2101ntf    cn116385   4.797   4.398   6.477  0.0738  0.2103  0.4674
 2101ntf    fn416386   5.250   4.190   6.182 -0.1424  0.3650 -0.1722
 2101ntf    fn416387   5.198   4.202   6.381  0.0649  0.1395 -0.2043
 2101ntf    fn416388   5.082   4.084   6.257  0.6810 -0.6257 -0.3843
 2101ntf    on516389   5.075   4.444   6.308  0.1904  0.0158 -0.0036
 2101ntf    on516390   5.026   4.354   6.076  0.0833  0.0414 -0.0090
 2101ntf    on516391   4.977   4.219   6.502 -0.2402 -0.2171 -0.1629
 2101ntf    on516392   4.751   4.145   6.425  0.3355 -0.5747 -0.7885
 2101ntf    fn416393   4.827   4.418   6.604  0.3260 -0.2154  0.4789
 2101ntf    fn416394   4.840   4.497   6.401 -0.0577 -0.2387 -0.1983
 2101ntf    fn416395   4.666   4.403   6.466  0.0906  0.3224  0.3152
 2102ntf    cn116396   3.145   6.790   5.420  0.3127  0.2279  0.0883
 2102ntf    sn216397   3.061   6.944   5.372 -0.0753  0.0029  0.0419
 2102ntf    nn316398   3.132   6.997   5.243 -0.3251  0.1335 -0.0436
 2102ntf    sn216399   3.236   7.114   5.238  0.2338 -0.3406  0.3521
 2102ntf    cn116400   3.312   7.092   5.074 -0.1925  0.2211  0.0754
 2102ntf    fn416401   3.134   6.701   5.322 -0.1912  0.2751  0.0973
 2102ntf    fn416402   3.275   6.811   5.433  0.3296  0.2209 -0.0675
 2102ntf    fn416403   3.094   6.729   5.526 -0.6331 -0.1249 -0.5508
 2102ntf    on516404   2.931   6.886   5.347  0.0638 -0.2900 -0.0032
 2102ntf    on516405   3.070   7.036   5.483 -0.3937 -0.2325  0.2670
 2102ntf    on516406   3.342   7.095   5.335  0.2820 -0.2535  0.3166
 2102ntf    on516407   3.172   7.243   5.233  0.2359 -0.3607 -0.2682
 2102ntf    fn416408   3.372   6.974   5.064 -0.0284  0.3178 -0.0838
 2102ntf    fn416409   3.220   7.091   4.979 -0.3052  0.6157  0.1797
 2102ntf    fn416410   3.399   7.188   5.047  0.0115 -0.1074 -0.4530
 2103ntf    cn116411   6.749   5.847   5.337 -0.2982  0.1794 -0.1140
 2103ntf    sn216412   6.643   5.838   5.189 -0.1929 -0.0515 -0.1742
 2103ntf    nn316413   6.540   5.950   5.225  0.0284  0.0754  0.0702
 2103ntf    sn216414   6.390   5.950   5.272  0.1013  0.0385  0.3027
 2103ntf    cn116415   6.323   5.919   5.106 -0.4870 -0.2639  0.5952
 2103ntf    fn416416   6.676   5.832   5.446  0.3535 -0.3533  0.2552
 2103ntf    fn416417   6.850   5.763   5.351 -0.5264  0.0610  0.8818
 2103ntf    fn416418   6.809   5.964   5.347  0.3983 -0.1196 -0.7288
 2103ntf    on516419   6.730   5.859   5.075  0.1128  0.3338  0.1266
 2103ntf    on516420   6.586   5.706   5.198 -0.3321  0.0340  0.2240
 2103ntf    on516421   6.331   6.079   5.298 -0.0977  0.0764 -0.3266
 2103ntf    on516422   6.349   5.838   5.353  0.0641  0.0626  0.3169
 2103ntf    fn416423   6.305   6.024   5.027 -0.2726 -0.0633  0.8127
 2103ntf    fn416424   6.405   5.836   5.044 -0.6046 -0.0604  0.1628
 2103ntf    fn416425   6.207   5.855   5.104 -0.7118  0.1542 -0.1657
 2104ntf    cn116426   5.577   3.083   5.719  0.0248  0.0717  0.1498
 2104ntf    sn216427   5.650   3.013   5.569  0.2292 -0.2267  0.3873
 2104ntf    nn316428   5.522   2.988   5.480  0.5075 -0.2816  0.0003
 2104ntf    sn216429   5.433   2.861   5.453 -0.4456  0.3255  0.2597
 2104ntf    cn116430   5.518   2.818   5.298 -0.2337  0.1531  0.4237
 2104ntf    fn416431   5.493   3.004   5.784 -0.2300  0.4678  0.3141
 2104ntf    fn416432   5.676   3.120   5.800  1.0271 -0.7033 -0.7059
 2104ntf    fn416433   5.506   3.193   5.697  0.0026  0.0971  0.3441
 2104ntf    on516434   5.735   3.120   5.525  0.0432  0.1399  0.9154
 2104ntf    on516435   5.721   2.900   5.622  0.0200 -0.5639 -0.0394
 2104ntf    on516436   5.299   2.889   5.406 -0.5157  0.4561  0.5364
 2104ntf    on516437   5.451   2.751   5.544 -0.4614  0.1094  0.0006
 2104ntf    fn416438   5.523   2.916   5.209  0.8296 -0.3555 -0.0913
 2104ntf    fn416439   5.639   2.766   5.310 -0.1456  0.1733 -0.3297
 2104ntf    fn416440   5.446   2.718   5.251 -0.3015  0.3573  0.0912
 2105ntf    cn116441   1.612   4.423   2.825  0.1288  0.7533  0.1053
 2105ntf    sn216442   1.704   4.436   2.982  0.4065 -0.1978  0.0239
 2105ntf    nn316443   1.844   4.486   2.932  0.0518 -0.1265 -0.9125
 2105ntf    sn216444   1.913   4.626   2.955  0.1047 -0.3272  0.1949
 2105ntf    cn116445   1.964   4.603   3.128  0.0394 -0.2642  0.2228
 2105ntf    fn416446   1.666   4.340   2.738 -0.5892  0.4908 -0.0890
 2105ntf    fn416447   1.495   4.371   2.856  0.3508  0.4279  0.4144
 2105ntf    fn416448   1.584   4.531   2.753  0.1427  0.7626  0.1139
 2105ntf    on516449   1.612   4.526   3.047  0.1922 -0.5398  0.2024
 2105ntf    on516450   1.710   4.304   3.041 -0.1965 -0.2456 -0.0146
 2105ntf    on516451   1.827   4.741   2.952  0.0607 -0.3723 -0.4814
 2105ntf    on516452   2.035   4.642   2.880 -0.1882  0.4165 -0.1308
 2105ntf    fn416453   1.914   4.701   3.201  0.3390 -0.2138  0.3650
 2105ntf    fn416454   1.911   4.494   3.179 -0.1865 -0.1446  0.2436
 2105ntf    fn416455   2.095   4.602   3.150  0.0231 -0.1418  0.3254
 2106ntf    cn116456   2.192   0.664   5.607 -0.1552  0.2133  0.3488
 2106ntf    sn216457   2.071   0.773   5.689 -0.3823  0.2261 -0.0033
 2106ntf    nn316458   2.164   0.899   5.703 -0.0707 -0.0330  0.2534
 2106ntf    sn216459   2.186   0.996   5.824  0.3421  0.2980 -0.0845
 2106ntf    cn116460   2.355   0.946   5.869  0.1884 -0.0289  0.1326
 2106ntf    fn416461   2.281   0.611   5.689 -0.0457 -0.1589 -0.0070
 2106ntf    fn416462   2.136   0.568   5.537  1.1098 -0.0834 -0.2875
 2106ntf    fn416463   2.271   0.730   5.524 -0.0499 -0.2153  0.1089
 2106ntf    on516464   1.970   0.773   5.586 -0.5615  0.2648  0.1748
 2106ntf    on516465   2.047   0.701   5.811 -0.1004 -0.3283 -0.2696
 2106ntf    on516466   2.108   0.979   5.944  0.5958 -0.3497 -0.0084
 2106ntf    on516467   2.212   1.132   5.782  0.4074  0.3697  0.1808
 2106ntf    fn416468   2.411   1.017   5.965  0.7206 -0.0344 -0.1690
 2106ntf    fn416469   2.349   0.821   5.913  0.3372 -0.0168  0.1857
 2106ntf    fn416470   2.443   0.951   5.770  0.5101  0.2571  0.4295
 2107ntf    cn116471   0.965   2.767   5.332 -0.0806  0.5173  0.1105
 2107ntf    sn216472   0.790   2.791   5.289 -0.1042  0.2891  0.0806
 2107ntf    nn316473   0.753   2.659   5.212  0.1502  0.2512  0.0251
 2107ntf    sn216474   0.701   2.524   5.273  0.1870  0.0989 -0.2746
 2107ntf    cn116475   0.526   2.562   5.302  0.0779 -0.3338 -0.3704
 2107ntf    fn416476   1.048   2.792   5.232  0.4145 -0.6618  0.2103
 2107ntf    fn416477   0.989   2.830   5.446 -0.3468 -0.1772  0.5616
 2107ntf    fn416478   0.976   2.639   5.362 -0.2960  0.5906  0.5090
 2107ntf    on516479   0.730   2.805   5.419 -0.0085  0.3747  0.1150
 2107ntf    on516480   0.787   2.909   5.207 -0.5252  0.1402 -0.1254
 2107ntf    on516481   0.742   2.484   5.406  0.0773 -0.0610 -0.2897
 2107ntf    on516482   0.689   2.415   5.180 -0.2153  0.1501 -0.2822
 2107ntf    fn416483   0.460   2.544   5.188 -0.2976 -0.5842 -0.1167
 2107ntf    fn416484   0.471   2.487   5.396 -0.2368  0.2162 -0.1095
 2107ntf    fn416485   0.503   2.687   5.337  0.4644 -0.3433 -0.0822
 2108ntf    cn116486   0.959   4.187   4.438 -0.1572  0.4264  0.4621
 2108ntf    sn216487   1.114   4.177   4.532  0.1753 -0.3395 -0.1657
 2108ntf    nn316488   1.066   4.098   4.659  0.4144 -0.1446  0.0484
 2108ntf    sn216489   1.073   3.943   4.687  0.0720 -0.1938 -0.1237
 2108ntf    cn116490   1.221   3.928   4.792  0.1947 -0.2548 -0.3049
 2108ntf    fn416491   0.878   4.285   4.476 -0.5662  0.2724 -0.0052
 2108ntf    fn416492   0.983   4.204   4.309 -0.2997  0.5475  0.4498
 2108ntf    fn416493   0.891   4.074   4.447  0.0846  0.2645  0.2439
 2108ntf    on516494   1.209   4.110   4.446 -0.2845 -0.8677 -0.2706
 2108ntf    on516495   1.149   4.312   4.568 -0.1453 -0.2795 -0.0761
 2108ntf    on516496   1.095   3.848   4.581  0.4989 -0.1139 -0.1089
 2108ntf    on516497   0.965   3.916   4.779 -0.2770  0.9098 -0.1871
 2108ntf    fn416498   1.223   4.005   4.900 -0.0039 -0.5506 -0.0885
 2108ntf    fn416499   1.244   3.801   4.822  0.0382 -0.2328 -0.0837
 2108ntf    fn416500   1.328   3.965   4.723  0.5527 -0.0992  0.3256
 2109ntf    cn116501   5.134   4.649   4.792 -0.0102  0.0793 -0.1235
 2109ntf    sn216502   5.130   4.468   4.805 -0.0210  0.0761 -0.1680
 2109ntf    nn316503   5.273   4.434   4.860 -0.1117  0.1535  0.1142
 2109ntf    sn216504   5.314   4.359   4.992 -0.1119 -0.0725 -0.0150
 2109ntf    cn116505   5.437   4.246   4.919  0.1484  0.0462  0.2382
 2109ntf    fn416506   5.143   4.694   4.916 -0.3142  0.0275 -0.0844
 2109ntf    fn416507   5.230   4.706   4.719 -0.2797  0.8244  0.0953
 2109ntf    fn416508   5.023   4.700   4.742  0.2234  0.3990 -0.3299
 2109ntf    on516509   5.016   4.427   4.884 -0.2082  0.4526 -0.2399
 2109ntf    on516510   5.122   4.435   4.665  0.2950  0.5673 -0.3045
 2109ntf    on516511   5.217   4.269   5.049 -0.0025 -0.1842 -0.0036
 2109ntf    on516512   5.394   4.435   5.084  0.0629  0.1307 -0.3347
 2109ntf    fn416513   5.527   4.214   5.010 -0.4428 -0.2016  0.7382
 2109ntf    fn416514   5.384   4.131   4.884  0.0298  0.2395 -0.2291
 2109ntf    fn416515   5.499   4.293   4.812 -0.1293  0.1015  0.0990
 2110ntf    cn116516   2.377   0.284   3.309 -0.3644  0.2577 -0.0859
 2110ntf    sn216517   2.420   0.111   3.344  0.2832  0.4308 -0.0109
 2110ntf    nn316518   2.364   0.096   3.490  0.3845 -0.1745 -0.0332
 2110ntf    sn216519   2.445   0.032   3.608 -0.2076 -0.1922  0.3660
 2110ntf    cn116520   2.318  -0.042   3.715 -0.2249  0.2267  0.6374
 2110ntf    fn416521   2.246   0.299   3.317 -0.4122 -0.2500  0.1525
 2110ntf    fn416522   2.436   0.367   3.395  0.0469 -0.3601  0.2344
 2110ntf    fn416523   2.401   0.321   3.185 -0.3020 -0.1381 -0.1915
 2110ntf    on516524   2.342   0.034   3.251  0.3630  0.0070  0.2705
 2110ntf    on516525   2.563   0.102   3.326  0.2463  0.3208 -0.2544
 2110ntf    on516526   2.506   0.132   3.692 -0.4547  0.0842  0.2143
 2110ntf    on516527   2.534  -0.072   3.563 -0.2361  0.0817 -0.3251
 2110ntf    fn416528   2.210   0.028   3.743 -0.1721  0.2807  0.7100
 2110ntf    fn416529   2.272  -0.141   3.641  0.3764  0.2440  0.2315
 2110ntf    fn416530   2.363  -0.095   3.828 -0.5242 -0.2825  0.5190
 2111ntf    cn116531   2.507   0.085   0.079  0.3170  0.3845 -0.1641
 2111ntf    sn216532   2.640   0.070  -0.045  0.2595 -0.2001 -0.1572
 2111ntf    nn316533   2.728  -0.040   0.024  0.1314 -0.1869  0.0295
 2111ntf    sn216534   2.851  -0.036   0.122 -0.0086  0.2196  0.1925
 2111ntf    cn116535   2.784  -0.110   0.274 -0.0314 -0.3579 -0.0948
 2111ntf    fn416536   2.552   0.117   0.199  0.6030  0.3797 -0.2681
 2111ntf    fn416537   2.418   0.175   0.042  0.1040  0.1805 -0.1523
 2111ntf    fn416538   2.437  -0.027   0.086  0.2907  0.3761 -0.5567
 2111ntf    on516539   2.564   0.033  -0.162 -0.0077  0.2517 -0.1291
 2111ntf    on516540   2.696   0.202  -0.046 -0.4368  0.0991 -0.5442
 2111ntf    on516541   2.894   0.094   0.166 -0.2450  0.3732 -0.0287
 2111ntf    on516542   2.952  -0.134   0.089  0.1491  0.3141  0.3959
 2111ntf    fn416543   2.671  -0.053   0.312  0.0876  0.2512 -0.6328
 2111ntf    fn416544   2.769  -0.239   0.251 -0.2205 -0.3548  0.0109
 2111ntf    fn416545   2.871  -0.100   0.372 -0.6368  0.7461  0.3480
 2112ntf    cn116546   1.660   2.816   0.032 -0.3095  0.1445 -0.1852
 2112ntf    sn216547   1.495   2.742   0.014 -0.3475  0.2376 -0.2210
 2112ntf    nn316548   1.543   2.597  -0.022 -0.5863  0.2091 -0.4287
 2112ntf    sn216549   1.482   2.457   0.014  0.5107 -0.1189  0.1862
 2112ntf    cn116550   1.604   2.347  -0.064  0.1187 -0.2623 -0.2280
 2112ntf    fn416551   1.737   2.795  -0.073 -0.2399  0.1614 -0.1375
 2112ntf    fn416552   1.658   2.948   0.042  0.0255  0.1527 -0.2124
 2112ntf    fn416553   1.727   2.764   0.133 -0.6452  0.2302  0.0842
 2112ntf    on516554   1.442   2.757   0.148  0.3051  0.6284 -0.0045
 2112ntf    on516555   1.440   2.819  -0.095 -0.5353 -0.0103 -0.3018
 2112ntf    on516556   1.359   2.425  -0.053  0.5070  0.3936 -0.0510
 2112ntf    on516557   1.495   2.425   0.154 -0.1095 -0.9394  0.0631
 2112ntf    fn416558   1.677   2.298   0.036 -0.3229 -0.4051  0.0279
 2112ntf    fn416559   1.555   2.238  -0.121  0.3184 -0.4649 -0.0136
 2112ntf    fn416560   1.675   2.405  -0.158 -0.4730  0.1982 -0.3953
 2113ntf    cn116561   0.184   2.701   1.970 -0.2795  0.1747 -0.1918
 2113ntf    sn216562   0.185   2.883   1.974  0.0178  0.1721 -0.1398
 2113ntf    nn316563   0.176   2.914   1.820 -0.1852  1.1569  0.0609
 2113ntf    sn216564   0.044   2.906   1.736 -0.1913 -0.0978  0.1760
 2113ntf    cn116565  -0.027   3.072   1.754 -0.0555 -0.0014 -0.1753
 2113ntf    fn416566   0.259   2.659   1.869  0.2453 -0.1985  0.3551
 2113ntf    fn416567   0.234   2.644   2.078 -0.3120  0.6721  0.0874
 2113ntf    fn416568   0.065   2.654   1.937 -0.4677  0.1581  0.5007
 2113ntf    on516569   0.072   2.926   2.052  0.0810 -0.2461  0.1828
 2113ntf    on516570   0.315   2.916   2.025 -0.0858  0.4462 -0.0496
 2113ntf    on516571  -0.066   2.822   1.778  0.0832 -0.3745  0.3471
 2113ntf    on516572   0.061   2.905   1.593 -0.6788 -0.1336  0.1155
 2113ntf    fn416573   0.061   3.167   1.724  0.3760 -0.2851  0.1737
 2113ntf    fn416574  -0.128   3.097   1.672  0.2700  0.2683 -0.4973
 2113ntf    fn416575  -0.067   3.095   1.878 -0.3493 -0.2354 -0.2262
 2114ntf    cn116576   2.591   6.897   2.581 -0.1077  0.1426  0.1830
 2114ntf    sn216577   2.629   7.064   2.519 -0.0741 -0.1024 -0.4678
 2114ntf    nn316578   2.749   7.096   2.615 -0.4523  0.5495 -0.2067
 2114ntf    sn216579   2.750   7.130   2.769  0.3385 -0.1675 -0.0453
 2114ntf    cn116580   2.765   7.310   2.759  0.0315 -0.1310  0.1136
 2114ntf    fn416581   2.698   6.820   2.573  0.6110  1.1230  0.1812
 2114ntf    fn416582   2.541   6.889   2.703 -0.1805 -0.1038  0.1375
 2114ntf    fn416583   2.502   6.838   2.503  0.1950  0.4034 -0.3626
 2114ntf    on516584   2.662   7.037   2.382 -0.3766 -0.2916 -0.5059
 2114ntf    on516585   2.506   7.134   2.548  0.3006  0.5014 -0.3127
 2114ntf    on516586   2.875   7.105   2.834  0.2249 -0.2625  0.1373
 2114ntf    on516587   2.626   7.107   2.840  0.4311  0.0880  0.1963
 2114ntf    fn416588   2.785   7.364   2.878  0.0073  0.5259 -0.1732
 2114ntf    fn416589   2.862   7.358   2.682  0.3984 -0.0489  0.6272
 2114ntf    fn416590   2.650   7.365   2.724  0.2437 -0.0796 -0.5177
 2115ntf    cn116591   3.601   6.099   2.222  0.2365 -0.1402 -0.1678
 2115ntf    sn216592   3.439   6.032   2.272  0.1979 -0.0679 -0.1954
 2115ntf    nn316593   3.491   5.906   2.350 -0.6386 -0.0537  0.4049
 2115ntf    sn216594   3.446   5.758   2.324 -0.1584 -0.1425  0.0557
 2115ntf    cn116595   3.497   5.683   2.481 -0.0036 -0.2526 -0.0461
 2115ntf    fn416596   3.671   6.016   2.146 -0.0469 -0.5711  0.0322
 2115ntf    fn416597   3.574   6.207   2.152  0.0691 -0.0627  0.0153
 2115ntf    fn416598   3.675   6.121   2.330  0.0012  0.1108 -0.0558
 2115ntf    on516599   3.391   6.135   2.361  0.4466 -0.0025 -0.1341
 2115ntf    on516600   3.374   6.007   2.146  0.1437 -0.0212 -0.1766
 2115ntf    on516601   3.534   5.692   2.230  0.3076  0.2947  0.1820
 2115ntf    on516602   3.304   5.733   2.325 -0.2367  0.2539 -0.5258
 2115ntf    fn416603   3.436   5.744   2.582  0.3422  0.0211 -0.0012
 2115ntf    fn416604   3.466   5.554   2.489 -0.1715 -0.1807  0.5461
 2115ntf    fn416605   3.626   5.687   2.508 -0.0405 -0.0995  0.1080
 2116ntf    cn116606   3.764   2.892   5.047 -0.0596  0.5132  0.0479
 2116ntf    sn216607   3.711   3.060   5.092  0.0362  0.5574 -0.0059
 2116ntf    nn316608   3.838   3.138   5.041  0.0846  0.6261  0.2163
 2116ntf    sn216609   3.962   3.198   5.116  0.3148  0.1627  0.2055
 2116ntf    cn116610   3.915   3.373   5.104  0.1462  0.1070  0.0473
 2116ntf    fn416611   3.873   2.857   5.113  0.0198  0.2469 -0.2232
 2116ntf    fn416612   3.667   2.808   5.079  0.2706  0.1590  0.1157
 2116ntf    fn416613   3.786   2.889   4.917 -0.4760 -0.3598 -0.0084
 2116ntf    on516614   3.590   3.070   5.016 -0.2787 -0.6442  0.3235
 2116ntf    on516615   3.701   3.057   5.236 -0.2859 -0.7779 -0.0482
 2116ntf    on516616   4.081   3.189   5.036  0.5795 -0.3143  0.6452
 2116ntf    on516617   3.966   3.162   5.256 -0.6366 -0.5937  0.0500
 2116ntf    fn416618   3.915   3.414   4.978 -0.6101 -0.0925 -0.0179
 2116ntf    fn416619   3.793   3.393   5.149  0.1446 -0.5296  0.3346
 2116ntf    fn416620   4.007   3.446   5.166  0.1312  0.4795 -0.3583
 2117ntf    cn116621   0.042   1.505   6.588 -0.3371  0.1341  0.4489
 2117ntf    sn216622  -0.009   1.405   6.445  0.1914  0.2605  0.1736
 2117ntf    nn316623   0.009   1.502   6.323  0.1801 -0.4339 -0.3824
 2117ntf    sn216624  -0.040   1.650   6.301  0.2408 -0.3197  0.2387
 2117ntf    cn116625  -0.067   1.651   6.121  0.1862 -0.2640  0.2477
 2117ntf    fn416626   0.123   1.605   6.560 -0.5360  0.0564 -0.4192
 2117ntf    fn416627  -0.065   1.552   6.652 -0.5164  0.4565 -0.0843
 2117ntf    fn416628   0.100   1.431   6.681  0.1426 -0.0382  0.0106
 2117ntf    on516629   0.084   1.295   6.437 -0.2878 -0.1423  0.0893
 2117ntf    on516630  -0.146   1.365   6.465  0.1549  0.3246  0.0561
 2117ntf    on516631   0.067   1.746   6.314  0.1909 -0.2450  0.1016
 2117ntf    on516632  -0.171   1.693   6.339  0.1961 -0.2516  0.0086
 2117ntf    fn416633  -0.130   1.545   6.072 -0.0539 -0.0221  0.0323
 2117ntf    fn416634  -0.135   1.760   6.091 -0.0723 -0.4788  0.0438
 2117ntf    fn416635   0.052   1.650   6.063  0.0823 -0.4096  0.0356
 2118ntf    cn116636   0.046   3.326   5.962  0.5446 -0.3777  0.2839
 2118ntf    sn216637   0.148   3.458   6.034  0.2986 -0.0765  0.0826
 2118ntf    nn316638   0.283   3.431   5.957 -0.2110  0.0866 -0.8801
 2118ntf    sn216639   0.343   3.498   5.829  0.2200  0.1023 -0.6695
 2118ntf    cn116640   0.350   3.349   5.726  0.5135 -0.0561 -0.4216
 2118ntf    fn416641  -0.082   3.353   5.979  0.6682  0.2183  0.2814
 2118ntf    fn416642   0.068   3.328   5.832 -0.6860 -0.0860  0.0738
 2118ntf    fn416643   0.068   3.204   6.009 -0.1024 -0.9348 -0.8165
 2118ntf    on516644   0.088   3.586   6.007  0.8173  0.1559  0.0054
 2118ntf    on516645   0.150   3.419   6.173  0.7413 -0.2862  0.0200
 2118ntf    on516646   0.480   3.538   5.851  0.1702 -0.2046  0.2330
 2118ntf    on516647   0.262   3.584   5.747 -0.3736  0.3063  0.1161
 2118ntf    fn416648   0.354   3.243   5.805 -0.3062  0.0960 -0.1671
 2118ntf    fn416649   0.238   3.334   5.658  0.5521 -0.6184 -0.3741
 2118ntf    fn416650   0.452   3.343   5.642  0.4915 -0.5368 -0.4211
 2119ntf    cn116651   4.470   3.432   2.136  0.3292 -0.4882 -0.1143
 2119ntf    sn216652   4.494   3.309   2.269 -0.0895 -0.3078  0.1307
 2119ntf    nn316653   4.347   3.310   2.324 -0.1266 -0.0721  0.0323
 2119ntf    sn216654   4.229   3.216   2.282 -0.1538  0.0102 -0.0738
 2119ntf    cn116655   4.263   3.066   2.378 -0.2063  0.1094  0.1001
 2119ntf    fn416656   4.372   3.393   2.056  0.2503  0.0826 -0.2961
 2119ntf    fn416657   4.435   3.552   2.180 -0.1721 -0.5136 -0.4426
 2119ntf    fn416658   4.578   3.453   2.063  0.3484  0.3073  0.1393
 2119ntf    on516659   4.527   3.194   2.188 -0.4749 -0.3989  0.0990
 2119ntf    on516660   4.593   3.366   2.357 -0.4362  0.5610 -0.0209
 2119ntf    on516661   4.230   3.156   2.150  0.2032 -0.3347  0.0835
 2119ntf    on516662   4.108   3.268   2.342  0.0096 -0.2533  0.4883
 2119ntf    fn416663   4.386   3.019   2.365 -0.2631 -0.0992  0.3070
 2119ntf    fn416664   4.254   3.086   2.508 -0.1213 -0.2332  0.1610
 2119ntf    fn416665   4.177   2.972   2.344  0.1110 -0.1733  0.0701
 2120ntf    cn116666   3.641   0.123   5.510 -0.3496  0.3464 -0.0835
 2120ntf    sn216667   3.756   0.018   5.605 -0.2518  0.5173 -0.0122
 2120ntf    nn316668   3.764  -0.100   5.502 -0.2123 -0.2214  0.8240
 2120ntf    sn216669   3.885  -0.195   5.474 -0.2704 -0.0731  0.0402
 2120ntf    cn116670   3.929  -0.130   5.310  0.5724 -0.4999  0.0897
 2120ntf    fn416671   3.693   0.139   5.389  0.4076 -0.0177  0.1831
 2120ntf    fn416672   3.520   0.074   5.489 -0.4464  0.1987  0.7916
 2120ntf    fn416673   3.618   0.238   5.570  0.1587  0.2188  0.3724
 2120ntf    on516674   3.869   0.107   5.609  0.1047  0.0594  0.0465
 2120ntf    on516675   3.678  -0.006   5.724 -0.6482 -0.6427 -0.4917
 2120ntf    on516676   3.833  -0.327   5.447  0.2063 -0.3026  0.2267
 2120ntf    on516677   4.000  -0.186   5.561  0.0543 -0.7247 -0.3095
 2120ntf    fn416678   4.055  -0.149   5.275  0.5702 -0.2811 -0.0403
 2120ntf    fn416679   3.847  -0.170   5.214  0.2046  0.6969 -0.1135
 2120ntf    fn416680   3.912   0.001   5.312 -0.4161 -0.6167 -0.0750
 2121ntf    cn116681   0.683   0.530   3.448 -0.2357  0.0575  0.2167
 2121ntf    sn216682   0.578   0.674   3.414  0.0500  0.1656 -0.2151
 2121ntf    nn316683   0.678   0.750   3.319 -0.0060  0.0261 -0.3860
 2121ntf    sn216684   0.681   0.903   3.284 -0.1107  0.1476  0.1256
 2121ntf    cn116685   0.672   0.898   3.102  0.6006 -0.1527  0.0970
 2121ntf    fn416686   0.630   0.445   3.534  0.4020 -0.6168 -0.0407
 2121ntf    fn416687   0.695   0.467   3.332  0.0628  0.2531  0.1412
 2121ntf    fn416688   0.803   0.552   3.498  0.2341 -0.4036 -0.6729
 2121ntf    on516689   0.472   0.610   3.340  0.1251 -0.1537 -0.0470
 2121ntf    on516690   0.558   0.727   3.546 -0.3226  0.1757 -0.2760
 2121ntf    on516691   0.808   0.967   3.307 -0.0752  0.2927 -0.4570
 2121ntf    on516692   0.566   0.985   3.315  0.0894  0.6925 -0.5343
 2121ntf    fn416693   0.566   0.833   3.056  0.3577  0.6522 -0.4854
 2121ntf    fn416694   0.667   1.019   3.051  0.1230 -0.2246 -0.0331
 2121ntf    fn416695   0.783   0.851   3.047  0.2449 -0.2750 -0.5239
 2122ntf    cn116696   5.545   4.726   6.226 -0.2521 -0.1422 -0.5869
 2122ntf    sn216697   5.453   4.846   6.124 -0.1830  0.4739  0.0686
 2122ntf    nn316698   5.571   4.903   6.037 -0.0621 -0.2330 -0.2404
 2122ntf    sn216699   5.580   4.945   5.887 -0.1962 -0.0233 -0.1905
 2122ntf    cn116700   5.592   5.126   5.903  0.0110 -0.0521 -0.0146
 2122ntf    fn416701   5.475   4.667   6.321  0.1625 -0.0658 -0.2301
 2122ntf    fn416702   5.595   4.628   6.152  0.3671 -0.0621 -0.2783
 2122ntf    fn416703   5.656   4.774   6.280 -0.6874 -0.1375  0.3152
 2122ntf    on516704   5.345   4.789   6.048  0.1561  0.3139 -0.2983
 2122ntf    on516705   5.411   4.946   6.218  0.3992  0.6058  0.1964
 2122ntf    on516706   5.463   4.909   5.811  0.3820 -0.4958 -0.8729
 2122ntf    on516707   5.705   4.911   5.823 -0.0065 -0.6909  0.5223
 2122ntf    fn416708   5.483   5.184   5.948  0.3257  0.0651  0.5978
 2122ntf    fn416709   5.679   5.173   5.991  0.0229 -0.1468  0.0245
 2122ntf    fn416710   5.613   5.181   5.784 -0.0594 -0.5752 -0.2746
 2123ntf    cn116711   1.778   6.498   2.346  0.1866 -0.0876 -0.3673
 2123ntf    sn216712   1.953   6.545   2.331  0.1089  0.2548 -0.2124
 2123ntf    nn316713   1.982   6.489   2.187 -0.0433 -0.5363  0.0618
 2123ntf    sn216714   2.077   6.543   2.075 -0.0387 -0.1921  0.2302
 2123ntf    cn116715   1.943   6.588   1.961  0.0840  0.0361  0.1754
 2123ntf    fn416716   1.706   6.550   2.247 -0.1773  0.1315  0.0077
 2123ntf    fn416717   1.760   6.367   2.336  0.6499 -0.1775 -0.0163
 2123ntf    fn416718   1.716   6.530   2.458 -0.1830  0.1551 -0.6387
 2123ntf    on516719   1.955   6.687   2.356 -0.3384  0.2375 -0.0692
 2123ntf    on516720   2.020   6.462   2.427  0.2701  0.2779 -0.3054
 2123ntf    on516721   2.149   6.437   2.008  0.5502  0.1711  0.2847
 2123ntf    on516722   2.144   6.667   2.105 -0.1206 -0.0448 -0.1845
 2123ntf    fn416723   1.995   6.625   1.845  0.3092 -0.5157  0.0971
 2123ntf    fn416724   1.856   6.490   1.938 -0.7203  0.8314 -0.2578
 2123ntf    fn416725   1.883   6.700   1.999 -0.0561  0.1349 -0.3298
 2124ntf    cn116726   3.036   5.369   1.528 -0.0042 -0.1220 -0.0216
 2124ntf    sn216727   3.140   5.398   1.674 -0.0233 -0.1960  0.0064
 2124ntf    nn316728   3.061   5.343   1.798 -0.4065  0.4074  0.0307
 2124ntf    sn216729   3.067   5.210   1.882 -0.1305  0.4203  0.0323
 2124ntf    cn116730   2.891   5.167   1.873 -0.0079 -0.1793  0.4588
 2124ntf    fn416731   2.920   5.433   1.523 -0.2676 -0.6213 -0.3791
 2124ntf    fn416732   3.113   5.410   1.428 -0.5154  0.5058 -0.1687
 2124ntf    fn416733   3.009   5.243   1.499  0.0376 -0.2423  0.4553
 2124ntf    on516734   3.257   5.322   1.636  0.3493  0.2127  0.3296
 2124ntf    on516735   3.151   5.541   1.676 -0.2521 -0.1820  0.4729
 2124ntf    on516736   3.090   5.227   2.023 -0.4219 -0.3818  0.1774
 2124ntf    on516737   3.136   5.101   1.817 -0.1546  0.5120 -0.1511
 2124ntf    fn416738   2.868   5.045   1.919  0.1680 -0.3258  0.1558
 2124ntf    fn416739   2.819   5.254   1.943 -0.5272 -0.1159 -0.1456
 2124ntf    fn416740   2.842   5.167   1.750 -0.8560 -0.2189  0.7880
 2125ntf    cn116741   2.207   4.646   5.528  0.2958  0.2181  0.1857
 2125ntf    sn216742   2.374   4.629   5.599  0.2334 -0.2488  0.2231
 2125ntf    nn316743   2.462   4.546   5.498 -0.1142 -0.0203 -0.2722
 2125ntf    sn216744   2.422   4.450   5.381  0.5215 -0.2328 -0.3139
 2125ntf    cn116745   2.579   4.453   5.288  0.4402  0.4420 -0.4340
 2125ntf    fn416746   2.132   4.538   5.524  0.5374  0.0555  0.0756
 2125ntf    fn416747   2.139   4.734   5.600 -0.1132 -0.0886  0.1716
 2125ntf    fn416748   2.212   4.697   5.406 -0.1243 -0.4420 -0.1088
 2125ntf    on516749   2.410   4.767   5.619  0.1113 -0.1586 -0.1670
 2125ntf    on516750   2.357   4.546   5.716 -0.2224 -0.1566  0.2238
 2125ntf    on516751   2.324   4.509   5.294  0.0366  0.1705  0.4929
 2125ntf    on516752   2.411   4.308   5.404 -0.3277 -0.0714  0.2883
 2125ntf    fn416753   2.577   4.380   5.178  0.9629 -0.1674 -0.0474
 2125ntf    fn416754   2.609   4.576   5.251 -0.2528  0.9668  0.7041
 2125ntf    fn416755   2.681   4.415   5.364  0.1315 -0.1994 -0.3306
 2126ntf    cn116756   6.251   3.254   3.169  0.2460  0.5440 -0.4835
 2126ntf    sn216757   6.414   3.316   3.222  0.2562  0.1854 -0.0903
 2126ntf    nn316758   6.485   3.178   3.245  0.1521  0.1072 -0.2357
 2126ntf    sn216759   6.600   3.128   3.339 -0.2835 -0.0782  0.2059
 2126ntf    cn116760   6.740   3.135   3.223 -0.1616 -0.2467  0.3426
 2126ntf    fn416761   6.160   3.345   3.142  0.0690  0.4143 -0.3305
 2126ntf    fn416762   6.264   3.182   3.059 -0.6738 -0.2660 -0.0819
 2126ntf    fn416763   6.203   3.165   3.255  0.1662  0.8680 -0.1933
 2126ntf    on516764   6.456   3.384   3.103 -0.2860 -0.2409 -0.5319
 2126ntf    on516765   6.383   3.391   3.342 -0.0082  0.0909 -0.0994
 2126ntf    on516766   6.589   2.991   3.382  0.3537 -0.2641 -0.2092
 2126ntf    on516767   6.626   3.236   3.432 -0.3988 -0.2519  0.4401
 2126ntf    fn416768   6.857   3.131   3.285  0.3351  0.5457 -0.5213
 2126ntf    fn416769   6.744   3.036   3.135 -0.5477  0.0897 -0.0571
 2126ntf    fn416770   6.731   3.248   3.156 -0.0770 -0.1399  0.5087
 2127ntf    cn116771   6.077   0.147   5.191 -0.1417  0.0026 -0.0672
 2127ntf    sn216772   5.977   0.050   5.307  0.1617 -0.2847 -0.0437
 2127ntf    nn316773   5.852   0.144   5.314  0.6131  0.3150  0.0765
 2127ntf    sn216774   5.817   0.267   5.405 -0.0323  0.1802  0.0173
 2127ntf    cn116775   5.695   0.194   5.518  0.2330  0.1823  0.3044
 2127ntf    fn416776   6.205   0.111   5.189 -0.1506 -0.0226 -0.2344
 2127ntf    fn416777   6.026   0.142   5.069  0.1905  0.0118 -0.2092
 2127ntf    fn416778   6.077   0.274   5.229 -0.2352 -0.2247  0.7009
 2127ntf    on516779   5.945  -0.059   5.218 -0.5212 -0.2259  0.1250
 2127ntf    on516780   6.058   0.039   5.426  0.0448  0.3749  0.0984
 2127ntf    on516781   5.731   0.356   5.331 -0.3519 -0.1789 -0.0480
 2127ntf    on516782   5.921   0.331   5.482  0.0717 -0.2994  0.2795
 2127ntf    fn416783   5.763   0.120   5.604 -0.1578 -0.1854  0.3013
 2127ntf    fn416784   5.625   0.283   5.587 -0.2684  0.1020 -0.0993
 2127ntf    fn416785   5.610   0.106   5.467  0.6912  0.2834 -0.6520
 2128ntf    cn116786   5.278   6.315   4.950 -0.2878 -0.1636  0.3886
 2128ntf    sn216787   5.247   6.399   4.791  0.1301  0.0854  0.4366
 2128ntf    nn316788   5.313   6.306   4.683  0.4634  0.5575  0.2275
 2128ntf    sn216789   5.338   6.353   4.536 -0.5105  0.1102 -0.0900
 2128ntf    cn116790   5.515   6.389   4.553 -0.5285  0.0406  0.2382
 2128ntf    fn416791   5.178   6.233   4.977 -0.6891  0.2943  0.3246
 2128ntf    fn416792   5.391   6.246   4.956 -0.4970 -0.5440 -0.0050
 2128ntf    fn416793   5.275   6.402   5.050 -0.2851  0.2597  0.0269
 2128ntf    on516794   5.104   6.394   4.783  0.1316  0.6031  0.0485
 2128ntf    on516795   5.311   6.527   4.814  0.3682  0.0899 -0.2423
 2128ntf    on516796   5.280   6.479   4.496 -0.8200  0.0683  0.2227
 2128ntf    on516797   5.341   6.244   4.441  0.6341  0.5036 -0.5210
 2128ntf    fn416798   5.577   6.392   4.436 -0.1147  0.0213  0.4534
 2128ntf    fn416799   5.544   6.506   4.609 -0.1517 -0.0448  0.2269
 2128ntf    fn416800   5.581   6.298   4.623 -0.3919 -0.3895 -0.4464
 2129ntf    cn116801   4.250   1.701   4.427  0.0341  0.0625  0.1915
 2129ntf    sn216802   4.319   1.533   4.431 -0.2547 -0.0595  0.1320
 2129ntf    nn316803   4.201   1.443   4.381  0.3359 -0.8211  0.0806
 2129ntf    sn216804   4.077   1.389   4.462 -0.0572  0.3446  0.2867
 2129ntf    cn116805   4.132   1.218   4.491  0.1095  0.1977 -0.8123
 2129ntf    fn416806   4.159   1.722   4.334 -0.1784 -0.3284  0.3054
 2129ntf    fn416807   4.201   1.744   4.542 -0.2022  0.2379  0.0252
 2129ntf    fn416808   4.345   1.789   4.402 -0.0896 -0.0069 -0.5321
 2129ntf    on516809   4.431   1.535   4.340 -0.3602 -0.1845 -0.0019
 2129ntf    on516810   4.348   1.522   4.572 -0.5962 -0.4142  0.1779
 2129ntf    on516811   3.971   1.370   4.367  0.3474  0.1107 -0.1278
 2129ntf    on516812   4.040   1.439   4.591  0.6453  1.3308  0.1179
 2129ntf    fn416813   4.257   1.210   4.532 -0.3292 -0.0312  0.5437
 2129ntf    fn416814   4.058   1.153   4.580  0.3795  0.3425 -0.4765
 2129ntf    fn416815   4.122   1.139   4.386 -0.0670 -0.0286 -0.6282
 2130ntf    cn116816   0.854   1.607   4.449  0.1001 -0.2465 -0.4251
 2130ntf    sn216817   0.957   1.485   4.537  0.0790  0.1968  0.2203
 2130ntf    nn316818   0.850   1.428   4.637  0.1091 -0.2524 -0.0004
 2130ntf    sn216819   0.863   1.402   4.791 -0.0997 -0.0197  0.0575
 2130ntf    cn116820   0.824   1.224   4.786  0.2086 -0.0839 -0.0804
 2130ntf    fn416821   0.926   1.669   4.357  0.1079  0.4682  0.0544
 2130ntf    fn416822   0.754   1.558   4.377 -0.1018 -0.0598 -0.2745
 2130ntf    fn416823   0.803   1.707   4.518  0.5875 -0.1541 -0.1934
 2130ntf    on516824   0.982   1.392   4.430 -0.0409  0.5495 -0.1170
 2130ntf    on516825   1.066   1.560   4.594  0.0833  0.2106  0.1939
 2130ntf    on516826   0.757   1.457   4.872 -0.0595  0.2323 -0.0629
 2130ntf    on516827   0.997   1.397   4.844 -0.0252  0.2863 -0.1029
 2130ntf    fn416828   0.805   1.182   4.910  0.0574  0.5554  0.1201
 2130ntf    fn416829   0.711   1.198   4.723  0.1534  0.2381 -0.1156
 2130ntf    fn416830   0.924   1.155   4.734 -0.1727 -0.5085 -0.2509
 2131ntf    cn116831   0.990   6.429   3.797 -0.1790  0.2316 -0.4317
 2131ntf    sn216832   1.088   6.448   3.645 -0.0117  0.1558 -0.3347
 2131ntf    nn316833   1.213   6.521   3.705 -0.2750 -0.0883  0.5338
 2131ntf    sn216834   1.320   6.628   3.662 -0.0862 -0.4008  0.2181
 2131ntf    cn116835   1.470   6.526   3.670  0.0988 -0.1737 -0.2742
 2131ntf    fn416836   0.938   6.543   3.838  0.1014  0.2076  0.0010
 2131ntf    fn416837   0.896   6.337   3.781  0.2269 -0.0691 -1.1265
 2131ntf    fn416838   1.066   6.387   3.898 -0.2526  0.4057 -0.3047
 2131ntf    on516839   1.115   6.314   3.601 -0.3177 -0.0824  0.1992
 2131ntf    on516840   0.991   6.523   3.568 -0.3723 -0.2372 -0.2677
 2131ntf    on516841   1.356   6.725   3.763  0.1072 -0.5733  0.3146
 2131ntf    on516842   1.325   6.668   3.523 -0.0834  0.3228  0.4234
 2131ntf    fn416843   1.473   6.413   3.602 -0.5026 -0.1541 -0.3327
 2131ntf    fn416844   1.585   6.589   3.651 -0.1320  0.2432 -0.2855
 2131ntf    fn416845   1.492   6.486   3.795 -0.4329 -0.6207 -0.3226
 2132ntf    cn116846   2.630   1.490   3.763 -0.0459  0.5133  0.0820
 2132ntf    sn216847   2.692   1.522   3.931  0.1217 -0.0525  0.1332
 2132ntf    nn316848   2.845   1.517   3.899  0.1500  0.4068  0.1951
 2132ntf    sn216849   2.948   1.400   3.880 -0.2771  0.0632 -0.0170
 2132ntf    cn116850   3.051   1.433   4.026 -0.2178  0.2844 -0.1074
 2132ntf    fn416851   2.675   1.585   3.683  0.0806  0.4213  0.0428
 2132ntf    fn416852   2.677   1.371   3.728 -0.3041  0.6017 -0.5933
 2132ntf    fn416853   2.498   1.483   3.759 -0.0079 -0.5729  0.3071
 2132ntf    on516854   2.646   1.657   3.953 -0.3979 -0.2181  0.0751
 2132ntf    on516855   2.633   1.417   4.010  0.2642  0.0526  0.3791
 2132ntf    on516856   3.052   1.423   3.782  0.0432  0.1647  0.3436
 2132ntf    on516857   2.905   1.264   3.898 -0.0042 -0.0578 -0.2642
 2132ntf    fn416858   2.972   1.472   4.126 -0.0930  0.2643 -0.0012
 2132ntf    fn416859   3.123   1.332   4.072 -0.1966  0.3912  0.0979
 2132ntf    fn416860   3.136   1.530   3.998  0.2570 -0.1001 -0.0051
 2133ntf    cn116861   1.068   5.898   5.424 -0.1235  0.1237 -0.0996
 2133ntf    sn216862   0.992   6.027   5.321  0.3564  0.1626 -0.4073
 2133ntf    nn316863   1.009   6.151   5.416  0.2459 -0.3289  0.2608
 2133ntf    sn216864   1.118   6.264   5.422 -0.1580  0.0862 -0.1851
 2133ntf    cn116865   1.145   6.295   5.599 -0.1363  0.2699 -0.2201
 2133ntf    fn416866   1.027   5.773   5.408 -0.1647  0.0759  0.3583
 2133ntf    fn416867   1.200   5.901   5.407 -0.0310 -0.2255  0.5002
 2133ntf    fn416868   1.048   5.913   5.554 -0.3711 -0.2552 -0.0925
 2133ntf    on516869   1.075   6.024   5.203 -0.6007 -0.5557 -1.0711
 2133ntf    on516870   0.854   5.992   5.302  0.1845  0.0672  0.9547
 2133ntf    on516871   1.068   6.390   5.373 -1.1347 -0.2538 -0.1033
 2133ntf    on516872   1.252   6.236   5.377 -0.1009  0.1471 -0.0511
 2133ntf    fn416873   1.032   6.302   5.668 -0.3661  0.2829 -0.5955
 2133ntf    fn416874   1.215   6.201   5.661 -0.6418 -0.3811 -0.6199
 2133ntf    fn416875   1.213   6.407   5.618 -0.0383  0.0282  0.8794
 2134ntf    cn116876   4.357   6.340   2.686  0.2173 -0.0718 -0.0634
 2134ntf    sn216877   4.205   6.253   2.636  0.1511 -0.0463  0.0920
 2134ntf    nn316878   4.267   6.109   2.619  0.4587  0.0238  0.5987
 2134ntf    sn216879   4.197   5.970   2.603 -0.2168  0.4461 -0.1548
 2134ntf    cn116880   4.318   5.862   2.685 -0.2088  0.4785 -0.1237
 2134ntf    fn416881   4.338   6.447   2.762 -0.0539  0.0196 -0.2568
 2134ntf    fn416882   4.446   6.270   2.754  0.2828  0.0134 -0.0608
 2134ntf    fn416883   4.425   6.382   2.581  0.1343  0.8859  0.2565
 2134ntf    on516884   4.111   6.273   2.743  0.1714 -0.1184  0.1235
 2134ntf    on516885   4.170   6.320   2.513 -0.3264 -0.1340  0.1814
 2134ntf    on516886   4.201   5.926   2.465  0.0688  0.8408 -0.2741
 2134ntf    on516887   4.081   5.949   2.687  0.0906  0.2826  0.2312
 2134ntf    fn416888   4.360   5.893   2.807 -0.0061  0.0844 -0.0920
 2134ntf    fn416889   4.274   5.738   2.698  0.2618  0.3568  0.3481
 2134ntf    fn416890   4.429   5.860   2.613 -0.3259  0.0086 -0.2954
 2135ntf    cn116891   2.053   1.448   2.506  0.0810 -0.1766 -0.4006
 2135ntf    sn216892   1.872   1.457   2.486  0.0578 -0.0915 -0.1533
 2135ntf    nn316893   1.871   1.498   2.335  0.1071  0.5865  0.0265
 2135ntf    sn216894   1.763   1.584   2.260 -0.3612 -0.1059 -0.0963
 2135ntf    cn116895   1.853   1.739   2.233 -0.3856 -0.1495 -0.4395
 2135ntf    fn416896   2.092   1.455   2.632 -0.2882  0.1741 -0.3021
 2135ntf    fn416897   2.117   1.347   2.450 -0.1297 -0.3151 -0.3944
 2135ntf    fn416898   2.099   1.560   2.454 -0.5715  0.2201 -0.1416
 2135ntf    on516899   1.823   1.323   2.506 -0.8740  0.2918  0.2049
 2135ntf    on516900   1.845   1.557   2.587  0.2252  0.3368 -0.5301
 2135ntf    on516901   1.652   1.625   2.343 -0.2975  0.0197 -0.0735
 2135ntf    on516902   1.726   1.532   2.130  0.3362 -0.0590 -0.3180
 2135ntf    fn416903   1.887   1.781   2.354  0.5122  0.0781 -0.7630
 2135ntf    fn416904   1.960   1.705   2.164  0.0740  0.0569  0.1601
 2135ntf    fn416905   1.791   1.840   2.173  0.5712  0.5775 -0.2297
 2136ntf    cn116906   4.619   0.247   4.770 -0.3822  0.0813 -0.1537
 2136ntf    sn216907   4.695   0.354   4.895 -0.0859  0.0594 -0.3132
 2136ntf    nn316908   4.765   0.452   4.794  0.2514  0.4053  0.2512
 2136ntf    sn216909   4.742   0.602   4.755 -0.4115  0.3121  0.2700
 2136ntf    cn116910   4.606   0.592   4.636 -0.2004 -0.0126  0.0549
 2136ntf    fn416911   4.713   0.209   4.685 -0.4638 -0.7297  0.1099
 2136ntf    fn416912   4.567   0.135   4.818  0.1403  0.0367  0.3119
 2136ntf    fn416913   4.526   0.307   4.698 -0.4716  0.2645  0.1176
 2136ntf    on516914   4.588   0.407   4.976  0.1373 -0.3712  0.2767
 2136ntf    on516915   4.789   0.263   4.957 -0.3961  0.3602  0.6144
 2136ntf    on516916   4.847   0.660   4.675 -0.2201 -0.1979  0.1457
 2136ntf    on516917   4.700   0.686   4.865  0.3657  0.4655  0.4569
 2136ntf    fn416918   4.489   0.557   4.687 -0.0768 -0.0305  0.3259
 2136ntf    fn416919   4.588   0.703   4.566 -0.3458 -0.2278 -0.2525
 2136ntf    fn416920   4.635   0.498   4.547 -0.2883  0.1986 -0.1979
 2137ntf    cn116921   2.944   6.827   4.727  0.1233  0.4603 -0.0803
 2137ntf    sn216922   2.811   6.906   4.631 -0.2631  0.0386  0.0999
 2137ntf    nn316923   2.704   6.793   4.614  0.1118 -0.3230  0.1279
 2137ntf    sn216924   2.658   6.712   4.488 -0.0673 -0.1538  0.0837
 2137ntf    cn116925   2.630   6.546   4.556 -0.0492 -0.0769  0.2781
 2137ntf    fn416926   3.043   6.909   4.755  0.1821  0.2752  0.2569
 2137ntf    fn416927   2.904   6.772   4.840  0.6108 -0.1531 -0.1963
 2137ntf    fn416928   3.000   6.733   4.653 -0.2947 -0.3504  0.6137
 2137ntf    on516929   2.765   7.005   4.726 -0.3074  0.6971 -0.5992
 2137ntf    on516930   2.869   6.959   4.510  0.2035 -0.2389  0.1980
 2137ntf    on516931   2.761   6.669   4.397  0.4131  0.5332  0.2979
 2137ntf    on516932   2.532   6.756   4.434  0.3944  0.5335 -0.4587
 2137ntf    fn416933   2.597   6.459   4.462 -0.1894 -0.0286  0.2817
 2137ntf    fn416934   2.730   6.494   4.625 -0.1958 -0.6183  0.0897
 2137ntf    fn416935   2.519   6.548   4.629 -0.1240 -0.1232  0.1660
 2138ntf    cn116936   1.205   1.268   5.657  0.1301 -0.1355  0.2593
 2138ntf    sn216937   1.349   1.228   5.553 -0.1218 -0.2302 -0.0516
 2138ntf    nn316938   1.386   1.080   5.587  0.1239 -0.0983  0.2565
 2138ntf    sn216939   1.422   0.966   5.485  0.0781 -0.1628  0.3123
 2138ntf    cn116940   1.538   0.868   5.586  0.3073 -0.2965 -0.0810
 2138ntf    fn416941   1.151   1.388   5.646  1.0004  0.2005 -0.4277
 2138ntf    fn416942   1.105   1.182   5.653 -0.1035  0.0922  0.9717
 2138ntf    fn416943   1.239   1.251   5.784 -0.8644 -0.1241  0.5301
 2138ntf    on516944   1.298   1.254   5.420  0.0158 -0.4576 -0.1480
 2138ntf    on516945   1.452   1.317   5.599 -0.5225 -0.0404  0.4933
 2138ntf    on516946   1.503   0.982   5.367  0.6654  0.6223  0.8115
 2138ntf    on516947   1.308   0.878   5.473  0.1585 -0.2015 -0.1517
 2138ntf    fn416948   1.480   0.810   5.690  0.3266 -0.0275  0.0794
 2138ntf    fn416949   1.606   0.774   5.522  0.4252 -0.0796 -0.2754
 2138ntf    fn416950   1.633   0.950   5.629  0.6641 -0.6521 -0.1855
 2139ntf    cn116951   2.914   5.501   3.843 -0.0225  0.1410 -0.0390
 2139ntf    sn216952   3.081   5.475   3.910  0.1000  0.2670 -0.2931
 2139ntf    nn316953   3.127   5.351   3.827 -0.1024 -0.0390  0.0482
 2139ntf    sn216954   3.196   5.351   3.685  0.3005 -0.1143  0.2413
 2139ntf    cn116955   3.129   5.201   3.607  0.0272  0.0893  0.0817
 2139ntf    fn416956   2.865   5.622   3.865  0.4309  0.2056  0.6299
 2139ntf    fn416957   2.911   5.485   3.711 -0.8897  0.9725 -0.1341
 2139ntf    fn416958   2.831   5.409   3.889  0.0075  0.2923  0.3224
 2139ntf    on516959   3.155   5.597   3.890 -0.4233  0.6421  0.0123
 2139ntf    on516960   3.059   5.428   4.044 -0.1491 -0.0971 -0.4611
 2139ntf    on516961   3.336   5.320   3.695  0.3416 -0.2904 -0.7775
 2139ntf    on516962   3.169   5.468   3.605  0.0626 -0.5953 -0.3889
 2139ntf    fn416963   2.999   5.195   3.634  0.1065  0.2164  0.5124
 2139ntf    fn416964   3.143   5.206   3.476 -0.1057 -0.2723  0.0523
 2139ntf    fn416965   3.170   5.081   3.646  0.1319  0.1810  0.2588
 2140ntf    cn116966   1.226   5.360   1.061 -0.4250  0.1651 -0.2262
 2140ntf    sn216967   1.117   5.247   1.151 -0.1315  0.2271  0.2091
 2140ntf    nn316968   1.125   5.126   1.052 -0.2177 -0.0949  0.5893
 2140ntf    sn216969   1.222   5.003   1.053 -0.2356 -0.1183 -0.0748
 2140ntf    cn116970   1.288   5.010   0.883 -0.2350 -0.2475 -0.0797
 2140ntf    fn416971   1.339   5.308   1.017  0.0250  0.7456  0.2314
 2140ntf    fn416972   1.168   5.411   0.953  0.1067 -0.0414 -0.6158
 2140ntf    fn416973   1.264   5.465   1.133 -0.0695  0.1476 -0.3837
 2140ntf    on516974   1.188   5.236   1.276  0.5427  0.8471 -0.1183
 2140ntf    on516975   0.986   5.307   1.158  0.1398  0.8354  0.0815
 2140ntf    on516976   1.165   4.871   1.049 -0.5650  0.0234 -0.0748
 2140ntf    on516977   1.345   5.014   1.127 -0.1284 -0.4845 -0.1953
 2140ntf    fn416978   1.365   5.118   0.885 -0.2837 -0.2126 -0.1107
 2140ntf    fn416979   1.363   4.904   0.856  0.1290  0.0303 -0.1628
 2140ntf    fn416980   1.191   5.023   0.794 -0.1335 -0.1882 -0.1813
 2141ntf    cn116981   6.194   4.636   3.071  0.3493  0.4927 -0.2608
 2141ntf    sn216982   6.321   4.535   3.155  0.1985  0.2643 -0.3075
 2141ntf    nn316983   6.386   4.464   3.031  0.4919 -0.0018 -0.0003
 2141ntf    sn216984   6.351   4.319   2.982  0.2965  0.0093  0.1053
 2141ntf    cn116985   6.461   4.217   3.085  0.0668  0.0119  0.3562
 2141ntf    fn416986   6.087   4.571   3.028  0.1857  0.6071 -0.0303
 2141ntf    fn416987   6.134   4.731   3.142 -0.3129 -0.4209  0.4260
 2141ntf    fn416988   6.248   4.703   2.971  0.0129  0.7158 -0.2921
 2141ntf    on516989   6.401   4.641   3.211 -0.2234  0.1218  0.5860
 2141ntf    on516990   6.244   4.454   3.246  0.1016 -0.2037 -0.7976
 2141ntf    on516991   6.391   4.298   2.845  0.3649  0.1947  0.0963
 2141ntf    on516992   6.216   4.276   3.008  0.2957 -0.5239 -0.7689
 2141ntf    fn416993   6.444   4.090   3.051 -0.2887  0.1682 -0.0596
 2141ntf    fn416994   6.587   4.253   3.064  0.0355  0.2045  0.5063
 2141ntf    fn416995   6.444   4.223   3.216  0.7329  0.3334  0.4317
 2142ntf    cn116996   1.277   5.248   6.810 -0.0952  0.0748 -0.0235
 2142ntf    sn216997   1.455   5.266   6.778 -0.0530  0.1553  0.2529
 2142ntf    nn316998   1.509   5.128   6.725  0.0019  0.3566 -0.2194
 2142ntf    sn216999   1.477   5.062   6.586 -0.1735  0.5726 -0.2833
 2142ntf    cn117000   1.633   5.099   6.500  0.1596  0.0070  0.0702
 2142ntf    fn417001   1.237   5.359   6.871  0.1445 -0.0133  0.2978
 2142ntf    fn417002   1.209   5.241   6.697 -0.1024  0.2412 -0.0295
 2142ntf    fn417003   1.244   5.141   6.880 -0.0378 -0.0284 -0.1535
 2142ntf    on517004   1.469   5.374   6.683  0.2990 -0.1884 -0.0918
 2142ntf    on517005   1.515   5.285   6.907 -0.3313 -0.7148  0.5156
 2142ntf    on517006   1.373   5.115   6.501 -1.1144  0.7572  0.9639
 2142ntf    on517007   1.481   4.919   6.600  0.1045  0.6070  0.0095
 2142ntf    fn417008   1.740   5.046   6.556  0.2584  0.0572 -0.0687
 2142ntf    fn417009   1.642   5.058   6.374  0.1452  0.2960 -0.0248
 2142ntf    fn417010   1.663   5.228   6.499 -0.0546  0.0579 -0.3760
 2143ntf    cn117011   1.639   5.307   1.608  0.1211 -0.7269 -0.2640
 2143ntf    sn217012   1.573   5.300   1.777 -0.0920 -0.0429 -0.3131
 2143ntf    nn317013   1.487   5.168   1.775  0.3320 -0.3213 -0.3298
 2143ntf    sn217014   1.516   5.038   1.857  0.1153 -0.1845 -0.0394
 2143ntf    cn117015   1.457   5.092   2.021 -0.2244  0.1495 -0.2706
 2143ntf    fn417016   1.754   5.372   1.599 -0.2769  0.0192 -0.0761
 2143ntf    fn417017   1.664   5.185   1.565  0.0033 -0.7357 -0.3098
 2143ntf    fn417018   1.553   5.355   1.519  0.4830 -0.2503 -0.3601
 2143ntf    on517019   1.695   5.301   1.854  0.1278  0.2304 -0.6615
 2143ntf    on517020   1.487   5.415   1.787 -0.0050  0.0326 -0.4260
 2143ntf    on517021   1.655   5.005   1.876  0.3706  0.8234 -0.1119
 2143ntf    on517022   1.422   4.934   1.824 -0.5898  0.3758  0.1713
 2143ntf    fn417023   1.414   4.986   2.087 -0.0058  0.2296  0.0006
 2143ntf    fn417024   1.558   5.151   2.083 -0.0136 -0.8265  0.3263
 2143ntf    fn417025   1.356   5.175   1.999 -0.0562  0.3759 -0.1967
 2144ntf    cn117026   6.477   3.736   5.430  0.0556 -0.1261  0.1859
 2144ntf    sn217027   6.505   3.870   5.310  0.1228 -0.0681  0.2662
 2144ntf    nn317028   6.526   3.783   5.181 -0.6594  0.3569 -0.1548
 2144ntf    sn217029   6.568   3.827   5.036 -0.2949 -0.2944 -0.2522
 2144ntf    cn117030   6.430   3.758   4.940 -0.8071 -0.1077  0.3461
 2144ntf    fn417031   6.572   3.644   5.429  0.1688 -0.0089  0.1503
 2144ntf    fn417032   6.470   3.790   5.551 -0.6873  0.1885  0.0056
 2144ntf    fn417033   6.365   3.668   5.414 -0.2496  0.4182  0.0075
 2144ntf    on517034   6.379   3.940   5.305  0.2372  0.1030 -0.3075
 2144ntf    on517035   6.618   3.938   5.368  0.3842 -0.2101 -0.0716
 2144ntf    on517036   6.682   3.754   4.986 -0.3791 -0.3195 -0.4093
 2144ntf    on517037   6.550   3.968   5.007 -0.1270 -0.1959  0.1142
 2144ntf    fn417038   6.447   3.752   4.809  0.3943  0.8787  0.4373
 2144ntf    fn417039   6.401   3.635   4.979 -0.0743 -0.4965 -0.3172
 2144ntf    fn417040   6.316   3.822   4.962 -0.4818  0.4597  0.3956
 2145ntf    cn117041   6.068   0.968   0.573 -0.0538  0.0327 -0.1375
 2145ntf    sn217042   5.947   1.050   0.681  0.2850 -0.0399  0.3009
 2145ntf    nn317043   6.003   1.197   0.673  0.7226 -0.2126  0.1907
 2145ntf    sn217044   5.988   1.316   0.774 -0.1116 -0.0529 -0.1150
 2145ntf    cn117045   6.095   1.431   0.681  0.1870 -0.0628  0.2134
 2145ntf    fn417046   6.014   0.859   0.521 -0.6819  0.1655  0.2200
 2145ntf    fn417047   6.097   1.040   0.466  0.0594  0.1025 -0.0595
 2145ntf    fn417048   6.178   0.943   0.642 -0.1353 -0.4508 -0.1823
 2145ntf    on517049   5.822   1.027   0.613  0.2034  0.3785  0.3073
 2145ntf    on517050   5.970   0.986   0.808 -0.1045 -0.1816  0.3001
 2145ntf    on517051   6.060   1.290   0.896  0.4781  0.0079 -0.4452
 2145ntf    on517052   5.867   1.395   0.777  0.1379  0.3256  0.0636
 2145ntf    fn417053   6.226   1.414   0.692  0.1333 -0.5113  0.1814
 2145ntf    fn417054   6.069   1.438   0.551  0.2214  0.4796  0.2356
 2145ntf    fn417055   6.065   1.553   0.720  0.7256  0.0896  0.1535
 2146ntf    cn117056   5.513   2.507   0.643 -0.3716  0.4287 -0.1891
 2146ntf    sn217057   5.498   2.661   0.738  0.0749  0.1572  0.3301
 2146ntf    nn317058   5.578   2.769   0.656 -0.2329  0.1043 -0.0407
 2146ntf    sn217059   5.730   2.805   0.643 -0.2070 -0.0395 -0.1500
 2146ntf    cn117060   5.749   2.946   0.756 -0.2744  0.1364 -0.3575
 2146ntf    fn417061   5.504   2.529   0.512 -0.1810  0.3878 -0.2096
 2146ntf    fn417062   5.631   2.451   0.667 -0.4451  0.0512 -0.6868
 2146ntf    fn417063   5.425   2.414   0.677  0.6711 -0.6200 -0.2832
 2146ntf    on517064   5.356   2.666   0.714  0.0785  0.5410  0.3825
 2146ntf    on517065   5.556   2.622   0.864  0.3686  0.4493  0.2883
 2146ntf    on517066   5.770   2.863   0.518 -0.0728 -0.2709 -0.2144
 2146ntf    on517067   5.824   2.704   0.683 -0.3549 -0.2621 -0.3610
 2146ntf    fn417068   5.652   2.957   0.846 -0.3466 -0.2854 -0.3827
 2146ntf    fn417069   5.859   2.945   0.829 -0.5270 -0.1787  0.0289
 2146ntf    fn417070   5.748   3.063   0.694  0.0494  0.0392 -0.5430
 2147ntf    cn117071   1.328   4.249   6.623  0.1242 -0.0765  0.0210
 2147ntf    sn217072   1.508   4.238   6.651  0.1769  0.0750 -0.2568
 2147ntf    nn317073   1.554   4.309   6.519  0.2194  0.1923 -0.1796
 2147ntf    sn217074   1.621   4.243   6.393 -0.0408 -0.2488 -0.0882
 2147ntf    cn117075   1.799   4.263   6.423  0.0389  0.0324 -0.7257
 2147ntf    fn417076   1.262   4.187   6.719 -0.0045  0.0260 -0.0012
 2147ntf    fn417077   1.302   4.378   6.637  0.3992 -0.0540  0.3594
 2147ntf    fn417078   1.289   4.197   6.509 -0.0997 -0.1342  0.1240
 2147ntf    on517079   1.527   4.322   6.767 -0.7547 -0.0734  0.0180
 2147ntf    on517080   1.528   4.097   6.666 -0.2456  0.0587  0.2001
 2147ntf    on517081   1.621   4.319   6.270  0.0152 -0.0333  0.0454
 2147ntf    on517082   1.600   4.101   6.379 -0.3722 -0.2186  0.0918
 2147ntf    fn417083   1.878   4.198   6.339  0.3101 -0.5969  0.0095
 2147ntf    fn417084   1.833   4.391   6.414 -0.1390  0.1579  0.2397
 2147ntf    fn417085   1.823   4.227   6.548 -0.9309  0.2444 -0.4689
 2148ntf    cn117086   6.294   0.688   3.339 -0.0902 -0.1616  0.3582
 2148ntf    sn217087   6.440   0.587   3.378 -0.0455 -0.0461  0.4891
 2148ntf    nn317088   6.557   0.680   3.329  0.1092 -0.3612  0.2599
 2148ntf    sn217089   6.673   0.630   3.236 -0.0484 -0.5641  0.1696
 2148ntf    cn117090   6.788   0.545   3.349  0.0293 -0.2521  0.3262
 2148ntf    fn417091   6.240   0.678   3.218  0.2550 -0.2298  0.2096
 2148ntf    fn417092   6.202   0.658   3.430  0.0753 -0.8726  0.2947
 2148ntf    fn417093   6.321   0.815   3.364 -0.7348  0.1321 -0.4080
 2148ntf    on517094   6.435   0.574   3.521 -0.6374 -0.3014  0.4503
 2148ntf    on517095   6.405   0.468   3.304  0.4467  0.1661 -0.0916
 2148ntf    on517096   6.753   0.738   3.183 -0.0955  0.0231  1.2649
 2148ntf    on517097   6.636   0.525   3.145 -0.2228 -0.4570  0.1175
 2148ntf    fn417098   6.836   0.630   3.438  0.0046  0.2591 -0.1451
 2148ntf    fn417099   6.734   0.442   3.413 -0.6496  0.0093  0.1845
 2148ntf    fn417100   6.895   0.506   3.283  0.1584  0.0776  0.3404
 2149ntf    cn117101   1.180   5.325   2.530 -0.0273 -0.6174 -0.3401
 2149ntf    sn217102   1.168   5.188   2.649  0.2996 -0.2699  0.0954
 2149ntf    nn317103   1.173   5.265   2.786  0.0977  0.0518 -0.0777
 2149ntf    sn217104   1.053   5.311   2.876  0.0150  0.2891 -0.3057
 2149ntf    cn117105   1.008   5.161   2.969 -0.2890  0.2187 -0.5652
 2149ntf    fn417106   1.087   5.419   2.529  0.3701 -0.2097  0.3825
 2149ntf    fn417107   1.294   5.393   2.532 -0.1653 -0.3837 -0.3716
 2149ntf    fn417108   1.168   5.277   2.408  0.0323 -0.4159 -0.4264
 2149ntf    on517109   1.042   5.126   2.617  0.5048 -0.1019 -1.0873
 2149ntf    on517110   1.288   5.111   2.629  0.2835 -0.2898  0.0745
 2149ntf    on517111   0.932   5.347   2.806  0.0454 -0.5337 -0.8001
 2149ntf    on517112   1.095   5.399   2.982  0.1272  0.7312 -0.7140
 2149ntf    fn417113   0.991   5.057   2.888 -0.6388  0.2454 -0.5301
 2149ntf    fn417114   1.107   5.125   3.048 -0.3300  0.6024 -0.3388
 2149ntf    fn417115   0.904   5.179   3.049 -0.2351  0.2898 -0.5106
 2150ntf    cn117116   4.817   2.324   4.716 -0.0120 -0.4415  0.0427
 2150ntf    sn217117   4.739   2.283   4.557 -0.2770 -0.3997  0.1621
 2150ntf    nn317118   4.604   2.361   4.578  0.0091  0.1554 -0.0409
 2150ntf    sn217119   4.458   2.318   4.613 -0.1078  0.2674 -0.3862
 2150ntf    cn117120   4.421   2.457   4.725  0.5808  0.1988 -0.0714
 2150ntf    fn417121   4.838   2.454   4.730  0.7935 -0.5146 -0.4203
 2150ntf    fn417122   4.746   2.278   4.817 -0.1745 -0.4333 -0.0692
 2150ntf    fn417123   4.938   2.271   4.724  0.1599 -0.0874 -0.1792
 2150ntf    on517124   4.824   2.359   4.467  0.4007  0.1086  1.2138
 2150ntf    on517125   4.735   2.139   4.559 -0.6736 -0.3925  0.0296
 2150ntf    on517126   4.442   2.206   4.703  0.3332  0.2243 -0.3602
 2150ntf    on517127   4.367   2.333   4.502 -0.3132 -0.0336 -0.2611
 2150ntf    fn417128   4.435   2.573   4.662 -0.0789  0.4763  0.2884
 2150ntf    fn417129   4.294   2.457   4.760  0.6055  0.4395  0.0170
 2150ntf    fn417130   4.486   2.473   4.839 -0.5733  0.0653  0.6193
 2151ntf    cn117131   1.600   6.670   0.485  0.1133  0.1362  0.1037
 2151ntf    sn217132   1.596   6.772   0.635 -0.0604  0.3400 -0.0398
 2151ntf    nn317133   1.748   6.811   0.637 -0.0202  0.1721  0.1535
 2151ntf    sn217134   1.872   6.755   0.716  0.1645  0.0049 -0.2521
 2151ntf    cn117135   1.865   6.859   0.865  0.1322 -0.1140 -0.1714
 2151ntf    fn417136   1.619   6.738   0.373 -0.4358 -0.3472 -0.2907
 2151ntf    fn417137   1.693   6.576   0.491  0.2334  0.2781  0.5386
 2151ntf    fn417138   1.484   6.611   0.463  0.1614  0.2039 -0.3297
 2151ntf    on517139   1.509   6.878   0.589 -0.0757  0.3438 -0.0030
 2151ntf    on517140   1.552   6.688   0.744 -0.2167  0.1116 -0.2771
 2151ntf    on517141   1.998   6.792   0.657  0.0809  0.1620 -0.3324
 2151ntf    on517142   1.848   6.624   0.772 -0.7087  0.0852 -0.4197
 2151ntf    fn417143   1.859   6.988   0.838  0.5072 -0.1012 -0.1959
 2151ntf    fn417144   1.752   6.831   0.929  0.3544  0.2089  0.3736
 2151ntf    fn417145   1.965   6.832   0.947 -0.1943 -0.5916  0.0782
 2152ntf    cn117146   0.125   0.083   2.898  0.2590 -0.0554  0.3706
 2152ntf    sn217147  -0.039   0.008   2.922  0.1907 -0.0138  0.0394
 2152ntf    nn317148  -0.048   0.008   3.079  0.2055 -0.7912  0.0448
 2152ntf    sn217149  -0.135   0.088   3.182  0.2025 -0.4408 -0.2277
 2152ntf    cn117150  -0.003   0.122   3.301 -0.0720  0.1944 -0.1001
 2152ntf    fn417151   0.215   0.054   2.990  0.4172 -0.6316  0.0364
 2152ntf    fn417152   0.186   0.041   2.788  0.1746  0.1254  0.2551
 2152ntf    fn417153   0.120   0.215   2.886  0.2272 -0.1463 -0.6890
 2152ntf    on517154  -0.132   0.090   2.849  0.0020 -0.1594  0.1156
 2152ntf    on517155  -0.014  -0.127   2.879  0.1703 -0.0037 -0.0030
 2152ntf    on517156  -0.238   0.010   3.246 -0.4356 -0.2471 -0.9938
 2152ntf    on517157  -0.186   0.218   3.144  0.8812 -0.0751  0.0930
 2152ntf    fn417158   0.097   0.184   3.240 -0.1075 -0.2201 -0.5862
 2152ntf    fn417159  -0.042   0.201   3.400  0.3311  0.5060 -0.1840
 2152ntf    fn417160   0.057   0.014   3.349 -0.2948 -0.0773 -0.4329
 2153ntf    cn117161   4.352   2.176   0.401  0.0886  0.1426  0.0403
 2153ntf    sn217162   4.263   2.082   0.273 -0.0644  0.1402  0.1480
 2153ntf    nn317163   4.389   2.008   0.217 -0.0327 -0.1353  0.5789
 2153ntf    sn217164   4.402   1.857   0.176  0.0347 -0.0417  0.2474
 2153ntf    cn117165   4.478   1.784   0.324 -0.1088 -0.1381  0.2736
 2153ntf    fn417166   4.450   2.256   0.365  0.4929 -0.0576  0.6898
 2153ntf    fn417167   4.272   2.248   0.478 -0.1257  0.2899 -0.3169
 2153ntf    fn417168   4.413   2.089   0.480  0.0662 -0.1047 -0.2112
 2153ntf    on517169   4.167   1.999   0.341 -0.6546  0.4810 -0.2533
 2153ntf    on517170   4.217   2.189   0.187  0.2008  0.0783 -0.0713
 2153ntf    on517171   4.501   1.839   0.073 -0.2536  0.3312 -0.0969
 2153ntf    on517172   4.278   1.785   0.156  0.0698  0.1172 -0.5769
 2153ntf    fn417173   4.485   1.651   0.325  0.1016 -0.1274  0.1562
 2153ntf    fn417174   4.596   1.837   0.349 -0.2893  0.5369 -0.2919
 2153ntf    fn417175   4.404   1.800   0.433 -0.6511 -0.4388 -0.0481
 2154ntf    cn117176   1.485   4.572   2.137  0.1133 -0.1560 -0.2796
 2154ntf    sn217177   1.434   4.455   2.267 -0.0985  0.1592 -0.0781
 2154ntf    nn317178   1.406   4.323   2.186  0.2106  0.3669 -0.5336
 2154ntf    sn217179   1.516   4.212   2.171 -0.2336 -0.1841  0.2149
 2154ntf    cn117180   1.469   4.123   2.020 -0.4072 -0.1831  0.2673
 2154ntf    fn417181   1.599   4.530   2.085 -0.0755  0.0812 -0.8913
 2154ntf    fn417182   1.401   4.585   2.036 -0.0002  0.3058 -0.1276
 2154ntf    fn417183   1.501   4.697   2.177  0.1098 -0.2550  0.0307
 2154ntf    on517184   1.548   4.455   2.356  0.0053 -0.0344 -0.2110
 2154ntf    on517185   1.310   4.511   2.313 -0.3565 -0.2261 -0.3011
 2154ntf    on517186   1.511   4.105   2.268  0.3811  0.0686  0.5332
 2154ntf    on517187   1.650   4.255   2.139 -0.4701 -0.0809 -0.6675
 2154ntf    fn417188   1.488   4.194   1.910  0.1138 -0.5719  0.1018
 2154ntf    fn417189   1.529   4.006   2.006 -0.0399  0.0686 -0.3331
 2154ntf    fn417190   1.342   4.089   2.030 -0.3380 -0.3825  0.4844
 2155ntf    cn117191   4.694   2.300   5.315 -0.2754  0.1756  0.1761
 2155ntf    sn217192   4.553   2.383   5.235  0.0693  0.3682 -0.2364
 2155ntf    nn317193   4.468   2.413   5.364  0.7854 -0.3582  0.4177
 2155ntf    sn217194   4.347   2.335   5.427  0.3771 -0.0041  0.0825
 2155ntf    cn117195   4.404   2.284   5.592  0.3650  0.0688  0.1089
 2155ntf    fn417196   4.661   2.189   5.379  0.3343  0.0280  0.2390
 2155ntf    fn417197   4.784   2.269   5.224 -0.3336  0.6862 -0.0610
 2155ntf    fn417198   4.741   2.386   5.404 -0.3678  0.2738  0.1312
 2155ntf    on517199   4.602   2.506   5.178 -0.0316  0.4565 -0.1330
 2155ntf    on517200   4.507   2.288   5.137  0.5818  0.1345 -0.2547
 2155ntf    on517201   4.319   2.205   5.371  0.5878  0.2323 -0.5867
 2155ntf    on517202   4.240   2.428   5.452  0.5426  0.2459 -0.1379
 2155ntf    fn417203   4.470   2.170   5.600  0.0647 -0.0529  0.9916
 2155ntf    fn417204   4.494   2.369   5.640  0.8346 -0.1198 -0.4239
 2155ntf    fn417205   4.315   2.289   5.689 -0.2112  0.0931 -0.4177
 2156ntf    cn117206   2.966   1.717   5.859  0.1448 -0.1053  0.3197
 2156ntf    sn217207   3.000   1.540   5.888 -0.1982 -0.2576 -0.1965
 2156ntf    nn317208   3.010   1.494   5.738 -0.3155 -0.1031 -0.2529
 2156ntf    sn217209   2.955   1.357   5.685 -0.1328 -0.2482 -0.0719
 2156ntf    cn117210   3.090   1.351   5.564  0.0424 -0.2673  0.1243
 2156ntf    fn417211   2.845   1.733   5.810 -0.0326  0.0070  0.7864
 2156ntf    fn417212   2.977   1.787   5.971 -0.4199  0.7137 -0.1311
 2156ntf    fn417213   3.054   1.768   5.774  0.0047 -0.4423 -0.0278
 2156ntf    on517214   3.127   1.550   5.955 -0.3888  0.0264  0.1295
 2156ntf    on517215   2.881   1.497   5.958 -0.3039  0.0328 -0.1948
 2156ntf    on517216   2.843   1.379   5.597 -0.2392  0.1546  0.1579
 2156ntf    on517217   2.975   1.236   5.762  0.6171  0.0701  0.2415
 2156ntf    fn417218   3.095   1.462   5.492  0.3036  0.0598  0.6371
 2156ntf    fn417219   3.209   1.337   5.621  0.0886 -0.0813  0.0747
 2156ntf    fn417220   3.083   1.251   5.478 -0.0580  0.1520 -0.3638
 2157ntf    cn117221   3.403   3.314   2.937  0.0739 -0.0734 -0.1213
 2157ntf    sn217222   3.339   3.466   2.862  0.0108 -0.2124 -0.3494
 2157ntf    nn317223   3.251   3.399   2.751 -0.0349 -0.6478 -0.0548
 2157ntf    sn217224   3.286   3.375   2.600 -0.2458  0.0641 -0.2231
 2157ntf    cn117225   3.259   3.538   2.523 -0.1951  0.2283  0.1082
 2157ntf    fn417226   3.467   3.242   2.846 -0.7621 -0.2675 -0.5627
 2157ntf    fn417227   3.480   3.337   3.043  0.1012  0.1593 -0.1921
 2157ntf    fn417228   3.296   3.254   2.985 -0.3039  0.2464 -0.5625
 2157ntf    on517229   3.260   3.537   2.960  0.4955 -0.3481  0.1456
 2157ntf    on517230   3.464   3.529   2.825 -0.2824  0.2722 -0.5217
 2157ntf    on517231   3.195   3.281   2.539 -0.0837  0.1615 -0.6234
 2157ntf    on517232   3.426   3.360   2.567 -0.3362 -0.0472 -0.5597
 2157ntf    fn417233   3.353   3.619   2.568 -0.1208  0.1131  0.1609
 2157ntf    fn417234   3.254   3.532   2.391  0.4031 -0.1298  0.1010
 2157ntf    fn417235   3.145   3.600   2.549 -0.3218  0.2901 -0.5995
 2158ntf    cn117236   3.992   4.744   4.493  0.1102 -0.2268  0.2574
 2158ntf    sn217237   3.952   4.870   4.619  0.3650 -0.1958  0.3087
 2158ntf    nn317238   4.036   4.806   4.735 -0.3824 -0.7740  0.5421
 2158ntf    sn217239   4.190   4.811   4.764 -0.3051 -0.2126  0.0422
 2158ntf    cn117240   4.190   4.881   4.932  0.0238 -0.1554  0.0204
 2158ntf    fn417241   4.124   4.735   4.492  0.1285  0.0273  0.4003
 2158ntf    fn417242   3.946   4.625   4.529  0.1198 -0.2581  0.1633
 2158ntf    fn417243   3.951   4.766   4.369 -0.6009  0.0728  0.5338
 2158ntf    on517244   4.002   4.991   4.559 -0.2234 -0.0179  0.1691
 2158ntf    on517245   3.811   4.856   4.646  0.1229  0.3528 -0.6144
 2158ntf    on517246   4.264   4.919   4.701 -0.5384 -0.3040 -0.3927
 2158ntf    on517247   4.251   4.681   4.763 -0.7579 -0.4228 -0.7075
 2158ntf    fn417248   4.111   4.815   5.015 -0.5611 -0.0645 -0.4554
 2158ntf    fn417249   4.310   4.886   4.986 -0.0834  0.1060  0.2366
 2158ntf    fn417250   4.132   4.999   4.930 -0.2035 -0.2613  0.3125
 2159ntf    cn117251   6.274   6.681   2.917 -0.2006  0.2237 -0.1801
 2159ntf    sn217252   6.247   6.598   3.077  0.4862  0.3690  0.0150
 2159ntf    nn317253   6.090   6.587   3.070  0.5020  0.3694 -0.3963
 2159ntf    sn217254   5.979   6.692   3.105  0.1696 -0.0371 -0.2263
 2159ntf    cn117255   5.848   6.581   3.162  0.2596 -0.1509 -0.2412
 2159ntf    fn417256   6.232   6.597   2.824  0.0745  0.6176 -0.6647
 2159ntf    fn417257   6.203   6.792   2.904 -0.4963  0.1148  0.4339
 2159ntf    fn417258   6.401   6.698   2.887 -0.2946  0.4878 -0.4304
 2159ntf    on517259   6.313   6.470   3.069  0.2665  0.2372  0.2977
 2159ntf    on517260   6.298   6.692   3.173 -0.3546  0.4223  0.4135
 2159ntf    on517261   5.914   6.750   2.990 -0.4313 -0.0354  0.1060
 2159ntf    on517262   5.994   6.782   3.217 -0.7423 -0.3216  0.1315
 2159ntf    fn417263   5.849   6.467   3.095  0.9620 -0.2066 -0.1348
 2159ntf    fn417264   5.873   6.538   3.285 -0.8135  0.5772  0.2494
 2159ntf    fn417265   5.726   6.631   3.168  0.2060 -0.2948 -0.1185
 2160ntf    cn117266   3.375   3.803   0.254 -0.2301 -0.2285  0.0322
 2160ntf    sn217267   3.202   3.846   0.292 -0.2364 -0.0610 -0.1878
 2160ntf    nn317268   3.187   3.767   0.426 -0.0402 -0.7939 -0.5897
 2160ntf    sn217269   3.087   3.650   0.457 -0.4263 -0.1958  0.4767
 2160ntf    cn117270   2.972   3.734   0.571 -0.0589  0.5578  0.2986
 2160ntf    fn417271   3.460   3.855   0.340 -0.0827 -0.5321  0.0735
 2160ntf    fn417272   3.405   3.674   0.258  0.5743 -0.0427  0.1065
 2160ntf    fn417273   3.411   3.842   0.133 -0.5954  0.8852  0.2677
 2160ntf    on517274   3.203   3.986   0.323  0.3047 -0.0239 -0.3590
 2160ntf    on517275   3.127   3.797   0.179 -0.7978  0.8993 -0.2393
 2160ntf    on517276   3.158   3.566   0.550 -0.4000 -0.6112  0.0849
 2160ntf    on517277   3.008   3.587   0.354 -0.0649 -0.1059  0.1421
 2160ntf    fn417278   2.864   3.663   0.600  0.1258  0.0837 -0.1373
 2160ntf    fn417279   3.033   3.763   0.684  0.3190  0.8070  0.0335
 2160ntf    fn417280   2.933   3.850   0.522 -0.4182  0.2499 -0.1625
   6.90087   6.90087   6.90087
