Converted from moscito
19440
    1SOL     ow    1   5.533   3.950   6.890  0.2282  0.6615  0.0427
    1SOL     hw    2   5.481   3.987   6.961 -2.1877 -0.8188 -0.8345
    1SOL     hw    3   5.507   3.858   6.887 -0.1297  0.7724 -3.0283
    1SOL     vw    4   5.523   3.943   6.899 -0.1378  0.4808 -0.4783
    2SOL     ow    5   4.291   2.799   3.469 -0.4266 -0.0612 -0.4892
    2SOL     hw    6   4.358   2.812   3.536 -0.0257 -1.6530 -0.5372
    2SOL     hw    7   4.312   2.863   3.401  1.7870 -1.2623 -1.0445
    2SOL     vw    8   4.303   2.809   3.469 -0.0818 -0.4297 -0.5687
    3SOL     ow    9   4.070   3.805   6.904  0.0444 -0.1140  0.0981
    3SOL     hw   10   4.049   3.712   6.896 -0.0229 -0.0490 -0.4915
    3SOL     hw   11   4.080   3.819   6.999  1.9730 -1.1407  0.0910
    3SOL     vw   12   4.068   3.795   6.916  0.2899 -0.2409  0.0193
    4SOL     ow   13   4.185   0.341   6.560  0.0547 -0.3642 -0.3615
    4SOL     hw   14   4.116   0.336   6.495  1.7847  1.7420 -2.5354
    4SOL     hw   15   4.202   0.434   6.572  1.4070 -0.7542  1.3655
    4SOL     vw   16   4.178   0.352   6.553  0.4611 -0.1378 -0.4206
    5SOL     ow   17   1.584   3.806   0.774  0.6587 -0.8271 -0.7100
    5SOL     hw   18   1.550   3.739   0.833  2.2468 -0.2105  0.9956
    5SOL     hw   19   1.532   3.884   0.794 -0.5673 -1.2803 -2.0357
    5SOL     vw   20   1.573   3.808   0.785  0.7064 -0.8056 -0.6599
    6SOL     ow   21   3.928   5.958   3.584 -0.2829  0.5863  0.2311
    6SOL     hw   22   3.879   5.942   3.664 -1.1824  0.8724 -0.2503
    6SOL     hw   23   3.939   6.053   3.581 -1.1401  0.6788 -0.4813
    6SOL     vw   24   3.923   5.969   3.594 -0.5147  0.6363  0.0736
    7SOL     ow   25   5.502   4.799   1.724  0.2735 -0.1875  0.1714
    7SOL     hw   26   5.409   4.822   1.726  0.0184 -0.7686 -2.3439
    7SOL     hw   27   5.520   4.766   1.813 -1.8976 -0.0294  0.7194
    7SOL     vw   28   5.492   4.797   1.736 -0.0470 -0.2429 -0.0882
    8SOL     ow   29   4.304   3.111   0.810  0.8357 -0.0748 -0.2710
    8SOL     hw   30   4.360   3.037   0.788 -0.0365 -0.9274  0.2795
    8SOL     hw   31   4.227   3.071   0.850  1.0001  1.2038  1.4253
    8SOL     vw   32   4.301   3.096   0.813  0.7422 -0.0185  0.0254
    9SOL     ow   33   1.712   4.989   4.566  0.7517 -0.9684  0.1236
    9SOL     hw   34   1.691   4.983   4.659  0.3473 -2.8336 -0.0612
    9SOL     hw   35   1.700   5.082   4.545 -0.6732 -0.7940  1.5668
    9SOL     vw   36   1.708   5.000   4.576  0.5104 -1.1914  0.2897
   10SOL     ow   37   0.035   3.809   6.891 -0.0675  0.0137 -0.0776
   10SOL     hw   38   0.021   3.872   6.820 -1.3924  0.7871  0.8389
   10SOL     hw   39   0.080   3.858   6.959 -0.6001 -0.1678  0.4153
   10SOL     vw   40   0.039   3.824   6.890 -0.3126  0.0918  0.1082
   11SOL     ow   41   1.795   3.677   0.522  0.0658  0.2011 -0.4252
   11SOL     hw   42   1.741   3.608   0.483  1.0956 -0.1606 -1.2557
   11SOL     hw   43   1.885   3.653   0.500  0.5662  0.9339  0.7006
   11SOL     vw   44   1.799   3.665   0.514  0.2677  0.2501 -0.3862
   12SOL     ow   45   4.364   0.096   6.609  0.3623 -0.0607  0.3573
   12SOL     hw   46   4.337   0.008   6.633 -0.7905 -0.3986 -2.0044
   12SOL     hw   47   4.332   0.109   6.520 -1.2240  3.4443  1.2639
   12SOL     vw   48   4.356   0.086   6.601  0.0010  0.3572  0.1652
   13SOL     ow   49   4.649   5.081   6.306 -0.4630 -0.8891 -0.1648
   13SOL     hw   50   4.556   5.094   6.323 -0.3921 -0.3395 -0.1805
   13SOL     hw   51   4.663   5.117   6.219 -0.1337 -0.4972  0.0482
   13SOL     vw   52   4.639   5.087   6.297 -0.4101 -0.7651 -0.1385
   14SOL     ow   53   3.749   1.557   6.813 -0.2454 -0.2361 -0.8014
   14SOL     hw   54   3.791   1.641   6.831  1.4245 -1.4889  1.7199
   14SOL     hw   55   3.674   1.579   6.758 -0.9852  3.1707  1.2973
   14SOL     vw   56   3.744   1.571   6.808 -0.1228  0.0482 -0.1922
   15SOL     ow   57   5.251   3.034   2.077  0.8702  0.0826  0.6392
   15SOL     hw   58   5.228   3.063   2.165  0.0578 -1.7403  1.0637
   15SOL     hw   59   5.185   3.075   2.021  1.9626  2.0453  0.7002
   15SOL     vw   60   5.239   3.043   2.081  0.9072  0.1010  0.7033
   16SOL     ow   61   1.768   5.512   5.768 -0.1123 -0.1112  0.3622
   16SOL     hw   62   1.785   5.428   5.727  2.4453  0.8726 -0.7393
   16SOL     hw   63   1.688   5.497   5.819 -0.4756 -2.8068 -0.8197
   16SOL     vw   64   1.759   5.499   5.770  0.1772 -0.3369  0.0608
   17SOL     ow   65   5.560   1.216   5.995  0.1455 -0.4357  0.6254
   17SOL     hw   66   5.473   1.253   5.978  0.4559  0.5452  1.0656
   17SOL     hw   67   5.550   1.123   5.979 -0.4502 -0.0668 -1.4132
   17SOL     vw   68   5.547   1.209   5.991  0.1080 -0.2576  0.4144
   18SOL     ow   69   4.846   5.529   2.926  0.2874 -0.1318  0.9160
   18SOL     hw   70   4.934   5.564   2.941 -0.4276  1.9782  0.4854
   18SOL     hw   71   4.858   5.461   2.859  1.1816  2.6690 -1.9921
   18SOL     vw   72   4.859   5.524   2.919  0.3114  0.5159  0.4755
   19SOL     ow   73   3.122   1.896   0.522 -0.0925  0.1436  0.2608
   19SOL     hw   74   3.030   1.874   0.539  0.0520  0.0628  0.9373
   19SOL     hw   75   3.167   1.878   0.604  0.2273  1.9160  0.5162
   19SOL     vw   76   3.116   1.891   0.535 -0.0312  0.3668  0.3837
   20SOL     ow   77   4.507   2.705   6.872 -0.5888 -0.2390 -0.6995
   20SOL     hw   78   4.442   2.757   6.919  2.4457  0.0128  3.7773
   20SOL     hw   79   4.559   2.770   6.824  1.2755  0.7746  2.4011
   20SOL     vw   80   4.506   2.721   6.872  0.0575 -0.0719  0.3004
   21SOL     ow   81   4.047   0.722   0.556  0.1866  0.2045  0.2197
   21SOL     hw   82   4.111   0.772   0.607  0.0380  0.5032  0.1161
   21SOL     hw   83   4.099   0.661   0.505  0.4937  1.3647 -0.8915
   21SOL     vw   84   4.062   0.721   0.556  0.2072  0.3970  0.0594
   22SOL     ow   85   2.355   2.589   0.919 -0.3653  0.6644  0.3296
   22SOL     hw   86   2.351   2.493   0.914  2.7593  0.4461  0.1553
   22SOL     hw   87   2.334   2.609   1.010  0.9262 -0.3870  0.8849
   22SOL     vw   88   2.352   2.579   0.931  0.2174  0.4971  0.3798
   23SOL     ow   89   6.895   1.405   0.461 -0.0845 -0.8990  0.2871
   23SOL     hw   90   6.804   1.434   0.460 -1.0440 -3.6815 -0.6012
   23SOL     hw   91   6.908   1.369   0.549 -0.4795 -2.3022 -0.2200
   23SOL     vw   92   6.885   1.404   0.473 -0.2632 -1.4513  0.1030
   24SOL     ow   93   3.314   3.880   4.370 -1.1596  0.1247 -0.6995
   24SOL     hw   94   3.355   3.802   4.408  1.2455  1.3740 -0.5232
   24SOL     hw   95   3.260   3.915   4.441  2.9688  2.2296  1.8634
   24SOL     vw   96   3.313   3.875   4.385 -0.2975  0.5672 -0.3378
   25SOL     ow   97   1.987   4.378   5.512  0.3545  0.4954  0.2361
   25SOL     hw   98   1.992   4.419   5.426  2.1292  1.5319  0.7922
   25SOL     hw   99   1.915   4.424   5.556 -0.6749 -0.1517 -0.6978
   25SOL     vw  100   1.978   4.389   5.507  0.4528  0.5469  0.1862
   26SOL     ow  101   4.005   3.669   3.150 -0.1012  0.2188 -0.2688
   26SOL     hw  102   4.070   3.671   3.219 -0.1520 -1.1572 -0.1491
   26SOL     hw  103   3.944   3.739   3.172  0.2802  0.2674  0.6719
   26SOL     vw  104   4.005   3.678   3.162 -0.0575  0.0437 -0.1290
   27SOL     ow  105   4.978   2.998   0.271 -0.2791 -0.6223  0.2154
   27SOL     hw  106   4.946   3.043   0.193  1.0319  1.9938  1.0550
   27SOL     hw  107   5.036   2.929   0.237  0.4456  0.6027 -1.1404
   27SOL     vw  108   4.982   2.995   0.256 -0.0105 -0.1156  0.1473
   28SOL     ow  109   3.747   6.808   2.446  0.2347  0.0375 -0.4115
   28SOL     hw  110   3.791   6.766   2.373 -0.1205 -0.9937 -0.0507
   28SOL     hw  111   3.660   6.830   2.412 -0.0224 -0.6773 -0.2386
   28SOL     vw  112   3.741   6.806   2.432  0.1539 -0.1926 -0.3411
   29SOL     ow  113   2.214   5.571   4.562 -0.5707  0.8712  0.3580
   29SOL     hw  114   2.122   5.551   4.544 -0.6685  1.9847 -0.5381
   29SOL     hw  115   2.241   5.506   4.627 -1.1870 -1.2436 -1.3877
   29SOL     vw  116   2.205   5.560   4.568 -0.6651  0.7391  0.0098
   30SOL     ow  117   5.267   1.674   5.106 -0.6400  0.5142  0.5805
   30SOL     hw  118   5.257   1.754   5.054 -0.4401  0.5626  0.6140
   30SOL     hw  119   5.237   1.604   5.049 -1.8040  0.7194  0.9157
   30SOL     vw  120   5.262   1.675   5.092 -0.7672  0.5476  0.6289
   31SOL     ow  121   2.698   2.750   2.402 -0.2399  0.3378  0.1693
   31SOL     hw  122   2.714   2.804   2.479  0.1398  0.3283  0.0999
   31SOL     hw  123   2.711   2.660   2.433  1.6744  0.4092 -0.3015
   31SOL     vw  124   2.702   2.745   2.416  0.0628  0.3458  0.0981
   32SOL     ow  125   6.349   4.482   2.623 -0.5856 -0.0303 -0.1569
   32SOL     hw  126   6.439   4.510   2.638 -0.5790 -0.4537  0.6129
   32SOL     hw  127   6.297   4.561   2.637 -0.4767 -0.1534  0.9905
   32SOL     vw  128   6.354   4.497   2.627 -0.5705 -0.1025  0.0960
   33SOL     ow  129   4.420   5.597   4.033 -0.4215 -0.4376  0.4497
   33SOL     hw  130   4.353   5.644   4.083 -0.7957  0.1391 -0.5571
   33SOL     hw  131   4.372   5.556   3.961  0.5521  2.4546 -2.0974
   33SOL     vw  132   4.404   5.598   4.030 -0.3424  0.0203 -0.0191
   34SOL     ow  133   6.889   2.591   0.555  0.2821 -0.2732 -0.5281
   34SOL     hw  134   6.855   2.585   0.465 -0.5741  0.5579 -0.2747
   34SOL     hw  135   6.912   2.683   0.566 -0.3667 -0.2060  0.3586
   34SOL     vw  136   6.887   2.602   0.545  0.0834 -0.1546 -0.3777
   35SOL     ow  137   4.086   6.835   5.241 -0.0981 -0.5300  0.1417
   35SOL     hw  138   4.112   6.764   5.182 -2.6739 -0.8675 -0.7095
   35SOL     hw  139   4.019   6.883   5.193 -0.4234  0.7769  1.8103
   35SOL     vw  140   4.081   6.832   5.227 -0.4807 -0.4020  0.2496
   36SOL     ow  141   2.977   2.361   6.406 -0.5840  0.2090  0.7726
   36SOL     hw  142   3.057   2.335   6.452 -0.5587  0.3202  0.7910
   36SOL     hw  143   2.910   2.362   6.474 -0.5132  0.5332  0.8400
   36SOL     vw  144   2.979   2.357   6.421 -0.5714  0.2664  0.7839
   37SOL     ow  145   1.308   3.442   0.436  0.0375  0.2257  0.0245
   37SOL     hw  146   1.382   3.492   0.401  0.9870  1.2762  3.2108
   37SOL     hw  147   1.273   3.496   0.507 -2.9736 -0.8794 -0.4415
   37SOL     vw  148   1.313   3.456   0.441 -0.2345  0.2185  0.3834
   38SOL     ow  149   0.833   0.185   0.618 -0.1054 -0.3265 -0.6210
   38SOL     hw  150   0.789   0.154   0.539 -1.1511 -2.1483  0.5859
   38SOL     hw  151   0.778   0.257   0.649  0.0271  0.0595 -1.2648
   38SOL     vw  152   0.820   0.191   0.612 -0.2258 -0.5160 -0.5467
   39SOL     ow  153   6.855   1.707   0.016  0.2391  0.3324 -0.3496
   39SOL     hw  154   6.812   1.633  -0.028  0.0183  0.6874 -0.7446
   39SOL     hw  155   6.783   1.761   0.049  0.4016  0.2891  0.0824
   39SOL     vw  156   6.840   1.705   0.014  0.2315  0.3735 -0.3447
   40SOL     ow  157   2.586   3.256   0.734  0.3431  0.4172 -0.3993
   40SOL     hw  158   2.622   3.227   0.818  1.5270 -0.3073 -1.1201
   40SOL     hw  159   2.606   3.184   0.674 -3.7838 -0.8424 -0.5696
   40SOL     vw  160   2.593   3.243   0.737 -0.0452  0.1554 -0.5169
   41SOL     ow  161   2.642   5.902   1.355 -0.3553 -0.5246  0.0120
   41SOL     hw  162   2.663   5.957   1.430  0.7987  0.5584 -1.0704
   41SOL     hw  163   2.569   5.847   1.385  1.5034 -1.7224  2.6509
   41SOL     vw  164   2.635   5.902   1.369  0.0421 -0.5395  0.2173
   42SOL     ow  165   4.461   1.701   2.393  0.7272  0.0111  0.7770
   42SOL     hw  166   4.507   1.655   2.463  2.7142  1.3940  0.4465
   42SOL     hw  167   4.498   1.789   2.393 -1.5693  1.0673  0.1108
   42SOL     vw  168   4.472   1.706   2.402  0.6864  0.3329  0.6455
   43SOL     ow  169   3.243   0.344   7.009 -0.2718 -1.0225 -0.0795
   43SOL     hw  170   3.337   0.329   7.014 -0.6040 -3.2487  0.7124
   43SOL     hw  171   3.207   0.300   7.086 -1.9567  0.0104 -0.2180
   43SOL     vw  172   3.251   0.336   7.019 -0.5379 -1.1799  0.0069
   44SOL     ow  173   4.424   3.312   0.633  0.2077  0.3882 -0.3611
   44SOL     hw  174   4.435   3.301   0.539  2.3432 -0.5010 -0.0833
   44SOL     hw  175   4.494   3.374   0.658 -0.5875  0.9374  0.5846
   44SOL     vw  176   4.435   3.319   0.624  0.3846  0.3433 -0.1997
   45SOL     ow  177   5.980   3.350   0.249  0.8983 -0.4836  0.5356
   45SOL     hw  178   5.910   3.413   0.231 -0.4407 -1.9399  0.4098
   45SOL     hw  179   6.059   3.403   0.257 -0.0996  1.1508 -0.0204
   45SOL     vw  180   5.981   3.365   0.248  0.5901 -0.4601  0.4456
   46SOL     ow  181   4.535   1.115   4.899 -0.8119  0.3975  0.0466
   46SOL     hw  182   4.587   1.148   4.972 -0.5427  1.5588 -0.6422
   46SOL     hw  183   4.466   1.062   4.940  1.6109 -2.3564  0.9453
   46SOL     vw  184   4.533   1.112   4.914 -0.4568  0.1874  0.0741
   47SOL     ow  185   1.458   0.100   0.052  0.1995  0.4068  0.5481
   47SOL     hw  186   1.367   0.109   0.025  0.4500  0.7034 -0.2388
   47SOL     hw  187   1.509   0.131  -0.024  1.0230 -2.4046 -0.1654
   47SOL     vw  188   1.453   0.105   0.038  0.3412  0.0750  0.3501
   48SOL     ow  189   4.944   1.660   0.695  0.0233  0.0312 -0.1602
   48SOL     hw  190   4.869   1.666   0.635  0.9340  1.2480 -1.2381
   48SOL     hw  191   4.959   1.566   0.704 -1.8123 -0.2661  0.3514
   48SOL     vw  192   4.936   1.648   0.688 -0.0985  0.1526 -0.2349
   49SOL     ow  193   4.842   1.671   6.451 -0.5589 -0.0066 -0.3970
   49SOL     hw  194   4.816   1.586   6.416 -3.3496  1.2167 -1.6163
   49SOL     hw  195   4.840   1.659   6.546  2.8044 -2.1941 -0.4313
   49SOL     vw  196   4.838   1.658   6.459 -0.4833 -0.1338 -0.5624
   50SOL     ow  197   1.134   4.861   5.260 -0.4858 -0.3814  0.1626
   50SOL     hw  198   1.227   4.840   5.252  0.2992  1.6990  2.3683
   50SOL     hw  199   1.090   4.797   5.206  2.1818 -1.9350 -0.3542
   50SOL     vw  200   1.141   4.850   5.252 -0.0303 -0.3116  0.3858
   51SOL     ow  201   4.542   5.099   4.295  0.3905  0.1229  0.1700
   51SOL     hw  202   4.555   5.082   4.388 -0.7816 -1.2997  0.1096
   51SOL     hw  203   4.609   5.046   4.252  1.5010  1.4594  0.2097
   51SOL     vw  204   4.553   5.090   4.302  0.3819  0.1116  0.1676
   52SOL     ow  205   1.701   2.540   0.370 -0.1095  0.2713  0.3750
   52SOL     hw  206   1.739   2.484   0.303  0.9514 -1.0778  2.0520
   52SOL     hw  207   1.717   2.495   0.453 -1.8967  1.5887  1.5287
   52SOL     vw  208   1.708   2.527   0.372 -0.2053  0.2671  0.7484
   53SOL     ow  209   4.755   6.320   1.252 -0.3569 -0.2075  0.2483
   53SOL     hw  210   4.835   6.360   1.218 -0.5407  0.4801  0.6120
   53SOL     hw  211   4.692   6.329   1.181  0.2482 -2.0238 -0.6022
   53SOL     vw  212   4.757   6.326   1.238 -0.3011 -0.3562  0.1841
   54SOL     ow  213   3.909   2.197   1.504  0.2644 -0.1777  0.4391
   54SOL     hw  214   3.910   2.253   1.426  2.0855 -0.7984 -0.0157
   54SOL     hw  215   3.822   2.157   1.503 -1.3710  3.0281  1.1155
   54SOL     vw  216   3.897   2.199   1.493  0.2888  0.1632  0.4683
   55SOL     ow  217   0.742   4.608   5.327 -0.8862  1.0263 -0.0445
   55SOL     hw  218   0.810   4.591   5.262 -0.8531  1.3321 -0.0905
   55SOL     hw  219   0.714   4.698   5.310  0.2829  1.7105  1.4160
   55SOL     vw  220   0.747   4.617   5.316 -0.7276  1.1568  0.1421
   56SOL     ow  221   3.099   2.765   6.990 -0.2314 -0.5556 -0.0134
   56SOL     hw  222   3.176   2.752   6.933  1.3026  0.7561  1.6406
   56SOL     hw  223   3.131   2.823   7.059 -3.0621  1.0180  0.0972
   56SOL     vw  224   3.114   2.771   6.991 -0.4026 -0.1749  0.2193
   57SOL     ow  225   0.791   3.620   3.798  0.2308 -0.3870 -0.5044
   57SOL     hw  226   0.795   3.647   3.890  0.6512  2.7946 -1.3637
   57SOL     hw  227   0.704   3.647   3.769  1.4382  2.2540 -1.9648
   57SOL     vw  228   0.780   3.627   3.806  0.4455  0.3814 -0.8104
   58SOL     ow  229   5.741   3.148   1.347 -0.1821 -0.3033  0.1589
   58SOL     hw  230   5.758   3.137   1.441  1.9427  0.5829 -0.0740
   58SOL     hw  231   5.648   3.171   1.343 -0.2472 -0.0123  2.0718
   58SOL     vw  232   5.731   3.150   1.359  0.0899 -0.1481  0.3806
   59SOL     ow  233   3.212   0.048   0.114  0.0629  0.1994  0.3623
   59SOL     hw  234   3.127   0.005   0.120  0.3370 -0.1684  4.0140
   59SOL     hw  235   3.212   0.111   0.187  2.1481  1.7347 -0.8409
   59SOL     vw  236   3.201   0.051   0.124  0.3742  0.3534  0.6853
   60SOL     ow  237   5.109   0.782   4.864  0.7922  0.1012 -1.4052
   60SOL     hw  238   5.129   0.711   4.804 -0.0824 -3.4553  2.0477
   60SOL     hw  239   5.168   0.768   4.938 -1.8831  0.5951  1.0097
   60SOL     vw  240   5.119   0.771   4.866  0.3235 -0.3029 -0.6311
   61SOL     ow  241   4.428   6.015   3.947  0.2536 -0.5308  0.7964
   61SOL     hw  242   4.434   6.099   3.993  1.5662  0.8711 -1.7584
   61SOL     hw  243   4.518   5.992   3.926 -0.3143 -0.7355 -1.6459
   61SOL     vw  244   4.441   6.023   3.951  0.3519 -0.3726  0.1372
   62SOL     ow  245   0.372   4.727   5.021 -0.3059 -0.2859 -0.2489
   62SOL     hw  246   0.372   4.739   5.116 -2.7737  1.1514 -0.3482
   62SOL     hw  247   0.407   4.809   4.987  0.2770 -0.6781 -0.6124
   62SOL     vw  248   0.377   4.739   5.029 -0.5546 -0.1483 -0.3099
   63SOL     ow  249   3.661   6.260   0.148  0.9445 -0.6194 -0.2246
   63SOL     hw  250   3.611   6.256   0.066  3.0842 -0.8827 -1.5817
   63SOL     hw  251   3.704   6.346   0.145  0.7750 -0.4891  0.8067
   63SOL     vw  252   3.660   6.271   0.137  1.2044 -0.6371 -0.2676
   64SOL     ow  253   4.942   0.617   1.626 -0.5717  0.1832 -0.3341
   64SOL     hw  254   4.995   0.687   1.665 -0.3381 -1.7112  3.1491
   64SOL     hw  255   5.005   0.552   1.597 -0.7626 -1.4330  2.5198
   64SOL     vw  256   4.957   0.618   1.628 -0.5660 -0.2800  0.5020
   65SOL     ow  257   5.354   2.232   2.889  0.4345  0.1105 -1.3050
   65SOL     hw  258   5.296   2.234   2.965  1.0804  0.5615 -0.8124
   65SOL     hw  259   5.374   2.139   2.877  2.9337  0.2004  1.1397
   65SOL     vw  260   5.349   2.220   2.898  0.8495  0.1818 -0.9174
   66SOL     ow  261   3.451   1.749   1.203 -0.2972 -0.0174 -0.0362
   66SOL     hw  262   3.388   1.716   1.268 -0.7783  1.3077  0.2127
   66SOL     hw  263   3.397   1.781   1.131  0.2649 -2.3310 -1.5842
   66SOL     vw  264   3.435   1.749   1.202 -0.2866 -0.1478 -0.2077
   67SOL     ow  265   6.749   6.834   0.759  0.6818  0.5785  0.1832
   67SOL     hw  266   6.817   6.889   0.722 -0.8345  1.6669 -1.1470
   67SOL     hw  267   6.701   6.892   0.819  0.1986  0.1957  0.1772
   67SOL     vw  268   6.751   6.849   0.762  0.4182  0.6716  0.0069
   68SOL     ow  269   3.723   3.177   3.870  0.6550 -0.1768  0.3590
   68SOL     hw  270   3.760   3.146   3.787  0.3342 -1.2033  0.5826
   68SOL     hw  271   3.654   3.238   3.844  2.5065  1.8603 -0.0634
   68SOL     vw  272   3.719   3.181   3.855  0.8569 -0.0435  0.3328
   69SOL     ow  273   5.416   5.210   3.800  0.1535  0.1884  0.1796
   69SOL     hw  274   5.474   5.284   3.816  1.0481  0.0216 -1.9432
   69SOL     hw  275   5.373   5.231   3.717  1.4648 -2.2229 -1.2095
   69SOL     vw  276   5.418   5.223   3.791  0.4449 -0.1516 -0.2837
   70SOL     ow  277   6.553   1.165   4.604 -1.1438 -0.0272  0.0469
   70SOL     hw  278   6.563   1.260   4.612  2.8006 -0.3331  0.6174
   70SOL     hw  279   6.595   1.143   4.521  2.0760 -1.5643  1.8999
   70SOL     vw  280   6.559   1.175   4.594 -0.1986 -0.2704  0.3664
   71SOL     ow  281   3.526   0.598   2.718 -0.1762  0.1351 -0.2901
   71SOL     hw  282   3.611   0.564   2.746  0.7489  1.1620 -1.6740
   71SOL     hw  283   3.517   0.568   2.627 -1.2409  0.1379 -0.1944
   71SOL     vw  284   3.536   0.590   2.709 -0.1944  0.2710 -0.4601
   72SOL     ow  285   4.928   1.962   0.700 -0.0292 -0.0618  0.4611
   72SOL     hw  286   4.899   1.944   0.611  0.2862 -0.8396  0.5099
   72SOL     hw  287   4.885   2.045   0.723  2.2225  1.7640 -1.4631
   72SOL     vw  288   4.918   1.971   0.691  0.3097  0.0765  0.2136
   73SOL     ow  289   3.440   3.316   1.651 -0.5410 -0.2767  0.1824
   73SOL     hw  290   3.532   3.335   1.670 -0.0797 -0.2319 -1.8042
   73SOL     hw  291   3.399   3.306   1.736  0.6078  2.8174  1.2410
   73SOL     vw  292   3.447   3.317   1.664 -0.3287  0.1374  0.0600
   74SOL     ow  293   4.630   4.855   1.160  0.0078 -0.2300 -0.8886
   74SOL     hw  294   4.608   4.769   1.197 -1.5381  0.4677 -0.0971
   74SOL     hw  295   4.555   4.877   1.105  0.1212  0.8604 -0.6249
   74SOL     vw  296   4.617   4.846   1.157 -0.1812  0.0060 -0.7493
   75SOL     ow  297   5.805   3.984   2.288 -0.0060  0.1333 -0.1024
   75SOL     hw  298   5.752   4.008   2.212 -1.3275  0.4818  0.8932
   75SOL     hw  299   5.893   4.015   2.266  0.3673 -2.2669 -2.6797
   75SOL     vw  300   5.810   3.991   2.275 -0.1309 -0.1374 -0.3111
   76SOL     ow  301   1.242   1.714   0.433  0.9252 -0.5861  0.1014
   76SOL     hw  302   1.323   1.676   0.468  0.1510 -0.1435  2.6077
   76SOL     hw  303   1.183   1.639   0.423  0.6201 -0.5549  1.4450
   76SOL     vw  304   1.245   1.699   0.436  0.7828 -0.5236  0.6093
   77SOL     ow  305   1.222   4.457   6.877  0.3228  0.6481 -0.5957
   77SOL     hw  306   1.237   4.494   6.964  0.4089  1.4588 -0.9435
   77SOL     hw  307   1.242   4.529   6.817  1.8266 -0.3535 -1.3688
   77SOL     vw  308   1.227   4.472   6.881  0.5326  0.6230 -0.7439
   78SOL     ow  309   5.362   3.258   3.093 -0.4057 -1.0258  0.5924
   78SOL     hw  310   5.310   3.183   3.124 -0.1815 -1.2361  0.4610
   78SOL     hw  311   5.297   3.317   3.055 -0.3833 -2.2020 -1.4616
   78SOL     vw  312   5.346   3.256   3.092 -0.3731 -1.2087  0.3041
   79SOL     ow  313   5.197   5.638   6.445  0.2346  0.7381 -0.3495
   79SOL     hw  314   5.222   5.706   6.507 -1.4005  0.5358  0.5979
   79SOL     hw  315   5.210   5.556   6.492 -1.7611  0.6111  0.0904
   79SOL     vw  316   5.202   5.636   6.459 -0.2444  0.6948 -0.1662
   80SOL     ow  317   4.841   6.398   1.526  0.5737 -0.0830  0.1858
   80SOL     hw  318   4.819   6.478   1.478 -0.9018 -0.0254  0.9103
   80SOL     hw  319   4.857   6.427   1.615 -0.7890 -0.6489  0.6500
   80SOL     vw  320   4.840   6.412   1.531  0.1993 -0.1500  0.3427
   81SOL     ow  321   1.907   6.784   4.749 -0.0087  0.4779 -0.2650
   81SOL     hw  322   1.996   6.798   4.779  0.4096 -0.9585 -0.7243
   81SOL     hw  323   1.863   6.868   4.762  1.1740  0.9685  0.7470
   81SOL     vw  324   1.913   6.797   4.755  0.2025  0.3531 -0.1919
   82SOL     ow  325   0.744   6.227   0.507 -0.4555  0.0539 -0.6661
   82SOL     hw  326   0.733   6.309   0.460 -0.6717 -0.0550 -0.8073
   82SOL     hw  327   0.655   6.193   0.518 -0.3182 -0.5429 -1.2983
   82SOL     vw  328   0.731   6.233   0.502 -0.4659 -0.0389 -0.7681
   83SOL     ow  329   4.253   4.334   2.087  1.0636  0.2405  0.3233
   83SOL     hw  330   4.199   4.277   2.141  0.0551  3.0297  2.5195
   83SOL     hw  331   4.192   4.375   2.026  1.4516  0.3109 -0.0241
   83SOL     vw  332   4.238   4.332   2.086  0.9818  0.6180  0.5672
   84SOL     ow  333   3.083   5.517   5.148  0.3452 -0.1749  0.0578
   84SOL     hw  334   2.994   5.523   5.182  1.2783  2.4598  2.4954
   84SOL     hw  335   3.126   5.452   5.204  0.3526 -0.2847 -0.0757
   84SOL     vw  336   3.077   5.509   5.160  0.4694  0.1581  0.3619
   85SOL     ow  337   3.396   4.613   1.741  0.7562 -0.6794 -0.1741
   85SOL     hw  338   3.420   4.705   1.731 -0.3571 -0.4912 -1.4491
   85SOL     hw  339   3.388   4.581   1.651 -1.9613 -1.1414  0.1361
   85SOL     vw  340   3.398   4.621   1.727  0.2507 -0.7155 -0.3014
   86SOL     ow  341   6.389   6.076   5.753 -0.4979 -0.2287 -0.0126
   86SOL     hw  342   6.427   6.050   5.669  0.3453  0.0440  0.2803
   86SOL     hw  343   6.309   6.024   5.760  0.0725 -1.1785 -0.4060
   86SOL     vw  344   6.383   6.066   5.743 -0.3116 -0.3181 -0.0260
   87SOL     ow  345   0.201   4.685   2.601 -0.1404 -0.6012  0.3996
   87SOL     hw  346   0.223   4.678   2.509  2.8498  1.8915  0.7562
   87SOL     hw  347   0.124   4.742   2.604 -0.0665 -0.4472 -0.5310
   87SOL     vw  348   0.193   4.692   2.590  0.2638 -0.2520  0.3239
   88SOL     ow  349   3.195   1.776   5.507  0.4314  0.1421 -0.5035
   88SOL     hw  350   3.247   1.783   5.427 -0.1962 -2.4767 -1.2231
   88SOL     hw  351   3.106   1.798   5.479  0.2816 -0.3824 -0.4450
   88SOL     vw  352   3.190   1.780   5.492  0.3289 -0.2726 -0.5906
   89SOL     ow  353   4.647   0.820   2.918 -0.6027 -0.0704  0.1523
   89SOL     hw  354   4.690   0.905   2.914  0.6454 -0.7374 -1.8515
   89SOL     hw  355   4.675   0.783   3.002  1.2576  0.2861 -0.2631
   89SOL     vw  356   4.656   0.827   2.929 -0.1926 -0.1114 -0.1669
   90SOL     ow  357   5.776   4.787   6.502  0.8075  0.1723 -0.4554
   90SOL     hw  358   5.868   4.768   6.487  0.8815  0.1115  0.0432
   90SOL     hw  359   5.765   4.779   6.597  0.7144  2.0386 -0.2702
   90SOL     vw  360   5.787   4.784   6.513  0.8051  0.4106 -0.3655
   91SOL     ow  361   6.347   6.015   0.414 -0.2873  0.2020  0.3324
   91SOL     hw  362   6.309   5.962   0.485  0.6685 -0.6410  0.2428
   91SOL     hw  363   6.273   6.063   0.378 -1.0822 -0.5988  0.8397
   91SOL     vw  364   6.332   6.014   0.419 -0.2661 -0.0148  0.3875
   92SOL     ow  365   2.968   0.040   1.290  0.3921  0.4388  0.2714
   92SOL     hw  366   2.931  -0.042   1.255  1.4209 -0.2038  0.6430
   92SOL     hw  367   2.892   0.092   1.315 -0.3424 -1.6139  2.8023
   92SOL     vw  368   2.953   0.036   1.289  0.4309  0.0834  0.6544
   93SOL     ow  369   3.545   6.361   6.091  0.7876  0.0974 -0.2192
   93SOL     hw  370   3.613   6.429   6.095  1.3662 -0.3828 -1.4440
   93SOL     hw  371   3.592   6.279   6.108  0.1178 -0.0416  1.1070
   93SOL     vw  372   3.560   6.359   6.094  0.7755  0.0157 -0.2055
   94SOL     ow  373   2.041   5.709   1.594 -0.4612  0.9359  0.4985
   94SOL     hw  374   2.102   5.748   1.656  0.1415  0.6726  0.0752
   94SOL     hw  375   2.088   5.709   1.511 -0.1204 -1.4337  0.6322
   94SOL     vw  376   2.055   5.714   1.591 -0.3368  0.5884  0.4603
   95SOL     ow  377   5.460   2.545   5.129 -0.6739  0.2745 -1.5406
   95SOL     hw  378   5.484   2.617   5.071 -0.0396  0.5769 -0.9217
   95SOL     hw  379   5.437   2.473   5.070 -2.4487  1.3117 -2.1887
   95SOL     vw  380   5.460   2.545   5.114 -0.8245  0.4513 -1.5447
   96SOL     ow  381   0.294   3.331   5.686 -0.1798  0.0674  0.7379
   96SOL     hw  382   0.316   3.239   5.701  0.8940  0.4893  2.0011
   96SOL     hw  383   0.365   3.364   5.630 -1.8413 -0.4081 -1.8210
   96SOL     vw  384   0.306   3.323   5.681 -0.2573  0.0604  0.5670
   97SOL     ow  385   6.071   3.352   3.283  0.4333 -0.4141 -0.4658
   97SOL     hw  386   6.102   3.314   3.201 -0.5295 -1.0054 -0.5815
   97SOL     hw  387   6.052   3.443   3.261  3.9450  0.5782  0.1195
   97SOL     vw  388   6.072   3.359   3.269  0.7699 -0.3612 -0.4038
   98SOL     ow  389   1.855   4.255   1.190  0.2849  0.2832 -0.4956
   98SOL     hw  390   1.778   4.301   1.155 -1.4720 -0.7691  1.7216
   98SOL     hw  391   1.841   4.164   1.165  1.3484  0.2198 -0.8944
   98SOL     vw  392   1.843   4.249   1.182  0.1934  0.1361 -0.2556
   99SOL     ow  393   1.784   5.566   1.396 -0.2998  0.7322  0.3283
   99SOL     hw  394   1.791   5.572   1.301 -0.2439 -1.3356  0.1626
   99SOL     hw  395   1.735   5.485   1.412 -0.6326  1.2308  2.0521
   99SOL     vw  396   1.779   5.556   1.386 -0.3363  0.5252  0.5339
  100SOL     ow  397   6.930   1.016   6.245  0.4393  0.3454 -0.5835
  100SOL     hw  398   7.015   1.012   6.200  0.3566  2.4968 -1.0658
  100SOL     hw  399   6.889   1.096   6.211 -0.5989  0.8478  1.6667
  100SOL     vw  400   6.936   1.026   6.235  0.2911  0.6955 -0.3505
  101SOL     ow  401   1.692   2.435   5.966  0.0800 -0.3562 -0.0880
  101SOL     hw  402   1.775   2.398   5.996  0.9679  1.7832  0.3468
  101SOL     hw  403   1.700   2.438   5.871  1.4611  1.6475  0.0019
  101SOL     vw  404   1.704   2.431   5.958  0.3793  0.1903 -0.0188
  102SOL     ow  405   0.778   6.991   1.167  0.0294  0.3855  0.9540
  102SOL     hw  406   0.763   7.083   1.148 -2.4108 -0.0337  0.6056
  102SOL     hw  407   0.862   6.990   1.214  0.5741  2.6436  0.1616
  102SOL     vw  408   0.787   7.003   1.171 -0.2207  0.6280  0.8034
  103SOL     ow  409   2.412   6.719   6.929 -0.0523  0.1742  0.7476
  103SOL     hw  410   2.480   6.778   6.895 -1.8852  1.5166 -0.8530
  103SOL     hw  411   2.378   6.764   7.006 -0.7118  0.7175  0.1557
  103SOL     vw  412   2.417   6.733   6.935 -0.3811  0.4232  0.4580
  104SOL     ow  413   1.359   2.192   3.777 -0.3106  0.0885  0.0314
  104SOL     hw  414   1.360   2.101   3.747  1.1929  0.4517 -1.1616
  104SOL     hw  415   1.322   2.242   3.704  4.0405  1.0747 -1.8325
  104SOL     vw  416   1.354   2.187   3.764  0.4619  0.2667 -0.3718
  105SOL     ow  417   5.804   0.033   6.839  0.2078  0.0328  0.4665
  105SOL     hw  418   5.821  -0.061   6.835 -1.2908 -0.2353 -1.1922
  105SOL     hw  419   5.881   0.074   6.798  1.4337 -0.3358  2.3011
  105SOL     vw  420   5.816   0.026   6.833  0.1719 -0.0512  0.4897
  106SOL     ow  421   2.774   2.207   2.034 -0.7467 -0.3933  0.2850
  106SOL     hw  422   2.846   2.249   1.987 -2.1074  2.3819  0.4906
  106SOL     hw  423   2.814   2.176   2.116  0.2775  0.8942  0.3029
  106SOL     vw  424   2.789   2.208   2.039 -0.7910  0.1427  0.3146
  107SOL     ow  425   5.202   1.457   4.168 -0.3950 -0.2054 -0.6418
  107SOL     hw  426   5.193   1.362   4.181 -0.2420  0.0035  1.2524
  107SOL     hw  427   5.114   1.486   4.143 -1.4268 -0.3904  2.3578
  107SOL     vw  428   5.189   1.448   4.167 -0.5109 -0.2023  0.0038
  108SOL     ow  429   6.399   5.529   1.672  0.4587 -0.6489  0.4097
  108SOL     hw  430   6.380   5.616   1.639  2.9165 -0.9117 -2.0443
  108SOL     hw  431   6.417   5.542   1.765 -0.6744  1.1560  0.4291
  108SOL     vw  432   6.399   5.542   1.680  0.6335 -0.4456  0.0885
  109SOL     ow  433   3.260   2.356   2.900  0.9630  0.2500  0.1469
  109SOL     hw  434   3.190   2.322   2.955 -1.6423  1.9332 -1.8420
  109SOL     hw  435   3.310   2.414   2.957  0.2472 -0.3401  1.4248
  109SOL     vw  436   3.258   2.359   2.914  0.5249  0.3942  0.0532
  110SOL     ow  437   4.440   7.030   4.467 -0.7447 -0.1811  0.3026
  110SOL     hw  438   4.467   6.988   4.548 -0.4286 -0.1720  0.2064
  110SOL     hw  439   4.460   6.966   4.399 -2.6942 -0.9261  0.3822
  110SOL     vw  440   4.447   7.016   4.468 -0.9601 -0.2782  0.3002
  111SOL     ow  441   2.376   3.725   6.147  0.1318  0.6398  0.0888
  111SOL     hw  442   2.324   3.664   6.199 -0.2533 -0.2116 -1.2527
  111SOL     hw  443   2.427   3.774   6.212 -1.8879  1.1057  1.4253
  111SOL     vw  444   2.376   3.724   6.162 -0.1855  0.5890  0.0880
  112SOL     ow  445   6.437   5.756   1.464  0.0310 -0.2754 -0.8956
  112SOL     hw  446   6.446   5.820   1.534  1.3379  0.5536 -1.7656
  112SOL     hw  447   6.344   5.756   1.442 -0.1503  0.5280 -0.1731
  112SOL     vw  448   6.426   5.764   1.471  0.1795 -0.0598 -0.9151
  113SOL     ow  449   0.496   3.732   0.556 -0.0858  0.3348 -0.0210
  113SOL     hw  450   0.535   3.648   0.529 -0.4955 -0.2188  1.0307
  113SOL     hw  451   0.543   3.755   0.636  0.2321  1.2754 -0.4752
  113SOL     vw  452   0.507   3.724   0.563 -0.0979  0.3859  0.0578
  114SOL     ow  453   3.126   1.820   4.680  0.4983 -0.1687 -0.4456
  114SOL     hw  454   3.164   1.885   4.741 -1.2593 -0.0726  0.6137
  114SOL     hw  455   3.061   1.869   4.631  0.7907 -0.6280 -1.3005
  114SOL     vw  456   3.123   1.835   4.682  0.3051 -0.2167 -0.4187
  115SOL     ow  457   5.876   6.457   6.432  0.2310 -0.7033  0.6863
  115SOL     hw  458   5.970   6.460   6.450  0.2663 -2.2001  0.8916
  115SOL     hw  459   5.839   6.408   6.505 -0.5475 -1.1061  0.0361
  115SOL     vw  460   5.884   6.451   6.444  0.1330 -0.9542  0.6278
  116SOL     ow  461   5.169   3.377   2.948 -0.1374 -0.0663 -0.1219
  116SOL     hw  462   5.115   3.360   2.871  0.0134  1.3850 -0.5865
  116SOL     hw  463   5.176   3.473   2.951  1.6961 -0.1859  0.4178
  116SOL     vw  464   5.162   3.388   2.938  0.1242  0.1096 -0.1122
  117SOL     ow  465   0.818   3.188   1.409 -0.4792  0.0892 -0.3021
  117SOL     hw  466   0.829   3.191   1.314  1.0293 -2.3732 -0.3014
  117SOL     hw  467   0.905   3.204   1.444 -1.1345  1.5830  0.7484
  117SOL     vw  468   0.831   3.190   1.401 -0.3666 -0.0386 -0.1633
  118SOL     ow  469   0.383   4.974   3.402 -0.0108  0.3849  0.6499
  118SOL     hw  470   0.320   4.924   3.349 -0.1617  1.2544 -0.0136
  118SOL     hw  471   0.348   4.969   3.491  0.8275 -2.0098  0.9105
  118SOL     vw  472   0.370   4.967   3.407  0.0799  0.1836  0.5969
  119SOL     ow  473   1.491   1.471   2.315 -0.4657  0.1324 -0.1585
  119SOL     hw  474   1.434   1.535   2.272  1.1709  0.8646 -1.3570
  119SOL     hw  475   1.435   1.395   2.330 -1.6390  0.6488 -1.6781
  119SOL     vw  476   1.476   1.470   2.311 -0.4045  0.2971 -0.5169
  120SOL     ow  477   4.831   3.523   0.039  0.0151  0.3495 -0.4204
  120SOL     hw  478   4.882   3.460   0.090 -0.4962 -0.2504 -0.6297
  120SOL     hw  479   4.740   3.497   0.053 -0.3038  1.9208  0.6336
  120SOL     vw  480   4.825   3.511   0.047 -0.0944  0.4777 -0.3090
  121SOL     ow  481   4.859   4.263   6.285  0.3849 -0.4933  0.2649
  121SOL     hw  482   4.812   4.219   6.356 -1.4424 -0.5915 -0.9257
  121SOL     hw  483   4.921   4.321   6.329 -0.2241 -1.0492  1.9167
  121SOL     vw  484   4.861   4.265   6.300  0.0634 -0.5796  0.3257
  122SOL     ow  485   3.524   4.732   0.748 -0.1727 -0.7995 -0.0282
  122SOL     hw  486   3.542   4.781   0.668 -4.4730 -1.4186 -1.6185
  122SOL     hw  487   3.579   4.653   0.740  2.4732  0.9368 -0.2304
  122SOL     vw  488   3.534   4.728   0.736 -0.3911 -0.6521 -0.2647
  123SOL     ow  489   6.538   0.347   1.279  0.9006 -0.7261 -0.4937
  123SOL     hw  490   6.600   0.416   1.253 -0.5991  0.0749 -2.1274
  123SOL     hw  491   6.576   0.267   1.244  1.5692 -0.4078 -0.5132
  123SOL     vw  492   6.551   0.346   1.271  0.7911 -0.5784 -0.7119
  124SOL     ow  493   6.083   0.271   1.731  0.2782 -0.2781  1.2669
  124SOL     hw  494   6.090   0.360   1.697  0.0228 -0.5073  0.5975
  124SOL     hw  495   6.055   0.218   1.656  2.7987 -1.3733  0.9929
  124SOL     vw  496   6.080   0.275   1.716  0.5770 -0.4528  1.1424
  125SOL     ow  497   1.326   6.113   0.994  0.0475 -0.0694  0.2707
  125SOL     hw  498   1.324   6.157   0.909 -1.4750 -2.6759 -1.1972
  125SOL     hw  499   1.235   6.112   1.023  0.7364  2.4055  2.9965
  125SOL     vw  500   1.313   6.119   0.987 -0.0624 -0.0865  0.4366
  126SOL     ow  501   5.937   1.984   1.556 -0.5986 -0.0648 -0.1433
  126SOL     hw  502   5.995   1.918   1.594 -0.1855  1.8709  2.8971
  126SOL     hw  503   5.873   2.002   1.624 -2.8742  0.1953 -2.2418
  126SOL     vw  504   5.937   1.977   1.570 -0.8440  0.2248 -0.0191
  127SOL     ow  505   1.559   4.892   6.141  0.2446  0.0153  0.6432
  127SOL     hw  506   1.629   4.871   6.079 -1.2050 -0.3349 -0.9437
  127SOL     hw  507   1.533   4.982   6.119 -0.4883 -0.2189  0.5415
  127SOL     vw  508   1.564   4.901   6.130 -0.0433 -0.0620  0.4203
  128SOL     ow  509   4.253   4.505   0.733  0.3319  0.3658  0.6358
  128SOL     hw  510   4.343   4.535   0.731  0.8561 -1.0984  0.8084
  128SOL     hw  511   4.234   4.481   0.642 -0.3031  1.7973  0.3751
  128SOL     vw  512   4.262   4.505   0.721  0.3173  0.3614  0.6242
  129SOL     ow  513   4.111   3.971   6.647  0.1408  0.6874 -0.1022
  129SOL     hw  514   4.184   3.909   6.651  1.6016  2.1667  5.3030
  129SOL     hw  515   4.136   4.033   6.578  2.6833 -0.3913 -0.2765
  129SOL     vw  516   4.124   3.971   6.638  0.6690  0.7402  0.5882
  130SOL     ow  517   7.025   5.838   6.069 -0.1401  0.1291  0.8197
  130SOL     hw  518   7.035   5.895   5.993  0.0893 -0.3325  0.5009
  130SOL     hw  519   7.114   5.824   6.101 -0.2552  0.5030  1.3078
  130SOL     vw  520   7.038   5.843   6.063 -0.1249  0.1175  0.8421
  131SOL     ow  521   1.736   4.124   2.424  0.8616 -0.8928 -0.1025
  131SOL     hw  522   1.814   4.166   2.389  0.0188  0.0357 -0.9075
  131SOL     hw  523   1.672   4.127   2.353 -0.7888  0.7404  1.3334
  131SOL     vw  524   1.737   4.130   2.410  0.5326 -0.5548 -0.0192
  132SOL     ow  525   2.217   0.873   6.701 -0.6347  0.1741 -0.3188
  132SOL     hw  526   2.193   0.904   6.789 -1.0593  1.4983 -0.8717
  132SOL     hw  527   2.313   0.871   6.703 -0.5774  1.6524 -0.2655
  132SOL     vw  528   2.227   0.877   6.713 -0.6832  0.5438 -0.3850
  133SOL     ow  529   2.133   6.530   0.972  0.0243  0.4021 -0.3642
  133SOL     hw  530   2.076   6.455   0.985 -0.6021  0.9474  0.1566
  133SOL     hw  531   2.221   6.494   0.967 -0.2960 -0.3811 -0.3881
  133SOL     vw  532   2.137   6.516   0.973 -0.1006  0.3710 -0.2987
  134SOL     ow  533   5.556   2.808   5.320  0.0173  0.1783 -0.6623
  134SOL     hw  534   5.618   2.828   5.391 -3.3106  2.2177  1.9981
  134SOL     hw  535   5.592   2.853   5.244  0.5813  3.6727  1.4436
  134SOL     vw  536   5.569   2.817   5.319 -0.3476  0.9085 -0.0336
  135SOL     ow  537   6.533   2.713   1.159 -0.5843 -0.2733  0.0166
  135SOL     hw  538   6.618   2.712   1.203  0.4471  0.6536 -1.8329
  135SOL     hw  539   6.478   2.656   1.213  1.1981 -0.9162  1.2664
  135SOL     vw  540   6.537   2.705   1.172 -0.2131 -0.2359 -0.0626
  136SOL     ow  541   1.105   4.729   4.439  0.3408 -0.0843 -0.2047
  136SOL     hw  542   1.124   4.801   4.379 -1.0970 -0.8122 -1.6243
  136SOL     hw  543   1.023   4.755   4.482  1.6756  0.7281  2.0285
  136SOL     vw  544   1.096   4.742   4.437  0.3272 -0.0732 -0.0973
  137SOL     ow  545   0.132   4.370   6.348  0.0012  0.4812 -0.5735
  137SOL     hw  546   0.045   4.380   6.387 -0.2888 -1.4495 -0.6285
  137SOL     hw  547   0.121   4.401   6.258 -0.2362  1.5883 -0.1822
  137SOL     vw  548   0.119   4.375   6.341 -0.0684  0.3722 -0.5293
  138SOL     ow  549   2.805   5.837   6.440 -0.3392 -0.2947 -0.3085
  138SOL     hw  550   2.758   5.857   6.521  1.2551 -1.3801  0.9580
  138SOL     hw  551   2.822   5.922   6.400 -0.3278  0.3382  0.9893
  138SOL     vw  552   2.801   5.851   6.446 -0.1273 -0.3545  0.0298
  139SOL     ow  553   3.457   6.238   3.241 -0.3033 -0.6806 -0.4962
  139SOL     hw  554   3.453   6.238   3.146 -2.6018 -0.5704 -0.4750
  139SOL     hw  555   3.498   6.322   3.263 -2.4486  0.7324 -1.4401
  139SOL     vw  556   3.462   6.249   3.232 -0.8895 -0.4797 -0.6180
  140SOL     ow  557   1.992   4.106   3.951  0.3406  0.3154 -0.1854
  140SOL     hw  558   2.067   4.049   3.964  1.2461  1.3065 -0.9170
  140SOL     hw  559   1.963   4.130   4.039 -0.0490 -1.2314  0.1309
  140SOL     vw  560   1.998   4.102   3.964  0.4088  0.2420 -0.2402
  141SOL     ow  561   1.059   0.585   5.803 -0.2083 -0.2243 -0.7804
  141SOL     hw  562   1.089   0.539   5.725  1.5503 -0.1099 -0.2193
  141SOL     hw  563   1.140   0.614   5.846 -1.1273 -0.3152  1.0947
  141SOL     vw  564   1.074   0.583   5.798 -0.0975 -0.2213 -0.4590
  142SOL     ow  565   6.754   2.874   4.107 -0.2375  0.4612  0.0625
  142SOL     hw  566   6.764   2.792   4.154  1.2033  1.4628  1.6157
  142SOL     hw  567   6.660   2.888   4.102 -0.4656  0.3448  2.7942
  142SOL     vw  568   6.743   2.865   4.112 -0.0775  0.5779  0.6278
  143SOL     ow  569   1.041   4.701   1.399  0.0169  0.3811 -0.0634
  143SOL     hw  570   1.121   4.728   1.445  0.0298  2.0583 -1.0129
  143SOL     hw  571   0.974   4.762   1.430 -0.8723 -0.8371  0.5120
  143SOL     vw  572   1.043   4.713   1.409 -0.0988  0.4416 -0.1128
  144SOL     ow  573   5.196   6.559   0.481 -0.4797  0.8006  0.2500
  144SOL     hw  574   5.234   6.539   0.566  0.4036 -1.8736 -0.6477
  144SOL     hw  575   5.122   6.616   0.500  1.6848  3.1246  2.4306
  144SOL     vw  576   5.191   6.564   0.495 -0.0775  0.7544  0.4193
  145SOL     ow  577   2.149   1.777   3.132  0.6327 -0.0734  0.0193
  145SOL     hw  578   2.161   1.846   3.066  1.4442  0.2996  0.5388
  145SOL     hw  579   2.182   1.698   3.090  1.3618  0.2056  0.0381
  145SOL     vw  580   2.155   1.776   3.118  0.8358  0.0126  0.0901
  146SOL     ow  581   2.092   2.309   5.341  0.2321 -0.6972 -0.1000
  146SOL     hw  582   1.997   2.312   5.332  0.2665 -0.5803 -0.4244
  146SOL     hw  583   2.107   2.311   5.436 -0.0680  0.0199 -0.0618
  146SOL     vw  584   2.081   2.310   5.353  0.1969 -0.5873 -0.1376
  147SOL     ow  585   6.016   5.098   1.980 -0.6632 -0.5292 -0.0685
  147SOL     hw  586   5.941   5.156   1.995 -1.7217 -2.1357  1.2745
  147SOL     hw  587   5.998   5.021   2.034  1.3757 -1.5116 -0.6751
  147SOL     vw  588   6.004   5.096   1.989 -0.5336 -0.8709  0.0287
  148SOL     ow  589   0.705   3.790   2.515  0.4437 -0.0930  0.4463
  148SOL     hw  590   0.760   3.835   2.579 -0.1811  1.2235  0.1017
  148SOL     hw  591   0.636   3.853   2.494 -0.5057 -1.2504 -0.0332
  148SOL     vw  592   0.703   3.804   2.520  0.2360 -0.0719  0.3375
  149SOL     ow  593   5.872   0.333   3.388  0.1155  0.4377  0.5134
  149SOL     hw  594   5.967   0.344   3.384  0.0695  1.1365  1.0628
  149SOL     hw  595   5.854   0.319   3.480 -0.4067  1.2670  0.5425
  149SOL     vw  596   5.882   0.333   3.399  0.0405  0.6393  0.5897
  150SOL     ow  597   5.551   0.927   2.692  0.4710  0.5740 -0.3082
  150SOL     hw  598   5.627   0.983   2.709  0.9484 -0.1199 -0.1175
  150SOL     hw  599   5.477   0.987   2.692  0.8640  1.0898  0.7898
  150SOL     vw  600   5.551   0.942   2.695  0.5860  0.5505 -0.1383
  151SOL     ow  601   4.868   2.400   3.443 -0.4006 -0.8250 -0.1567
  151SOL     hw  602   4.936   2.362   3.388  0.9593  1.3861 -0.1258
  151SOL     hw  603   4.815   2.453   3.384  0.9097  1.3502  0.4946
  151SOL     vw  604   4.870   2.402   3.428 -0.0484 -0.2463 -0.0665
  152SOL     ow  605   1.291   6.000   0.018 -0.3066 -0.3110  0.2054
  152SOL     hw  606   1.264   6.086   0.049  0.6313  0.3649 -0.7638
  152SOL     hw  607   1.374   5.983   0.061 -0.3819 -0.6356  0.2269
  152SOL     vw  608   1.298   6.009   0.028 -0.1928 -0.2649  0.0804
  153SOL     ow  609   1.044   5.571   4.551 -0.4614 -0.5486  0.2249
  153SOL     hw  610   1.060   5.660   4.521  0.4544 -0.4214  1.0522
  153SOL     hw  611   0.975   5.580   4.616  1.4697 -0.0217  2.3322
  153SOL     vw  612   1.037   5.584   4.556 -0.0858 -0.4621  0.6120
  154SOL     ow  613   5.887   5.995   6.978  0.1895  0.5326 -0.4038
  154SOL     hw  614   5.885   6.054   7.054 -0.7612 -0.7895  0.6285
  154SOL     hw  615   5.811   6.019   6.927  0.3421  0.8406 -0.4889
  154SOL     vw  616   5.877   6.006   6.982  0.0842  0.3989 -0.2789
  155SOL     ow  617   5.347   4.550   5.380  0.4979 -0.8462 -0.1650
  155SOL     hw  618   5.255   4.560   5.403  0.1049  0.2882 -1.9914
  155SOL     hw  619   5.349   4.563   5.285  2.6214 -0.2338 -0.0858
  155SOL     vw  620   5.335   4.553   5.370  0.7262 -0.6154 -0.3953
  156SOL     ow  621   6.625   2.434   0.531  0.0774  0.5416 -0.3351
  156SOL     hw  622   6.549   2.486   0.558 -0.9906 -0.4405 -1.3757
  156SOL     hw  623   6.641   2.459   0.441 -1.8202 -2.3750 -1.6272
  156SOL     vw  624   6.617   2.444   0.523 -0.3138  0.0272 -0.6428
  157SOL     ow  625   3.020   5.255   5.015  0.3665 -0.2323 -0.2498
  157SOL     hw  626   3.057   5.340   5.036 -1.9990  1.1063 -1.2007
  157SOL     hw  627   2.993   5.262   4.924 -2.8695 -0.7764  0.5509
  157SOL     vw  628   3.021   5.267   5.006 -0.3725 -0.1273 -0.2697
  158SOL     ow  629   0.489   2.630   0.679 -0.0503 -0.0010 -0.2708
  158SOL     hw  630   0.407   2.583   0.692  0.3791 -0.7906 -0.3023
  158SOL     hw  631   0.533   2.581   0.609  0.4861  0.3496 -0.1877
  158SOL     vw  632   0.484   2.617   0.671  0.0771 -0.0589 -0.2640
  159SOL     ow  633   3.977   5.261   4.698  0.0342  0.1959  0.2987
  159SOL     hw  634   3.929   5.316   4.759  0.9252  1.1243  0.1948
  159SOL     hw  635   3.949   5.172   4.718 -1.5548  0.6908  0.3623
  159SOL     vw  636   3.967   5.256   4.709 -0.0578  0.3836  0.2935
  160SOL     ow  637   1.838   2.073   0.657 -0.6340  0.2745 -0.7797
  160SOL     hw  638   1.831   2.073   0.752  2.6277 -4.2010 -0.1888
  160SOL     hw  639   1.885   2.154   0.636 -2.4984  1.9539  1.1577
  160SOL     vw  640   1.843   2.084   0.666 -0.4497 -0.0944 -0.4461
  161SOL     ow  641   2.595   6.035   2.007  0.1042 -0.5236 -0.0864
  161SOL     hw  642   2.587   5.947   1.971 -1.1590 -0.8304  0.8640
  161SOL     hw  643   2.624   6.022   2.097 -1.7293 -0.1164  0.6133
  161SOL     vw  644   2.598   6.022   2.014 -0.3045 -0.5105  0.1312
  162SOL     ow  645   1.773   4.199   3.441 -0.2100 -0.4545  0.5526
  162SOL     hw  646   1.748   4.195   3.534 -0.5644  0.6074  0.5236
  162SOL     hw  647   1.793   4.292   3.426 -2.2128 -0.2093 -0.9479
  162SOL     vw  648   1.773   4.211   3.451 -0.5210 -0.2820  0.3508
  163SOL     ow  649   6.364   2.558   3.115  0.1143  0.0525  0.2983
  163SOL     hw  650   6.332   2.647   3.132  1.6483  0.8865 -0.9796
  163SOL     hw  651   6.366   2.517   3.201 -1.0788  1.0910  0.8511
  163SOL     vw  652   6.360   2.564   3.129  0.1595  0.2995  0.2027
  164SOL     ow  653   6.483   2.999   6.128  0.6457  0.1254 -0.2575
  164SOL     hw  654   6.579   3.001   6.125  0.7283  2.6498  1.1004
  164SOL     hw  655   6.459   3.086   6.160 -1.9651 -1.4353  2.4914
  164SOL     vw  656   6.493   3.011   6.132  0.3119  0.2525  0.2847
  165SOL     ow  657   1.334   6.418   6.943  0.7331  0.3453  0.2934
  165SOL     hw  658   1.426   6.404   6.967 -0.1466 -2.0272  2.9582
  165SOL     hw  659   1.286   6.397   7.023 -2.1360  2.6150 -0.6621
  165SOL     vw  660   1.340   6.413   6.957  0.2385  0.3316  0.5190
  166SOL     ow  661   0.827   1.351   6.022 -0.6344  0.2101  0.2204
  166SOL     hw  662   0.791   1.277   5.975 -0.2462  0.3154 -0.2484
  166SOL     hw  663   0.921   1.349   6.002 -0.6311  0.8590  0.1568
  166SOL     vw  664   0.835   1.341   6.013 -0.5828  0.3096  0.1502
  167SOL     ow  665   6.150   4.327   2.451 -0.0444 -0.0540  0.3574
  167SOL     hw  666   6.115   4.266   2.386  1.7230  0.0998 -0.8149
  167SOL     hw  667   6.077   4.385   2.472 -0.5783  0.1187 -1.7838
  167SOL     vw  668   6.136   4.327   2.446  0.1185 -0.0107 -0.0798
  168SOL     ow  669   5.505   4.561   0.353 -0.5813 -0.4204 -0.4132
  168SOL     hw  670   5.549   4.640   0.385  0.1517 -1.1946  0.5420
  168SOL     hw  671   5.546   4.545   0.268 -1.0590  0.4700 -0.8307
  168SOL     vw  672   5.517   4.570   0.346 -0.5474 -0.4051 -0.3423
  169SOL     ow  673   2.015   2.252   0.517 -0.3687  0.0971  0.6179
  169SOL     hw  674   2.070   2.330   0.528  0.9706 -0.7508  0.1713
  169SOL     hw  675   2.026   2.229   0.425 -0.9642 -0.4744  0.6864
  169SOL     vw  676   2.024   2.260   0.506 -0.2705 -0.0901  0.5679
  170SOL     ow  677   5.717   6.597   1.255  0.0518 -0.4830 -0.3005
  170SOL     hw  678   5.706   6.692   1.257 -0.0849 -0.4984 -0.2481
  170SOL     hw  679   5.637   6.564   1.214  0.4181 -0.5299 -0.9790
  170SOL     vw  680   5.705   6.605   1.250  0.0820 -0.4911 -0.3831
  171SOL     ow  681   6.130   0.388   3.433 -0.3077 -0.0193  0.5020
  171SOL     hw  682   6.224   0.401   3.426 -0.0553 -1.1562  1.6745
  171SOL     hw  683   6.119   0.317   3.496 -1.9686  0.4644  0.8099
  171SOL     vw  684   6.141   0.381   3.440 -0.4935 -0.1055  0.6974
  172SOL     ow  685   2.895   4.232   1.572  0.1577 -0.6049 -0.1778
  172SOL     hw  686   2.956   4.159   1.571 -1.2554 -1.8487  0.3865
  172SOL     hw  687   2.925   4.290   1.501  3.6798  0.3761  1.9034
  172SOL     vw  688   2.907   4.230   1.562  0.4361 -0.6394  0.1712
  173SOL     ow  689   4.549   3.766   1.709 -0.2475  0.6739 -0.0091
  173SOL     hw  690   4.479   3.737   1.650  0.0101 -0.8383  0.3904
  173SOL     hw  691   4.581   3.848   1.669  0.6361 -0.7998 -2.5664
  173SOL     vw  692   4.544   3.773   1.696 -0.0968  0.2800 -0.2939
  174SOL     ow  693   6.692   1.091   4.831  0.0254  0.1758 -0.2490
  174SOL     hw  694   6.697   0.998   4.850 -2.2030  0.3765  1.6347
  174SOL     hw  695   6.665   1.095   4.739  0.1388 -1.0153 -0.3463
  174SOL     vw  696   6.689   1.080   4.821 -0.2537  0.0451 -0.0136
  175SOL     ow  697   3.416   2.352   3.596  0.6412 -0.0929  0.1547
  175SOL     hw  698   3.495   2.364   3.543  0.8020 -0.0528  0.4007
  175SOL     hw  699   3.443   2.375   3.685 -0.5526  3.6145 -0.2750
  175SOL     vw  700   3.430   2.357   3.601  0.5050  0.4014  0.1304
  176SOL     ow  701   6.580   5.275   1.563  0.1957  0.1184 -0.3172
  176SOL     hw  702   6.608   5.196   1.518  0.3883  0.0848 -0.1405
  176SOL     hw  703   6.661   5.322   1.583  0.0976  0.2473 -0.2174
  176SOL     vw  704   6.595   5.271   1.560  0.2079  0.1309 -0.2807
  177SOL     ow  705   5.053   4.601   2.281 -0.5341  0.5135 -0.1185
  177SOL     hw  706   5.084   4.521   2.323  0.7132  0.2498 -1.4520
  177SOL     hw  707   5.128   4.660   2.281 -1.6837  2.0743  1.6332
  177SOL     vw  708   5.067   4.598   2.286 -0.5212  0.6845 -0.0634
  178SOL     ow  709   5.918   5.999   5.511 -0.1095 -0.4535  0.1156
  178SOL     hw  710   5.949   5.947   5.436  1.1279  0.4950 -0.0732
  178SOL     hw  711   5.928   5.941   5.586 -2.2126 -1.7448 -0.5155
  178SOL     vw  712   5.924   5.984   5.511 -0.2239 -0.4985  0.0074
  179SOL     ow  713   6.398   2.314   1.793 -0.0914  0.0521  0.5995
  179SOL     hw  714   6.469   2.350   1.740  1.5871 -1.3017  1.8382
  179SOL     hw  715   6.434   2.309   1.882 -2.6906  1.9146  1.8752
  179SOL     vw  716   6.412   2.318   1.798 -0.2131  0.1192  0.9312
  180SOL     ow  717   6.318   4.848   0.827 -0.9001  0.3081 -0.4160
  180SOL     hw  718   6.347   4.789   0.897 -1.1045 -1.8957 -2.1059
  180SOL     hw  719   6.328   4.935   0.865  0.8996 -0.6934  1.6561
  180SOL     vw  720   6.323   4.852   0.841 -0.6893 -0.1149 -0.3656
  181SOL     ow  721   2.176   1.122   4.728 -0.4939  0.2117 -0.4942
  181SOL     hw  722   2.121   1.097   4.654 -0.3578 -0.6352 -0.3263
  181SOL     hw  723   2.255   1.069   4.718 -0.6012 -0.1408  0.4158
  181SOL     vw  724   2.179   1.112   4.717 -0.4902  0.0535 -0.3519
  182SOL     ow  725   3.219   6.936   1.311  0.2769 -0.7049  0.8184
  182SOL     hw  726   3.269   6.911   1.233 -2.4435 -2.1631 -0.6148
  182SOL     hw  727   3.169   6.858   1.334 -3.3773  1.2337  0.3834
  182SOL     vw  728   3.219   6.923   1.303 -0.5641 -0.6413  0.5719
  183SOL     ow  729   6.953   2.093   1.845 -0.3374  0.7432  0.4110
  183SOL     hw  730   6.946   2.126   1.934 -2.0234  0.6511  0.3513
  183SOL     hw  731   6.893   2.148   1.794 -2.2691 -1.5128  0.0773
  183SOL     vw  732   6.944   2.105   1.850 -0.8147  0.4333  0.3591
  184SOL     ow  733   1.850   2.387   0.854  0.2005  0.6044  0.6448
  184SOL     hw  734   1.927   2.336   0.828 -1.9589 -1.2028 -2.9789
  184SOL     hw  735   1.822   2.348   0.937  0.1667 -2.4684 -0.6959
  184SOL     vw  736   1.857   2.375   0.861 -0.0889 -0.0396 -0.0102
  185SOL     ow  737   4.862   0.912   1.639 -0.3830  0.7862  0.1193
  185SOL     hw  738   4.901   0.975   1.700  0.3239  1.2056 -0.7528
  185SOL     hw  739   4.867   0.954   1.554 -0.1468 -0.3342 -0.4396
  185SOL     vw  740   4.868   0.926   1.636 -0.2584  0.6937 -0.0695
  186SOL     ow  741   4.783   3.596   5.027  0.5190 -0.4113  0.2934
  186SOL     hw  742   4.842   3.620   4.956  1.0568  0.0033  0.8730
  186SOL     hw  743   4.760   3.679   5.069 -0.1311 -0.6097  0.3552
  186SOL     vw  744   4.787   3.610   5.023  0.5045 -0.3828  0.3779
  187SOL     ow  745   4.139   1.636   4.918  0.3936 -0.1787 -0.6883
  187SOL     hw  746   4.155   1.544   4.939 -2.6882 -1.1453 -2.1198
  187SOL     hw  747   4.113   1.636   4.826  1.3771  2.3136 -1.0415
  187SOL     vw  748   4.138   1.624   4.909  0.1168  0.0226 -0.9236
  188SOL     ow  749   0.920   6.713   5.969  0.0225 -0.0758 -0.0229
  188SOL     hw  750   0.871   6.757   6.039  1.8427  0.1267  1.2057
  188SOL     hw  751   0.930   6.623   6.000 -1.1700 -0.6410 -1.1704
  188SOL     vw  752   0.915   6.707   5.982  0.1054 -0.1240 -0.0122
  189SOL     ow  753   4.381   6.541   4.120 -0.2421 -0.0167  0.7366
  189SOL     hw  754   4.332   6.460   4.131  1.0350 -1.2210 -1.7433
  189SOL     hw  755   4.338   6.585   4.047 -0.7080  1.4415  1.8340
  189SOL     vw  756   4.369   6.536   4.112 -0.1349  0.0169  0.5543
  190SOL     ow  757   0.631   2.304   3.754  0.0052 -0.2878 -0.1152
  190SOL     hw  758   0.547   2.311   3.801 -0.4332  0.8289 -1.0336
  190SOL     hw  759   0.647   2.210   3.750 -0.8295 -0.4893  0.7251
  190SOL     vw  760   0.622   2.292   3.760 -0.1627 -0.1670 -0.1255
  191SOL     ow  761   1.326   2.596   2.878 -0.8501 -0.1533 -0.4840
  191SOL     hw  762   1.373   2.580   2.960  0.5374 -1.1526 -1.4277
  191SOL     hw  763   1.235   2.574   2.899 -0.3956 -1.1802  0.5949
  191SOL     vw  764   1.320   2.591   2.892 -0.6071 -0.4206 -0.4662
  192SOL     ow  765   5.262   1.866   0.046 -0.0032 -0.4387 -0.3421
  192SOL     hw  766   5.261   1.880  -0.048 -0.1557  1.0837 -0.1372
  192SOL     hw  767   5.179   1.902   0.077  1.0825  1.3646  0.6378
  192SOL     vw  768   5.251   1.873   0.038  0.1202  0.0001 -0.1858
  193SOL     ow  769   5.390   1.119   1.473 -0.0350 -0.5542 -0.6774
  193SOL     hw  770   5.447   1.158   1.540  0.6650 -0.6611 -1.2006
  193SOL     hw  771   5.369   1.032   1.507 -0.0334 -0.4445 -0.3962
  193SOL     vw  772   5.395   1.112   1.486  0.0575 -0.5538 -0.7093
  194SOL     ow  773   4.720   0.725   1.816  0.3149 -0.1157 -0.0250
  194SOL     hw  774   4.725   0.802   1.872  1.2615 -0.4678  0.3828
  194SOL     hw  775   4.643   0.677   1.847  0.8965 -0.3634  1.0558
  194SOL     vw  776   4.710   0.729   1.827  0.5164 -0.1948  0.1714
  195SOL     ow  777   4.608   6.741   4.234 -0.0758 -0.0805 -0.6838
  195SOL     hw  778   4.692   6.753   4.189 -0.1474 -2.4522 -1.5520
  195SOL     hw  779   4.551   6.809   4.197  0.5536 -0.4794 -2.4604
  195SOL     vw  780   4.612   6.752   4.223 -0.0024 -0.4458 -1.0326
  196SOL     ow  781   3.353   3.070   2.836 -0.2531 -0.2896 -0.0734
  196SOL     hw  782   3.402   3.151   2.822 -1.6298  0.2946 -1.8130
  196SOL     hw  783   3.393   3.007   2.776  0.0450 -0.5865  0.4235
  196SOL     vw  784   3.365   3.072   2.826 -0.3954 -0.2519 -0.2373
  197SOL     ow  785   3.191   2.729   4.225 -0.0930  0.0519  0.0375
  197SOL     hw  786   3.272   2.769   4.194  0.0267 -0.3903 -0.2375
  197SOL     hw  787   3.191   2.642   4.184 -0.9197  0.2109 -0.3110
  197SOL     vw  788   3.202   2.723   4.216 -0.1864  0.0145 -0.0448
  198SOL     ow  789   0.267   3.245   3.404 -0.7124  0.2467 -0.3662
  198SOL     hw  790   0.266   3.319   3.465 -0.0811  1.2398 -1.5163
  198SOL     hw  791   0.356   3.243   3.369 -0.2261 -2.0680  0.7798
  198SOL     vw  792   0.279   3.254   3.407 -0.5649  0.0724 -0.3666
  199SOL     ow  793   3.815   2.786   5.625  0.0573  0.5816 -0.0491
  199SOL     hw  794   3.823   2.729   5.701  2.6113  4.0938  2.6505
  199SOL     hw  795   3.903   2.793   5.589 -0.4208  1.7812 -1.1067
  199SOL     vw  796   3.828   2.779   5.630  0.3312  1.2033  0.1674
  200SOL     ow  797   5.512   6.898   2.148  0.3961 -0.4386 -0.0349
  200SOL     hw  798   5.441   6.834   2.137  1.2746 -1.4897  0.1845
  200SOL     hw  799   5.592   6.848   2.128  1.0719  0.7375 -0.3639
  200SOL     vw  800   5.513   6.883   2.144  0.6015 -0.4220 -0.0492
  201SOL     ow  801   0.086   5.878   2.476  0.8503 -0.0904  0.0415
  201SOL     hw  802   0.131   5.892   2.392 -0.5445  1.8156 -0.4577
  201SOL     hw  803   0.014   5.940   2.475 -2.5502 -3.6607  0.3351
  201SOL     vw  804   0.083   5.888   2.465  0.2177 -0.3099  0.0144
  202SOL     ow  805   1.727   0.951   1.435 -0.4253 -0.1750 -0.3617
  202SOL     hw  806   1.806   0.972   1.385 -0.4604  2.6581  0.5808
  202SOL     hw  807   1.756   0.952   1.526 -1.2091 -0.8172 -0.0994
  202SOL     vw  808   1.741   0.954   1.440 -0.5333  0.1140 -0.2028
  203SOL     ow  809   3.602   4.159   0.324  0.0961 -0.3176 -0.3102
  203SOL     hw  810   3.522   4.212   0.317 -1.8826 -3.1283 -0.7755
  203SOL     hw  811   3.651   4.179   0.244 -0.7167  0.5897 -0.6058
  203SOL     vw  812   3.598   4.169   0.312 -0.2723 -0.5689 -0.4106
  204SOL     ow  813   4.288   4.752   3.795  0.1494  0.4272  0.2751
  204SOL     hw  814   4.216   4.815   3.792 -0.5556 -0.3741 -0.3171
  204SOL     hw  815   4.329   4.759   3.708 -0.5928 -0.6480 -0.1842
  204SOL     vw  816   4.284   4.761   3.783 -0.0412  0.1795  0.1364
  205SOL     ow  817   5.586   4.730   1.992  0.5577  0.2994 -0.1001
  205SOL     hw  818   5.513   4.685   2.034  1.0815 -1.6339 -1.1542
  205SOL     hw  819   5.616   4.794   2.057 -2.8791  2.1817 -0.1199
  205SOL     vw  820   5.580   4.733   2.006  0.1733  0.2925 -0.2418
  206SOL     ow  821   5.353   2.241   0.092 -0.4466 -0.0131 -0.0834
  206SOL     hw  822   5.366   2.309   0.158 -0.2751  0.4548 -0.5947
  206SOL     hw  823   5.273   2.196   0.119 -2.1870  2.2117 -1.3074
  206SOL     vw  824   5.344   2.244   0.105 -0.6535  0.3421 -0.3123
  207SOL     ow  825   3.612   6.406   1.699  0.8271 -0.2632 -0.2140
  207SOL     hw  826   3.692   6.355   1.706  1.3203  0.5809  0.6151
  207SOL     hw  827   3.609   6.457   1.780  0.0991  0.6401 -0.7817
  207SOL     vw  828   3.622   6.406   1.711  0.7962 -0.0327 -0.1795
  208SOL     ow  829   6.557   5.912   4.853 -0.9693 -0.0171  0.0995
  208SOL     hw  830   6.596   5.831   4.823  0.4486  0.6775 -0.0052
  208SOL     hw  831   6.578   5.916   4.946 -0.3598  0.5892 -0.0579
  208SOL     vw  832   6.565   5.902   4.861 -0.7019  0.1547  0.0651
  209SOL     ow  833   1.004   6.735   2.232  0.7453  0.1541 -0.4846
  209SOL     hw  834   1.040   6.804   2.177  0.7266 -0.3575 -1.1576
  209SOL     hw  835   0.948   6.684   2.172 -0.3489  0.3740  0.3131
  209SOL     vw  836   1.001   6.737   2.216  0.5985  0.1156 -0.4681
  210SOL     ow  837   4.080   0.831   3.845 -0.3933  0.2270 -0.2225
  210SOL     hw  838   4.024   0.858   3.773  1.0275  1.2785 -0.9873
  210SOL     hw  839   4.020   0.815   3.918 -1.7059  0.8837 -1.1267
  210SOL     vw  840   4.065   0.832   3.845 -0.3791  0.4524 -0.4427
  211SOL     ow  841   5.599   0.490   3.193 -0.1539 -0.4944 -0.3375
  211SOL     hw  842   5.533   0.542   3.147 -2.5102 -3.1232 -0.2105
  211SOL     hw  843   5.600   0.406   3.147 -0.5176 -2.2294  2.5848
  211SOL     vw  844   5.590   0.486   3.181 -0.5128 -1.0701  0.0646
  212SOL     ow  845   3.260   3.096   1.602  0.2545 -0.6066 -0.0156
  212SOL     hw  846   3.195   3.166   1.614  0.2984 -0.0647 -2.3693
  212SOL     hw  847   3.212   3.016   1.621 -1.1040 -0.1968 -1.3985
  212SOL     vw  848   3.245   3.095   1.606  0.0811 -0.4810 -0.5087
  213SOL     ow  849   5.412   6.760   2.401 -1.0061 -0.6819 -0.0167
  213SOL     hw  850   5.369   6.762   2.487 -0.5626 -2.0291  0.2581
  213SOL     hw  851   5.345   6.726   2.342 -1.1744 -0.1666 -0.1266
  213SOL     vw  852   5.397   6.756   2.405 -0.9699 -0.7918  0.0050
  214SOL     ow  853   3.331   1.778   5.814  0.2109 -0.3811  0.2220
  214SOL     hw  854   3.400   1.833   5.777 -0.2712 -0.8035 -1.3917
  214SOL     hw  855   3.367   1.745   5.896  2.3066 -1.3329 -1.0104
  214SOL     vw  856   3.345   1.781   5.820  0.4237 -0.5624 -0.1533
  215SOL     ow  857   0.773   4.045   3.239 -0.2420 -0.6817  0.2352
  215SOL     hw  858   0.716   3.969   3.234  0.0218 -0.8962  0.4700
  215SOL     hw  859   0.817   4.047   3.154 -2.5232  1.0298 -1.0405
  215SOL     vw  860   0.771   4.035   3.227 -0.5082 -0.4840  0.0979
  216SOL     ow  861   4.701   6.221   2.811 -0.3387 -0.0164 -0.0990
  216SOL     hw  862   4.663   6.173   2.885 -1.4494 -1.4398 -1.5308
  216SOL     hw  863   4.730   6.304   2.849 -0.8029 -0.7271  1.9404
  216SOL     vw  864   4.700   6.226   2.826 -0.5467 -0.2980 -0.0187
  217SOL     ow  865   1.602   6.475   3.768 -0.6520  0.0809 -0.2797
  217SOL     hw  866   1.566   6.563   3.769 -0.5418  0.1303  0.7656
  217SOL     hw  867   1.687   6.484   3.725 -0.9461  0.3486 -0.8148
  217SOL     vw  868   1.609   6.488   3.763 -0.6762  0.1230 -0.2124
  218SOL     ow  869   3.460   4.764   1.055  0.3256 -0.6835  0.4731
  218SOL     hw  870   3.453   4.677   1.093  0.3550 -1.3026 -0.8625
  218SOL     hw  871   3.448   4.824   1.128 -0.8471 -1.8006  1.2292
  218SOL     vw  872   3.458   4.761   1.070  0.1748 -0.9127  0.3966
  219SOL     ow  873   0.508   2.241   1.899  0.1105  0.5390 -0.2098
  219SOL     hw  874   0.518   2.150   1.872  0.0640  0.4672  0.0075
  219SOL     hw  875   0.440   2.238   1.966  1.9495  0.3331  1.7738
  219SOL     vw  876   0.500   2.228   1.904  0.3469  0.5022  0.0805
  220SOL     ow  877   2.417   3.459   1.449 -0.1044 -0.4451 -0.2985
  220SOL     hw  878   2.381   3.512   1.377 -1.0960  1.1006  1.2369
  220SOL     hw  879   2.432   3.522   1.520  0.8551 -1.9036  0.8708
  220SOL     vw  880   2.414   3.475   1.449 -0.1087 -0.4336  0.0584
  221SOL     ow  881   4.590   2.180   4.490  0.3141 -0.9095 -0.4457
  221SOL     hw  882   4.531   2.105   4.494 -1.1014  0.1457 -0.6374
  221SOL     hw  883   4.614   2.188   4.398 -0.3498 -0.5437 -0.5951
  221SOL     vw  884   4.586   2.171   4.479  0.0398 -0.7221 -0.4907
  222SOL     ow  885   1.074   1.880   5.149 -0.3569 -0.5380  0.4227
  222SOL     hw  886   1.142   1.883   5.217 -0.2301 -1.6749  0.3688
  222SOL     hw  887   1.039   1.968   5.147 -0.9935 -0.6748  2.6285
  222SOL     vw  888   1.079   1.892   5.158 -0.4241 -0.7060  0.7067
  223SOL     ow  889   4.008   3.826   5.302 -0.1239 -0.8780 -0.4241
  223SOL     hw  890   4.079   3.767   5.328  0.9329  0.2580 -0.6573
  223SOL     hw  891   3.937   3.767   5.276  0.8198 -2.0520 -0.4558
  223SOL     vw  892   4.008   3.810   5.302  0.1397 -0.8831 -0.4590
  224SOL     ow  893   6.671   3.823   5.656 -0.4463  0.0488  0.3531
  224SOL     hw  894   6.647   3.817   5.564  2.0274 -0.6710 -0.3100
  224SOL     hw  895   6.698   3.914   5.669  2.3327 -0.5680 -0.5515
  224SOL     vw  896   6.671   3.834   5.646  0.2468 -0.1278  0.1464
  225SOL     ow  897   6.068   4.136   2.294  0.6307  0.6797  0.3222
  225SOL     hw  898   6.027   4.208   2.246  0.4762 -0.5617 -1.5033
  225SOL     hw  899   6.136   4.104   2.234  0.8873 -0.5098  1.2295
  225SOL     vw  900   6.072   4.142   2.280  0.6440  0.3591  0.2010
  226SOL     ow  901   0.728   2.042   0.800  0.0709 -0.0350 -0.3589
  226SOL     hw  902   0.657   1.994   0.757  0.0107 -0.3518  0.0928
  226SOL     hw  903   0.736   2.002   0.886  0.2210  0.5711 -0.0842
  226SOL     vw  904   0.720   2.031   0.806  0.0828  0.0032 -0.2630
  227SOL     ow  905   0.982   5.068   5.509 -0.6399  0.5610 -0.2618
  227SOL     hw  906   1.001   5.011   5.583 -1.0530  0.2261 -0.4083
  227SOL     hw  907   0.887   5.080   5.511 -0.6893  0.3223 -0.8996
  227SOL     vw  908   0.972   5.062   5.519 -0.7010  0.4854 -0.3653
  228SOL     ow  909   2.242   3.134   4.436 -0.0334 -0.0485  0.2914
  228SOL     hw  910   2.316   3.090   4.477  0.8624  0.5444 -0.6455
  228SOL     hw  911   2.253   3.119   4.342  0.6174  2.5237 -0.1365
  228SOL     vw  912   2.253   3.126   4.429  0.1706  0.3691  0.1113
  229SOL     ow  913   2.631   6.844   6.860  0.3830 -0.2406 -0.7782
  229SOL     hw  914   2.638   6.895   6.780  0.9169  1.2888  0.2017
  229SOL     hw  915   2.701   6.876   6.916 -1.0650  0.0319  0.9919
  229SOL     vw  916   2.641   6.855   6.857  0.2623 -0.0026 -0.4153
  230SOL     ow  917   6.330   4.286   6.215  0.2478  0.1493  0.5185
  230SOL     hw  918   6.387   4.217   6.250 -1.1005 -0.6164  1.2685
  230SOL     hw  919   6.289   4.247   6.138  0.5585  0.6214  0.1103
  230SOL     vw  920   6.332   4.272   6.210  0.1106  0.1109  0.5636
  231SOL     ow  921   2.195   3.481   2.193  0.3736 -0.7324 -0.1757
  231SOL     hw  922   2.276   3.432   2.208  0.3681 -0.7891 -0.3286
  231SOL     hw  923   2.210   3.529   2.112 -0.8077 -3.0552 -1.9297
  231SOL     vw  924   2.207   3.481   2.185  0.2170 -1.0462 -0.4272
  232SOL     ow  925   5.092   3.102   6.269  0.1941 -0.6684 -0.1575
  232SOL     hw  926   5.150   3.167   6.229  0.4110 -1.0511 -0.4718
  232SOL     hw  927   5.026   3.085   6.201 -0.2784 -0.2525  0.1891
  232SOL     vw  928   5.091   3.108   6.254  0.1605 -0.6641 -0.1535
  233SOL     ow  929   4.163   4.410   0.977 -0.0569 -0.4779  0.2861
  233SOL     hw  930   4.080   4.445   1.008 -0.5396 -2.1306  1.0245
  233SOL     hw  931   4.191   4.469   0.907 -0.4648  1.6737  1.8472
  233SOL     vw  932   4.156   4.422   0.972 -0.1743 -0.4120  0.5895
  234SOL     ow  933   3.804   3.018   4.160 -0.2721 -0.0165 -1.0635
  234SOL     hw  934   3.749   2.999   4.236 -1.4205  0.5746 -1.7289
  234SOL     hw  935   3.874   3.074   4.194 -1.0008  0.5728 -0.5232
  234SOL     vw  936   3.806   3.023   4.174 -0.5199  0.1392 -1.0800
  235SOL     ow  937   2.042   3.353   2.392 -1.3323  0.2095 -0.6297
  235SOL     hw  938   2.060   3.263   2.366  1.6439 -0.7493  3.7281
  235SOL     hw  939   1.953   3.350   2.428 -1.0961 -1.1586 -0.0951
  235SOL     vw  940   2.032   3.341   2.394 -0.9086 -0.0974  0.0157
  236SOL     ow  941   5.426   3.108   6.037 -0.1888 -0.2789 -0.6237
  236SOL     hw  942   5.478   3.028   6.032 -0.2441 -0.4517  1.0161
  236SOL     hw  943   5.385   3.104   6.124  0.9891  2.2236  0.1372
  236SOL     vw  944   5.427   3.097   6.048 -0.0410  0.0285 -0.3071
  237SOL     ow  945   5.976   6.056   3.535 -0.9009 -0.6861  0.0292
  237SOL     hw  946   6.021   6.040   3.618  1.5098  0.5557 -0.9443
  237SOL     hw  947   6.015   5.993   3.474  0.3299  1.0306 -1.0641
  237SOL     vw  948   5.987   6.046   3.538 -0.4206 -0.2959 -0.2434
  238SOL     ow  949   0.835   3.446   3.562  0.3864  0.6479  0.2695
  238SOL     hw  950   0.890   3.472   3.488 -1.7943  3.7303 -0.4227
  238SOL     hw  951   0.748   3.432   3.525 -0.4328  0.7587  2.0278
  238SOL     vw  952   0.831   3.448   3.548 -0.0094  1.0691  0.4101
  239SOL     ow  953   1.794   3.335   5.437  0.3913 -0.1243  0.2641
  239SOL     hw  954   1.745   3.373   5.509 -1.4933 -1.9873  0.0584
  239SOL     hw  955   1.871   3.295   5.478 -0.9072 -1.6072  1.4030
  239SOL     vw  956   1.797   3.335   5.452 -0.0287 -0.5659  0.3874
  240SOL     ow  957   1.014   5.724   3.572 -0.4166 -0.7765 -0.6104
  240SOL     hw  958   1.057   5.642   3.546  0.9071 -0.4723  0.5539
  240SOL     hw  959   1.062   5.754   3.649 -1.5210  0.5889 -0.4083
  240SOL     vw  960   1.026   5.717   3.578 -0.3877 -0.5565 -0.4300
  241SOL     ow  961   1.968   2.990   1.785  0.7787 -0.5965  0.6317
  241SOL     hw  962   1.966   2.969   1.692  1.5285 -0.9793  0.6914
  241SOL     hw  963   1.966   3.085   1.788  1.8057 -0.5400  0.1664
  241SOL     vw  964   1.968   2.999   1.773  1.0130 -0.6394  0.5782
  242SOL     ow  965   0.578   2.527   1.844 -0.5026  0.1483  0.3540
  242SOL     hw  966   0.548   2.568   1.763  0.8650  0.4340 -0.0384
  242SOL     hw  967   0.582   2.598   1.907  0.4511  0.3518  0.0788
  242SOL     vw  968   0.575   2.541   1.841 -0.1963  0.2129  0.2660
  243SOL     ow  969   4.850   2.588   3.648  0.5807  0.4871  0.2728
  243SOL     hw  970   4.895   2.622   3.725  1.5510  0.5012 -0.2878
  243SOL     hw  971   4.890   2.635   3.575 -0.9217  1.1148 -0.1899
  243SOL     vw  972   4.861   2.599   3.648  0.5107  0.5718  0.1378
  244SOL     ow  973   3.298   0.298   6.697 -0.1533 -0.7020  0.9275
  244SOL     hw  974   3.373   0.327   6.645 -0.5271  0.8023  1.1842
  244SOL     hw  975   3.256   0.230   6.643 -1.8278  2.3013 -1.8679
  244SOL     vw  976   3.302   0.293   6.683 -0.4236 -0.1073  0.5925
  245SOL     ow  977   4.601   6.276   0.365 -0.2231  0.3803 -0.6056
  245SOL     hw  978   4.690   6.304   0.388 -0.5464  1.3314 -0.4407
  245SOL     hw  979   4.605   6.259   0.271  0.6648 -1.7689 -0.2333
  245SOL     vw  980   4.613   6.278   0.356 -0.1488  0.2222 -0.5347
  246SOL     ow  981   6.651   4.378   3.987  0.1288 -0.4188 -0.8835
  246SOL     hw  982   6.683   4.442   3.923 -1.9808  1.3263 -0.3104
  246SOL     hw  983   6.696   4.399   4.068  0.2463 -0.3979 -0.9539
  246SOL     vw  984   6.661   4.389   3.989 -0.1342 -0.1862 -0.8172
  247SOL     ow  985   5.382   5.081   3.038  0.7718  0.2333  0.0155
  247SOL     hw  986   5.360   5.153   3.096  3.0490  0.2544  0.9514
  247SOL     hw  987   5.314   5.016   3.053  0.7184  0.6757  1.9539
  247SOL     vw  988   5.370   5.082   3.047  1.0650  0.2944  0.3947
  248SOL     ow  989   0.738   1.142   5.880  0.3018 -0.5247 -0.2001
  248SOL     hw  990   0.678   1.070   5.898 -1.2367  0.6096 -0.5350
  248SOL     hw  991   0.768   1.126   5.790 -1.1067 -0.0735 -0.7883
  248SOL     vw  992   0.734   1.131   5.870 -0.0870 -0.3155 -0.3219
  249SOL     ow  993   1.158   3.439   5.400 -0.1905 -1.0756  0.0093
  249SOL     hw  994   1.134   3.391   5.480 -0.4421 -0.4143  0.3375
  249SOL     hw  995   1.139   3.531   5.420  0.9067 -0.7456 -0.3728
  249SOL     vw  996   1.153   3.445   5.413 -0.0790 -0.9447  0.0024
  250SOL     ow  997   2.315   6.367   6.905 -0.3534  0.4311 -0.6554
  250SOL     hw  998   2.339   6.282   6.869 -0.7881 -1.1550  2.4193
  250SOL     hw  999   2.229   6.385   6.868 -0.8806 -1.2089 -0.3294
  250SOL     vw 1000   2.307   6.358   6.896 -0.4803  0.0055 -0.2067
  251SOL     ow 1001   3.925   2.760   2.186 -0.1148  0.5631 -0.1494
  251SOL     hw 1002   4.002   2.786   2.136  1.5651 -1.0085  1.4636
  251SOL     hw 1003   3.960   2.712   2.261 -2.7027 -0.7833  0.3154
  251SOL     vw 1004   3.940   2.757   2.190 -0.2346  0.1781  0.1248
  252SOL     ow 1005   0.194   2.162   1.863  0.1566 -0.8107 -0.0073
  252SOL     hw 1006   0.185   2.155   1.958 -4.5212 -1.4771 -0.2696
  252SOL     hw 1007   0.197   2.256   1.846  2.2429 -0.6907  0.7638
  252SOL     vw 1008   0.193   2.173   1.874 -0.1853 -0.8829  0.0598
  253SOL     ow 1009   5.302   0.988   0.736 -0.0598  0.0264  0.4796
  253SOL     hw 1010   5.338   1.041   0.807  1.2426  0.2805 -0.3259
  253SOL     hw 1011   5.377   0.935   0.706 -1.4975 -3.0080  1.8582
  253SOL     vw 1012   5.317   0.988   0.741 -0.0775 -0.3405  0.5552
  254SOL     ow 1013   5.096   0.249   5.250 -0.0814  0.1613 -0.0831
  254SOL     hw 1014   5.011   0.272   5.212  0.5558  0.2572 -1.5042
  254SOL     hw 1015   5.156   0.243   5.175  1.0401 -0.5095  0.8216
  254SOL     vw 1016   5.093   0.251   5.235  0.1504  0.0855 -0.1512
  255SOL     ow 1017   6.432   6.260   5.253  0.8910  0.3846 -0.8137
  255SOL     hw 1018   6.441   6.165   5.247 -1.4657 -0.0021  0.3172
  255SOL     hw 1019   6.482   6.285   5.331  0.9589 -0.0386 -0.7209
  255SOL     vw 1020   6.439   6.251   5.262  0.5891  0.2778 -0.6521
  256SOL     ow 1021   3.363   1.836   4.329 -0.0728  0.1701  0.2933
  256SOL     hw 1022   3.456   1.818   4.313 -0.0428 -0.4014  1.0556
  256SOL     hw 1023   3.316   1.776   4.271  0.0377 -1.0421  1.4116
  256SOL     vw 1024   3.369   1.826   4.319 -0.0544 -0.0653  0.5417
  257SOL     ow 1025   5.788   5.907   2.873  0.8828 -0.0969  0.7203
  257SOL     hw 1026   5.876   5.910   2.912  0.9062 -0.6139  0.7112
  257SOL     hw 1027   5.800   5.857   2.792  0.8435  1.0000  0.0155
  257SOL     vw 1028   5.802   5.901   2.867  0.8807 -0.0205  0.6261
  258SOL     ow 1029   6.998   1.308   5.854  0.0242  0.4245 -0.2154
  258SOL     hw 1030   7.085   1.335   5.885  0.3387  0.6059 -1.2142
  258SOL     hw 1031   6.937   1.367   5.899  0.6049  1.9858 -1.3723
  258SOL     vw 1032   7.002   1.319   5.864  0.1423  0.6544 -0.4997
  259SOL     ow 1033   5.253   1.639   0.205  0.1860  0.1749 -0.7771
  259SOL     hw 1034   5.163   1.619   0.178  0.6219  0.1519 -2.3200
  259SOL     hw 1035   5.255   1.735   0.210 -0.6365  0.1427  2.0379
  259SOL     vw 1036   5.241   1.649   0.202  0.1349  0.1676 -0.6093
  260SOL     ow 1037   0.469   2.884   2.282 -0.0107  0.0080  0.4312
  260SOL     hw 1038   0.544   2.932   2.248 -0.4015  2.2123  2.4623
  260SOL     hw 1039   0.508   2.807   2.324  0.9190  0.1925 -0.0490
  260SOL     vw 1040   0.484   2.880   2.283  0.0604  0.3233  0.6359
  261SOL     ow 1041   6.544   4.546   1.407 -0.5840 -0.7829  0.7401
  261SOL     hw 1042   6.560   4.582   1.320 -3.2977  0.2803  0.6078
  261SOL     hw 1043   6.630   4.549   1.450  1.1790 -2.6571 -2.2837
  261SOL     vw 1044   6.557   4.551   1.401 -0.7095 -0.8898  0.3237
  262SOL     ow 1045   1.348   5.929   5.626 -0.0214 -0.1490  0.4379
  262SOL     hw 1046   1.303   5.863   5.678 -0.8767 -0.0576 -0.1765
  262SOL     hw 1047   1.306   6.012   5.649 -2.2918 -0.3929 -2.2981
  262SOL     vw 1048   1.337   5.931   5.636 -0.4337 -0.1690 -0.0043
  263SOL     ow 1049   6.819   5.718   6.493 -0.7496 -0.0288 -0.0304
  263SOL     hw 1050   6.890   5.660   6.521  1.1293  1.9472 -0.4444
  263SOL     hw 1051   6.841   5.803   6.532 -0.6682  1.6454 -3.3993
  263SOL     vw 1052   6.831   5.722   6.502 -0.4909  0.4530 -0.5298
  264SOL     ow 1053   2.253   0.165   6.705  0.2460  0.1240 -0.3760
  264SOL     hw 1054   2.192   0.159   6.778  0.4455  2.6468  0.0889
  264SOL     hw 1055   2.338   0.181   6.745  0.0135  3.8970 -1.0587
  264SOL     vw 1056   2.256   0.166   6.720  0.2418  0.9547 -0.4046
  265SOL     ow 1057   4.334   3.052   1.111 -0.4122 -0.8094 -0.6364
  265SOL     hw 1058   4.347   3.100   1.193 -3.4728  1.9196 -1.5146
  265SOL     hw 1059   4.360   3.113   1.042 -1.2087 -1.6902 -1.7651
  265SOL     vw 1060   4.339   3.066   1.113 -0.9212 -0.5656 -0.9012
  266SOL     ow 1061   0.732   6.024   3.545  0.1801  0.2206  0.1729
  266SOL     hw 1062   0.659   6.060   3.596 -0.4833  0.5827 -1.0144
  266SOL     hw 1063   0.704   5.936   3.522 -0.0575  0.5021 -0.6275
  266SOL     vw 1064   0.719   6.017   3.549  0.0612  0.3054 -0.0893
  267SOL     ow 1065   6.421   0.928   2.678  0.2800  0.2030  0.1072
  267SOL     hw 1066   6.433   0.893   2.590 -2.8606  1.6447 -1.0570
  267SOL     hw 1067   6.396   0.853   2.731  3.4171 -0.9068  0.1852
  267SOL     vw 1068   6.419   0.914   2.673  0.2794  0.2468 -0.0362
  268SOL     ow 1069   3.652   6.152   2.275  0.0332  0.3609  0.0868
  268SOL     hw 1070   3.693   6.169   2.190 -1.1800  1.4608 -0.3106
  268SOL     hw 1071   3.560   6.135   2.255 -0.1732  0.1474  1.1428
  268SOL     vw 1072   3.645   6.152   2.261 -0.1541  0.4776  0.1737
  269SOL     ow 1073   3.277   3.931   4.071  0.0697 -0.6126 -0.7729
  269SOL     hw 1074   3.212   3.996   4.044  0.8404  0.4097 -0.2223
  269SOL     hw 1075   3.271   3.862   4.004 -0.4649  0.2276 -1.6185
  269SOL     vw 1076   3.268   3.931   4.058  0.1009 -0.3668 -0.8118
  270SOL     ow 1077   0.774   4.103   3.524 -0.1671  0.0871  0.0700
  270SOL     hw 1078   0.828   4.065   3.594 -0.7048  0.7668  0.8774
  270SOL     hw 1079   0.685   4.103   3.560 -0.4083  0.6833 -0.5124
  270SOL     vw 1080   0.770   4.098   3.538 -0.2699  0.2553  0.0997
  271SOL     ow 1081   4.289   1.347   4.603  0.7562  0.2394  0.7654
  271SOL     hw 1082   4.258   1.307   4.684 -1.6061  0.3811  0.0113
  271SOL     hw 1083   4.280   1.278   4.537  2.4746  0.1811  0.5425
  271SOL     vw 1084   4.283   1.333   4.605  0.6711  0.2505  0.6361
  272SOL     ow 1085   4.912   4.953   1.354  0.2942 -0.2697  0.2956
  272SOL     hw 1086   4.986   5.013   1.365 -0.7548  0.9563  1.0785
  272SOL     hw 1087   4.872   4.949   1.441  0.8666 -2.9031  0.5021
  272SOL     vw 1088   4.916   4.961   1.367  0.2313 -0.4556  0.4261
  273SOL     ow 1089   2.165   3.669   5.913 -0.2464 -0.6988  0.5585
  273SOL     hw 1090   2.118   3.701   5.837 -0.0789  0.6327  0.9838
  273SOL     hw 1091   2.189   3.579   5.891  0.1199 -0.2198 -1.0943
  273SOL     vw 1092   2.162   3.662   5.900 -0.1761 -0.4599  0.3963
  274SOL     ow 1093   0.054   4.267   1.109 -0.6231  0.2439 -1.0223
  274SOL     hw 1094  -0.040   4.274   1.089 -0.7493  1.5535 -0.1196
  274SOL     hw 1095   0.059   4.279   1.203  0.4775  0.4133 -1.0938
  274SOL     vw 1096   0.042   4.270   1.119 -0.4946  0.4392 -0.9125
  275SOL     ow 1097   3.610   3.259   0.093  0.3600 -0.0442 -0.5557
  275SOL     hw 1098   3.576   3.242   0.005 -1.2717  0.5343 -0.0899
  275SOL     hw 1099   3.535   3.295   0.140  1.2308 -0.2359  1.0453
  275SOL     vw 1100   3.595   3.261   0.088  0.2596  0.0068 -0.2830
  276SOL     ow 1101   2.950   5.759   5.084 -0.2839 -0.0637 -0.2620
  276SOL     hw 1102   2.960   5.771   4.989 -3.0019 -1.5200 -0.8530
  276SOL     hw 1103   2.857   5.772   5.100 -0.1724 -1.4409  1.9579
  276SOL     vw 1104   2.939   5.762   5.073 -0.6276 -0.4377 -0.0467
  277SOL     ow 1105   2.656   5.898   5.244 -0.5041  0.8454  0.3680
  277SOL     hw 1106   2.664   5.819   5.298  2.0405 -0.6374 -1.9469
  277SOL     hw 1107   2.568   5.893   5.208 -0.1757 -1.4030 -0.2778
  277SOL     vw 1108   2.645   5.887   5.246 -0.1252  0.3531 -0.0229
  278SOL     ow 1109   2.006   0.047   2.374 -0.2753 -0.0425 -0.1725
  278SOL     hw 1110   2.102   0.047   2.368 -0.3560 -0.8305 -2.4375
  278SOL     hw 1111   1.978  -0.017   2.309 -2.4160  2.2688 -1.6852
  278SOL     vw 1112   2.015   0.039   2.365 -0.5683  0.1585 -0.6710
  279SOL     ow 1113   3.671   1.836   2.606 -0.2445  0.2100  0.2268
  279SOL     hw 1114   3.582   1.808   2.584 -0.2640  0.5859 -0.1913
  279SOL     hw 1115   3.714   1.756   2.636 -0.1476 -0.4196 -1.4567
  279SOL     vw 1116   3.665   1.822   2.607 -0.2344  0.1765 -0.0505
  280SOL     ow 1117   4.854   4.025   6.074 -0.5630 -0.1275 -0.3007
  280SOL     hw 1118   4.795   3.975   6.131 -0.0303 -0.4377 -0.0094
  280SOL     hw 1119   4.879   3.962   6.006 -1.1737  0.2336 -0.8617
  280SOL     vw 1120   4.850   4.010   6.073 -0.5734 -0.1206 -0.3364
  281SOL     ow 1121   1.776   6.419   2.687  0.3361 -0.6273  0.2272
  281SOL     hw 1122   1.826   6.357   2.740 -1.3311  0.5399  3.3878
  281SOL     hw 1123   1.728   6.364   2.625  0.5204 -2.2947  1.4898
  281SOL     vw 1124   1.776   6.403   2.686  0.1404 -0.6931  0.8106
  282SOL     ow 1125   6.062   0.343   0.671  0.0263 -0.8289 -0.2708
  282SOL     hw 1126   6.120   0.368   0.599 -1.0623  0.5156 -0.7126
  282SOL     hw 1127   5.974   0.344   0.633 -0.4429 -1.4843  0.7401
  282SOL     vw 1128   6.058   0.346   0.656 -0.1791 -0.7380 -0.1957
  283SOL     ow 1129   4.392   6.791   5.222 -0.1340  0.3604 -0.1252
  283SOL     hw 1130   4.475   6.838   5.229 -1.6347  3.3157 -0.4468
  283SOL     hw 1131   4.395   6.726   5.292  1.2454  2.4710  1.9279
  283SOL     vw 1132   4.403   6.789   5.233 -0.1500  1.0290  0.1032
  284SOL     ow 1133   0.517   0.480   1.657  0.2179 -0.1299 -0.5730
  284SOL     hw 1134   0.428   0.450   1.636 -0.3307 -2.3495  3.8555
  284SOL     hw 1135   0.506   0.573   1.678 -0.3806  0.3887 -2.8949
  284SOL     vw 1136   0.504   0.489   1.657  0.0666 -0.3543 -0.2951
  285SOL     ow 1137   4.309   3.558   3.771  0.6920 -0.5883  0.3206
  285SOL     hw 1138   4.330   3.552   3.678  0.0559 -2.2904  0.2625
  285SOL     hw 1139   4.343   3.478   3.809 -0.5231 -0.6887  1.2484
  285SOL     vw 1140   4.316   3.547   3.764  0.4480 -0.8261  0.4352
  286SOL     ow 1141   7.015   1.713   3.050 -0.1329 -0.2478  0.2765
  286SOL     hw 1142   7.028   1.724   3.144 -0.1970 -1.6445  0.4735
  286SOL     hw 1143   7.085   1.653   3.023 -0.2581 -0.0440 -0.5288
  286SOL     vw 1144   7.026   1.707   3.059 -0.1581 -0.4052  0.1965
  287SOL     ow 1145   6.702   0.544   1.907 -0.9048  0.9465  0.9631
  287SOL     hw 1146   6.763   0.474   1.930 -0.7100  1.0518  0.7715
  287SOL     hw 1147   6.743   0.587   1.832 -1.8467  0.1860 -0.0291
  287SOL     vw 1148   6.716   0.540   1.900 -1.0035  0.8600  0.8069
  288SOL     ow 1149   0.446   6.709   5.504 -0.3947  0.1170 -0.0128
  288SOL     hw 1150   0.530   6.709   5.550  0.6370  0.2355 -1.7874
  288SOL     hw 1151   0.438   6.798   5.469  0.2356 -0.6741 -2.3405
  288SOL     vw 1152   0.456   6.721   5.506 -0.1754  0.0281 -0.5541
  289SOL     ow 1153   0.935   0.179   0.887 -0.0217 -0.3886 -0.3180
  289SOL     hw 1154   0.945   0.242   0.959  2.0433 -0.7894 -0.1929
  289SOL     hw 1155   0.841   0.168   0.878 -0.3864 -0.7704  2.7404
  289SOL     vw 1156   0.924   0.186   0.896  0.2026 -0.4918  0.1020
  290SOL     ow 1157   6.911   1.458   0.139 -0.4918 -0.5251 -0.6023
  290SOL     hw 1158   6.916   1.429   0.047  0.3188  0.7598 -0.9890
  290SOL     hw 1159   6.906   1.553   0.134 -2.2683 -0.5140  0.6598
  290SOL     vw 1160   6.911   1.466   0.126 -0.6194 -0.3541 -0.4868
  291SOL     ow 1161   3.128   1.286   6.474 -0.0209 -0.3141  0.5552
  291SOL     hw 1162   3.136   1.199   6.513 -0.3428 -0.3436  0.5568
  291SOL     hw 1163   3.203   1.335   6.508  0.3854 -0.7089  0.2482
  291SOL     vw 1164   3.139   1.281   6.483 -0.0098 -0.3701  0.5150
  292SOL     ow 1165   1.528   5.691   3.078  0.1163  0.3389  0.2132
  292SOL     hw 1166   1.614   5.710   3.115 -0.0482 -0.6314  1.1572
  292SOL     hw 1167   1.483   5.641   3.146 -1.1590  0.7237 -0.3041
  292SOL     vw 1168   1.533   5.687   3.092 -0.0737  0.2618  0.2694
  293SOL     ow 1169   0.261   5.243   3.306  0.5181  0.6680  0.5381
  293SOL     hw 1170   0.242   5.335   3.328 -1.6241  1.0173 -2.1645
  293SOL     hw 1171   0.189   5.194   3.345  1.2937  0.1849  1.3960
  293SOL     vw 1172   0.249   5.249   3.314  0.3378  0.6499  0.2947
  294SOL     ow 1173   0.198   4.271   6.624  0.3626 -0.1881  0.2842
  294SOL     hw 1174   0.119   4.249   6.673 -0.2042  0.5919 -0.2577
  294SOL     hw 1175   0.267   4.276   6.691 -0.1131 -0.5489  0.8030
  294SOL     vw 1176   0.197   4.269   6.640  0.2250 -0.1330  0.2811
  295SOL     ow 1177   4.701   5.520   3.189  0.3688 -0.8721 -0.2668
  295SOL     hw 1178   4.793   5.497   3.198  0.5179  0.0656  0.8890
  295SOL     hw 1179   4.691   5.600   3.241 -1.0492 -0.8357 -0.5504
  295SOL     vw 1180   4.712   5.528   3.197  0.2012 -0.7434 -0.1515
  296SOL     ow 1181   3.331   6.007   6.355  0.1425 -0.1040 -0.0356
  296SOL     hw 1182   3.329   6.099   6.331 -1.0234  0.4169  1.8565
  296SOL     hw 1183   3.261   5.997   6.419  0.3829 -2.2688 -0.0212
  296SOL     vw 1184   3.321   6.018   6.360  0.0204 -0.3207  0.2160
  297SOL     ow 1185   0.032   0.337   4.950 -0.0198  0.9943  0.5995
  297SOL     hw 1186  -0.044   0.388   4.977  0.0047  1.1053  0.4558
  297SOL     hw 1187  -0.003   0.273   4.887 -0.4586 -0.6145  2.3844
  297SOL     vw 1188   0.017   0.335   4.945 -0.0744  0.7967  0.8159
  298SOL     ow 1189   0.719   0.084   0.393 -0.2709 -0.4417 -0.4009
  298SOL     hw 1190   0.802   0.074   0.347 -0.1185 -1.5903  0.0900
  298SOL     hw 1191   0.710   0.004   0.444 -1.6502 -0.3100 -0.3899
  298SOL     vw 1192   0.729   0.072   0.393 -0.4328 -0.5759 -0.3347
  299SOL     ow 1193   0.503   5.679   4.048 -0.4642  0.0760  0.0188
  299SOL     hw 1194   0.532   5.732   3.974  3.4779  1.2373  2.1280
  299SOL     hw 1195   0.489   5.741   4.119  3.0288 -1.3092  2.2017
  299SOL     vw 1196   0.505   5.694   4.048  0.5168  0.0465  0.5848
  300SOL     ow 1197   5.731   5.157   5.083 -0.2282 -0.7139  0.5791
  300SOL     hw 1198   5.799   5.199   5.031 -2.4311  0.0358 -1.9061
  300SOL     hw 1199   5.697   5.227   5.138  1.3799 -1.2569  2.3696
  300SOL     vw 1200   5.735   5.172   5.083 -0.3068 -0.6869  0.4876
  301SOL     ow 1201   1.269   4.359   2.275  0.5289 -0.2203  0.0845
  301SOL     hw 1202   1.343   4.361   2.214  0.8844 -0.0782  0.5130
  301SOL     hw 1203   1.211   4.429   2.246  0.7920 -0.0256  0.0246
  301SOL     vw 1204   1.271   4.368   2.263  0.6105 -0.1760  0.1332
  302SOL     ow 1205   1.912   3.171   4.391 -0.1224 -0.0550  0.0091
  302SOL     hw 1206   1.856   3.177   4.314  0.6522  0.3493 -0.5245
  302SOL     hw 1207   1.859   3.122   4.454 -1.3668  0.9308 -0.2210
  302SOL     vw 1208   1.897   3.165   4.389 -0.1844  0.1284 -0.0918
  303SOL     ow 1209   3.969   5.710   6.057 -0.4432  0.2231  0.0286
  303SOL     hw 1210   3.893   5.767   6.070 -0.6154  0.2374 -0.9324
  303SOL     hw 1211   4.026   5.728   6.132 -2.0455 -0.9091  1.6074
  303SOL     vw 1212   3.967   5.720   6.069 -0.6773  0.0753  0.1104
  304SOL     ow 1213   4.748   1.673   3.010 -0.7483 -0.1903 -0.5173
  304SOL     hw 1214   4.786   1.585   3.003 -1.7900 -0.5747 -1.7174
  304SOL     hw 1215   4.654   1.658   3.013 -0.9419  0.8907 -0.8482
  304SOL     vw 1216   4.741   1.659   3.010 -0.9115 -0.0984 -0.7191
  305SOL     ow 1217   3.099   2.267   3.613 -0.1564  0.0663 -0.0792
  305SOL     hw 1218   3.025   2.215   3.647 -0.8705  1.9390  1.4511
  305SOL     hw 1219   3.058   2.345   3.577  1.0070  0.5393 -0.3997
  305SOL     vw 1220   3.083   2.270   3.613 -0.0972  0.3759  0.0805
  306SOL     ow 1221   2.841   3.940   0.859 -0.1133  0.6206 -0.1359
  306SOL     hw 1222   2.754   3.981   0.854 -0.6784 -0.0646  2.5945
  306SOL     hw 1223   2.895   4.005   0.905  0.0855 -0.0100  0.5403
  306SOL     vw 1224   2.837   3.954   0.865 -0.1616  0.4470  0.3136
  307SOL     ow 1225   2.448   6.355   3.542 -0.1774 -0.1186 -0.1751
  307SOL     hw 1226   2.503   6.428   3.512 -0.3953 -0.4220 -1.3502
  307SOL     hw 1227   2.502   6.277   3.529 -0.4875 -0.3107 -0.3249
  307SOL     vw 1228   2.463   6.354   3.536 -0.2471 -0.1843 -0.3499
  308SOL     ow 1229   2.352   0.640   3.906 -0.1681 -0.5582  0.6398
  308SOL     hw 1230   2.271   0.653   3.956  0.0069 -1.6776  1.2391
  308SOL     hw 1231   2.352   0.711   3.842 -2.6351 -1.5847 -0.6653
  308SOL     vw 1232   2.341   0.651   3.904 -0.4705 -0.8413  0.5468
  309SOL     ow 1233   1.331   4.846   6.360 -0.1929 -0.0127  0.2484
  309SOL     hw 1234   1.358   4.930   6.398  1.2026  0.3405 -1.3958
  309SOL     hw 1235   1.238   4.857   6.340 -0.6770  0.1999  2.3500
  309SOL     vw 1236   1.322   4.859   6.362 -0.0726  0.0620  0.3088
  310SOL     ow 1237   0.640   3.719   4.897  0.0721 -0.0006 -0.0794
  310SOL     hw 1238   0.664   3.638   4.851  1.2083  0.6505 -0.6660
  310SOL     hw 1239   0.559   3.697   4.943  0.3128 -1.4433 -0.3011
  310SOL     vw 1240   0.632   3.705   4.897  0.2538 -0.1049 -0.1860
  311SOL     ow 1241   6.779   3.416   4.193  0.1152 -0.0781 -0.4089
  311SOL     hw 1242   6.706   3.478   4.190  1.2115  1.2130 -1.9010
  311SOL     hw 1243   6.795   3.393   4.101  1.1792 -0.8198 -0.0619
  311SOL     vw 1244   6.772   3.421   4.180  0.4003 -0.0056 -0.5600
  312SOL     ow 1245   1.895   5.721   6.611 -1.0140 -0.0411  0.5945
  312SOL     hw 1246   1.887   5.650   6.675  3.2431 -1.2891  0.0988
  312SOL     hw 1247   1.915   5.676   6.528  2.9363  1.5411  0.4839
  312SOL     vw 1248   1.897   5.706   6.608  0.0690  0.0031  0.5145
  313SOL     ow 1249   4.699   5.455   4.030  0.0105  0.0771  0.5572
  313SOL     hw 1250   4.737   5.378   3.987 -1.2292 -0.4819  0.4269
  313SOL     hw 1251   4.742   5.529   3.987  0.6868 -0.5254  0.1679
  313SOL     vw 1252   4.710   5.454   4.019 -0.0637 -0.0763  0.4885
  314SOL     ow 1253   5.077   3.865   3.787 -0.0805 -0.2772 -0.1057
  314SOL     hw 1254   5.141   3.931   3.813 -1.2086  1.0323 -0.5225
  314SOL     hw 1255   5.129   3.793   3.753  1.1931  1.9067 -3.2040
  314SOL     vw 1256   5.092   3.864   3.786 -0.0613  0.1837 -0.5693
  315SOL     ow 1257   6.208   2.809   2.836 -0.0452  0.1095 -0.2461
  315SOL     hw 1258   6.235   2.878   2.896 -0.1442 -1.4621  1.6914
  315SOL     hw 1259   6.289   2.780   2.794  0.2717  0.1126  0.3592
  315SOL     vw 1260   6.222   2.814   2.838 -0.0162 -0.0976  0.0893
  316SOL     ow 1261   0.670   0.068   6.581 -0.3175  0.2639 -0.4763
  316SOL     hw 1262   0.575   0.059   6.574 -0.1041 -1.6081 -1.6356
  316SOL     hw 1263   0.703   0.037   6.497  1.4708 -2.4377  1.0722
  316SOL     vw 1264   0.662   0.063   6.569 -0.0533 -0.3395 -0.4249
  317SOL     ow 1265   5.358   1.645   5.420 -0.9512 -0.2099 -0.0409
  317SOL     hw 1266   5.341   1.706   5.491 -2.2280  0.3545 -0.7881
  317SOL     hw 1267   5.325   1.561   5.453 -3.7071  0.4950 -0.7407
  317SOL     vw 1268   5.351   1.642   5.433 -1.4834 -0.0424 -0.2317
  318SOL     ow 1269   3.211   4.024   4.589  0.4705 -0.3285 -0.6773
  318SOL     hw 1270   3.208   4.068   4.674  2.2805 -0.1599 -0.6557
  318SOL     hw 1271   3.156   4.078   4.532 -4.0797 -2.5313  1.1664
  318SOL     vw 1272   3.204   4.037   4.593  0.1090 -0.5968 -0.4311
  319SOL     ow 1273   2.229   4.220   4.657 -0.0093  0.1638 -0.4781
  319SOL     hw 1274   2.164   4.260   4.599 -0.8393 -0.4991 -0.0131
  319SOL     hw 1275   2.249   4.136   4.616  0.4808  0.3162 -0.5603
  319SOL     vw 1276   2.223   4.214   4.644 -0.0542  0.0963 -0.4277
  320SOL     ow 1277   3.684   2.961   5.353  0.9015  0.0283  0.1244
  320SOL     hw 1278   3.608   2.991   5.302  0.5667 -1.1733 -0.1096
  320SOL     hw 1279   3.733   3.041   5.371  0.4900  0.6137 -1.2058
  320SOL     vw 1280   3.680   2.976   5.349  0.8031 -0.0530 -0.0820
  321SOL     ow 1281   2.442   0.230   1.346 -0.1790 -0.1060  0.7757
  321SOL     hw 1282   2.416   0.296   1.410  1.1257  3.5756 -2.1153
  321SOL     hw 1283   2.421   0.270   1.261  0.1843 -3.7316 -1.2139
  321SOL     vw 1284   2.436   0.244   1.343  0.0410 -0.0986  0.1317
  322SOL     ow 1285   0.364   1.202   2.331  0.7995 -0.0947 -0.5572
  322SOL     hw 1286   0.457   1.211   2.309  0.6069  0.0289 -1.3538
  322SOL     hw 1287   0.352   1.261   2.406  1.5082 -0.6393  0.0006
  322SOL     vw 1288   0.375   1.211   2.338  0.8676 -0.1503 -0.5887
  323SOL     ow 1289   0.498   5.431   3.928  0.6888 -0.1312 -0.0386
  323SOL     hw 1290   0.455   5.488   3.865 -0.2690 -0.2605  0.4733
  323SOL     hw 1291   0.444   5.351   3.928  2.2144 -1.2227 -1.0331
  323SOL     vw 1292   0.485   5.428   3.920  0.7637 -0.2925 -0.1024
  324SOL     ow 1293   2.557   4.306   1.616  0.4133  0.2700  0.3900
  324SOL     hw 1294   2.530   4.263   1.697 -0.5982  0.9346  0.4361
  324SOL     hw 1295   2.511   4.390   1.618  2.8331  1.6790  0.6280
  324SOL     vw 1296   2.547   4.311   1.627  0.5991  0.5436  0.4275
  325SOL     ow 1297   0.307   0.065   2.087 -0.7893 -0.6762  0.0339
  325SOL     hw 1298   0.352   0.108   2.159 -3.1088  0.3763  0.9330
  325SOL     hw 1299   0.253  -0.001   2.128 -0.4184 -1.6587 -0.9901
  325SOL     vw 1300   0.306   0.062   2.102 -1.0464 -0.6669  0.0174
  326SOL     ow 1301   5.845   4.312   4.120 -0.1601  0.3460 -0.2029
  326SOL     hw 1302   5.883   4.298   4.207  0.5721 -0.5860 -0.6663
  326SOL     hw 1303   5.905   4.269   4.060 -0.6093  1.0651 -1.1956
  326SOL     vw 1304   5.858   4.305   4.124 -0.1228  0.3178 -0.3948
  327SOL     ow 1305   6.431   2.750   6.285 -0.0537  0.1304 -0.5611
  327SOL     hw 1306   6.442   2.790   6.371  0.6448 -1.5009  0.1488
  327SOL     hw 1307   6.520   2.733   6.254 -0.2458 -2.8213  0.1826
  327SOL     vw 1308   6.444   2.753   6.292  0.0131 -0.4742 -0.3693
  328SOL     ow 1309   3.556   4.603   3.610 -0.2161 -0.1158  0.5188
  328SOL     hw 1310   3.561   4.634   3.519  1.6880 -1.4094  0.1008
  328SOL     hw 1311   3.511   4.518   3.603 -3.9857  1.6050  1.4419
  328SOL     vw 1312   3.551   4.596   3.597 -0.4622 -0.0594  0.5853
  329SOL     ow 1313   5.537   4.940   6.334 -0.6923  0.9324 -0.0164
  329SOL     hw 1314   5.553   5.034   6.338 -1.6546  1.2489 -2.1483
  329SOL     hw 1315   5.474   4.930   6.262 -0.1947 -1.3847 -0.1935
  329SOL     vw 1316   5.531   4.951   6.325 -0.7536  0.6685 -0.3211
  330SOL     ow 1317   1.276   0.425   5.974 -0.9172  0.0823  0.2890
  330SOL     hw 1318   1.290   0.351   5.914 -1.4261 -1.8729  2.4495
  330SOL     hw 1319   1.213   0.392   6.038 -0.3153  2.0177  1.9694
  330SOL     vw 1320   1.270   0.411   5.974 -0.9049  0.0797  0.7958
  331SOL     ow 1321   1.312   6.726   2.441  0.0310 -0.6013  0.3074
  331SOL     hw 1322   1.345   6.638   2.426 -0.0207 -0.5646 -0.0286
  331SOL     hw 1323   1.359   6.756   2.519 -0.2892 -1.0931  0.6912
  331SOL     vw 1324   1.323   6.719   2.449 -0.0181 -0.6611  0.3136
  332SOL     ow 1325   2.418   0.438   0.257  0.6600  0.1572  0.3822
  332SOL     hw 1326   2.481   0.367   0.259 -0.4029 -0.8411 -0.2802
  332SOL     hw 1327   2.464   0.512   0.297  2.7622 -0.0858 -1.3924
  332SOL     vw 1328   2.432   0.439   0.262  0.7972 -0.0066  0.0606
  333SOL     ow 1329   6.064   3.255   3.600 -0.1217  0.5470  1.0015
  333SOL     hw 1330   5.973   3.261   3.630 -0.3392 -0.3048  0.5455
  333SOL     hw 1331   6.110   3.209   3.670 -0.5165 -0.9681  0.2882
  333SOL     vw 1332   6.058   3.250   3.613 -0.2024  0.2347  0.8472
  334SOL     ow 1333   6.805   5.776   6.213  0.3794 -0.0454  0.3756
  334SOL     hw 1334   6.880   5.814   6.167  2.0883  0.4473  3.3143
  334SOL     hw 1335   6.829   5.685   6.227 -0.4111 -0.3547 -0.2320
  334SOL     vw 1336   6.818   5.769   6.208  0.5007 -0.0215  0.6833
  335SOL     ow 1337   4.497   0.122   3.545  0.3117 -0.1258  0.1591
  335SOL     hw 1338   4.490   0.042   3.598  0.0114 -0.9224 -1.0294
  335SOL     hw 1339   4.438   0.106   3.471 -0.7987  1.7693  0.5774
  335SOL     vw 1340   4.488   0.109   3.542  0.1254  0.0191  0.0575
  336SOL     ow 1341   0.279   1.868   3.787  0.4702  1.2538 -0.6447
  336SOL     hw 1342   0.297   1.793   3.731  1.8462  1.1690 -0.1223
  336SOL     hw 1343   0.263   1.941   3.727  1.7161  1.1201 -1.1521
  336SOL     vw 1344   0.279   1.868   3.772  0.8161  1.2250 -0.6429
  337SOL     ow 1345   1.889   4.261   2.661 -0.2310  0.0616 -0.0265
  337SOL     hw 1346   1.905   4.244   2.754  1.1212  1.5422  0.0456
  337SOL     hw 1347   1.954   4.326   2.636  0.8518 -1.7916 -2.5552
  337SOL     vw 1348   1.900   4.267   2.670  0.0903  0.0122 -0.3507
  338SOL     ow 1349   4.230   6.157   5.538 -0.1699 -0.0304 -0.1275
  338SOL     hw 1350   4.302   6.105   5.573  0.4486  0.4847 -0.6262
  338SOL     hw 1351   4.244   6.159   5.444 -1.1238 -0.3470 -0.2885
  338SOL     vw 1352   4.241   6.150   5.530 -0.2141 -0.0043 -0.2146
  339SOL     ow 1353   0.064   4.925   4.224 -0.4409  0.2919 -0.1132
  339SOL     hw 1354   0.081   4.959   4.312 -1.3077 -2.0426  1.0386
  339SOL     hw 1355  -0.004   4.983   4.190 -1.6701 -0.0193  1.6404
  339SOL     vw 1356   0.057   4.937   4.231 -0.7174 -0.0572  0.2704
  340SOL     ow 1357   5.009   2.599   5.741 -0.5147 -0.6013 -0.6061
  340SOL     hw 1358   4.951   2.668   5.709  1.3565  0.2324 -2.4031
  340SOL     hw 1359   5.076   2.646   5.792 -1.0148 -1.4742  0.9160
  340SOL     vw 1360   5.010   2.614   5.744 -0.3340 -0.6065 -0.6423
  341SOL     ow 1361   3.462   0.949   1.959  0.8140  0.1976 -0.1544
  341SOL     hw 1362   3.532   0.946   2.024 -0.1498  0.6990  0.9609
  341SOL     hw 1363   3.439   0.857   1.943  3.5208 -0.2043 -2.6639
  341SOL     vw 1364   3.468   0.936   1.965  1.0440  0.2107 -0.3384
  342SOL     ow 1365   1.786   6.014   3.790  0.0088 -0.4698 -0.3297
  342SOL     hw 1366   1.820   5.951   3.726 -0.1567 -0.1656 -0.7149
  342SOL     hw 1367   1.849   6.010   3.863  2.5432  2.1606 -2.1641
  342SOL     vw 1368   1.799   6.005   3.791  0.3213 -0.0825 -0.6224
  343SOL     ow 1369   4.550   5.428   2.895  0.4156  0.2005  0.4127
  343SOL     hw 1370   4.601   5.387   2.825 -0.9141 -2.0654  0.6671
  343SOL     hw 1371   4.463   5.391   2.886 -0.5046  1.9197  1.6423
  343SOL     vw 1372   4.545   5.418   2.884  0.1187  0.1285  0.6086
  344SOL     ow 1373   0.965   5.421   2.010 -0.3490  0.3249  0.0215
  344SOL     hw 1374   1.001   5.499   2.053 -1.0479 -0.1111  1.4765
  344SOL     hw 1375   0.985   5.349   2.071 -0.1896 -0.5492 -1.0337
  344SOL     vw 1376   0.972   5.422   2.024 -0.4202  0.1523  0.0743
  345SOL     ow 1377   7.011   6.505   4.009  0.3693 -0.6022  0.3488
  345SOL     hw 1378   7.037   6.595   4.032  1.8008 -0.4915 -1.4389
  345SOL     hw 1379   6.917   6.510   3.996  0.3653  0.5545  0.6677
  345SOL     vw 1380   7.002   6.518   4.011  0.5577 -0.4346  0.1550
  346SOL     ow 1381   4.318   6.383   6.698 -0.8533  0.5705 -0.3631
  346SOL     hw 1382   4.392   6.401   6.640  0.8401  0.1025  1.5480
  346SOL     hw 1383   4.358   6.365   6.783 -3.0454 -1.9231  0.2465
  346SOL     vw 1384   4.333   6.383   6.702 -0.9191  0.1795 -0.0303
  347SOL     ow 1385   0.717   0.466   1.427  0.4990 -0.2787  0.4420
  347SOL     hw 1386   0.760   0.405   1.367  1.7657  1.6019 -0.6819
  347SOL     hw 1387   0.782   0.536   1.440 -0.1552 -0.0682  3.1724
  347SOL     vw 1388   0.731   0.467   1.421  0.5798 -0.0028  0.6540
  348SOL     ow 1389   6.175   6.719   3.800  0.2095  0.2205 -0.9960
  348SOL     hw 1390   6.117   6.642   3.798  1.7002 -0.9651 -0.3528
  348SOL     hw 1391   6.262   6.683   3.783  1.3661  1.3244  1.9587
  348SOL     vw 1392   6.179   6.704   3.797  0.5589  0.2096 -0.5212
  349SOL     ow 1393   1.244   2.399   5.253 -0.3935 -0.4937  0.2900
  349SOL     hw 1394   1.312   2.336   5.276 -1.0479 -1.9741 -1.5996
  349SOL     hw 1395   1.269   2.432   5.167 -1.8758 -0.8256 -0.2923
  349SOL     vw 1396   1.256   2.395   5.245 -0.6754 -0.7327 -0.0360
  350SOL     ow 1397   5.013   1.088   0.764 -0.8416 -0.1463  0.3618
  350SOL     hw 1398   4.921   1.064   0.771 -0.7320 -0.2627  1.8864
  350SOL     hw 1399   5.013   1.181   0.743 -1.2636 -0.7288 -2.7357
  350SOL     vw 1400   5.001   1.097   0.762 -0.8829 -0.2384  0.1543
  351SOL     ow 1401   0.639   6.831   4.199 -1.0292 -0.4458  0.3455
  351SOL     hw 1402   0.618   6.924   4.189  1.3358  0.2243  1.0238
  351SOL     hw 1403   0.600   6.806   4.283 -2.0140 -0.2169 -0.0225
  351SOL     vw 1404   0.631   6.840   4.209 -0.8471 -0.3271  0.3862
  352SOL     ow 1405   1.451   1.525   5.858 -0.4555  0.1261 -0.0906
  352SOL     hw 1406   1.492   1.532   5.944  0.5896  1.4331 -0.6648
  352SOL     hw 1407   1.482   1.602   5.810 -1.1123 -0.5100 -1.5978
  352SOL     vw 1408   1.460   1.536   5.863 -0.4043  0.2146 -0.3648
  353SOL     ow 1409   4.989   6.705   5.660  0.0409 -0.2663  0.3329
  353SOL     hw 1410   4.926   6.673   5.596 -0.1762  1.2507 -0.2373
  353SOL     hw 1411   5.072   6.709   5.612  0.2220 -0.6540  0.6075
  353SOL     vw 1412   4.992   6.701   5.645  0.0362 -0.1173  0.2937
  354SOL     ow 1413   1.611   2.730   1.453  0.2934  0.3089 -0.0311
  354SOL     hw 1414   1.707   2.732   1.449  0.3023 -0.5021 -3.0520
  354SOL     hw 1415   1.591   2.656   1.511  1.5722 -0.9715 -1.1338
  354SOL     vw 1416   1.621   2.720   1.460  0.4633  0.0331 -0.5751
  355SOL     ow 1417   0.516   2.716   1.632 -0.5123 -0.3937 -0.1139
  355SOL     hw 1418   0.508   2.705   1.537 -4.2213 -0.0456  0.0090
  355SOL     hw 1419   0.532   2.809   1.644  0.9393 -0.5909 -0.3799
  355SOL     vw 1420   0.517   2.727   1.621 -0.8101 -0.3738 -0.1329
  356SOL     ow 1421   5.536   2.012   0.098 -0.1011 -0.0828 -0.7958
  356SOL     hw 1422   5.461   1.952   0.089 -0.5534  0.5009 -0.9677
  356SOL     hw 1423   5.608   1.966   0.054 -0.9878  0.4371 -2.9281
  356SOL     vw 1424   5.536   1.998   0.091 -0.2780  0.0628 -1.0998
  357SOL     ow 1425   1.672   6.379   4.292  0.2729 -0.0269  0.3352
  357SOL     hw 1426   1.629   6.375   4.378 -2.8493 -0.6209 -1.1004
  357SOL     hw 1427   1.764   6.359   4.310 -0.6310 -2.2638  3.2771
  357SOL     vw 1428   1.678   6.376   4.306 -0.2583 -0.4003  0.5341
  358SOL     ow 1429   1.825   4.239   3.160 -0.2761  0.3952  0.0197
  358SOL     hw 1430   1.874   4.244   3.077 -0.5087 -0.2125 -0.1604
  358SOL     hw 1431   1.738   4.273   3.138  0.2822  2.2315  0.5316
  358SOL     vw 1432   1.820   4.244   3.146 -0.2332  0.5572  0.0635
  359SOL     ow 1433   6.901   0.293   5.529  0.4824 -0.0103 -0.1434
  359SOL     hw 1434   6.987   0.279   5.489 -0.0477 -3.5436 -0.3986
  359SOL     hw 1435   6.858   0.356   5.471  2.6394  1.4332 -0.3092
  359SOL     vw 1436   6.907   0.299   5.516  0.6971 -0.2860 -0.1991
  360SOL     ow 1437   5.007   1.380   0.729 -0.0803  0.5985  0.2871
  360SOL     hw 1438   5.034   1.376   0.637 -0.9791  0.7831  0.0087
  360SOL     hw 1439   5.079   1.425   0.773 -0.2713  1.7827 -0.5748
  360SOL     vw 1440   5.020   1.385   0.723 -0.2244  0.7790  0.1366
  361SOL     ow 1441   4.301   0.145   1.967 -0.5065  0.0441  0.9587
  361SOL     hw 1442   4.323   0.216   1.908  0.9267 -0.4049  0.8957
  361SOL     hw 1443   4.348   0.069   1.932 -1.8914 -0.9151  1.0922
  361SOL     vw 1444   4.310   0.144   1.955 -0.5004 -0.1417  0.9680
  362SOL     ow 1445   5.788   4.575   3.993 -0.0968 -0.7246 -0.2269
  362SOL     hw 1446   5.799   4.588   3.899  0.2569 -0.9503 -0.2206
  362SOL     hw 1447   5.867   4.614   4.032  0.2568 -1.5475 -0.1042
  362SOL     vw 1448   5.800   4.582   3.986 -0.0036 -0.8628 -0.2098
  363SOL     ow 1449   4.386   6.195   4.778  0.1180  0.2686  0.4306
  363SOL     hw 1450   4.394   6.151   4.693 -1.4834  0.0652  0.3479
  363SOL     hw 1451   4.460   6.256   4.780  0.5575 -0.1718 -0.8318
  363SOL     vw 1452   4.396   6.197   4.767 -0.0350  0.1838  0.2534
  364SOL     ow 1453   1.903   0.696   4.953  0.1303 -0.2107  0.1796
  364SOL     hw 1454   1.883   0.689   4.860  2.3475 -2.7368 -0.2549
  364SOL     hw 1455   1.875   0.784   4.978 -2.0060 -0.0153 -2.4503
  364SOL     vw 1456   1.897   0.706   4.944  0.1410 -0.5182 -0.2244
  365SOL     ow 1457   1.290   2.414   2.669  0.2987  0.1436  0.3995
  365SOL     hw 1458   1.300   2.335   2.617 -2.3363 -0.3593  0.5081
  365SOL     hw 1459   1.233   2.471   2.617  1.9110  1.9126  0.4457
  365SOL     vw 1460   1.284   2.411   2.655  0.1638  0.3108  0.4200
  366SOL     ow 1461   3.133   1.395   3.731  0.6733  0.0865  0.0011
  366SOL     hw 1462   3.141   1.449   3.810  1.0001 -0.4389  0.3264
  366SOL     hw 1463   3.134   1.305   3.763  0.6543 -0.1242 -0.5912
  366SOL     vw 1464   3.134   1.391   3.746  0.7138 -0.0106 -0.0341
  367SOL     ow 1465   0.519   3.667   1.261  0.0735 -0.4029  0.3906
  367SOL     hw 1466   0.498   3.724   1.335  3.4989 -1.6527  2.5772
  367SOL     hw 1467   0.576   3.721   1.205  1.8900 -0.9986  1.5667
  367SOL     vw 1468   0.524   3.681   1.263  0.7651 -0.6466  0.8342
  368SOL     ow 1469   4.026   3.043   1.156  0.5764  0.2502 -0.2200
  368SOL     hw 1470   3.991   3.029   1.068  1.2061 -0.3166 -0.3846
  368SOL     hw 1471   3.953   3.022   1.214  0.9554 -2.0874 -0.5158
  368SOL     vw 1472   4.011   3.039   1.152  0.7095 -0.1330 -0.2808
  369SOL     ow 1473   3.077   2.994   4.145  0.5425  0.4340 -0.1543
  369SOL     hw 1474   3.093   3.064   4.209  0.0853  0.0634  0.3744
  369SOL     hw 1475   3.081   3.038   4.061  0.9812  0.9661  0.1362
  369SOL     vw 1476   3.080   3.009   4.143  0.5400  0.4553 -0.0463
  370SOL     ow 1477   4.777   3.522   1.834  0.2981 -0.8356 -0.3293
  370SOL     hw 1478   4.846   3.456   1.831 -0.0078 -1.2705  1.3623
  370SOL     hw 1479   4.797   3.574   1.912 -1.1629 -0.8460  0.0762
  370SOL     vw 1480   4.789   3.520   1.843  0.0651 -0.8943 -0.0526
  371SOL     ow 1481   1.025   1.753   2.843  0.2662 -0.4916  0.8868
  371SOL     hw 1482   1.062   1.841   2.834  0.0289 -0.4369  0.4213
  371SOL     hw 1483   0.983   1.736   2.759 -0.1161 -0.8539  1.1487
  371SOL     vw 1484   1.024   1.763   2.831  0.1845 -0.5322  0.8600
  372SOL     ow 1485   4.900   0.850   3.521 -1.0241 -0.2865 -0.8636
  372SOL     hw 1486   4.876   0.763   3.554 -0.7458  0.1884  0.7004
  372SOL     hw 1487   4.828   0.875   3.464 -3.3283  0.1949  2.0073
  372SOL     vw 1488   4.888   0.842   3.518 -1.2915 -0.1604 -0.2784
  373SOL     ow 1489   2.191   4.400   5.734  0.8972 -0.3814 -0.5569
  373SOL     hw 1490   2.280   4.391   5.769  1.4132  0.9798 -1.3838
  373SOL     hw 1491   2.161   4.485   5.767  0.2516 -0.4416 -0.9710
  373SOL     vw 1492   2.199   4.410   5.743  0.8801 -0.2098 -0.7207
  374SOL     ow 1493   3.764   3.125   0.382  0.5633 -0.2869  0.2029
  374SOL     hw 1494   3.734   3.040   0.415  0.4874 -1.0413 -1.6433
  374SOL     hw 1495   3.765   3.182   0.458 -1.0555 -1.4884  1.1886
  374SOL     vw 1496   3.760   3.121   0.396  0.3397 -0.5450  0.0894
  375SOL     ow 1497   6.888   6.188   1.154 -0.1438 -0.1395 -0.4465
  375SOL     hw 1498   6.819   6.205   1.091 -0.5061  0.7285  0.1583
  375SOL     hw 1499   6.954   6.256   1.136 -1.0565  1.2690  1.2249
  375SOL     vw 1500   6.888   6.200   1.143 -0.3119  0.1612 -0.1462
  376SOL     ow 1501   2.449   1.723   0.073  0.5725  0.0102 -0.8121
  376SOL     hw 1502   2.433   1.813   0.099 -0.4450  0.4418 -2.7622
  376SOL     hw 1503   2.439   1.673   0.154  2.6688  1.7486  0.6292
  376SOL     vw 1504   2.446   1.728   0.087  0.7149  0.2965 -0.8793
  377SOL     ow 1505   4.645   3.085   3.884 -0.2291  0.2584 -0.2701
  377SOL     hw 1506   4.597   3.049   3.809  0.8757  2.7847 -2.3337
  377SOL     hw 1507   4.708   3.146   3.845 -0.1943  2.3664  2.7589
  377SOL     vw 1508   4.647   3.088   3.869 -0.0789  0.8698 -0.1428
  378SOL     ow 1509   4.591   5.726   2.967 -0.0752  0.0738  0.2616
  378SOL     hw 1510   4.500   5.743   2.942 -0.0513 -1.0157 -0.6429
  378SOL     hw 1511   4.612   5.795   3.030 -0.6124  2.0490 -1.6145
  378SOL     vw 1512   4.582   5.737   2.972 -0.1428  0.1905 -0.1053
  379SOL     ow 1513   6.031   4.826   6.418  0.3031  0.1967  0.0035
  379SOL     hw 1514   6.040   4.778   6.336 -2.5932 -1.4365  0.5269
  379SOL     hw 1515   5.990   4.909   6.393  1.7757  0.8274 -0.4391
  379SOL     vw 1516   6.027   4.830   6.404  0.1152  0.0646  0.0143
  380SOL     ow 1517   6.295   4.691   0.273  0.1769 -0.4101  0.1751
  380SOL     hw 1518   6.368   4.672   0.213 -0.6745  0.3111 -1.1408
  380SOL     hw 1519   6.283   4.786   0.266  0.0782 -0.3022  1.5433
  380SOL     vw 1520   6.303   4.701   0.264  0.0515 -0.3009  0.1820
  381SOL     ow 1521   6.015   2.779   0.752 -0.6905  0.2173  0.5604
  381SOL     hw 1522   6.025   2.707   0.814 -0.1652 -1.6386 -1.5520
  381SOL     hw 1523   5.987   2.737   0.671  1.7049  2.0626 -1.3703
  381SOL     vw 1524   6.013   2.764   0.750 -0.3049  0.2160  0.0269
  382SOL     ow 1525   6.344   1.642   2.044  0.2079  0.2336 -0.2464
  382SOL     hw 1526   6.297   1.695   1.979  0.7239  2.3152  1.0005
  382SOL     hw 1527   6.275   1.606   2.100 -0.0889  0.5165 -0.4234
  382SOL     vw 1528   6.328   1.645   2.043  0.2370  0.5456 -0.1054
  383SOL     ow 1529   6.262   3.001   6.322 -0.6264 -0.1214 -0.3408
  383SOL     hw 1530   6.187   2.968   6.371  0.1745  2.8264  3.2843
  383SOL     hw 1531   6.235   3.088   6.292  1.2734  1.0966  1.2169
  383SOL     vw 1532   6.249   3.008   6.324 -0.2701  0.4282  0.3431
  384SOL     ow 1533   3.407   1.685   6.042 -0.2849 -0.3909 -0.9005
  384SOL     hw 1534   3.344   1.740   6.088  0.0051  0.3467 -1.3810
  384SOL     hw 1535   3.449   1.634   6.111  1.5601  2.0983 -0.0515
  384SOL     vw 1536   3.404   1.685   6.057 -0.0031  0.0349 -0.8519
  385SOL     ow 1537   2.823   1.239   6.537 -0.2033 -0.2521 -0.4048
  385SOL     hw 1538   2.774   1.180   6.479  0.4689 -1.2667  0.0321
  385SOL     hw 1539   2.806   1.205   6.625 -0.2924  0.5897 -0.0900
  385SOL     vw 1540   2.814   1.227   6.541 -0.1262 -0.2749 -0.3054
  386SOL     ow 1541   5.090   1.311   3.533  0.1128  0.8323  0.4985
  386SOL     hw 1542   5.072   1.387   3.587  2.3970 -0.1583  2.8546
  386SOL     hw 1543   5.118   1.347   3.449  2.9941  2.7795  2.1385
  386SOL     vw 1544   5.091   1.326   3.529  0.7942  0.9586  1.0258
  387SOL     ow 1545   4.592   1.395   0.291  0.6399  0.9875  0.0318
  387SOL     hw 1546   4.683   1.387   0.261  1.5982  0.0992  2.8607
  387SOL     hw 1547   4.593   1.356   0.379 -1.9285  3.2820  1.1981
  387SOL     vw 1548   4.604   1.389   0.299  0.4275  1.1730  0.5590
  388SOL     ow 1549   1.341   2.909   1.293 -0.4475  0.0009  0.3438
  388SOL     hw 1550   1.391   2.986   1.319 -0.8037  0.0638  0.8481
  388SOL     hw 1551   1.311   2.928   1.204 -1.5728  0.9764  0.9071
  388SOL     vw 1552   1.344   2.921   1.285 -0.6430  0.1382  0.4846
  389SOL     ow 1553   0.998   5.049   2.063  0.0279 -0.9403  0.2295
  389SOL     hw 1554   0.935   4.996   2.014 -0.4481  1.3884 -1.9344
  389SOL     hw 1555   0.944   5.101   2.123  0.1550 -0.6925  0.1302
  389SOL     vw 1556   0.982   5.049   2.064 -0.0181 -0.6003 -0.0691
  390SOL     ow 1557   1.202   2.565   5.513 -0.2770 -0.0231 -1.1554
  390SOL     hw 1558   1.181   2.621   5.588 -0.4748  0.3333 -1.4724
  390SOL     hw 1559   1.297   2.561   5.512 -0.2943 -1.2049 -0.0332
  390SOL     vw 1560   1.212   2.572   5.522 -0.3053 -0.1320 -1.0493
  391SOL     ow 1561   3.738   6.811   3.268 -0.2443 -0.5409  0.0840
  391SOL     hw 1562   3.784   6.730   3.293  0.9177 -0.9938 -3.0768
  391SOL     hw 1563   3.647   6.784   3.257 -0.3240 -0.8407  1.3132
  391SOL     vw 1564   3.732   6.797   3.270 -0.1016 -0.6404 -0.1709
  392SOL     ow 1565   0.606   6.065   1.445 -0.0456  0.3671  0.0971
  392SOL     hw 1566   0.636   6.011   1.373 -1.9906 -0.5239 -0.1237
  392SOL     hw 1567   0.510   6.059   1.440 -0.2372 -0.0883  3.0245
  392SOL     vw 1568   0.597   6.057   1.435 -0.3275  0.1895  0.4542
  393SOL     ow 1569   3.957   3.249   5.138  0.3818  0.6803 -0.2419
  393SOL     hw 1570   4.042   3.293   5.147  0.6892 -0.2024  1.8728
  393SOL     hw 1571   3.939   3.215   5.225 -1.3388 -0.6549 -1.0619
  393SOL     vw 1572   3.966   3.250   5.151  0.1954  0.3877 -0.0713
  394SOL     ow 1573   3.152   6.638   2.933  0.0184  0.4411 -0.0870
  394SOL     hw 1574   3.179   6.619   3.023 -0.2632 -1.6429 -0.3988
  394SOL     hw 1575   3.233   6.665   2.889  1.1818 -2.9599 -0.2962
  394SOL     vw 1576   3.167   6.639   2.939  0.1347 -0.2828 -0.1557
  395SOL     ow 1577   1.206   2.573   4.333 -0.4780 -0.4978 -0.3931
  395SOL     hw 1578   1.126   2.548   4.379  0.5561  0.3886  2.0457
  395SOL     hw 1579   1.180   2.647   4.278 -1.2827 -0.0457  0.5725
  395SOL     vw 1580   1.192   2.579   4.332 -0.4478 -0.3211  0.0563
  396SOL     ow 1581   4.854   0.395   1.775  0.4643 -0.4498 -0.3128
  396SOL     hw 1582   4.892   0.476   1.741 -1.6831 -0.0851 -2.0102
  396SOL     hw 1583   4.770   0.386   1.729  0.5156 -3.5170  0.0087
  396SOL     vw 1584   4.848   0.405   1.765  0.1874 -0.8064 -0.4943
  397SOL     ow 1585   2.649   0.524   4.882 -0.3881 -0.0332 -0.1593
  397SOL     hw 1586   2.644   0.601   4.939 -1.0867 -0.9240  1.0372
  397SOL     hw 1587   2.697   0.554   4.805  0.3503  1.2929  0.7779
  397SOL     vw 1588   2.654   0.538   4.880 -0.3828  0.0242  0.1221
  398SOL     ow 1589   5.642   5.822   1.105 -0.4388 -0.5117  0.5358
  398SOL     hw 1590   5.707   5.859   1.045 -1.9871  1.0440 -0.2680
  398SOL     hw 1591   5.644   5.728   1.086 -0.9125 -0.0788 -2.0756
  398SOL     vw 1592   5.651   5.814   1.095 -0.7055 -0.2494  0.0852
  399SOL     ow 1593   2.567   6.142   2.828 -0.5844  0.4538  0.3094
  399SOL     hw 1594   2.478   6.147   2.861 -0.5649  1.0520  0.2691
  399SOL     hw 1595   2.582   6.226   2.786 -0.7505 -0.4295 -1.5995
  399SOL     vw 1596   2.557   6.154   2.827 -0.6037  0.4163  0.0521
  400SOL     ow 1597   5.231   0.806   3.505  0.2530  0.2866 -0.1134
  400SOL     hw 1598   5.314   0.837   3.541  1.0824 -0.5029 -1.2715
  400SOL     hw 1599   5.219   0.720   3.543  0.1838  0.2218 -0.2822
  400SOL     vw 1600   5.241   0.799   3.515  0.3531  0.1739 -0.2885
  401SOL     ow 1601   5.479   3.834   1.263 -0.0888  0.0656  0.6725
  401SOL     hw 1602   5.458   3.863   1.174  1.0680 -1.0583  0.0015
  401SOL     hw 1603   5.418   3.883   1.319 -1.8264 -0.2412 -0.8330
  401SOL     vw 1604   5.468   3.844   1.259 -0.1652 -0.1233  0.3853
  402SOL     ow 1605   3.278   0.921   4.971  0.7231 -0.0181  0.9201
  402SOL     hw 1606   3.336   0.997   4.964  1.2021 -0.4377  0.1879
  402SOL     hw 1607   3.336   0.848   4.992  0.4517 -0.4228  0.2951
  402SOL     vw 1608   3.293   0.921   4.973  0.7505 -0.1269  0.7412
  403SOL     ow 1609   0.453   6.090   5.018  0.3777  0.5936 -0.1958
  403SOL     hw 1610   0.526   6.107   5.078  1.2646 -2.3485 -0.3083
  403SOL     hw 1611   0.445   6.172   4.968  3.1188  1.3103  0.3222
  403SOL     vw 1612   0.462   6.103   5.019  0.8564  0.2999 -0.1421
  404SOL     ow 1613   4.236   3.149   2.796 -0.4546 -0.1462 -0.0698
  404SOL     hw 1614   4.290   3.137   2.875 -2.3674  0.7091  1.4477
  404SOL     hw 1615   4.267   3.231   2.759  1.8003 -1.4929 -1.4315
  404SOL     vw 1616   4.247   3.158   2.802 -0.4094 -0.2109 -0.0494
  405SOL     ow 1617   4.208   2.867   1.335 -1.1587 -0.3116  0.0710
  405SOL     hw 1618   4.167   2.901   1.414  0.4158 -2.7503  2.0982
  405SOL     hw 1619   4.207   2.772   1.346  4.1995 -0.6883  0.0946
  405SOL     vw 1620   4.202   2.859   1.347 -0.2439 -0.6831  0.3415
  406SOL     ow 1621   2.738   6.252   5.362  0.3353 -0.2042  0.2439
  406SOL     hw 1622   2.831   6.258   5.337  0.5613 -0.4826  0.9973
  406SOL     hw 1623   2.735   6.284   5.452 -0.3837  0.2675  0.0603
  406SOL     vw 1624   2.750   6.257   5.371  0.2701 -0.1783  0.3192
  407SOL     ow 1625   5.979   1.602   3.460 -0.0481 -0.0883  0.3488
  407SOL     hw 1626   6.037   1.594   3.536  0.4759 -1.4807 -0.1699
  407SOL     hw 1627   5.981   1.696   3.438  2.6225 -0.1602 -0.0895
  407SOL     vw 1628   5.987   1.613   3.467  0.3734 -0.2815  0.2226
  408SOL     ow 1629   0.103   5.388   5.785  0.0126 -0.7579 -0.3024
  408SOL     hw 1630   0.128   5.399   5.877 -0.5145  0.2394 -0.2616
  408SOL     hw 1631   0.102   5.477   5.750  2.2596 -1.2437 -1.8565
  408SOL     vw 1632   0.106   5.401   5.793  0.2395 -0.6902 -0.5021
  409SOL     ow 1633   0.615   5.910   4.850  0.3378  0.3472  0.3955
  409SOL     hw 1634   0.614   5.904   4.755 -0.3737 -1.5693  0.4803
  409SOL     hw 1635   0.643   5.823   4.879  2.8992  1.5695  1.9246
  409SOL     vw 1636   0.619   5.898   4.842  0.5818  0.2551  0.6084
  410SOL     ow 1637   6.650   6.787   6.924 -1.0250 -0.4423  0.3363
  410SOL     hw 1638   6.629   6.704   6.965 -2.6108  0.2179  0.9193
  410SOL     hw 1639   6.635   6.772   6.830  1.5507 -1.6267  0.0351
  410SOL     vw 1640   6.645   6.774   6.917 -0.8943 -0.5114  0.3734
  411SOL     ow 1641   3.085   2.317   5.142  0.0006 -0.1458 -0.0070
  411SOL     hw 1642   3.092   2.398   5.091 -1.6674  0.0399  0.0070
  411SOL     hw 1643   3.175   2.285   5.148  0.6264  1.4330 -0.4448
  411SOL     vw 1644   3.098   2.323   5.136 -0.1370  0.0870 -0.0632
  412SOL     ow 1645   0.266   1.366   6.514  0.8802  0.9229  0.7279
  412SOL     hw 1646   0.239   1.274   6.516 -0.4682  1.1256 -2.2131
  412SOL     hw 1647   0.206   1.410   6.576 -1.3145  0.3548 -0.8700
  412SOL     vw 1648   0.254   1.360   6.523  0.4127  0.8746  0.1290
  413SOL     ow 1649   4.631   1.344   1.485  0.3978  0.0965 -0.2163
  413SOL     hw 1650   4.577   1.280   1.530 -2.3595  2.5058  0.2378
  413SOL     hw 1651   4.692   1.375   1.551  0.5028 -0.7480  0.0846
  413SOL     vw 1652   4.632   1.340   1.500  0.0479  0.3030 -0.1167
  414SOL     ow 1653   0.250   0.253   5.143 -1.1061 -0.3020  0.2245
  414SOL     hw 1654   0.218   0.163   5.137 -2.4052  0.1936 -0.6668
  414SOL     hw 1655   0.331   0.246   5.193 -0.6221 -2.1073 -0.7017
  414SOL     vw 1656   0.256   0.240   5.149 -1.2137 -0.4748 -0.0155
  415SOL     ow 1657   5.228   5.635   4.754 -0.4263 -0.6557  0.2870
  415SOL     hw 1658   5.311   5.589   4.768 -1.0944 -1.0041  4.0791
  415SOL     hw 1659   5.167   5.566   4.727  0.1847 -0.6229 -1.2509
  415SOL     vw 1660   5.231   5.620   4.752 -0.4339 -0.6974  0.5844
  416SOL     ow 1661   1.649   1.648   4.695 -0.1589 -0.4370 -0.0400
  416SOL     hw 1662   1.720   1.629   4.634 -0.7392 -1.4471 -0.4173
  416SOL     hw 1663   1.664   1.739   4.721  0.7363 -0.3454 -0.8186
  416SOL     vw 1664   1.661   1.658   4.690 -0.1172 -0.5581 -0.1924
  417SOL     ow 1665   0.029   3.197   5.182 -0.3896 -0.2077 -0.1536
  417SOL     hw 1666  -0.056   3.203   5.226 -0.2417  0.4400  0.0539
  417SOL     hw 1667   0.017   3.127   5.117 -1.1872  0.1004 -0.3613
  417SOL     vw 1668   0.016   3.188   5.179 -0.4752 -0.0817 -0.1538
  418SOL     ow 1669   1.346   3.447   4.345 -0.1334 -0.0605 -0.6869
  418SOL     hw 1670   1.347   3.394   4.425 -0.7025  0.2621 -0.4591
  418SOL     hw 1671   1.401   3.398   4.284  3.5089  1.4914  1.0180
  418SOL     vw 1672   1.353   3.434   4.348  0.2721  0.1868 -0.4318
  419SOL     ow 1673   4.472   1.373   1.212 -0.4271 -0.0265  0.5809
  419SOL     hw 1674   4.400   1.405   1.157 -1.2860 -2.3702  0.2194
  419SOL     hw 1675   4.548   1.371   1.153 -0.2718  1.5035  0.6907
  419SOL     vw 1676   4.473   1.377   1.197 -0.5198 -0.1338  0.5478
  420SOL     ow 1677   5.789   2.128   6.572 -0.1808  1.0668  0.2757
  420SOL     hw 1678   5.721   2.063   6.554  2.4107 -1.0697 -3.1520
  420SOL     hw 1679   5.839   2.092   6.645 -1.3734  1.5975  1.3983
  420SOL     vw 1680   5.787   2.114   6.579  0.0036  0.8547 -0.0284
  421SOL     ow 1681   5.545   1.699   0.131  0.4818 -0.3224  0.3179
  421SOL     hw 1682   5.558   1.749   0.211 -0.9113  0.9157 -0.1833
  421SOL     hw 1683   5.606   1.738   0.068  0.5073 -0.2880  0.3637
  421SOL     vw 1684   5.555   1.711   0.133  0.3016 -0.1546  0.2578
  422SOL     ow 1685   4.207   4.239   1.278  0.5611  0.0209  0.6199
  422SOL     hw 1686   4.276   4.217   1.340  0.4816 -1.3744  0.2440
  422SOL     hw 1687   4.163   4.315   1.316 -0.6514 -1.8447  3.1908
  422SOL     vw 1688   4.211   4.246   1.291  0.3905 -0.4094  0.9095
  423SOL     ow 1689   4.996   6.444   1.241  0.2112 -0.3116 -0.0350
  423SOL     hw 1690   5.010   6.441   1.336  1.2389  0.0400 -0.1635
  423SOL     hw 1691   5.083   6.431   1.204 -0.2307 -0.7228 -0.9392
  423SOL     vw 1692   5.010   6.442   1.249  0.2887 -0.3195 -0.1712
  424SOL     ow 1693   0.357   2.403   3.852  0.2655 -0.7375  0.5872
  424SOL     hw 1694   0.267   2.375   3.869 -0.0350  0.4240  1.0211
  424SOL     hw 1695   0.377   2.464   3.924  0.8583  0.1803 -0.3263
  424SOL     vw 1696   0.348   2.408   3.864  0.3041 -0.4631  0.5239
  425SOL     ow 1697   3.825   3.817   6.714  0.0050  0.3701  0.0873
  425SOL     hw 1698   3.802   3.724   6.712  2.8653 -0.4214 -1.1263
  425SOL     hw 1699   3.805   3.849   6.626  1.5235  0.1461 -0.3736
  425SOL     vw 1700   3.819   3.809   6.702  0.5827  0.2362 -0.1338
  426SOL     ow 1701   2.432   0.310   3.234  0.0273  0.1603 -0.2727
  426SOL     hw 1702   2.361   0.374   3.234 -1.8503 -1.8016  0.0797
  426SOL     hw 1703   2.388   0.225   3.220  2.3421 -1.1076 -0.3816
  426SOL     vw 1704   2.417   0.307   3.232  0.0850 -0.2658 -0.2406
  427SOL     ow 1705   4.172   4.376   4.460  0.0076  0.6727 -0.5147
  427SOL     hw 1706   4.174   4.411   4.549  4.3473  2.7962 -1.2021
  427SOL     hw 1707   4.259   4.338   4.447 -0.1294  1.2300 -4.1007
  427SOL     vw 1708   4.184   4.375   4.470  0.5622  1.0266 -1.0784
  428SOL     ow 1709   5.983   0.497   5.443  0.2443 -0.1714 -0.5136
  428SOL     hw 1710   5.988   0.591   5.425 -2.1669  0.4572  1.5777
  428SOL     hw 1711   6.033   0.486   5.525 -1.0290 -0.3348  0.2618
  428SOL     vw 1712   5.990   0.508   5.452 -0.2420 -0.1100 -0.1354
  429SOL     ow 1713   1.610   2.316   2.004  0.6459  0.3839  0.3407
  429SOL     hw 1714   1.590   2.351   1.917  1.3344  1.0658  0.4514
  429SOL     hw 1715   1.542   2.353   2.061  1.1963  1.3168  0.4020
  429SOL     vw 1716   1.598   2.326   2.000  0.8094  0.5970  0.3633
  430SOL     ow 1717   0.080   4.051   1.739 -0.2637  0.0788  0.4573
  430SOL     hw 1718   0.021   4.101   1.682 -0.0701  1.5935  1.5270
  430SOL     hw 1719   0.072   3.960   1.708  0.7914  0.9607 -2.8313
  430SOL     vw 1720   0.071   4.045   1.727 -0.0990  0.3951  0.1646
  431SOL     ow 1721   3.707   2.519   6.781 -0.5568 -0.0389 -0.2165
  431SOL     hw 1722   3.686   2.612   6.776  0.8041  0.2507 -3.3406
  431SOL     hw 1723   3.668   2.482   6.702  1.8657 -1.3420 -0.9244
  431SOL     vw 1724   3.699   2.527   6.770 -0.0576 -0.1725 -0.7219
  432SOL     ow 1725   2.762   6.036   5.540 -0.0001 -0.3632 -0.3942
  432SOL     hw 1726   2.758   5.963   5.602 -1.2028  0.0910  0.0877
  432SOL     hw 1727   2.725   6.110   5.588  0.2633  0.3236 -1.2262
  432SOL     vw 1728   2.757   6.036   5.555 -0.1239 -0.2124 -0.4404
  433SOL     ow 1729   6.453   6.072   4.680 -0.1707  0.4204  0.2639
  433SOL     hw 1730   6.489   6.009   4.742 -0.2246 -1.0948 -1.1531
  433SOL     hw 1731   6.529   6.118   4.645  0.0500 -0.0492  0.1066
  433SOL     vw 1732   6.467   6.070   4.683 -0.1488  0.1585  0.0560
  434SOL     ow 1733   3.541   4.797   0.398  0.8163 -0.9924  0.3272
  434SOL     hw 1734   3.536   4.703   0.412  2.2147 -1.1607 -0.2195
  434SOL     hw 1735   3.449   4.824   0.387  0.5377 -2.8246 -3.0235
  434SOL     vw 1736   3.528   4.788   0.398  0.9642 -1.2565 -0.1870
  435SOL     ow 1737   2.638   6.746   4.589  0.3878 -0.6071  0.5781
  435SOL     hw 1738   2.565   6.768   4.646  0.7678 -3.0916  2.2152
  435SOL     hw 1739   2.662   6.828   4.547 -2.4905  0.5242  0.9560
  435SOL     vw 1740   2.632   6.760   4.591  0.0583 -0.7858  0.8438
  436SOL     ow 1741   3.448   3.835   2.175  0.8137  0.0094  0.2749
  436SOL     hw 1742   3.367   3.831   2.125  1.2645  2.2933 -0.7669
  436SOL     hw 1743   3.422   3.819   2.266 -0.7493  0.3912 -0.0878
  436SOL     vw 1744   3.434   3.832   2.181  0.6669  0.3610  0.0895
  437SOL     ow 1745   0.172   0.710   0.788  0.4747 -0.1225 -0.0821
  437SOL     hw 1746   0.165   0.805   0.776 -0.2153 -0.2893 -1.1950
  437SOL     hw 1747   0.178   0.675   0.699  0.4572 -1.1429  0.3015
  437SOL     vw 1748   0.172   0.718   0.775  0.3813 -0.2791 -0.1783
  438SOL     ow 1749   0.833   2.424   4.002  0.1673 -0.5852  0.7470
  438SOL     hw 1750   0.862   2.512   4.023  3.1087 -1.0835 -0.6284
  438SOL     hw 1751   0.768   2.402   4.069 -0.4344  2.4654  1.2792
  438SOL     vw 1752   0.828   2.433   4.013  0.4760 -0.2486  0.6356
  439SOL     ow 1753   6.443   5.098   1.425 -0.7799 -0.4930  0.2251
  439SOL     hw 1754   6.443   5.008   1.459  1.5407 -1.1212 -1.1981
  439SOL     hw 1755   6.436   5.087   1.330 -1.3884  0.9086  0.0910
  439SOL     vw 1756   6.442   5.085   1.417 -0.5541 -0.3910  0.0197
  440SOL     ow 1757   2.829   5.976   1.106 -0.4606 -0.6901 -0.6295
  440SOL     hw 1758   2.859   5.971   1.015  0.8998 -1.9286 -0.1600
  440SOL     hw 1759   2.906   6.002   1.155 -1.0614 -0.4994  0.2260
  440SOL     vw 1760   2.843   5.979   1.100 -0.3604 -0.8283 -0.4547
  441SOL     ow 1761   3.010   6.881   2.829 -0.3984  0.2373  0.3860
  441SOL     hw 1762   3.044   6.957   2.783  0.6584  0.2893  1.2221
  441SOL     hw 1763   2.996   6.910   2.919  1.2538 -0.8440  1.0517
  441SOL     vw 1764   3.012   6.895   2.835 -0.0410  0.1016  0.5841
  442SOL     ow 1765   4.021   0.311   2.108  0.0236 -0.2640  0.3189
  442SOL     hw 1766   3.967   0.339   2.034  0.7906  0.5245  0.0472
  442SOL     hw 1767   3.976   0.345   2.185 -1.9992 -2.9474  0.4707
  442SOL     vw 1768   4.008   0.319   2.109 -0.1419 -0.5140  0.3030
  443SOL     ow 1769   3.852   3.735   1.617  0.4945 -0.0852 -0.7614
  443SOL     hw 1770   3.935   3.782   1.622  1.3520 -1.4805 -1.3802
  443SOL     hw 1771   3.876   3.643   1.606 -1.0672 -1.3107  3.7730
  443SOL     vw 1772   3.866   3.729   1.616  0.4015 -0.4311 -0.2448
  444SOL     ow 1773   3.677   6.114   2.581 -0.6229 -0.1763 -0.2525
  444SOL     hw 1774   3.585   6.094   2.597 -0.5889 -1.1023 -1.0683
  444SOL     hw 1775   3.720   6.028   2.579  0.3011  0.2597  0.3757
  444SOL     vw 1776   3.670   6.100   2.583 -0.4965 -0.2408 -0.2772
  445SOL     ow 1777   5.012   6.076   4.045 -0.2678 -0.1277 -1.0264
  445SOL     hw 1778   4.942   6.013   4.029 -1.0921  1.1297 -2.8065
  445SOL     hw 1779   4.981   6.156   4.002  1.4061  1.0486 -0.1461
  445SOL     vw 1780   4.999   6.079   4.037 -0.1557  0.1936 -1.1451
  446SOL     ow 1781   6.850   5.599   3.902 -0.6689  0.0770 -0.0719
  446SOL     hw 1782   6.801   5.540   3.959 -1.7561  0.9915 -0.0211
  446SOL     hw 1783   6.918   5.544   3.862 -2.8365 -1.7012 -1.5487
  446SOL     vw 1784   6.853   5.584   3.904 -1.0984 -0.0370 -0.2599
  447SOL     ow 1785   5.944   4.201   3.901 -0.2144  0.6997  0.1059
  447SOL     hw 1786   5.870   4.140   3.896  1.7711 -1.9228  0.3641
  447SOL     hw 1787   5.958   4.228   3.810 -0.1176 -0.6343 -0.3090
  447SOL     vw 1788   5.936   4.196   3.888  0.0603  0.1774  0.0852
  448SOL     ow 1789   1.987   4.138   3.641  0.1558  0.8964 -0.5502
  448SOL     hw 1790   1.932   4.062   3.624 -1.3582  1.3687  1.8014
  448SOL     hw 1791   2.072   4.115   3.603 -1.1105 -0.5952 -2.7252
  448SOL     vw 1792   1.991   4.125   3.634 -0.2110  0.7620 -0.5269
  449SOL     ow 1793   5.053   6.411   2.471  0.2474  0.1543 -0.0679
  449SOL     hw 1794   5.047   6.316   2.466  3.6462 -0.1353 -3.7471
  449SOL     hw 1795   5.144   6.428   2.497 -0.3943  2.4713  0.9515
  449SOL     vw 1796   5.065   6.401   2.474  0.6111  0.4215 -0.4188
  450SOL     ow 1797   1.352   3.360   5.193 -0.1927 -0.7673  0.1125
  450SOL     hw 1798   1.392   3.281   5.158 -2.4988 -0.6938 -3.1919
  450SOL     hw 1799   1.387   3.431   5.138 -0.4996  0.0774  0.9694
  450SOL     vw 1800   1.362   3.359   5.181 -0.5375 -0.6462 -0.2103
  451SOL     ow 1801   6.706   6.937   4.674  0.1254 -0.6737 -0.3436
  451SOL     hw 1802   6.722   6.984   4.756  1.5080 -2.5434  0.5618
  451SOL     hw 1803   6.622   6.893   4.688 -2.7088  3.5188 -2.3083
  451SOL     vw 1804   6.697   6.937   4.687 -0.0660 -0.3669 -0.4833
  452SOL     ow 1805   2.097   2.540   4.676  0.3126  0.1724  0.0127
  452SOL     hw 1806   2.048   2.618   4.654 -2.3121 -1.2893  0.2522
  452SOL     hw 1807   2.169   2.571   4.731 -0.3566  2.4361 -0.3199
  452SOL     vw 1808   2.100   2.554   4.681 -0.1221  0.2784  0.0002
  453SOL     ow 1809   2.193   6.715   0.739 -0.9223  0.1016 -0.1686
  453SOL     hw 1810   2.248   6.641   0.713 -0.1680  0.6223 -0.0715
  453SOL     hw 1811   2.254   6.781   0.771 -1.5477  0.9741 -0.7400
  453SOL     vw 1812   2.208   6.714   0.740 -0.9053  0.2856 -0.2312
  454SOL     ow 1813   1.530   5.919   3.636 -0.5346 -0.0580 -0.1093
  454SOL     hw 1814   1.502   5.883   3.719 -0.8429 -0.7327 -0.4990
  454SOL     hw 1815   1.611   5.873   3.616 -1.0594 -0.7450 -0.7275
  454SOL     vw 1816   1.537   5.908   3.644 -0.6446 -0.2379 -0.2424
  455SOL     ow 1817   5.507   4.068   5.205  0.0842 -0.2967 -0.7306
  455SOL     hw 1818   5.517   3.982   5.164  1.5014 -0.0633 -0.9168
  455SOL     hw 1819   5.416   4.093   5.185  0.0624 -1.1488 -1.8346
  455SOL     vw 1820   5.496   4.060   5.197  0.2682 -0.3786 -0.9007
  456SOL     ow 1821   3.097   3.503   4.366  0.2750  0.2411 -0.2956
  456SOL     hw 1822   3.080   3.456   4.284  2.3929  1.0572 -1.3070
  456SOL     hw 1823   3.193   3.503   4.373  0.4347  3.9076 -0.1588
  456SOL     vw 1824   3.108   3.497   4.356  0.5755  0.8324 -0.4110
  457SOL     ow 1825   0.024   0.726   1.061 -0.4936  0.0489  0.0341
  457SOL     hw 1826  -0.058   0.764   1.030 -0.8335 -0.1385  0.6857
  457SOL     hw 1827   0.059   0.789   1.123 -0.3097 -0.0195  0.0013
  457SOL     vw 1828   0.018   0.739   1.065 -0.5142  0.0151  0.1159
  458SOL     ow 1829   4.901   2.978   6.142 -0.1726 -0.2449  0.0633
  458SOL     hw 1830   4.921   2.885   6.144  0.1110 -0.1964 -0.4699
  458SOL     hw 1831   4.850   2.990   6.062  2.2033  0.5229 -1.4398
  458SOL     vw 1832   4.897   2.968   6.132  0.1783 -0.1372 -0.2053
  459SOL     ow 1833   4.259   5.661   6.998  0.0940  1.0281 -0.2203
  459SOL     hw 1834   4.306   5.653   6.915  0.9244  0.6082  0.2748
  459SOL     hw 1835   4.240   5.754   7.007 -2.1040  0.8422 -1.9960
  459SOL     vw 1836   4.263   5.672   6.988 -0.0865  0.9480 -0.3893
  460SOL     ow 1837   3.691   3.695   1.101 -0.0313  0.2085 -0.0632
  460SOL     hw 1838   3.641   3.614   1.106  0.7292 -0.2435  0.3905
  460SOL     hw 1839   3.699   3.712   1.007  0.8584 -0.9205 -0.2171
  460SOL     vw 1840   3.685   3.687   1.089  0.1863 -0.0002 -0.0237
  461SOL     ow 1841   2.322   2.469   0.057 -0.1315  0.2887  0.1421
  461SOL     hw 1842   2.240   2.424   0.075  0.4623 -1.2854 -0.8800
  461SOL     hw 1843   2.376   2.452   0.134 -0.6805  1.1659  0.7317
  461SOL     vw 1844   2.318   2.461   0.069 -0.1256  0.1967  0.0850
  462SOL     ow 1845   3.507   3.512   3.409 -0.0421 -0.7204  0.2949
  462SOL     hw 1846   3.528   3.544   3.321  0.4240  0.0725  0.6860
  462SOL     hw 1847   3.449   3.579   3.446  2.5364  0.8357  1.8763
  462SOL     vw 1848   3.502   3.525   3.402  0.3595 -0.4104  0.5552
  463SOL     ow 1849   1.185   5.734   2.368  0.1878 -0.0232 -0.1023
  463SOL     hw 1850   1.110   5.730   2.427  0.9753  1.1370  0.9992
  463SOL     hw 1851   1.250   5.675   2.406  0.0490 -0.6434 -0.7891
  463SOL     vw 1852   1.184   5.726   2.381  0.2735  0.0482 -0.0477
  464SOL     ow 1853   5.033   0.255   4.277  0.1006  0.1941 -0.2200
  464SOL     hw 1854   4.940   0.231   4.284 -0.4847  1.1153 -3.1002
  464SOL     hw 1855   5.080   0.176   4.301 -1.4414 -0.5207  0.6330
  464SOL     vw 1856   5.027   0.241   4.281 -0.1800  0.2213 -0.4873
  465SOL     ow 1857   1.280   3.224   5.769  0.0092  0.1342 -0.2940
  465SOL     hw 1858   1.225   3.176   5.707  0.3040 -0.4241 -0.1322
  465SOL     hw 1859   1.369   3.202   5.744  0.1334  0.1050  0.1651
  465SOL     vw 1860   1.284   3.215   5.758  0.0645  0.0567 -0.2122
  466SOL     ow 1861   1.622   0.669   0.838  0.1660  0.0610 -0.9717
  466SOL     hw 1862   1.693   0.649   0.777 -0.6704  0.4399 -2.0842
  466SOL     hw 1863   1.552   0.705   0.784 -0.2065  1.4307  0.3466
  466SOL     vw 1864   1.622   0.671   0.823  0.0065  0.2918 -0.9446
  467SOL     ow 1865   1.051   4.268   6.706 -1.1275 -0.9432 -0.5348
  467SOL     hw 1866   1.103   4.189   6.721 -2.1400 -1.0353  3.4730
  467SOL     hw 1867   1.063   4.287   6.613  1.5103 -4.1013 -1.0114
  467SOL     vw 1868   1.060   4.260   6.695 -0.9131 -1.3721 -0.0689
  468SOL     ow 1869   2.947   3.494   4.658 -0.4110  0.1085  0.5863
  468SOL     hw 1870   3.011   3.436   4.699 -1.2049 -0.0215  1.7074
  468SOL     hw 1871   2.907   3.541   4.732 -2.8443 -1.0753  0.1228
  468SOL     vw 1872   2.950   3.493   4.673 -0.8367 -0.0648  0.6731
  469SOL     ow 1873   4.562   4.400   6.978 -0.5269  0.1085  0.0345
  469SOL     hw 1874   4.551   4.492   7.001  1.1970 -0.1878  2.5240
  469SOL     hw 1875   4.651   4.394   6.943 -1.6859 -0.1902 -3.1932
  469SOL     vw 1876   4.572   4.411   6.976 -0.4525  0.0300 -0.0627
  470SOL     ow 1877   0.421   5.803   2.755  0.3381 -0.5641  0.6910
  470SOL     hw 1878   0.502   5.839   2.721 -0.1381 -2.1285 -2.3834
  470SOL     hw 1879   0.379   5.877   2.800  2.0671  1.0692 -0.2682
  470SOL     vw 1880   0.426   5.818   2.757  0.5034 -0.5548  0.1587
  471SOL     ow 1881   1.160   4.138   2.373 -0.1119 -0.6828 -0.2737
  471SOL     hw 1882   1.208   4.211   2.334  0.3008  0.0138  1.4158
  471SOL     hw 1883   1.220   4.064   2.369 -0.0516 -0.6042 -0.8702
  471SOL     vw 1884   1.174   4.138   2.367 -0.0495 -0.5803 -0.1295
  472SOL     ow 1885   5.221   4.367   0.281  0.5483  0.4308  0.2804
  472SOL     hw 1886   5.162   4.294   0.297  0.9834  0.5032  2.5777
  472SOL     hw 1887   5.170   4.429   0.230 -0.6933 -0.3715  0.5227
  472SOL     vw 1888   5.207   4.366   0.276  0.4416  0.3343  0.6154
  473SOL     ow 1889   3.431   1.167   1.708 -0.0271  0.6531  0.0588
  473SOL     hw 1890   3.396   1.127   1.628 -0.7449  0.8420  0.2712
  473SOL     hw 1891   3.448   1.258   1.683  1.7482  0.2120 -0.4678
  473SOL     vw 1892   3.428   1.174   1.694  0.1125  0.6199  0.0173
  474SOL     ow 1893   2.278   4.866   6.066  0.0411  0.7013 -0.2488
  474SOL     hw 1894   2.351   4.836   6.012  0.4101 -0.2505  0.7535
  474SOL     hw 1895   2.248   4.788   6.113 -0.6100  1.3889  0.5210
  474SOL     vw 1896   2.283   4.852   6.065  0.0039  0.6666 -0.0153
  475SOL     ow 1897   0.828   2.389   6.496 -0.5126 -0.4818  0.6563
  475SOL     hw 1898   0.768   2.341   6.439  0.1189  0.3977 -0.8172
  475SOL     hw 1899   0.915   2.356   6.472 -0.1357  0.7876  0.1638
  475SOL     vw 1900   0.831   2.379   6.485 -0.3796 -0.1984  0.3970
  476SOL     ow 1901   6.867   3.145   3.959 -0.4856 -0.0917  0.4134
  476SOL     hw 1902   6.917   3.179   3.885 -1.3071 -1.9576 -1.0858
  476SOL     hw 1903   6.776   3.143   3.928 -0.7585 -1.5047  1.2018
  476SOL     vw 1904   6.862   3.149   3.945 -0.6301 -0.5244  0.3196
  477SOL     ow 1905   4.510   4.486   2.196 -0.8499  0.2091  0.2254
  477SOL     hw 1906   4.604   4.470   2.204 -0.0079  3.8313 -0.5687
  477SOL     hw 1907   4.471   4.432   2.265  1.8073 -1.2205  0.7594
  477SOL     vw 1908   4.517   4.477   2.206 -0.3884  0.4983  0.1911
  478SOL     ow 1909   6.846   3.740   5.888  0.2059  0.0525 -0.1387
  478SOL     hw 1910   6.856   3.832   5.912  1.6211  0.0596 -0.6675
  478SOL     hw 1911   6.896   3.692   5.955 -0.5509 -0.3504  0.1557
  478SOL     vw 1912   6.854   3.745   5.900  0.2930  0.0002 -0.1700
  479SOL     ow 1913   4.861   3.911   3.285  0.4178  1.0838 -0.5051
  479SOL     hw 1914   4.902   3.837   3.241 -0.2306  0.3674  0.0678
  479SOL     hw 1915   4.768   3.905   3.262 -0.0191  0.4474  1.2303
  479SOL     vw 1916   4.854   3.900   3.276  0.2747  0.9053 -0.2005
  480SOL     ow 1917   1.919   5.968   0.272 -0.4158  0.1171 -0.8574
  480SOL     hw 1918   1.848   6.008   0.322  1.1442  0.4294  1.2547
  480SOL     hw 1919   1.886   5.882   0.247 -1.4951  0.2301  0.1326
  480SOL     vw 1920   1.905   5.962   0.275 -0.3524  0.1733 -0.4481
  481SOL     ow 1921   4.506   1.550   4.514  0.0233 -0.7836 -0.3280
  481SOL     hw 1922   4.588   1.598   4.523 -0.4508 -0.0712  0.4209
  481SOL     hw 1923   4.451   1.607   4.460 -0.0063 -1.2297 -0.7769
  481SOL     vw 1924   4.510   1.564   4.508 -0.0432 -0.7484 -0.2882
  482SOL     ow 1925   6.020   5.203   1.175 -0.3434 -0.3518 -0.5783
  482SOL     hw 1926   6.011   5.286   1.222  0.0580 -0.0756 -0.9882
  482SOL     hw 1927   6.012   5.136   1.243 -1.2294  0.0031 -0.3214
  482SOL     vw 1928   6.017   5.205   1.191 -0.4072 -0.2685 -0.5985
  483SOL     ow 1929   4.794   2.512   1.396  0.0951  0.2512 -0.6838
  483SOL     hw 1930   4.874   2.517   1.343  0.4753  0.3868 -0.1019
  483SOL     hw 1931   4.804   2.431   1.446 -0.6913 -0.3624 -1.4872
  483SOL     vw 1932   4.806   2.502   1.396  0.0420  0.1882 -0.7130
  484SOL     ow 1933   5.226   1.215   2.369 -0.2438  0.0257 -0.1395
  484SOL     hw 1934   5.236   1.215   2.274  1.5551  2.0643 -0.0207
  484SOL     hw 1935   5.131   1.217   2.383 -0.5412  1.6855 -1.9499
  484SOL     vw 1936   5.215   1.215   2.359 -0.0455  0.5136 -0.3626
  485SOL     ow 1937   0.521   5.856   5.138 -0.3972 -0.1922 -0.4901
  485SOL     hw 1938   0.472   5.878   5.217 -0.2800 -2.0185  0.1433
  485SOL     hw 1939   0.587   5.793   5.168  0.0293 -0.4756 -1.9485
  485SOL     vw 1940   0.524   5.850   5.152 -0.3255 -0.4706 -0.5987
  486SOL     ow 1941   3.071   0.205   6.788 -0.3704  0.8017 -0.3143
  486SOL     hw 1942   3.053   0.151   6.711  0.9985 -1.0163  0.5772
  486SOL     hw 1943   2.988   0.207   6.835 -0.7340  0.4151 -0.9158
  486SOL     vw 1944   3.057   0.199   6.784 -0.2377  0.5108 -0.2761
  487SOL     ow 1945   5.652   6.285   3.524 -0.2337 -0.6463  0.0662
  487SOL     hw 1946   5.666   6.319   3.612 -0.8582 -0.1105 -0.0336
  487SOL     hw 1947   5.603   6.354   3.479 -0.7505 -1.3072 -0.4108
  487SOL     vw 1948   5.647   6.299   3.530 -0.3841 -0.6630 -0.0099
  488SOL     ow 1949   6.361   6.111   2.506  0.1690 -0.0525 -0.0244
  488SOL     hw 1950   6.371   6.038   2.567  0.0685 -2.1287 -2.3606
  488SOL     hw 1951   6.369   6.189   2.561  2.2118 -1.7629  2.3166
  488SOL     vw 1952   6.363   6.112   2.521  0.4253 -0.5522 -0.0237
  489SOL     ow 1953   0.780   2.652   6.655  1.0217 -0.9686 -0.0967
  489SOL     hw 1954   0.693   2.668   6.619  2.0216  2.1304 -1.4618
  489SOL     hw 1955   0.783   2.706   6.734  2.0384 -0.1093 -0.6954
  489SOL     vw 1956   0.769   2.661   6.661  1.2878 -0.4463 -0.3557
  490SOL     ow 1957   4.738   2.785   1.313 -0.2826 -0.3433 -0.0742
  490SOL     hw 1958   4.806   2.834   1.358 -2.3242  2.9329 -0.2852
  490SOL     hw 1959   4.781   2.753   1.233  1.7142 -0.9680  1.1693
  490SOL     vw 1960   4.753   2.787   1.308 -0.2885  0.0066  0.0620
  491SOL     ow 1961   6.218   2.139   4.672  0.2205  0.5481  0.6743
  491SOL     hw 1962   6.295   2.105   4.718 -0.6765  0.1324  1.9176
  491SOL     hw 1963   6.208   2.081   4.596  1.8571  1.3846 -0.2263
  491SOL     vw 1964   6.227   2.127   4.668  0.3183  0.6036  0.7195
  492SOL     ow 1965   6.242   1.969   3.914 -0.1727  0.2695  0.3515
  492SOL     hw 1966   6.186   2.017   3.852 -0.7852 -0.6236  0.2007
  492SOL     hw 1967   6.203   1.988   3.999 -0.7565 -0.4005  0.2411
  492SOL     vw 1968   6.229   1.978   3.917 -0.3304  0.0633  0.3171
  493SOL     ow 1969   3.498   1.502   6.263  0.3661 -0.0077  0.2001
  493SOL     hw 1970   3.564   1.569   6.283  1.4323 -0.7885 -0.6472
  493SOL     hw 1971   3.434   1.511   6.334  0.6793  1.6488  0.3148
  493SOL     vw 1972   3.498   1.512   6.275  0.5481  0.1079  0.1035
  494SOL     ow 1973   3.731   2.161   3.582  0.2836  0.0876 -0.3331
  494SOL     hw 1974   3.730   2.144   3.677 -0.7748 -0.7355 -0.4745
  494SOL     hw 1975   3.684   2.243   3.572  0.6765  0.3404 -0.1175
  494SOL     vw 1976   3.725   2.169   3.593  0.1959  0.0124 -0.3234
  495SOL     ow 1977   1.502   1.145   5.681 -0.0794 -0.5546 -0.3886
  495SOL     hw 1978   1.507   1.147   5.777  1.0301  0.2320 -0.4411
  495SOL     hw 1979   1.591   1.123   5.653  0.7725  3.2706 -1.2901
  495SOL     vw 1980   1.515   1.142   5.690  0.1794  0.0539 -0.5145
  496SOL     ow 1981   5.811   2.057   1.266 -0.3592  0.5863  0.1350
  496SOL     hw 1982   5.810   2.152   1.279 -1.7646  0.5847  0.2166
  496SOL     hw 1983   5.720   2.035   1.245 -0.1557 -0.8069  0.6069
  496SOL     vw 1984   5.799   2.067   1.265 -0.5178  0.4023  0.2080
  497SOL     ow 1985   3.203   5.718   0.732 -0.1016  0.2947 -0.4228
  497SOL     hw 1986   3.266   5.650   0.709 -1.1850 -1.5721  1.7900
  497SOL     hw 1987   3.236   5.796   0.687  2.9935 -0.8946 -0.4945
  497SOL     vw 1988   3.216   5.720   0.723  0.1637 -0.1087 -0.1403
  498SOL     ow 1989   4.908   6.125   2.259 -0.1730 -0.2839 -0.0125
  498SOL     hw 1990   4.980   6.101   2.318  0.4856  0.3850 -0.5113
  498SOL     hw 1991   4.855   6.046   2.252  0.2452 -0.6497  0.7512
  498SOL     vw 1992   4.911   6.112   2.266 -0.0315 -0.2441  0.0225
  499SOL     ow 1993   5.574   2.358   2.689 -0.7466  0.5988 -0.2359
  499SOL     hw 1994   5.561   2.299   2.615 -0.2673 -0.8204  0.7698
  499SOL     hw 1995   5.665   2.344   2.715 -0.9859  0.8663  0.8003
  499SOL     vw 1996   5.584   2.349   2.683 -0.7150  0.4469  0.0335
  500SOL     ow 1997   3.038   0.783   0.960 -0.1142 -0.1782 -0.3987
  500SOL     hw 1998   3.052   0.802   1.053  0.4590 -1.8621 -0.1003
  500SOL     hw 1999   2.961   0.835   0.936 -0.0141  0.6092  0.9047
  500SOL     vw 2000   3.029   0.792   0.969 -0.0253 -0.2965 -0.1873
  501SOL     ow 2001   1.377   3.600   1.564 -0.4858  0.1697 -0.7771
  501SOL     hw 2002   1.305   3.566   1.617 -1.1170  2.0211 -0.3571
  501SOL     hw 2003   1.444   3.625   1.627  0.2838 -0.9517 -1.1265
  501SOL     vw 2004   1.376   3.599   1.579 -0.4676  0.2661 -0.7678
  502SOL     ow 2005   5.374   6.833   3.999 -0.4266 -0.4480 -0.0604
  502SOL     hw 2006   5.351   6.868   4.085  0.5410  3.1140 -1.0618
  502SOL     hw 2007   5.310   6.872   3.939 -0.6330 -2.2614 -1.0995
  502SOL     vw 2008   5.363   6.843   4.002 -0.3259 -0.2174 -0.3295
  503SOL     ow 2009   1.119   4.437   4.544 -0.2208  0.1154 -0.1323
  503SOL     hw 2010   1.026   4.419   4.559 -0.2933  1.1764  0.8247
  503SOL     hw 2011   1.140   4.389   4.464 -1.4908 -0.4589 -0.1451
  503SOL     vw 2012   1.109   4.428   4.536 -0.3979  0.1800 -0.0076
  504SOL     ow 2013   0.596   0.666   2.792 -0.0513 -0.1585  0.3885
  504SOL     hw 2014   0.501   0.650   2.792 -0.4400  1.8489  1.0516
  504SOL     hw 2015   0.635   0.578   2.788 -1.9184 -1.0132 -0.6780
  504SOL     vw 2016   0.588   0.652   2.791 -0.3490 -0.0064  0.3353
  505SOL     ow 2017   0.326   4.110   1.012  0.0648  0.3766 -0.7837
  505SOL     hw 2018   0.409   4.117   0.966 -0.1381  1.5153 -1.0012
  505SOL     hw 2019   0.337   4.034   1.070  1.0283  0.1501 -1.2441
  505SOL     vw 2020   0.338   4.101   1.014  0.1651  0.4969 -0.8731
  506SOL     ow 2021   5.952   0.606   6.745 -0.4442  0.2544 -0.4638
  506SOL     hw 2022   5.891   0.679   6.738 -1.3220 -0.2312  1.4666
  506SOL     hw 2023   5.920   0.542   6.681 -1.4652  0.3774 -0.1020
  506SOL     vw 2024   5.940   0.607   6.736 -0.6948  0.2065 -0.1612
  507SOL     ow 2025   3.841   2.295   6.962  0.3671  0.0409 -0.0592
  507SOL     hw 2026   3.852   2.246   7.043  2.5537 -1.5201 -1.1957
  507SOL     hw 2027   3.926   2.289   6.918 -1.3808 -1.6197 -3.7163
  507SOL     vw 2028   3.854   2.287   6.967  0.4251 -0.3841 -0.6917
  508SOL     ow 2029   4.137   2.829   2.783  0.1585  0.5543  1.2708
  508SOL     hw 2030   4.161   2.791   2.868 -0.3223 -2.2239  0.2500
  508SOL     hw 2031   4.061   2.778   2.755 -0.8497  2.6388 -0.0437
  508SOL     vw 2032   4.130   2.817   2.791 -0.0381  0.4628  0.9626
  509SOL     ow 2033   5.136   0.853   0.557 -0.0477 -0.3762 -0.3107
  509SOL     hw 2034   5.091   0.771   0.536  1.2324 -0.5986 -2.5078
  509SOL     hw 2035   5.107   0.914   0.489 -2.2487  1.5916  2.2051
  509SOL     vw 2036   5.126   0.850   0.545 -0.1693 -0.1459 -0.2686
  510SOL     ow 2037   0.524   0.389   3.639  0.2703  0.2562 -0.0359
  510SOL     hw 2038   0.556   0.407   3.550 -3.3217  1.3287 -1.2736
  510SOL     hw 2039   0.505   0.295   3.639  0.7587  0.1514 -0.2072
  510SOL     vw 2040   0.526   0.379   3.627 -0.1392  0.3839 -0.2218
  511SOL     ow 2041   5.591   4.150   2.452 -0.1286 -0.3509 -0.3022
  511SOL     hw 2042   5.614   4.242   2.444 -0.2308 -0.4302 -1.8559
  511SOL     hw 2043   5.511   4.140   2.400  0.4361 -1.4928 -1.0041
  511SOL     vw 2044   5.583   4.161   2.444 -0.0677 -0.5121 -0.5999
  512SOL     ow 2045   5.900   3.984   0.404 -0.0326  0.3758 -0.2121
  512SOL     hw 2046   5.865   3.987   0.315  0.5287 -0.0080 -0.4512
  512SOL     hw 2047   5.891   3.892   0.430 -0.8308  0.6138  0.3943
  512SOL     vw 2048   5.894   3.972   0.396 -0.0639  0.3566 -0.1636
  513SOL     ow 2049   5.783   5.759   6.872 -0.4539 -0.0451 -0.3226
  513SOL     hw 2050   5.823   5.714   6.798 -0.0989  0.3969 -0.4067
  513SOL     hw 2051   5.705   5.802   6.835 -0.5434 -0.2188 -0.3357
  513SOL     vw 2052   5.778   5.759   6.858 -0.4187 -0.0095 -0.3352
  514SOL     ow 2053   2.000   5.254   2.496  0.3615  0.1641  0.1489
  514SOL     hw 2054   1.966   5.232   2.583 -0.3355  2.5861  0.5669
  514SOL     hw 2055   1.926   5.237   2.437  0.3227 -0.0093  0.2462
  514SOL     vw 2056   1.986   5.249   2.500  0.2645  0.4606  0.2170
  515SOL     ow 2057   3.905   0.522   6.561 -0.4690 -0.6731 -0.0320
  515SOL     hw 2058   3.865   0.438   6.583  1.0374 -1.7057 -1.0312
  515SOL     hw 2059   3.945   0.551   6.643  0.2826 -1.6961 -0.0116
  515SOL     vw 2060   3.905   0.514   6.575 -0.1712 -0.9443 -0.1612
  516SOL     ow 2061   0.804   4.590   0.387  0.5504  0.0333  0.4299
  516SOL     hw 2062   0.728   4.646   0.400  0.5193 -0.3182  2.0426
  516SOL     hw 2063   0.870   4.647   0.347 -0.7911  0.1302 -1.7509
  516SOL     vw 2064   0.803   4.605   0.384  0.3693 -0.0002  0.3550
  517SOL     ow 2065   2.627   5.392   3.670  0.4219  0.5953 -0.4877
  517SOL     hw 2066   2.588   5.455   3.608 -0.6121  1.6357  1.1425
  517SOL     hw 2067   2.648   5.444   3.747  1.4547 -0.7166  0.1483
  517SOL     vw 2068   2.624   5.407   3.672  0.4219  0.5596 -0.1887
  518SOL     ow 2069   6.173   0.087   4.455 -0.4284  0.1572  0.0148
  518SOL     hw 2070   6.185   0.024   4.384 -2.0181 -0.2021  0.0275
  518SOL     hw 2071   6.110   0.045   4.514  0.3707  0.7208  1.3196
  518SOL     vw 2072   6.166   0.073   4.454 -0.5329  0.1842  0.1886
  519SOL     ow 2073   1.335   6.205   3.650  0.2655 -0.6058  0.2107
  519SOL     hw 2074   1.283   6.195   3.729 -0.5377 -1.2946 -0.3864
  519SOL     hw 2075   1.302   6.284   3.609  0.7270 -0.2117  0.5851
  519SOL     vw 2076   1.324   6.214   3.655  0.2204 -0.6444  0.1813
  520SOL     ow 2077   3.078   3.835   6.639  0.4234  0.2479  0.0546
  520SOL     hw 2078   2.985   3.854   6.624 -0.0111 -1.1907  0.7185
  520SOL     hw 2079   3.123   3.882   6.569 -0.9175 -0.1112 -1.1070
  520SOL     vw 2080   3.071   3.844   6.628  0.1891  0.0107 -0.0112
  521SOL     ow 2081   6.110   3.119   0.064 -0.3147 -0.1577 -0.6487
  521SOL     hw 2082   6.090   3.153  -0.023 -1.6494  2.7877  0.6577
  521SOL     hw 2083   6.195   3.157   0.087 -0.7054  0.3939 -0.0802
  521SOL     vw 2084   6.118   3.129   0.056 -0.5422  0.3037 -0.4013
  522SOL     ow 2085   4.260   2.654   1.150  0.1172 -0.0396 -0.7883
  522SOL     hw 2086   4.353   2.645   1.173  0.1831  0.3844 -0.8711
  522SOL     hw 2087   4.223   2.567   1.164  0.0920  0.2362  1.2527
  522SOL     vw 2088   4.267   2.641   1.155  0.1225  0.0529 -0.5299
  523SOL     ow 2089   2.300   5.390   6.708 -0.1286  0.4759 -0.5298
  523SOL     hw 2090   2.363   5.345   6.764  1.2857  0.9040 -1.7117
  523SOL     hw 2091   2.342   5.473   6.687 -2.2493  2.0072  0.8164
  523SOL     vw 2092   2.314   5.395   6.712 -0.2218  0.7343 -0.5081
  524SOL     ow 2093   1.094   1.690   3.136 -0.2288  0.0058 -0.5316
  524SOL     hw 2094   1.151   1.749   3.185  0.1394 -0.6474 -0.1673
  524SOL     hw 2095   1.020   1.675   3.195 -0.3612  0.1647 -0.6565
  524SOL     vw 2096   1.091   1.696   3.150 -0.1977 -0.0594 -0.5001
  525SOL     ow 2097   1.465   2.064   2.098  0.2457 -0.0528 -0.3154
  525SOL     hw 2098   1.393   2.123   2.120 -0.4825 -1.6984  2.1718
  525SOL     hw 2099   1.421   1.987   2.060  0.3481 -1.8558  2.9018
  525SOL     vw 2100   1.450   2.062   2.096  0.1631 -0.5077  0.4371
  526SOL     ow 2101   4.244   6.009   4.966  0.2257  0.8289  0.3350
  526SOL     hw 2102   4.222   5.946   5.035 -1.8386  0.0424 -0.9712
  526SOL     hw 2103   4.328   5.977   4.931 -0.2630 -0.6004  0.4039
  526SOL     vw 2104   4.252   5.996   4.971 -0.1116  0.5364  0.1714
  527SOL     ow 2105   2.892   6.654   4.947  0.1607 -1.0021  0.5858
  527SOL     hw 2106   2.857   6.687   4.864 -0.7074  0.7980  1.6213
  527SOL     hw 2107   2.817   6.610   4.988  0.1555 -0.4943  1.1193
  527SOL     vw 2108   2.877   6.652   4.941  0.0454 -0.6976  0.7927
  528SOL     ow 2109   2.020   1.224   5.007  0.6408  0.1339  0.2206
  528SOL     hw 2110   2.026   1.143   5.057 -1.8964 -0.9083 -0.9411
  528SOL     hw 2111   2.000   1.292   5.072  2.9522 -0.0856  1.2274
  528SOL     vw 2112   2.018   1.222   5.022  0.6111 -0.0325  0.2003
  529SOL     ow 2113   6.182   0.573   2.698  1.3430  0.2809  0.3137
  529SOL     hw 2114   6.172   0.520   2.619  1.2855 -0.0821  0.5615
  529SOL     hw 2115   6.108   0.634   2.696 -0.4706 -1.7597  1.6570
  529SOL     vw 2116   6.171   0.574   2.687  1.0962 -0.0363  0.5237
  530SOL     ow 2117   5.129   1.061   3.602 -0.0363 -0.3659  0.6799
  530SOL     hw 2118   5.223   1.045   3.610  0.2057 -1.3158 -2.6839
  530SOL     hw 2119   5.122   1.150   3.569 -0.4776  0.2277  2.2513
  530SOL     vw 2120   5.141   1.070   3.599 -0.0627 -0.4129  0.4435
  531SOL     ow 2121   1.037   3.454   5.102  0.0898 -0.0663 -0.1565
  531SOL     hw 2122   0.973   3.415   5.043 -1.5553  0.7822  0.9907
  531SOL     hw 2123   1.039   3.547   5.077  1.3616 -0.1885 -0.5801
  531SOL     vw 2124   1.029   3.461   5.091  0.0405  0.0294 -0.0610
  532SOL     ow 2125   5.095   0.964   3.315  0.0907  0.0958  0.2377
  532SOL     hw 2126   5.081   1.053   3.281  0.8430 -0.0519 -0.5070
  532SOL     hw 2127   5.180   0.938   3.278  0.1843 -0.6876  0.9763
  532SOL     vw 2128   5.105   0.973   3.306  0.2022 -0.0270  0.2369
  533SOL     ow 2129   4.389   3.236   1.327  0.5199  0.7897 -0.0701
  533SOL     hw 2130   4.446   3.226   1.403 -1.4213  1.4683  1.5556
  533SOL     hw 2131   4.304   3.261   1.363 -0.3633  1.6471 -2.5016
  533SOL     vw 2132   4.385   3.238   1.342  0.1473  0.9923 -0.1764
  534SOL     ow 2133   1.092   5.664   2.067  0.3079 -0.8158 -0.1436
  534SOL     hw 2134   1.186   5.647   2.063  0.1099 -1.7682 -1.2718
  534SOL     hw 2135   1.072   5.706   1.983  0.0064  1.0636  0.8141
  534SOL     vw 2136   1.102   5.668   2.056  0.2419 -0.6933 -0.1661
  535SOL     ow 2137   6.099   5.596   3.579 -0.1125 -0.6200  0.7359
  535SOL     hw 2138   6.137   5.682   3.597 -0.5293 -0.6545  1.8710
  535SOL     hw 2139   6.075   5.600   3.487 -2.6405  1.5103  1.3686
  535SOL     vw 2140   6.101   5.608   3.569 -0.5012 -0.3436  0.9692
  536SOL     ow 2141   3.845   6.710   2.235 -0.2614 -0.5518 -0.5903
  536SOL     hw 2142   3.785   6.731   2.165 -0.1571  0.0385 -0.5040
  536SOL     hw 2143   3.921   6.671   2.191  0.3110  0.8968 -0.9265
  536SOL     vw 2144   3.847   6.708   2.220 -0.1720 -0.2828 -0.6233
  537SOL     ow 2145   0.339   2.455   3.565  0.1901  0.4413  0.9507
  537SOL     hw 2146   0.279   2.383   3.549  2.7059 -1.9578  1.3886
  537SOL     hw 2147   0.349   2.457   3.660 -0.0592  1.6017  0.9686
  537SOL     vw 2148   0.333   2.446   3.576  0.4892  0.2779  1.0109
  538SOL     ow 2149   3.925   2.101   3.370  0.5796  0.0655  0.2379
  538SOL     hw 2150   4.008   2.061   3.343 -0.7577 -2.1003 -0.9029
  538SOL     hw 2151   3.944   2.195   3.372  3.3147 -0.4047  0.9994
  538SOL     vw 2152   3.938   2.109   3.367  0.7640 -0.2823  0.1880
  539SOL     ow 2153   1.352   1.053   6.803 -0.2696  0.0264 -0.7423
  539SOL     hw 2154   1.386   0.969   6.834 -0.4144  0.1866 -0.1459
  539SOL     hw 2155   1.314   1.033   6.718 -0.2724 -0.5042 -0.6207
  539SOL     vw 2156   1.352   1.040   6.796 -0.2890 -0.0225 -0.6478
  540SOL     ow 2157   2.704   4.744   4.294  0.3448  0.5469 -0.9909
  540SOL     hw 2158   2.663   4.796   4.362 -0.9920 -0.1657 -1.2182
  540SOL     hw 2159   2.798   4.747   4.314 -0.0302  0.2660  0.9310
  540SOL     vw 2160   2.711   4.751   4.305  0.1190  0.4158 -0.7675
  541SOL     ow 2161   1.470   5.187   0.424  0.2689  0.3560  0.2450
  541SOL     hw 2162   1.449   5.096   0.408 -0.6313  0.8377 -1.4650
  541SOL     hw 2163   1.393   5.223   0.469  0.8563  0.1650  1.4515
  541SOL     vw 2164   1.457   5.180   0.428  0.2277  0.3943  0.1785
  542SOL     ow 2165   2.371   6.909   0.826 -0.2600 -0.4545  0.0657
  542SOL     hw 2166   2.443   6.914   0.764 -0.6104  0.7839 -0.2613
  542SOL     hw 2167   2.346   7.000   0.842 -0.2440 -0.7352  1.9450
  542SOL     vw 2168   2.377   6.922   0.820 -0.3042 -0.3281  0.2705
  543SOL     ow 2169   1.105   1.941   1.738  0.5102  0.1486 -0.0787
  543SOL     hw 2170   1.170   1.882   1.775  0.2276  0.5842  1.1397
  543SOL     hw 2171   1.081   1.999   1.810  1.5055  2.4072 -1.4416
  543SOL     vw 2172   1.111   1.941   1.752  0.6043  0.5041 -0.0978
  544SOL     ow 2173   2.320   3.234   3.372 -0.3309 -0.5744  0.1424
  544SOL     hw 2174   2.322   3.195   3.460  0.2835  1.3346  1.0376
  544SOL     hw 2175   2.235   3.279   3.367 -0.6412 -1.2203 -0.5055
  544SOL     vw 2176   2.309   3.235   3.383 -0.2908 -0.4078  0.1749
  545SOL     ow 2177   4.352   3.358   4.660  0.8218  0.0238 -0.8592
  545SOL     hw 2178   4.284   3.351   4.593  2.7344 -0.9890 -2.8203
  545SOL     hw 2179   4.352   3.274   4.704 -1.3032  1.1040  1.4599
  545SOL     vw 2180   4.343   3.346   4.657  0.7937  0.0327 -0.8121
  546SOL     ow 2181   3.686   3.833   0.347  0.4841  0.1650 -1.1749
  546SOL     hw 2182   3.676   3.822   0.441 -0.3539 -0.8295 -1.3596
  546SOL     hw 2183   3.762   3.890   0.337  1.7730 -1.2371  0.0592
  546SOL     vw 2184   3.695   3.839   0.358  0.5435 -0.1513 -1.0364
  547SOL     ow 2185   0.398   4.048   0.458  0.1247  0.2201 -0.3234
  547SOL     hw 2186   0.325   4.094   0.415  0.2446  1.3849  0.6476
  547SOL     hw 2187   0.477   4.090   0.422  0.3378 -0.8782 -1.1989
  547SOL     vw 2188   0.399   4.060   0.447  0.1686  0.2286 -0.3108
  548SOL     ow 2189   3.996   0.016   2.528  1.0124 -0.4529 -0.4631
  548SOL     hw 2190   4.081   0.020   2.571  1.6988 -1.1620 -1.6742
  548SOL     hw 2191   3.975   0.107   2.507  2.3481 -0.4010 -1.7306
  548SOL     vw 2192   4.004   0.028   2.531  1.2791 -0.5396 -0.7900
  549SOL     ow 2193   3.338   5.496   4.106  0.7993 -0.1942  0.5004
  549SOL     hw 2194   3.347   5.541   4.022  0.7784 -0.2525  0.4672
  549SOL     hw 2195   3.251   5.457   4.104 -0.6938  2.7125  1.9433
  549SOL     vw 2196   3.328   5.497   4.094  0.5995  0.1814  0.6859
  550SOL     ow 2197   1.185   4.850   2.215  0.3229  0.5489 -0.0924
  550SOL     hw 2198   1.117   4.784   2.206 -0.9765  1.9605 -0.9670
  550SOL     hw 2199   1.266   4.804   2.191 -0.4279 -0.8953  0.0388
  550SOL     vw 2200   1.187   4.836   2.211  0.0525  0.5448 -0.1905
  551SOL     ow 2201   6.740   0.950   4.186 -0.3438 -0.5263 -0.8728
  551SOL     hw 2202   6.702   1.024   4.233  1.8103 -0.0365  0.2376
  551SOL     hw 2203   6.677   0.879   4.199 -1.4720  0.5533 -0.2206
  551SOL     vw 2204   6.726   0.950   4.194 -0.2084 -0.3192 -0.6402
  552SOL     ow 2205   4.745   5.319   5.595 -0.2644 -0.1695  0.0960
  552SOL     hw 2206   4.699   5.312   5.679  2.7302  0.2987  1.9459
  552SOL     hw 2207   4.823   5.265   5.607  1.4377  1.8095 -1.4694
  552SOL     vw 2208   4.749   5.311   5.608  0.3552  0.1533  0.1335
  553SOL     ow 2209   0.919   0.203   5.206  0.7097 -0.1655  0.4207
  553SOL     hw 2210   0.961   0.271   5.259  0.8732 -0.3940  0.5875
  553SOL     hw 2211   0.951   0.121   5.243 -0.1819 -0.3522  0.7889
  553SOL     vw 2212   0.929   0.201   5.218  0.6136 -0.2203  0.4911
  554SOL     ow 2213   6.555   3.590   4.232  0.2911  0.6420 -0.1670
  554SOL     hw 2214   6.527   3.530   4.301  0.5589  0.0680 -0.5463
  554SOL     hw 2215   6.495   3.571   4.159  2.4894 -1.6730 -1.5298
  554SOL     vw 2216   6.543   3.579   4.232  0.6168  0.2609 -0.3967
  555SOL     ow 2217   3.251   4.553   4.963  0.0419 -0.5568  0.0143
  555SOL     hw 2218   3.255   4.458   4.976 -1.4075 -0.8791 -1.5549
  555SOL     hw 2219   3.200   4.585   5.038  2.1304 -0.7134  1.5875
  555SOL     vw 2220   3.245   4.545   4.975  0.1261 -0.6201  0.0148
  556SOL     ow 2221   2.871   2.745   4.224  0.0175 -0.5627 -0.2350
  556SOL     hw 2222   2.878   2.652   4.247 -1.4794 -0.2200  1.8197
  556SOL     hw 2223   2.778   2.766   4.234  0.1874  0.9803 -1.5084
  556SOL     vw 2224   2.860   2.735   4.228 -0.1576 -0.3139 -0.1318
  557SOL     ow 2225   6.904   5.887   1.280 -0.0333 -0.0583  0.1247
  557SOL     hw 2226   6.906   5.845   1.195 -0.1389 -0.6249  0.3989
  557SOL     hw 2227   6.994   5.884   1.311 -0.2570 -1.2954  0.7208
  557SOL     vw 2228   6.916   5.881   1.273 -0.0765 -0.2959  0.2395
  558SOL     ow 2229   2.765   2.532   1.571  0.1122 -0.4063  0.3422
  558SOL     hw 2230   2.770   2.625   1.593 -1.4616  0.0840 -1.2224
  558SOL     hw 2231   2.857   2.506   1.560  0.5741  0.9884  0.6280
  558SOL     vw 2232   2.778   2.541   1.572 -0.0345 -0.1575  0.1736
  559SOL     ow 2233   4.387   1.366   5.361 -0.7721  0.1350 -0.9550
  559SOL     hw 2234   4.456   1.420   5.321 -0.3689  0.9330  0.7209
  559SOL     hw 2235   4.343   1.324   5.287 -0.4678  2.0209 -2.2854
  559SOL     vw 2236   4.390   1.368   5.346 -0.6785  0.4890 -0.9093
  560SOL     ow 2237   6.055   6.508   1.201  0.1233 -0.3644 -0.7472
  560SOL     hw 2238   6.107   6.469   1.131 -0.6410 -3.4390  0.2151
  560SOL     hw 2239   6.107   6.495   1.280 -0.2282  0.5021 -0.3647
  560SOL     vw 2240   6.068   6.501   1.202 -0.0241 -0.6559 -0.5698
  561SOL     ow 2241   3.277   5.095   3.185 -0.2156 -0.2980  0.0225
  561SOL     hw 2242   3.195   5.071   3.144 -0.4931 -0.6445  0.7715
  561SOL     hw 2243   3.325   5.143   3.117 -1.3710  0.6285 -0.1644
  561SOL     vw 2244   3.273   5.098   3.171 -0.4046 -0.2215  0.0966
  562SOL     ow 2245   6.440   0.543   1.505 -0.4818  0.2623  0.1530
  562SOL     hw 2246   6.409   0.632   1.485  0.6258  0.6908  0.2936
  562SOL     hw 2247   6.533   0.554   1.526 -0.5302 -0.8076  1.0268
  562SOL     vw 2248   6.448   0.556   1.505 -0.3419  0.1776  0.2869
  563SOL     ow 2249   0.926   3.175   2.789 -0.3835 -0.2424  0.2146
  563SOL     hw 2250   0.837   3.143   2.776 -1.1264  1.1519  1.5252
  563SOL     hw 2251   0.922   3.223   2.872  0.8850  2.3497 -1.1227
  563SOL     vw 2252   0.914   3.177   2.798 -0.3141  0.2836  0.2109
  564SOL     ow 2253   6.473   1.963   5.610  0.2231  0.0259 -0.1988
  564SOL     hw 2254   6.550   2.019   5.619 -0.4583  0.7669  1.5148
  564SOL     hw 2255   6.401   2.025   5.595  0.0815 -0.7129 -3.1600
  564SOL     vw 2256   6.474   1.979   5.609  0.1147  0.0261 -0.3636
  565SOL     ow 2257   4.034   4.150   5.256  0.0941  0.7789  0.4087
  565SOL     hw 2258   3.942   4.155   5.282  0.1318  0.3702  0.6273
  565SOL     hw 2259   4.046   4.225   5.198 -1.3972 -1.2344 -2.8109
  565SOL     vw 2260   4.023   4.160   5.252 -0.0980  0.4594  0.0126
  566SOL     ow 2261   3.790   2.900   6.490  0.1351  0.3913  0.3309
  566SOL     hw 2262   3.842   2.862   6.561  0.5351  1.1025  0.4180
  566SOL     hw 2263   3.722   2.950   6.535 -0.6241 -0.5058  0.2183
  566SOL     vw 2264   3.787   2.901   6.506  0.0877  0.3668  0.3276
  567SOL     ow 2265   4.325   0.237   4.298 -0.7106 -0.1980  0.3197
  567SOL     hw 2266   4.306   0.165   4.238 -0.2628 -0.2293  0.2143
  567SOL     hw 2267   4.343   0.311   4.241 -1.0958 -0.0213  0.4278
  567SOL     vw 2268   4.325   0.237   4.283 -0.7024 -0.1788  0.3200
  568SOL     ow 2269   0.375   6.682   6.149  0.5311 -0.1749  0.4533
  568SOL     hw 2270   0.462   6.674   6.188  1.3623 -0.9672 -1.4724
  568SOL     hw 2271   0.358   6.597   6.109 -0.3888  0.5096 -0.6961
  568SOL     vw 2272   0.384   6.670   6.149  0.5194 -0.1891  0.0474
  569SOL     ow 2273   2.883   7.029   5.659 -0.7777  0.0856  0.0813
  569SOL     hw 2274   2.956   7.075   5.618 -0.7678  0.7902  0.8662
  569SOL     hw 2275   2.897   6.937   5.637  0.6376  0.1457  0.6617
  569SOL     vw 2276   2.894   7.023   5.650 -0.5896  0.1864  0.2613
  570SOL     ow 2277   1.570   0.531   3.780  0.3209  0.1782  0.7417
  570SOL     hw 2278   1.493   0.587   3.785  0.2670  0.5291 -2.2120
  570SOL     hw 2279   1.535   0.443   3.764  0.5056 -0.0607  1.6020
  570SOL     vw 2280   1.555   0.527   3.778  0.3382  0.1930  0.4655
  571SOL     ow 2281   2.402   6.777   6.203 -0.3226 -0.0959  0.3402
  571SOL     hw 2282   2.373   6.868   6.200  0.8682  0.3202  0.7047
  571SOL     hw 2283   2.465   6.775   6.276  3.3452 -0.0503 -2.5034
  571SOL     vw 2284   2.407   6.789   6.212  0.3184 -0.0353  0.0129
  572SOL     ow 2285   5.130   6.180   4.335  0.9259  0.5919  1.1248
  572SOL     hw 2286   5.209   6.228   4.309  0.8422  0.3663  0.4219
  572SOL     hw 2287   5.068   6.248   4.361  1.1604  0.8065  1.1234
  572SOL     vw 2288   5.132   6.195   4.335  0.9458  0.5908  1.0321
  573SOL     ow 2289   6.301   5.150   1.942  0.2635  0.2265 -0.6064
  573SOL     hw 2290   6.361   5.105   1.882 -1.9216 -3.4887 -0.3610
  573SOL     hw 2291   6.302   5.097   2.021 -1.3492  1.5993  0.4039
  573SOL     vw 2292   6.309   5.137   1.944 -0.2375 -0.0823 -0.4407
  574SOL     ow 2293   4.250   1.752   5.169  0.2603 -0.2714  0.0449
  574SOL     hw 2294   4.282   1.817   5.232 -1.4817 -0.0106  0.7021
  574SOL     hw 2295   4.324   1.692   5.158  2.3003  2.3006 -1.3491
  574SOL     vw 2296   4.264   1.753   5.176  0.2997  0.1023 -0.0522
  575SOL     ow 2297   3.388   6.793   0.085  0.1101  0.0205  0.2952
  575SOL     hw 2298   3.437   6.750   0.155 -0.1757  1.4221  1.4234
  575SOL     hw 2299   3.331   6.725   0.049  0.6556 -0.8617  1.0689
  575SOL     vw 2300   3.387   6.779   0.090  0.1444  0.0892  0.5461
  576SOL     ow 2301   1.964   1.641   5.714 -0.5651  0.2346  0.5106
  576SOL     hw 2302   2.015   1.563   5.691  0.0171  0.4951  0.8911
  576SOL     hw 2303   1.880   1.607   5.743 -1.2059 -0.1304 -1.5985
  576SOL     vw 2304   1.960   1.626   5.715 -0.5729  0.2208  0.2825
  577SOL     ow 2305   2.389   4.698   0.095 -0.1011 -0.6764  0.5824
  577SOL     hw 2306   2.411   4.791   0.088  0.9504 -1.0368 -3.0704
  577SOL     hw 2307   2.359   4.674   0.007 -0.6107 -3.7564  1.4868
  577SOL     vw 2308   2.388   4.707   0.082 -0.0296 -1.1301  0.2198
  578SOL     ow 2309   0.692   4.462   0.672  0.0594  0.0147 -0.4902
  578SOL     hw 2310   0.724   4.384   0.716 -0.8069  0.3255  0.7636
  578SOL     hw 2311   0.600   4.469   0.700  0.5312  2.3229  0.7509
  578SOL     vw 2312   0.684   4.453   0.682  0.0073  0.3600 -0.1611
  579SOL     ow 2313   3.794   4.537   6.610  0.1454  0.0861 -0.1046
  579SOL     hw 2314   3.782   4.504   6.521 -0.6200 -0.5445  0.2143
  579SOL     hw 2315   3.795   4.459   6.665 -0.0348  0.5036  0.5104
  579SOL     vw 2316   3.793   4.522   6.606  0.0207  0.0579  0.0184
  580SOL     ow 2317   3.271   1.384   2.144 -0.3664 -0.4045 -0.5205
  580SOL     hw 2318   3.304   1.334   2.069  0.1340 -0.5608 -0.2056
  580SOL     hw 2319   3.190   1.423   2.113  0.7263  1.0455 -1.7489
  580SOL     vw 2320   3.265   1.382   2.130 -0.1563 -0.2338 -0.6411
  581SOL     ow 2321   5.827   3.026   1.075  0.5196  0.2421 -0.3429
  581SOL     hw 2322   5.815   2.999   0.984  1.2622 -2.0390  0.1754
  581SOL     hw 2323   5.859   2.947   1.120  2.7324  1.9949  1.3724
  581SOL     vw 2324   5.830   3.012   1.069  0.9096  0.1725 -0.0482
  582SOL     ow 2325   3.931   1.335   3.461  0.1994 -0.3172 -0.2037
  582SOL     hw 2326   3.871   1.299   3.526 -0.8793  0.9515 -0.4343
  582SOL     hw 2327   4.017   1.334   3.502  0.0702 -2.3499  0.0756
  582SOL     vw 2328   3.934   1.330   3.475  0.0402 -0.4179 -0.1973
  583SOL     ow 2329   3.393   3.934   0.364  0.4313  0.0567 -0.0780
  583SOL     hw 2330   3.381   3.861   0.425 -0.3372 -0.1648 -0.4818
  583SOL     hw 2331   3.304   3.957   0.336  0.2961  3.2018  2.3998
  583SOL     vw 2332   3.380   3.928   0.368  0.3121  0.4424  0.1956
  584SOL     ow 2333   4.198   6.928   0.328  0.0603 -0.1670 -0.3419
  584SOL     hw 2334   4.145   7.008   0.328 -0.0901 -0.2609 -0.7924
  584SOL     hw 2335   4.142   6.862   0.368 -0.6736 -0.5767 -1.9600
  584SOL     vw 2336   4.184   6.930   0.333 -0.0565 -0.2334 -0.6148
  585SOL     ow 2337   0.208   5.017   1.042  0.1653 -0.0551 -0.3897
  585SOL     hw 2338   0.274   4.949   1.055  1.6289  1.0333 -1.6997
  585SOL     hw 2339   0.228   5.054   0.956 -2.2784  0.2311 -0.9037
  585SOL     vw 2340   0.220   5.013   1.033  0.0360  0.1261 -0.6303
  586SOL     ow 2341   2.492   6.518   6.100 -0.5969  0.3664  0.0554
  586SOL     hw 2342   2.570   6.487   6.146  0.6734 -0.0549 -2.1820
  586SOL     hw 2343   2.501   6.482   6.011 -3.3204  0.3989 -0.3266
  586SOL     vw 2344   2.504   6.509   6.094 -0.7887  0.3152 -0.2902
  587SOL     ow 2345   6.932   3.766   4.866  0.0295 -0.5958  0.9510
  587SOL     hw 2346   7.009   3.734   4.820 -1.1083 -0.2442 -1.3479
  587SOL     hw 2347   6.916   3.701   4.935 -0.3070 -3.2969 -1.4736
  587SOL     vw 2348   6.940   3.753   4.869 -0.1650 -0.9058  0.3276
  588SOL     ow 2349   3.068   3.144   2.677  0.3172  0.6289  0.2581
  588SOL     hw 2350   2.975   3.157   2.694 -0.4302 -0.2937 -2.5775
  588SOL     hw 2351   3.103   3.232   2.664  0.5080  1.2084  3.8229
  588SOL     vw 2352   3.060   3.157   2.677  0.2438  0.5835  0.3543
  589SOL     ow 2353   3.582   0.724   2.972  0.2254 -0.3622  0.2147
  589SOL     hw 2354   3.641   0.708   3.046  0.6722  3.6054  0.9659
  589SOL     hw 2355   3.494   0.715   3.008  0.4185 -0.6104  0.6320
  589SOL     vw 2356   3.578   0.721   2.987  0.3099  0.1285  0.3688
  590SOL     ow 2357   0.129   3.586   5.799 -0.0826 -0.7864  0.8029
  590SOL     hw 2358   0.057   3.602   5.861  0.6804 -0.2730  1.5947
  590SOL     hw 2359   0.108   3.642   5.724 -1.4354 -2.0175  0.2184
  590SOL     vw 2360   0.116   3.596   5.797 -0.1605 -0.8812  0.8299
  591SOL     ow 2361   2.007   4.195   5.734  0.0392 -0.1661  0.3139
  591SOL     hw 2362   1.931   4.246   5.764  0.4547  1.1085 -0.6779
  591SOL     hw 2363   2.000   4.112   5.781 -1.5309  0.2155  0.8413
  591SOL     vw 2364   1.996   4.191   5.744 -0.1131  0.0522  0.2525
  592SOL     ow 2365   0.112   1.831   0.040  0.2604  0.1811 -0.7145
  592SOL     hw 2366   0.088   1.833   0.133 -1.7858  2.0844 -1.1897
  592SOL     hw 2367   0.057   1.763   0.002 -0.4209  0.7988 -0.8567
  592SOL     vw 2368   0.102   1.822   0.047 -0.0995  0.5137 -0.7960
  593SOL     ow 2369   1.694   2.863   0.277  0.6966 -0.5055 -0.1138
  593SOL     hw 2370   1.675   2.953   0.304 -3.1085 -2.0875  3.6151
  593SOL     hw 2371   1.632   2.847   0.205  0.7638 -0.4009 -0.1953
  593SOL     vw 2372   1.683   2.873   0.271  0.2034 -0.7002  0.3675
  594SOL     ow 2373   4.429   5.485   0.140 -0.1275 -0.2437 -0.1322
  594SOL     hw 2374   4.457   5.403   0.181  0.6576  0.2471  0.3464
  594SOL     hw 2375   4.465   5.553   0.197 -4.2680  0.5373  1.9435
  594SOL     vw 2376   4.438   5.483   0.153 -0.5703 -0.0758  0.2048
  595SOL     ow 2377   0.215   6.952   6.224  0.0342 -0.0442  0.6779
  595SOL     hw 2378   0.134   6.980   6.267  1.4070  2.2083  2.0408
  595SOL     hw 2379   0.233   7.022   6.162  0.5899 -0.8898 -0.1320
  595SOL     vw 2380   0.207   6.965   6.222  0.2887  0.1414  0.7508
  596SOL     ow 2381   2.180   5.134   6.753 -0.1428  0.3483  0.1530
  596SOL     hw 2382   2.128   5.054   6.755 -0.2358  0.3818 -0.7161
  596SOL     hw 2383   2.233   5.130   6.833 -0.0877 -0.6223  0.0784
  596SOL     vw 2384   2.180   5.123   6.764 -0.1477  0.2244  0.0284
  597SOL     ow 2385   3.344   1.602   4.833 -0.1401  0.9104  0.5876
  597SOL     hw 2386   3.417   1.659   4.807  1.2226 -0.8440  0.3634
  597SOL     hw 2387   3.338   1.613   4.928  0.8492  0.6202  0.6956
  597SOL     vw 2388   3.353   1.611   4.842  0.1702  0.6406  0.5720
  598SOL     ow 2389   3.242   2.121   2.625 -0.7287  0.3736  0.2069
  598SOL     hw 2390   3.243   2.034   2.665 -2.3412  1.0637  1.9283
  598SOL     hw 2391   3.193   2.110   2.543  0.6043 -0.6359 -0.4864
  598SOL     vw 2392   3.235   2.108   2.620 -0.7657  0.3314  0.3426
  599SOL     ow 2393   1.410   6.024   5.350 -0.6161 -0.2425 -0.2459
  599SOL     hw 2394   1.399   6.015   5.255 -0.6819  1.1671 -0.3848
  599SOL     hw 2395   1.339   6.081   5.378 -0.9565 -1.1193  0.7669
  599SOL     vw 2396   1.399   6.030   5.341 -0.6696 -0.1721 -0.1304
  600SOL     ow 2397   0.714   0.973   6.933 -0.0081  0.1489 -0.0953
  600SOL     hw 2398   0.722   0.927   6.849 -1.1656 -1.3094  0.5531
  600SOL     hw 2399   0.774   1.047   6.925 -0.1505  0.0980 -2.2403
  600SOL     vw 2400   0.723   0.976   6.921 -0.1796 -0.0502 -0.2928
  601SOL     ow 2401   4.958   3.786   0.070 -0.0363 -0.4747 -0.1014
  601SOL     hw 2402   4.989   3.877   0.068  0.5154 -0.5983  1.3430
  601SOL     hw 2403   4.911   3.779   0.154  0.2515 -1.6174 -0.0174
  601SOL     vw 2404   4.956   3.797   0.081  0.0744 -0.6418  0.1003
  602SOL     ow 2405   6.051   3.217   4.772 -0.7168 -0.5391 -0.4223
  602SOL     hw 2406   5.971   3.194   4.819 -0.8490  1.3458  0.3511
  602SOL     hw 2407   6.068   3.142   4.714 -1.5841 -2.0970  1.2667
  602SOL     vw 2408   6.043   3.204   4.770 -0.8488 -0.4959 -0.0975
  603SOL     ow 2409   3.445   0.817   4.740  0.0104  0.4341  0.4944
  603SOL     hw 2410   3.514   0.871   4.780 -1.0047  0.8548  1.7504
  603SOL     hw 2411   3.425   0.861   4.658 -0.0495  1.3829  1.0039
  603SOL     vw 2412   3.451   0.830   4.735 -0.1315  0.6148  0.7274
  604SOL     ow 2413   6.407   3.134   1.664 -0.3690  1.3131  0.4307
  604SOL     hw 2414   6.318   3.101   1.659  0.2474 -0.2958 -1.3201
  604SOL     hw 2415   6.404   3.221   1.624 -0.8189  0.3976 -1.6430
  604SOL     vw 2416   6.395   3.141   1.658 -0.3469  0.9799 -0.0739
  605SOL     ow 2417   6.488   3.411   1.041 -0.3095  0.4192  0.1216
  605SOL     hw 2418   6.413   3.390   0.987 -2.1927  1.1578  2.2862
  605SOL     hw 2419   6.477   3.504   1.062  0.6882  0.3185  1.2324
  605SOL     vw 2420   6.477   3.421   1.037 -0.4265  0.5035  0.5538
  606SOL     ow 2421   3.071   5.530   4.122 -0.6334  0.1004  0.3461
  606SOL     hw 2422   2.985   5.488   4.113 -0.4340 -0.1970 -0.2457
  606SOL     hw 2423   3.067   5.605   4.063 -0.8700  0.7255  1.1498
  606SOL     vw 2424   3.059   5.534   4.113 -0.6382  0.1435  0.3743
  607SOL     ow 2425   5.562   6.480   6.453  0.0489 -0.0035 -0.2762
  607SOL     hw 2426   5.569   6.387   6.471  1.8288  0.1452 -0.0668
  607SOL     hw 2427   5.475   6.491   6.415 -0.4264 -1.6397  0.2796
  607SOL     vw 2428   5.551   6.469   6.451  0.2213 -0.1998 -0.1755
  608SOL     ow 2429   1.690   1.845   1.388  0.0935 -0.2129  0.3396
  608SOL     hw 2430   1.625   1.837   1.317  0.5186 -0.5982 -0.0118
  608SOL     hw 2431   1.690   1.759   1.430  0.7506 -0.3800  0.0063
  608SOL     vw 2432   1.681   1.833   1.384  0.2363 -0.2859  0.2493
  609SOL     ow 2433   4.596   2.377   6.711  0.3426 -0.6649 -0.1899
  609SOL     hw 2434   4.671   2.377   6.651 -0.4184 -1.8158 -1.1757
  609SOL     hw 2435   4.544   2.302   6.685 -1.3713  0.3210  0.2442
  609SOL     vw 2436   4.599   2.367   6.700  0.0157 -0.6866 -0.2627
  610SOL     ow 2437   0.723   2.980   1.579 -0.2178 -0.7901 -0.0471
  610SOL     hw 2438   0.726   2.918   1.652  0.3328 -2.2169 -1.2524
  610SOL     hw 2439   0.740   2.928   1.501  0.8128  0.9690 -1.0709
  610SOL     vw 2440   0.725   2.965   1.579 -0.0091 -0.7461 -0.3412
  611SOL     ow 2441   4.145   2.849   1.000  0.1741  0.8112 -0.2170
  611SOL     hw 2442   4.058   2.819   0.974  0.5668 -0.3905 -0.2108
  611SOL     hw 2443   4.196   2.769   1.010  2.3751  1.4788 -3.9316
  611SOL     vw 2444   4.140   2.834   0.998  0.5162  0.7408 -0.7063
  612SOL     ow 2445   4.078   5.373   4.457  0.5337 -0.3054  0.4500
  612SOL     hw 2446   3.989   5.405   4.473  0.0844 -1.9934  1.5989
  612SOL     hw 2447   4.131   5.453   4.447 -0.9277  0.7359  0.6802
  612SOL     vw 2448   4.073   5.388   4.458  0.2816 -0.3908  0.6320
  613SOL     ow 2449   1.195   6.963   6.020 -0.2905  0.6028  0.2514
  613SOL     hw 2450   1.202   6.973   6.115  1.0537  3.1540 -0.0330
  613SOL     hw 2451   1.199   7.052   5.986 -1.0282 -0.2306 -2.2105
  613SOL     vw 2452   1.196   6.976   6.028 -0.2105  0.8295 -0.1109
  614SOL     ow 2453   0.986   1.547   4.266 -0.6519 -0.0498 -0.3626
  614SOL     hw 2454   0.974   1.534   4.360 -0.0702  1.3575 -0.0694
  614SOL     hw 2455   1.054   1.484   4.242  0.2025  0.5371  0.4545
  614SOL     vw 2456   0.993   1.537   4.275 -0.4625  0.2133 -0.2162
  615SOL     ow 2457   2.886   2.132   5.333 -0.5797  0.0959  0.3203
  615SOL     hw 2458   2.896   2.119   5.428 -0.7630 -1.3507  0.1650
  615SOL     hw 2459   2.849   2.050   5.302  0.3100  0.2187 -1.1384
  615SOL     vw 2460   2.882   2.120   5.342 -0.4865 -0.0788  0.1073
  616SOL     ow 2461   0.401   0.108   0.402  0.2134 -0.4752 -0.0154
  616SOL     hw 2462   0.413   0.110   0.497  1.7916  0.0989 -0.1962
  616SOL     hw 2463   0.311   0.136   0.388 -0.5356 -2.0357  1.3748
  616SOL     vw 2464   0.391   0.112   0.412  0.3228 -0.6053  0.1441
  617SOL     ow 2465   6.012   1.690   2.517  0.3475  0.0647  0.5841
  617SOL     hw 2466   6.081   1.626   2.498  0.8597  0.2120  1.8341
  617SOL     hw 2467   5.943   1.671   2.453  1.4230 -0.2549 -0.5388
  617SOL     vw 2468   6.012   1.679   2.506  0.5569  0.0420  0.6008
  618SOL     ow 2469   0.004   6.416   1.090  0.3910  0.0300 -0.7833
  618SOL     hw 2470  -0.030   6.463   1.167 -0.6913 -0.0004 -1.2318
  618SOL     hw 2471   0.082   6.371   1.123 -0.9307 -1.2746  0.7292
  618SOL     vw 2472   0.010   6.416   1.105  0.0737 -0.1462 -0.6429
  619SOL     ow 2473   1.311   6.610   4.427  0.3093  0.1664  0.0132
  619SOL     hw 2474   1.244   6.546   4.451  1.4497 -0.9648  0.2284
  619SOL     hw 2475   1.388   6.585   4.478  0.5804  2.1490  0.6459
  619SOL     vw 2476   1.312   6.598   4.437  0.4955  0.2787  0.1249
  620SOL     ow 2477   6.031   5.072   0.904 -0.4316  0.2824 -0.2771
  620SOL     hw 2478   6.119   5.109   0.896  0.2253 -0.8169  1.3376
  620SOL     hw 2479   6.044   4.977   0.899 -1.4208  0.0766  0.6495
  620SOL     vw 2480   6.044   5.064   0.903 -0.4752  0.1104  0.0581
  621SOL     ow 2481   3.872   5.097   2.235 -0.0117  0.3596 -0.7329
  621SOL     hw 2482   3.882   5.148   2.315 -1.3322  1.8985 -1.4890
  621SOL     hw 2483   3.843   5.011   2.264 -0.6196  0.9485  0.4292
  621SOL     vw 2484   3.870   5.092   2.249 -0.2662  0.6404 -0.6793
  622SOL     ow 2485   5.962   4.873   2.157 -0.5798  0.1702  0.2156
  622SOL     hw 2486   5.919   4.787   2.156  0.5590 -0.4723  1.8079
  622SOL     hw 2487   5.896   4.934   2.188 -0.7211 -0.5894  1.4792
  622SOL     vw 2488   5.948   4.869   2.161 -0.4482 -0.0145  0.5926
  623SOL     ow 2489   5.311   5.870   5.000  0.1480  0.6720 -0.5959
  623SOL     hw 2490   5.384   5.818   5.035  0.6858  1.1288 -1.0210
  623SOL     hw 2491   5.270   5.908   5.078  3.1827  4.1827 -0.4224
  623SOL     vw 2492   5.315   5.868   5.015  0.6194  1.1954 -0.6292
  624SOL     ow 2493   6.733   5.904   3.903 -0.3200  0.1140  0.5793
  624SOL     hw 2494   6.654   5.947   3.937 -1.6192 -0.4432 -1.5357
  624SOL     hw 2495   6.757   5.956   3.826 -0.5929 -1.5824 -0.7058
  624SOL     vw 2496   6.726   5.917   3.897 -0.5274 -0.1831  0.1308
  625SOL     ow 2497   3.742   5.945   3.311  0.1196 -0.0635  0.2667
  625SOL     hw 2498   3.653   5.966   3.284  0.4213  1.9353  0.6559
  625SOL     hw 2499   3.788   5.927   3.229 -0.3922 -0.0152 -0.0364
  625SOL     vw 2500   3.737   5.946   3.296  0.0918  0.2062  0.2781
  626SOL     ow 2501   3.228   4.737   4.671  0.0672 -0.5537  0.1108
  626SOL     hw 2502   3.228   4.830   4.694  3.4804 -0.0407 -1.2495
  626SOL     hw 2503   3.205   4.736   4.578 -1.0157 -1.2373  0.3692
  626SOL     vw 2504   3.225   4.749   4.662  0.3744 -0.5763 -0.0346
  627SOL     ow 2505   1.279   3.175   0.543  0.4390 -0.3010 -0.1934
  627SOL     hw 2506   1.365   3.136   0.533  0.6398 -0.4079  1.5417
  627SOL     hw 2507   1.243   3.133   0.622 -0.3955  1.1252  0.2196
  627SOL     vw 2508   1.286   3.164   0.552  0.3554 -0.1268  0.0900
  628SOL     ow 2509   3.832   2.160   2.587 -0.1160 -0.4478 -0.1449
  628SOL     hw 2510   3.910   2.132   2.635 -0.9656 -1.8651  0.4651
  628SOL     hw 2511   3.859   2.239   2.541  0.9021  0.7024  2.2547
  628SOL     vw 2512   3.846   2.167   2.588 -0.0937 -0.4832  0.2521
  629SOL     ow 2513   6.878   6.948   0.003  0.0174 -0.9700 -0.3391
  629SOL     hw 2514   6.912   6.867  -0.034  3.3636 -0.8697  1.9923
  629SOL     hw 2515   6.908   6.947   0.094  0.8361  3.1117 -0.3642
  629SOL     vw 2516   6.887   6.938   0.010  0.5670 -0.4179 -0.0348
  630SOL     ow 2517   1.394   2.339   2.152 -0.1175 -0.8724  0.0608
  630SOL     hw 2518   1.398   2.335   2.247 -0.3205  3.0354  0.3822
  630SOL     hw 2519   1.326   2.404   2.133 -0.1381 -1.5733 -2.7953
  630SOL     vw 2520   1.386   2.347   2.162 -0.1470 -0.4494 -0.2736
  631SOL     ow 2521   6.042   2.140   0.602 -1.4345 -0.3149  0.7648
  631SOL     hw 2522   6.118   2.165   0.655 -1.3293 -0.3304  0.6229
  631SOL     hw 2523   5.990   2.220   0.595 -1.6714 -0.4220  1.2576
  631SOL     vw 2524   6.046   2.154   0.608 -1.4520 -0.3312  0.8111
  632SOL     ow 2525   6.123   4.177   5.014  0.0707  0.0550  0.6383
  632SOL     hw 2526   6.101   4.085   5.026 -0.1337  0.1029  0.6444
  632SOL     hw 2527   6.100   4.218   5.097 -2.2521  0.5562 -0.1609
  632SOL     vw 2528   6.117   4.170   5.026 -0.2627  0.1276  0.5333
  633SOL     ow 2529   5.023   6.860   6.538  0.1243  0.1226 -0.1333
  633SOL     hw 2530   5.058   6.888   6.622  1.0043 -1.1841 -0.0480
  633SOL     hw 2531   5.099   6.829   6.489 -0.3192  1.1602 -1.5591
  633SOL     vw 2532   5.038   6.860   6.542  0.1817  0.0873 -0.3102
  634SOL     ow 2533   6.008   1.076   0.709 -0.4927 -0.1502  0.2011
  634SOL     hw 2534   5.954   1.133   0.765 -0.3101 -0.0217  0.2475
  634SOL     hw 2535   5.948   1.006   0.682 -1.3753  1.2071 -1.6561
  634SOL     vw 2536   5.993   1.075   0.713 -0.5853  0.0459 -0.0378
  635SOL     ow 2537   5.995   4.448   4.813 -0.5624  0.1534  0.1926
  635SOL     hw 2538   6.048   4.524   4.838 -0.2346  0.0160 -0.0698
  635SOL     hw 2539   5.976   4.462   4.720  0.8044 -0.8298 -0.2726
  635SOL     vw 2540   6.000   4.460   4.804 -0.3388  0.0052  0.0963
  636SOL     ow 2541   0.640   5.526   1.974 -0.0055  0.2076  0.4587
  636SOL     hw 2542   0.554   5.494   1.947  0.6377 -1.7714  0.6206
  636SOL     hw 2543   0.653   5.605   1.921 -0.5138 -1.2781 -2.0572
  636SOL     vw 2544   0.630   5.532   1.963  0.0123 -0.2494  0.1481
  637SOL     ow 2545   0.442   1.070   0.999  0.7738 -0.0047 -0.3048
  637SOL     hw 2546   0.450   1.023   0.916  1.5780  1.0133 -0.8155
  637SOL     hw 2547   0.348   1.069   1.018  0.6775 -0.9544 -0.8014
  637SOL     vw 2548   0.430   1.064   0.991  0.8672  0.0042 -0.4376
  638SOL     ow 2549   0.473   2.101   2.712  0.6544 -0.1533 -0.3962
  638SOL     hw 2550   0.471   2.109   2.616 -3.4027 -2.0318 -0.6868
  638SOL     hw 2551   0.408   2.164   2.742  0.6106 -0.8238  0.9547
  638SOL     vw 2552   0.464   2.111   2.703  0.1134 -0.4897 -0.2564
  639SOL     ow 2553   4.515   4.217   0.175  0.3371  0.5250 -0.5832
  639SOL     hw 2554   4.548   4.302   0.203  2.8433  0.0140 -1.7255
  639SOL     hw 2555   4.530   4.160   0.250 -1.9099  1.1198  0.4149
  639SOL     vw 2556   4.521   4.221   0.188  0.3710  0.5357 -0.6022
  640SOL     ow 2557   5.738   3.993   3.060 -0.1232 -0.1650 -0.1418
  640SOL     hw 2558   5.765   3.906   3.088  0.7875 -0.7119 -2.5206
  640SOL     hw 2559   5.675   3.978   2.989  0.7976  1.0650 -1.2762
  640SOL     vw 2560   5.733   3.980   3.054  0.1183 -0.0749 -0.6053
  641SOL     ow 2561   2.473   6.067   5.368  0.4711 -0.0891 -0.3648
  641SOL     hw 2562   2.460   6.044   5.460  0.9028 -0.1062 -0.3033
  641SOL     hw 2563   2.389   6.051   5.326  0.4243 -0.6043 -0.0772
  641SOL     vw 2564   2.460   6.062   5.374  0.5218 -0.1595 -0.3188
  642SOL     ow 2565   0.012   3.401   4.301  0.1058  0.2896  0.0527
  642SOL     hw 2566   0.031   3.388   4.208  1.2636 -1.6867  0.4992
  642SOL     hw 2567   0.086   3.453   4.333  0.4061 -0.1583  0.1049
  642SOL     vw 2568   0.024   3.406   4.293  0.2982 -0.0303  0.1185
  643SOL     ow 2569   1.517   6.377   4.074 -0.0822 -0.5975 -0.1015
  643SOL     hw 2570   1.440   6.324   4.093  0.5131 -0.4516  3.1904
  643SOL     hw 2571   1.564   6.384   4.157  2.0424  1.6624 -1.3295
  643SOL     vw 2572   1.513   6.371   4.087  0.2766 -0.2801  0.1707
  644SOL     ow 2573   4.757   3.069   2.400 -0.3813  0.0511 -0.4881
  644SOL     hw 2574   4.851   3.057   2.413  0.1042  1.3030 -2.4221
  644SOL     hw 2575   4.733   3.138   2.461 -0.4255 -1.3592  1.1608
  644SOL     vw 2576   4.766   3.076   2.410 -0.3231  0.0303 -0.5257
  645SOL     ow 2577   5.860   6.321   6.651 -0.0071 -0.0360  0.0562
  645SOL     hw 2578   5.934   6.261   6.640 -1.5819 -2.6895  2.5186
  645SOL     hw 2579   5.885   6.378   6.723  0.1844  0.0528 -0.0788
  645SOL     vw 2580   5.873   6.321   6.659 -0.1898 -0.3743  0.3633
  646SOL     ow 2581   5.482   2.172   0.724  0.3368 -0.0131  0.1649
  646SOL     hw 2582   5.514   2.229   0.654  0.4375  0.0857  0.2920
  646SOL     hw 2583   5.395   2.206   0.745 -0.2536 -0.8358 -0.8146
  646SOL     vw 2584   5.475   2.184   0.717  0.2720 -0.1086  0.0525
  647SOL     ow 2585   1.952   6.877   4.152  0.0074  0.6231 -0.4219
  647SOL     hw 2586   1.873   6.926   4.128 -1.1916 -1.0517 -0.0200
  647SOL     hw 2587   1.962   6.813   4.082 -0.6508 -1.0294  0.9408
  647SOL     vw 2588   1.943   6.875   4.139 -0.2377  0.1841 -0.1891
  648SOL     ow 2589   3.458   6.174   1.554 -0.1256  0.5445 -0.6371
  648SOL     hw 2590   3.386   6.111   1.560 -0.5174  1.0319 -0.0934
  648SOL     hw 2591   3.534   6.121   1.532 -0.4133 -0.1450 -0.0163
  648SOL     vw 2592   3.458   6.159   1.552 -0.2153  0.5176 -0.4836
  649SOL     ow 2593   2.377   2.805   6.986  0.9246  0.0379 -0.5538
  649SOL     hw 2594   2.349   2.876   7.044  0.1358  0.2538 -1.1776
  649SOL     hw 2595   2.398   2.849   6.904 -0.8963 -0.5627 -1.3905
  649SOL     vw 2596   2.376   2.820   6.983  0.5803 -0.0128 -0.7465
  650SOL     ow 2597   4.643   5.128   2.953  0.0569 -0.2496 -0.1792
  650SOL     hw 2598   4.721   5.080   2.924 -0.3310 -2.7754  2.5329
  650SOL     hw 2599   4.584   5.126   2.877  2.0101  0.4428 -1.7886
  650SOL     vw 2600   4.645   5.121   2.939  0.2635 -0.4916 -0.0339
  651SOL     ow 2601   3.491   6.599   0.582  0.6645 -1.1683  0.2483
  651SOL     hw 2602   3.473   6.576   0.491  0.4964 -1.4150  0.3454
  651SOL     hw 2603   3.585   6.583   0.592  1.0596  0.5831 -0.3924
  651SOL     vw 2604   3.501   6.594   0.572  0.6944 -0.9699  0.1766
  652SOL     ow 2605   0.757   1.087   0.177  0.5052  0.0393  0.0648
  652SOL     hw 2606   0.712   1.163   0.139 -0.4875  0.9402  2.7639
  652SOL     hw 2607   0.798   1.121   0.256  2.1146 -1.7824  0.0723
  652SOL     vw 2608   0.756   1.101   0.182  0.5865 -0.0823  0.4219
  653SOL     ow 2609   6.820   6.583   0.866 -0.4871  0.4948 -0.8066
  653SOL     hw 2610   6.787   6.669   0.841 -0.0922  0.9738  0.2452
  653SOL     hw 2611   6.744   6.525   0.861 -0.6196  0.7581 -2.1368
  653SOL     vw 2612   6.806   6.587   0.862 -0.4523  0.5927 -0.8433
  654SOL     ow 2613   2.630   4.845   3.182  0.1012 -0.1832  0.4605
  654SOL     hw 2614   2.724   4.842   3.162 -0.2131 -1.5532 -0.9735
  654SOL     hw 2615   2.601   4.929   3.148  0.5818 -0.2717 -0.1902
  654SOL     vw 2616   2.639   4.856   3.175  0.1231 -0.3757  0.1854
  655SOL     ow 2617   2.166   0.024   4.127 -0.1971 -0.0771  0.4813
  655SOL     hw 2618   2.147   0.117   4.122  1.2641  0.3348  1.7676
  655SOL     hw 2619   2.188  -0.001   4.037  2.5284  1.6023  0.5551
  655SOL     vw 2620   2.166   0.033   4.115  0.3552  0.1988  0.6607
  656SOL     ow 2621   2.706   3.901   3.343 -0.2618 -0.0704  0.5851
  656SOL     hw 2622   2.645   3.962   3.384  0.0635 -0.9541  2.4638
  656SOL     hw 2623   2.790   3.947   3.345 -0.3748  0.1625  0.2302
  656SOL     vw 2624   2.709   3.915   3.348 -0.2338 -0.1563  0.7861
  657SOL     ow 2625   3.416   4.557   2.023 -1.0441  0.4550 -0.1615
  657SOL     hw 2626   3.459   4.473   2.041 -0.6538  0.3278 -1.5689
  657SOL     hw 2627   3.385   4.587   2.108  1.7002  0.4823  0.9247
  657SOL     vw 2628   3.417   4.550   2.036 -0.6306  0.4420 -0.2041
  658SOL     ow 2629   2.234   4.115   4.943  0.0571  0.3023  0.4626
  658SOL     hw 2630   2.290   4.060   4.997  0.1438 -0.7390 -0.6595
  658SOL     hw 2631   2.187   4.054   4.887 -1.7714  1.1775  0.9422
  658SOL     vw 2632   2.235   4.100   4.943 -0.1726  0.2804  0.3779
  659SOL     ow 2633   1.728   2.013   1.968  0.1280 -0.7562 -0.8742
  659SOL     hw 2634   1.823   2.019   1.968  0.3199 -2.8794 -0.3449
  659SOL     hw 2635   1.710   1.919   1.963 -1.8774 -0.6701  2.0797
  659SOL     vw 2636   1.738   2.001   1.967 -0.1113 -1.0248 -0.4146
  660SOL     ow 2637   4.342   2.581   5.992 -0.0204  0.3810  0.2959
  660SOL     hw 2638   4.263   2.631   6.011 -0.2287 -0.2387  1.1443
  660SOL     hw 2639   4.336   2.560   5.899 -1.0910 -0.0358  0.4434
  660SOL     vw 2640   4.331   2.585   5.982 -0.1891  0.2444  0.4275
  661SOL     ow 2641   0.026   2.268   4.881 -0.1532  0.1769  0.0673
  661SOL     hw 2642  -0.042   2.236   4.940 -3.0215  1.9592 -2.0147
  661SOL     hw 2643   0.072   2.335   4.931  0.2983 -1.1899  1.5786
  661SOL     vw 2644   0.023   2.272   4.895 -0.4720  0.2315 -0.0079
  662SOL     ow 2645   2.752   4.656   5.149  0.7312  0.2375  0.6788
  662SOL     hw 2646   2.657   4.659   5.162  0.5574 -1.7645  0.0640
  662SOL     hw 2647   2.768   4.715   5.075  0.0006  0.6459  0.8320
  662SOL     vw 2648   2.741   4.664   5.141  0.6118  0.0272  0.6180
  663SOL     ow 2649   1.555   6.139   3.453  0.1257 -0.1195 -0.4711
  663SOL     hw 2650   1.628   6.089   3.417  0.5782  0.6916 -0.7127
  663SOL     hw 2651   1.576   6.230   3.432 -0.5739  0.1941  0.1419
  663SOL     vw 2652   1.567   6.144   3.445  0.0930  0.0288 -0.4220
  664SOL     ow 2653   2.166   1.909   5.755  0.0067  0.1429 -0.1683
  664SOL     hw 2654   2.183   2.003   5.766 -0.9670  0.4741 -1.2234
  664SOL     hw 2655   2.253   1.869   5.753  0.6106  1.3850 -2.5204
  664SOL     vw 2656   2.180   1.916   5.756 -0.0420  0.3505 -0.6177
  665SOL     ow 2657   2.727   2.303   1.763 -0.0462  0.7136  0.1417
  665SOL     hw 2658   2.792   2.246   1.723 -1.2503  0.5727 -1.7777
  665SOL     hw 2659   2.716   2.269   1.852  0.3365 -1.1336 -0.4686
  665SOL     vw 2660   2.734   2.291   1.769 -0.1546  0.4512 -0.1921
  666SOL     ow 2661   1.884   4.061   0.831  0.0408 -0.2691 -0.7509
  666SOL     hw 2662   1.930   4.079   0.749  0.2903  2.0939 -0.1809
  666SOL     hw 2663   1.805   4.115   0.827 -1.7421 -2.7322 -0.8427
  666SOL     vw 2664   1.880   4.070   0.820 -0.1615 -0.2823 -0.6878
  667SOL     ow 2665   2.362   4.318   0.466 -0.1486 -0.0985 -0.1759
  667SOL     hw 2666   2.272   4.300   0.492  0.0921 -0.1454  0.6657
  667SOL     hw 2667   2.409   4.330   0.549  0.2797  1.5924 -0.6132
  667SOL     vw 2668   2.357   4.318   0.481 -0.0604  0.1185 -0.1225
  668SOL     ow 2669   3.956   6.604   1.392  0.5623  0.0042  0.4950
  668SOL     hw 2670   3.889   6.545   1.425  0.2466  1.3875  2.4785
  668SOL     hw 2671   4.032   6.588   1.448  0.9858  0.3941  0.0406
  668SOL     vw 2672   3.957   6.594   1.403  0.5764  0.2382  0.6968
  669SOL     ow 2673   3.670   5.343   4.436  0.3425 -0.1898  0.6223
  669SOL     hw 2674   3.603   5.297   4.488  1.1804 -0.7615  1.2180
  669SOL     hw 2675   3.685   5.424   4.485  0.0511 -0.0349  0.4581
  669SOL     vw 2676   3.663   5.348   4.450  0.4146 -0.2449  0.6793
  670SOL     ow 2677   5.824   3.551   5.328 -0.2684  0.0739 -0.4193
  670SOL     hw 2678   5.785   3.616   5.269  0.1141 -1.0445 -2.0035
  670SOL     hw 2679   5.802   3.467   5.287  0.5912 -0.7219  0.6966
  670SOL     vw 2680   5.816   3.548   5.315 -0.1044 -0.1787 -0.4809
  671SOL     ow 2681   6.431   3.062   1.952 -0.2069 -0.3319 -0.6875
  671SOL     hw 2682   6.458   2.984   2.000  2.6382  1.4494  0.9210
  671SOL     hw 2683   6.343   3.081   1.983  0.0121 -1.5344  0.7462
  671SOL     vw 2684   6.423   3.054   1.962  0.1974 -0.2555 -0.2862
  672SOL     ow 2685   2.520   2.300   3.926 -0.2766 -0.1304  0.1307
  672SOL     hw 2686   2.443   2.332   3.973 -1.5848  0.2212 -2.1262
  672SOL     hw 2687   2.563   2.379   3.893  0.9043 -0.3459  1.0724
  672SOL     vw 2688   2.515   2.315   3.928 -0.2935 -0.1124 -0.0428
  673SOL     ow 2689   3.558   1.408   2.254  0.0282  0.6266  0.7188
  673SOL     hw 2690   3.631   1.408   2.315  2.1520  0.7086 -1.6710
  673SOL     hw 2691   3.594   1.444   2.173 -2.0920 -1.2419 -1.2031
  673SOL     vw 2692   3.572   1.413   2.251  0.0287  0.3909  0.1498
  674SOL     ow 2693   5.272   6.689   0.224 -0.2500  0.2162  0.1892
  674SOL     hw 2694   5.208   6.744   0.178 -0.1127  0.0283 -0.2269
  674SOL     hw 2695   5.330   6.751   0.267 -0.4368  0.3912  0.1920
  674SOL     vw 2696   5.271   6.704   0.224 -0.2565  0.2146  0.1346
  675SOL     ow 2697   0.236   3.137   6.689 -0.0027  0.0081  0.3112
  675SOL     hw 2698   0.196   3.224   6.691  0.0398  0.0868 -1.2854
  675SOL     hw 2699   0.328   3.153   6.669 -0.3619 -0.4678 -1.9445
  675SOL     vw 2700   0.242   3.150   6.687 -0.0445 -0.0442 -0.1967
  676SOL     ow 2701   2.650   0.539   3.219  0.3044  0.0025  0.0016
  676SOL     hw 2702   2.619   0.557   3.307  1.1195 -1.1987  0.5727
  676SOL     hw 2703   2.674   0.624   3.183  0.4587  0.4519  1.1341
  676SOL     vw 2704   2.649   0.552   3.226  0.4324 -0.0967  0.2264
  677SOL     ow 2705   4.740   4.150   3.374  0.1752 -0.3632 -0.5886
  677SOL     hw 2706   4.766   4.187   3.290 -1.4416 -0.1421 -1.0203
  677SOL     hw 2707   4.666   4.204   3.402  0.7087 -0.4104  1.0066
  677SOL     vw 2708   4.734   4.162   3.366  0.0324 -0.3405 -0.4349
  678SOL     ow 2709   1.785   2.432   0.610  0.1925  0.1686  0.1922
  678SOL     hw 2710   1.791   2.417   0.704  2.3969  0.1655  0.1047
  678SOL     hw 2711   1.864   2.391   0.574 -1.2979 -1.0980 -1.8549
  678SOL     vw 2712   1.796   2.425   0.618  0.2867  0.0010 -0.0894
  679SOL     ow 2713   0.878   4.865   3.774  0.0623  0.8868  0.7637
  679SOL     hw 2714   0.880   4.852   3.679  0.7434  0.3532  0.8407
  679SOL     hw 2715   0.833   4.948   3.786 -2.6628 -0.3967  0.1162
  679SOL     vw 2716   0.873   4.874   3.763 -0.2074  0.6471  0.6883
  680SOL     ow 2717   1.677   4.083   6.443 -0.6187 -0.2600  0.8103
  680SOL     hw 2718   1.668   4.138   6.365 -0.9450 -2.4014 -0.7599
  680SOL     hw 2719   1.771   4.066   6.450 -0.6975 -1.0623  0.1062
  680SOL     vw 2720   1.688   4.088   6.433 -0.6721 -0.6485  0.5102
  681SOL     ow 2721   2.027   1.293   2.921  0.3714 -0.2466  0.2961
  681SOL     hw 2722   1.947   1.339   2.898  0.8784  0.1448 -0.7584
  681SOL     hw 2723   2.097   1.355   2.901  0.9069  0.4562  3.6499
  681SOL     vw 2724   2.026   1.307   2.915  0.5089 -0.1023  0.5995
  682SOL     ow 2725   2.824   3.544   4.346  0.5442 -0.0682  0.2895
  682SOL     hw 2726   2.730   3.543   4.362  0.7089  1.1428  1.5250
  682SOL     hw 2727   2.835   3.601   4.270  0.3971  1.1919  1.1961
  682SOL     vw 2728   2.813   3.551   4.338  0.5465  0.2578  0.5722
  683SOL     ow 2729   3.711   0.854   2.706 -0.1006  0.2504  0.3856
  683SOL     hw 2730   3.732   0.818   2.619 -0.6592 -1.5902  0.9697
  683SOL     hw 2731   3.746   0.944   2.703  0.1752  0.1426 -1.6201
  683SOL     vw 2732   3.719   0.861   2.694 -0.1379 -0.0066  0.1980
  684SOL     ow 2733   5.738   3.729   1.120 -0.3512 -0.7760 -0.2044
  684SOL     hw 2734   5.768   3.819   1.105 -0.0792 -0.6867  0.7695
  684SOL     hw 2735   5.677   3.712   1.048 -0.4125  0.1883 -0.4043
  684SOL     vw 2736   5.734   3.739   1.109 -0.3233 -0.6371 -0.1023
  685SOL     ow 2737   1.869   1.687   4.522 -0.1373 -0.1359  0.0822
  685SOL     hw 2738   1.962   1.709   4.514 -0.2254 -0.1057 -1.1217
  685SOL     hw 2739   1.823   1.767   4.497 -0.4535 -0.9639 -2.3435
  685SOL     vw 2740   1.875   1.700   4.517 -0.1907 -0.2411 -0.3965
  686SOL     ow 2741   1.845   1.293   0.985 -0.1702 -0.7859  0.3678
  686SOL     hw 2742   1.810   1.335   0.906  0.5888 -1.6644 -0.4487
  686SOL     hw 2743   1.831   1.358   1.054  1.6359  1.1502 -0.9769
  686SOL     vw 2744   1.838   1.308   0.984  0.1682 -0.6464  0.0826
  687SOL     ow 2745   1.160   5.755   0.063  0.2658  0.3037 -0.5229
  687SOL     hw 2746   1.168   5.735  -0.030  2.4481  2.8050 -1.0219
  687SOL     hw 2747   1.208   5.838   0.074 -1.3547  1.0118  2.5297
  687SOL     vw 2748   1.167   5.763   0.052  0.3399  0.7269 -0.1859
  688SOL     ow 2749   2.360   2.958   3.307 -0.1618  0.1270  0.2132
  688SOL     hw 2750   2.270   2.957   3.341  0.6894  0.2904  2.6916
  688SOL     hw 2751   2.373   2.872   3.269 -1.9754  0.7679 -2.1057
  688SOL     vw 2752   2.350   2.947   3.306 -0.2887  0.2331  0.2342
  689SOL     ow 2753   5.643   6.933   2.469 -0.1754  0.3398 -0.2211
  689SOL     hw 2754   5.713   6.997   2.478 -0.6179  0.8974 -0.7011
  689SOL     hw 2755   5.665   6.864   2.532 -0.5056  1.6779  1.4192
  689SOL     vw 2756   5.655   6.932   2.479 -0.2773  0.5901 -0.0679
  690SOL     ow 2757   1.396   7.020   0.360 -0.1224  0.0797 -0.5432
  690SOL     hw 2758   1.304   7.008   0.338 -0.6109 -0.5818  1.5744
  690SOL     hw 2759   1.412   6.960   0.433  2.3359 -0.6945 -1.5855
  690SOL     vw 2760   1.386   7.011   0.367  0.1376 -0.1098 -0.4013
  691SOL     ow 2761   5.348   6.350   3.461  0.5148  0.0291 -0.3376
  691SOL     hw 2762   5.348   6.359   3.365 -1.2706  0.6856 -0.3043
  691SOL     hw 2763   5.334   6.439   3.493 -0.8641 -0.4506  0.4655
  691SOL     vw 2764   5.346   6.363   3.452  0.0975  0.0525 -0.2272
  692SOL     ow 2765   1.999   5.694   5.934 -0.0154 -0.4424 -0.2019
  692SOL     hw 2766   2.040   5.780   5.929 -0.7198 -0.0296  0.8625
  692SOL     hw 2767   1.998   5.673   6.027 -0.0139 -1.5278 -0.4388
  692SOL     vw 2768   2.004   5.703   5.945 -0.1081 -0.5312 -0.0925
  693SOL     ow 2769   5.169   6.610   5.166 -0.0532 -0.2950  0.6802
  693SOL     hw 2770   5.164   6.524   5.210  1.4254  0.1177  1.7236
  693SOL     hw 2771   5.090   6.655   5.195 -1.6154 -1.7602 -1.0164
  693SOL     vw 2772   5.158   6.604   5.176 -0.0641 -0.4337  0.5944
  694SOL     ow 2773   1.776   7.009   1.717 -0.1053 -0.1998 -0.0446
  694SOL     hw 2774   1.854   7.059   1.693 -1.4772  0.6467 -3.4386
  694SOL     hw 2775   1.713   7.076   1.744 -0.7489 -0.4364 -0.9000
  694SOL     vw 2776   1.778   7.025   1.717 -0.3712 -0.1194 -0.6053
  695SOL     ow 2777   4.989   6.430   2.141  0.4368 -0.2388 -0.4919
  695SOL     hw 2778   5.024   6.470   2.061  1.2377  0.3168  0.1241
  695SOL     hw 2779   4.945   6.502   2.186  0.7202 -0.3590 -0.0265
  695SOL     vw 2780   4.988   6.445   2.136  0.5798 -0.1817 -0.3493
  696SOL     ow 2781   0.361   2.537   4.554 -0.1595 -0.4573 -0.1671
  696SOL     hw 2782   0.397   2.482   4.625  0.8466  1.5985  1.0305
  696SOL     hw 2783   0.411   2.511   4.477  2.1434  0.4437  0.9079
  696SOL     vw 2784   0.373   2.527   4.553  0.2771 -0.0672  0.1326
  697SOL     ow 2785   6.455   1.248   2.629 -0.4710 -0.1348 -0.2460
  697SOL     hw 2786   6.405   1.232   2.548 -1.1928  1.9669 -0.2711
  697SOL     hw 2787   6.453   1.343   2.640  1.0316 -0.2449  1.3819
  697SOL     vw 2788   6.448   1.258   2.620 -0.3681  0.1280 -0.0346
  698SOL     ow 2789   6.956   6.203   4.122  0.5341  0.0842  0.0819
  698SOL     hw 2790   6.880   6.154   4.091 -0.0645  2.3304 -2.3391
  698SOL     hw 2791   6.937   6.220   4.215 -0.6912 -1.4895  0.1703
  698SOL     vw 2792   6.944   6.198   4.130  0.2935  0.1731 -0.2258
  699SOL     ow 2793   5.058   6.270   3.516 -0.1322 -0.0837 -0.4036
  699SOL     hw 2794   5.086   6.343   3.461  0.0145  0.3588  0.2462
  699SOL     hw 2795   4.996   6.308   3.578  0.8333 -0.2519  0.7058
  699SOL     vw 2796   5.053   6.284   3.517  0.0143 -0.0472 -0.1715
  700SOL     ow 2797   5.604   6.124   1.747  0.1715  0.0652  0.5644
  700SOL     hw 2798   5.567   6.073   1.819 -0.5704 -2.6746 -1.5662
  700SOL     hw 2799   5.695   6.097   1.741 -0.4824 -2.0833 -1.2460
  700SOL     vw 2800   5.611   6.113   1.756 -0.0126 -0.5798  0.0445
  701SOL     ow 2801   6.166   0.832   6.710 -0.2521 -0.1999 -0.0878
  701SOL     hw 2802   6.188   0.857   6.621  0.4576  1.6981  0.5607
  701SOL     hw 2803   6.169   0.914   6.759 -3.2887 -0.7114  1.1909
  701SOL     vw 2804   6.169   0.846   6.705 -0.5591 -0.0170  0.1667
  702SOL     ow 2805   3.082   4.719   5.261  0.6648  0.1138  0.4202
  702SOL     hw 2806   3.108   4.808   5.284 -2.7621  0.6885  3.1083
  702SOL     hw 2807   3.159   4.665   5.279  1.7126  2.1258  2.4396
  702SOL     vw 2808   3.095   4.723   5.267  0.3510  0.4551  1.0412
  703SOL     ow 2809   0.366   4.381   2.638 -0.0297  0.1256  0.0196
  703SOL     hw 2810   0.430   4.375   2.566  0.2543  2.0038  0.0550
  703SOL     hw 2811   0.303   4.312   2.619  2.2443 -2.1834  0.2737
  703SOL     vw 2812   0.366   4.371   2.626  0.3078  0.0687  0.0579
  704SOL     ow 2813   3.982   3.694   2.792  0.0075 -0.5162  0.4116
  704SOL     hw 2814   3.914   3.753   2.762  0.7090  1.3594  2.2403
  704SOL     hw 2815   4.044   3.689   2.719 -0.6026  0.1652 -0.1676
  704SOL     vw 2816   3.981   3.701   2.779  0.0197 -0.1788  0.5765
  705SOL     ow 2817   5.381   6.050   1.055  0.0631 -0.2529  0.5494
  705SOL     hw 2818   5.389   6.074   0.962 -1.4678 -0.5523  0.3208
  705SOL     hw 2819   5.331   6.122   1.093  1.4644  0.3255  1.3637
  705SOL     vw 2820   5.376   6.063   1.048  0.0460 -0.2160  0.6267
  706SOL     ow 2821   3.315   0.208   5.909 -0.1883  0.0613  0.1977
  706SOL     hw 2822   3.308   0.206   6.004 -2.3079  0.1406  0.0923
  706SOL     hw 2823   3.326   0.116   5.883  0.1742  0.0197  0.4876
  706SOL     vw 2824   3.316   0.196   5.918 -0.4201  0.0663  0.2217
  707SOL     ow 2825   1.091   3.175   2.479 -0.0969  0.4770  0.0543
  707SOL     hw 2826   1.163   3.230   2.449 -0.3630  0.3652 -0.7989
  707SOL     hw 2827   1.079   3.109   2.410  0.2343 -0.6869  1.0583
  707SOL     vw 2828   1.098   3.173   2.466 -0.0883  0.3088  0.0743
  708SOL     ow 2829   6.071   2.054   4.903  0.0893  1.1961  0.3525
  708SOL     hw 2830   6.115   2.085   4.824  0.3442  1.8061  0.7268
  708SOL     hw 2831   6.120   2.093   4.975 -0.6021  1.2627  0.7969
  708SOL     vw 2832   6.083   2.063   4.902  0.0315  1.2853  0.4604
  709SOL     ow 2833   1.371   6.472   6.623 -0.7216  0.8571  0.3564
  709SOL     hw 2834   1.402   6.563   6.623  1.2382  0.2246  0.9765
  709SOL     hw 2835   1.450   6.419   6.615 -1.9104 -0.8089 -0.9769
  709SOL     vw 2836   1.385   6.477   6.622 -0.6199  0.5541  0.2625
  710SOL     ow 2837   0.217   6.297   2.331 -0.4958  1.0410 -0.5362
  710SOL     hw 2838   0.278   6.257   2.393 -0.5627  0.3134 -0.9175
  710SOL     hw 2839   0.161   6.224   2.303 -0.8961  1.4941 -0.9410
  710SOL     vw 2840   0.218   6.282   2.335 -0.5574  1.0047 -0.6400
  711SOL     ow 2841   0.670   0.352   4.970  0.4400  0.1722  0.3515
  711SOL     hw 2842   0.658   0.390   4.883 -0.4314 -2.2505 -0.6531
  711SOL     hw 2843   0.663   0.427   5.030  1.3274  1.9471 -1.6189
  711SOL     vw 2844   0.668   0.367   4.967  0.4421  0.0868 -0.0410
  712SOL     ow 2845   4.429   0.841   5.774 -0.0382 -0.6858 -0.0088
  712SOL     hw 2846   4.400   0.903   5.840 -1.2192 -2.1550  0.9365
  712SOL     hw 2847   4.457   0.764   5.824  0.0907 -1.4287 -1.1741
  712SOL     vw 2848   4.429   0.839   5.790 -0.1769 -0.9777 -0.0377
  713SOL     ow 2849   0.131   5.647   2.644 -0.1428 -0.1056 -0.1240
  713SOL     hw 2850   0.127   5.720   2.582  2.6817 -1.1068 -1.6740
  713SOL     hw 2851   0.075   5.580   2.605 -1.0519  0.4496  0.2021
  713SOL     vw 2852   0.123   5.648   2.630  0.1099 -0.1645 -0.2856
  714SOL     ow 2853   0.751   5.367   0.890  0.2605 -0.0604 -0.4045
  714SOL     hw 2854   0.682   5.421   0.852 -0.6569  0.0209  1.2566
  714SOL     hw 2855   0.764   5.296   0.828 -1.8454 -0.4699 -0.4371
  714SOL     vw 2856   0.744   5.365   0.877 -0.1384 -0.1040 -0.1896
  715SOL     ow 2857   3.954   6.163   5.501  0.4486  0.1483 -0.2241
  715SOL     hw 2858   3.894   6.194   5.434 -3.2267  0.2387  2.7634
  715SOL     hw 2859   3.959   6.068   5.487 -1.6182 -0.0739  0.2480
  715SOL     vw 2860   3.947   6.155   5.490 -0.3090  0.1309  0.2322
  716SOL     ow 2861   5.652   2.269   0.033 -0.1320  0.4740 -0.0781
  716SOL     hw 2862   5.653   2.347  -0.023  2.8351 -0.5106 -1.5879
  716SOL     hw 2863   5.644   2.304   0.122  0.6716  2.4656 -0.7364
  716SOL     vw 2864   5.651   2.284   0.037  0.3655  0.6068 -0.3643
  717SOL     ow 2865   0.802   5.359   1.741  0.2437  0.3265 -0.1223
  717SOL     hw 2866   0.797   5.272   1.702 -1.5333  1.0873 -1.8352
  717SOL     hw 2867   0.867   5.406   1.688  0.6712  0.2506  0.3331
  717SOL     vw 2868   0.810   5.354   1.729  0.0657  0.4168 -0.2882
  718SOL     ow 2869   2.074   6.841   0.962  0.3483  0.1930 -0.3877
  718SOL     hw 2870   2.107   6.831   1.051  0.0741  1.4435 -0.1223
  718SOL     hw 2871   2.080   6.935   0.945  3.3522 -0.2593 -2.8315
  718SOL     vw 2872   2.079   6.852   0.971  0.7085  0.2983 -0.6751
  719SOL     ow 2873   6.013   6.458   2.493 -0.2121 -0.1717 -0.3161
  719SOL     hw 2874   6.042   6.377   2.535 -1.1639 -1.6823 -2.3736
  719SOL     hw 2875   5.926   6.438   2.459 -0.6340  1.8572 -0.5662
  719SOL     vw 2876   6.005   6.445   2.494 -0.3932 -0.1035 -0.6207
  720SOL     ow 2877   6.726   4.529   2.950  0.7264  0.2858  0.1766
  720SOL     hw 2878   6.792   4.508   3.016 -1.1489 -2.5542  1.2977
  720SOL     hw 2879   6.754   4.480   2.872  0.8911  0.5685  0.0543
  720SOL     vw 2880   6.739   4.520   2.948  0.5007 -0.0517  0.3085
  721SOL     ow 2881   6.437   4.669   2.849 -0.2143  0.5144 -0.2053
  721SOL     hw 2882   6.356   4.686   2.898  0.2869 -0.1479  0.8833
  721SOL     hw 2883   6.463   4.754   2.815 -1.6822  0.6456 -1.0728
  721SOL     vw 2884   6.430   4.682   2.851 -0.3419  0.4444 -0.1762
  722SOL     ow 2885   1.173   0.780   2.445 -0.8073 -0.2233 -0.3541
  722SOL     hw 2886   1.268   0.766   2.442 -1.0957 -2.2015 -2.6880
  722SOL     hw 2887   1.162   0.874   2.428  0.6950 -0.0678 -0.5877
  722SOL     vw 2888   1.184   0.791   2.443 -0.6472 -0.4638 -0.6928
  723SOL     ow 2889   0.806   6.169   1.672  0.1083 -0.2392  0.1213
  723SOL     hw 2890   0.874   6.102   1.667  0.3880 -0.0916  1.6232
  723SOL     hw 2891   0.847   6.241   1.718 -0.9249  0.0378  0.6326
  723SOL     vw 2892   0.821   6.169   1.677  0.0089 -0.1833  0.3870
  724SOL     ow 2893   2.579   6.320   1.986  0.5029 -0.0400  0.2801
  724SOL     hw 2894   2.643   6.392   1.991 -0.7086  1.2051 -1.0313
  724SOL     hw 2895   2.554   6.304   2.077 -0.0028  2.0061  0.5727
  724SOL     vw 2896   2.584   6.328   1.999  0.2763  0.3939  0.1457
  725SOL     ow 2897   0.963   4.870   4.097 -0.2408  0.4610 -0.6795
  725SOL     hw 2898   0.875   4.873   4.134  0.3475 -1.7164  1.0947
  725SOL     hw 2899   1.019   4.910   4.164  0.1837  1.9776 -1.8590
  725SOL     vw 2900   0.959   4.876   4.111 -0.1072  0.3736 -0.6011
  726SOL     ow 2901   6.112   4.783   0.648  0.5548  0.1955  0.4668
  726SOL     hw 2902   6.068   4.803   0.565  3.0090  1.2436 -0.6849
  726SOL     hw 2903   6.070   4.702   0.678 -0.9016  0.1739 -1.4033
  726SOL     vw 2904   6.100   4.775   0.641  0.6864  0.3309  0.0681
  727SOL     ow 2905   6.764   4.818   5.777 -0.0416 -0.4171  0.5538
  727SOL     hw 2906   6.814   4.766   5.840  1.0101  3.1016  2.8854
  727SOL     hw 2907   6.706   4.872   5.830 -2.2044 -0.2154 -1.8118
  727SOL     vw 2908   6.763   4.818   5.792 -0.1881  0.0737  0.5496
  728SOL     ow 2909   2.233   4.434   4.866  0.3914  0.3151 -0.2806
  728SOL     hw 2910   2.159   4.452   4.923  0.7464 -1.5721  0.8455
  728SOL     hw 2911   2.296   4.504   4.886 -1.2207  2.3341 -1.7232
  728SOL     vw 2912   2.232   4.446   4.876  0.2254  0.3326 -0.3226
  729SOL     ow 2913   0.471   4.477   5.182  0.3978 -0.3682 -0.3325
  729SOL     hw 2914   0.481   4.536   5.256 -0.4456 -2.3368  1.4443
  729SOL     hw 2915   0.559   4.446   5.163  0.2671 -2.9380  2.6029
  729SOL     vw 2916   0.484   4.481   5.189  0.2693 -0.9670  0.2892
  730SOL     ow 2917   4.422   0.665   0.035 -0.0116 -0.1814  0.3383
  730SOL     hw 2918   4.331   0.665   0.007 -0.0092  1.6008  0.2516
  730SOL     hw 2919   4.421   0.623   0.121 -1.0912  0.8503  0.8455
  730SOL     vw 2920   4.410   0.659   0.043 -0.1538  0.1898  0.3938
  731SOL     ow 2921   5.811   2.046   6.098 -0.1676 -0.0322 -0.4271
  731SOL     hw 2922   5.727   2.031   6.140 -0.1258  3.1949  1.1233
  731SOL     hw 2923   5.798   2.018   6.008 -2.5083 -0.7255  0.0510
  731SOL     vw 2924   5.798   2.040   6.092 -0.4709  0.3021 -0.1595
  732SOL     ow 2925   6.738   1.430   1.317  0.0435 -0.5154 -0.0272
  732SOL     hw 2926   6.791   1.422   1.396  2.0909 -1.3842 -1.4182
  732SOL     hw 2927   6.720   1.339   1.291 -0.7467 -0.2411 -0.4877
  732SOL     vw 2928   6.742   1.417   1.324  0.2093 -0.5938 -0.2715
  733SOL     ow 2929   1.610   2.402   3.759 -0.3824 -0.2099 -0.1535
  733SOL     hw 2930   1.647   2.377   3.675  0.0190  1.8789 -0.6546
  733SOL     hw 2931   1.684   2.439   3.808 -1.0144  0.4505  0.3336
  733SOL     vw 2932   1.625   2.404   3.755 -0.4128  0.1529 -0.1552
  734SOL     ow 2933   3.266   2.750   0.813 -0.4728  0.1525  0.1436
  734SOL     hw 2934   3.212   2.714   0.743 -0.6797  1.2250 -0.2663
  734SOL     hw 2935   3.203   2.788   0.875 -0.2429  0.2135  0.3435
  734SOL     vw 2936   3.251   2.751   0.812 -0.4699  0.3021  0.1159
  735SOL     ow 2937   6.183   1.876   0.181  0.2781  0.4969 -0.1976
  735SOL     hw 2938   6.117   1.876   0.111 -0.5547 -0.9515  0.5445
  735SOL     hw 2939   6.249   1.813   0.151 -0.9543 -1.4970  1.0268
  735SOL     vw 2940   6.183   1.868   0.168  0.0057  0.0427  0.0618
  736SOL     ow 2941   5.597   1.258   1.257  0.7180 -0.3560 -0.0357
  736SOL     hw 2942   5.674   1.282   1.205  0.3165 -1.2195 -1.0601
  736SOL     hw 2943   5.535   1.330   1.243 -0.0232 -1.3110 -2.1268
  736SOL     vw 2944   5.599   1.271   1.248  0.5672 -0.5959 -0.4468
  737SOL     ow 2945   6.939   5.130   2.139  0.5493  0.0303  0.9340
  737SOL     hw 2946   6.951   5.075   2.216  1.4658  0.2768  0.9776
  737SOL     hw 2947   6.879   5.199   2.167  0.8146  0.0717  1.4010
  737SOL     vw 2948   6.933   5.132   2.153  0.7050  0.0684  1.0014
  738SOL     ow 2949   3.041   1.015   4.782  0.6023  0.5563 -0.3484
  738SOL     hw 2950   2.949   0.991   4.781  0.7764 -0.4180  1.7476
  738SOL     hw 2951   3.064   1.027   4.690 -1.3605 -0.1623 -0.9737
  738SOL     vw 2952   3.032   1.013   4.770  0.3663  0.3329 -0.1543
  739SOL     ow 2953   4.025   6.854   1.153  0.0398 -0.0805  0.4396
  739SOL     hw 2954   3.992   6.828   1.067 -1.7092  4.3279 -0.5000
  739SOL     hw 2955   4.115   6.880   1.138  0.2471 -0.8506  0.3220
  739SOL     vw 2956   4.032   6.854   1.140 -0.1636  0.3996  0.3000
  740SOL     ow 2957   0.681   1.297   0.892 -0.1520  0.1718 -0.0389
  740SOL     hw 2958   0.698   1.338   0.807 -2.4171  1.6845  0.1308
  740SOL     hw 2959   0.749   1.333   0.950 -0.3824  1.5335 -0.5622
  740SOL     vw 2960   0.692   1.307   0.889 -0.4813  0.5510 -0.0855
  741SOL     ow 2961   0.141   6.349   4.247 -0.1659  0.1567  0.2226
  741SOL     hw 2962   0.224   6.311   4.276 -0.2298 -1.1491 -1.2115
  741SOL     hw 2963   0.101   6.382   4.327  0.7568 -1.1381  1.2558
  741SOL     vw 2964   0.147   6.348   4.261 -0.0526 -0.1862  0.1698
  742SOL     ow 2965   3.195   4.151   5.855  0.6287  0.1060  0.2511
  742SOL     hw 2966   3.168   4.093   5.926 -1.2337  1.4352  0.7040
  742SOL     hw 2967   3.137   4.127   5.782  2.2865 -1.0109 -0.7772
  742SOL     vw 2968   3.184   4.140   5.855  0.6015  0.1340  0.1750
  743SOL     ow 2969   5.175   1.346   2.601  0.0944  0.2669 -0.6517
  743SOL     hw 2970   5.089   1.330   2.639 -0.4603  0.0312 -1.9682
  743SOL     hw 2971   5.168   1.434   2.563  1.1925  1.2434  1.2202
  743SOL     vw 2972   5.163   1.356   2.601  0.1662  0.3647 -0.5784
  744SOL     ow 2973   1.750   1.538   4.246 -0.2540 -0.2654 -0.2017
  744SOL     hw 2974   1.772   1.590   4.323 -1.1751 -0.6473  0.3441
  744SOL     hw 2975   1.656   1.521   4.255  0.1077 -2.4630 -0.0906
  744SOL     vw 2976   1.740   1.543   4.257 -0.3278 -0.6057 -0.1149
  745SOL     ow 2977   1.883   3.809   0.755  0.4909  0.6583  0.4633
  745SOL     hw 2978   1.862   3.884   0.810 -1.7065  1.0076 -0.7426
  745SOL     hw 2979   1.877   3.734   0.813  0.6039  1.2248  1.2193
  745SOL     vw 2980   1.880   3.809   0.770  0.2159  0.7792  0.4040
  746SOL     ow 2981   5.316   0.212   1.280  1.3566  0.2650 -0.4035
  746SOL     hw 2982   5.395   0.160   1.289  1.2939  0.5361  3.8435
  746SOL     hw 2983   5.334   0.292   1.330 -1.5522  0.2222  0.9716
  746SOL     vw 2984   5.329   0.216   1.288  0.9646  0.2951  0.3383
  747SOL     ow 2985   2.957   2.383   6.061 -0.5446 -0.1100 -0.7064
  747SOL     hw 2986   3.003   2.310   6.020  1.2938  0.6626 -0.1278
  747SOL     hw 2987   2.993   2.461   6.017 -1.1404  0.5383 -0.0679
  747SOL     vw 2988   2.968   2.384   6.050 -0.3806  0.0775 -0.5460
  748SOL     ow 2989   5.512   2.056   1.209  0.7303 -0.6948 -0.0578
  748SOL     hw 2990   5.459   2.082   1.284 -0.9460 -0.8716 -1.1381
  748SOL     hw 2991   5.496   2.123   1.143  0.0180 -1.9649 -1.2224
  748SOL     vw 2992   5.503   2.068   1.210  0.4151 -0.8858 -0.3541
  749SOL     ow 2993   3.027   3.704   0.830 -0.1865  0.0335  0.1937
  749SOL     hw 2994   3.122   3.709   0.846 -0.3268 -0.0089  1.0700
  749SOL     hw 2995   2.995   3.640   0.892 -1.0292  1.2130  1.0259
  749SOL     vw 2996   3.036   3.697   0.840 -0.3161  0.1835  0.4192
  750SOL     ow 2997   0.845   6.689   1.063  0.6891 -0.3508 -0.4906
  750SOL     hw 2998   0.798   6.627   1.006 -0.8717  0.0488  0.2939
  750SOL     hw 2999   0.880   6.634   1.133  0.5216 -0.5280 -0.5432
  750SOL     vw 3000   0.843   6.673   1.065  0.4611 -0.3216 -0.3940
  751SOL     ow 3001   1.909   6.760   1.649 -0.1115  0.2004  0.2185
  751SOL     hw 3002   2.004   6.756   1.652  0.0392  2.6343  0.7051
  751SOL     hw 3003   1.880   6.699   1.717  1.0845 -0.3722  0.2370
  751SOL     vw 3004   1.918   6.751   1.658  0.0662  0.4458  0.2851
  752SOL     ow 3005   5.344   1.086   2.696 -0.5241 -0.3528  0.5074
  752SOL     hw 3006   5.333   1.104   2.790  0.3138 -1.1146  0.7625
  752SOL     hw 3007   5.270   1.029   2.674 -0.9144  0.1019  0.6187
  752SOL     vw 3008   5.333   1.081   2.705 -0.4649 -0.3934  0.5558
  753SOL     ow 3009   5.839   2.252   6.290 -0.6231 -0.1820  0.6294
  753SOL     hw 3010   5.799   2.194   6.355 -1.0862 -0.4153  0.1342
  753SOL     hw 3011   5.839   2.338   6.332 -0.3892 -0.4372  1.1676
  753SOL     vw 3012   5.834   2.256   6.304 -0.6530 -0.2466  0.6351
  754SOL     ow 3013   0.790   6.221   0.790  0.6225 -0.2461 -0.2589
  754SOL     hw 3014   0.739   6.139   0.784  0.5903 -0.1414 -1.7549
  754SOL     hw 3015   0.826   6.220   0.879 -3.3058  0.4679  1.5696
  754SOL     vw 3016   0.788   6.210   0.801  0.0999 -0.1383 -0.2151
  755SOL     ow 3017   3.891   4.207   4.532 -0.3758 -0.7430 -0.4536
  755SOL     hw 3018   3.831   4.275   4.501 -0.2587 -0.5245 -0.2060
  755SOL     hw 3019   3.891   4.217   4.627  1.1822  0.2457 -0.5093
  755SOL     vw 3020   3.883   4.217   4.541 -0.1550 -0.5836 -0.4282
  756SOL     ow 3021   5.480   2.096   6.859 -0.0880 -0.5551  0.7359
  756SOL     hw 3022   5.450   2.166   6.801  1.7137 -0.4654 -0.1604
  756SOL     hw 3023   5.446   2.016   6.819  0.6923 -0.4470 -0.1956
  756SOL     vw 3024   5.471   2.095   6.846  0.2525 -0.5289  0.4950
  757SOL     ow 3025   6.132   3.912   5.005  0.2787 -0.3663 -1.0053
  757SOL     hw 3026   6.201   3.894   5.069 -0.8697 -1.9664 -0.1311
  757SOL     hw 3027   6.144   3.845   4.938 -0.3344 -0.5919 -0.8984
  757SOL     vw 3028   6.142   3.901   5.005  0.0463 -0.6073 -0.8757
  758SOL     ow 3029   6.848   0.376   2.811  0.1507  0.0554  0.0327
  758SOL     hw 3030   6.828   0.393   2.903 -1.7468  1.9240 -0.6519
  758SOL     hw 3031   6.934   0.416   2.798 -0.3753  1.4499  0.6021
  758SOL     vw 3032   6.857   0.384   2.822 -0.1690  0.4859  0.0175
  759SOL     ow 3033   5.513   5.027   4.886 -0.1622  0.3379  0.1027
  759SOL     hw 3034   5.429   5.074   4.889 -1.3489 -1.7307  1.5537
  759SOL     hw 3035   5.499   4.957   4.823  0.3048 -0.3193  0.7104
  759SOL     vw 3036   5.500   5.024   4.878 -0.2570 -0.0217  0.3743
  760SOL     ow 3037   4.213   4.961   5.251  0.0171  0.3987  0.0361
  760SOL     hw 3038   4.131   4.980   5.205 -1.1373 -1.6858  1.1094
  760SOL     hw 3039   4.274   4.936   5.181 -0.7722  0.3408 -0.6503
  760SOL     vw 3040   4.210   4.960   5.236 -0.2396  0.1161  0.0868
  761SOL     ow 3041   2.055   2.289   2.864 -0.2556  0.2657 -0.4177
  761SOL     hw 3042   2.008   2.303   2.782 -1.2730 -0.6978 -0.0365
  761SOL     hw 3043   1.990   2.248   2.921  0.5631  0.5129  0.7244
  761SOL     vw 3044   2.040   2.286   2.861 -0.2819  0.1711 -0.2167
  762SOL     ow 3045   6.430   2.293   6.096 -0.0133 -0.4685 -0.2141
  762SOL     hw 3046   6.380   2.313   6.017  0.3828  2.4331  0.1781
  762SOL     hw 3047   6.366   2.299   6.168  0.3789  0.8911  0.0470
  762SOL     vw 3048   6.415   2.296   6.095  0.0906  0.0938 -0.1280
  763SOL     ow 3049   6.109   2.221   1.931 -0.1788  0.4008 -0.1751
  763SOL     hw 3050   6.124   2.132   1.899  0.8027  0.8453 -1.0302
  763SOL     hw 3051   6.015   2.236   1.919 -0.0346  0.1695 -1.9160
  763SOL     vw 3052   6.099   2.211   1.925 -0.0305  0.4289 -0.5177
  764SOL     ow 3053   1.387   0.364   6.249  0.1271  0.2421 -0.1077
  764SOL     hw 3054   1.306   0.322   6.279  1.2648 -1.2924  1.0225
  764SOL     hw 3055   1.421   0.409   6.327 -0.0106  1.5379 -0.7746
  764SOL     vw 3056   1.381   0.364   6.264  0.2590  0.2106 -0.0467
  765SOL     ow 3057   2.942   2.963   6.851 -0.0958  0.5015 -0.5296
  765SOL     hw 3058   2.992   3.020   6.908 -0.4510  0.1015  0.1954
  765SOL     hw 3059   2.885   3.022   6.802 -1.5057  0.6908  1.2445
  765SOL     vw 3060   2.941   2.978   6.852 -0.3288  0.4735 -0.1998
  766SOL     ow 3061   0.255   6.713   3.312 -0.1532 -0.0028  0.5286
  766SOL     hw 3062   0.159   6.711   3.316 -0.1311  0.4172  1.4976
  766SOL     hw 3063   0.284   6.680   3.397  0.5629  0.1587  0.3544
  766SOL     vw 3064   0.246   6.709   3.324 -0.0558  0.0741  0.6334
  767SOL     ow 3065   5.739   6.210   2.842  0.6171  0.2936  0.6140
  767SOL     hw 3066   5.833   6.224   2.840  0.6037  0.3714 -1.4773
  767SOL     hw 3067   5.701   6.296   2.824  0.3575 -0.4496 -3.4877
  767SOL     vw 3068   5.746   6.223   2.839  0.5808  0.2058 -0.2031
  768SOL     ow 3069   6.975   3.072   6.697 -0.5671 -0.3796 -0.0840
  768SOL     hw 3070   6.923   2.994   6.677 -3.1495  0.7924  1.4082
  768SOL     hw 3071   6.931   3.110   6.774  1.2610  1.9297 -0.0699
  768SOL     vw 3072   6.962   3.067   6.705 -0.6666  0.0796  0.1147
  769SOL     ow 3073   2.003   5.345   6.601 -0.2584 -0.1594  0.9461
  769SOL     hw 3074   1.973   5.298   6.523 -1.9894 -3.0930  3.1762
  769SOL     hw 3075   1.928   5.400   6.625  0.6645  1.5919  0.0653
  769SOL     vw 3076   1.989   5.346   6.594 -0.3650 -0.3157  1.1241
  770SOL     ow 3077   1.331   1.442   5.619 -0.0372 -0.6051 -0.0127
  770SOL     hw 3078   1.326   1.482   5.705  1.2570 -2.2321  0.8804
  770SOL     hw 3079   1.351   1.514   5.560 -1.1244  0.5663  0.9970
  770SOL     vw 3080   1.333   1.457   5.622 -0.0100 -0.6653  0.2384
  771SOL     ow 3081   6.042   4.149   4.726 -0.0605 -0.2264 -0.4461
  771SOL     hw 3082   6.113   4.086   4.730 -1.2337 -1.5578  1.6059
  771SOL     hw 3083   5.972   4.104   4.679 -0.7609 -0.3437  0.6641
  771SOL     vw 3084   6.042   4.135   4.720 -0.3076 -0.4175 -0.0288
  772SOL     ow 3085   2.262   0.966   5.710 -0.2081 -0.4832 -0.3390
  772SOL     hw 3086   2.252   0.874   5.683 -0.9955 -0.3111 -0.6587
  772SOL     hw 3087   2.186   0.983   5.766  0.4848 -0.3202  0.5763
  772SOL     vw 3088   2.251   0.956   5.714 -0.2204 -0.4390 -0.2606
  773SOL     ow 3089   3.295   6.656   0.749  0.0663 -0.6842  0.3599
  773SOL     hw 3090   3.301   6.584   0.811  0.8844 -0.3777  0.6612
  773SOL     hw 3091   3.364   6.639   0.685 -0.9774 -1.1679 -0.6694
  773SOL     vw 3092   3.305   6.644   0.749  0.0365 -0.7074  0.2639
  774SOL     ow 3093   6.514   0.462   3.580  0.0251  0.0842  0.3104
  774SOL     hw 3094   6.462   0.520   3.524 -1.8084 -0.0038  1.8178
  774SOL     hw 3095   6.494   0.374   3.548  1.2058  0.1371 -0.6576
  774SOL     vw 3096   6.504   0.458   3.568 -0.0610  0.0795  0.3815
  775SOL     ow 3097   2.643   4.576   3.113 -0.6422  0.0675  0.6926
  775SOL     hw 3098   2.650   4.670   3.134 -1.0916  0.6045 -1.3725
  775SOL     hw 3099   2.715   4.536   3.161 -1.4806  1.1767  3.0605
  775SOL     vw 3100   2.654   4.583   3.122 -0.8121  0.2844  0.7325
  776SOL     ow 3101   1.937   5.318   4.091 -0.0152 -0.5623 -0.3971
  776SOL     hw 3102   1.860   5.336   4.037 -0.4247 -0.3954  0.2347
  776SOL     hw 3103   1.902   5.302   4.179  0.3861 -3.5045 -0.6661
  776SOL     vw 3104   1.922   5.318   4.095 -0.0162 -0.9284 -0.3490
  777SOL     ow 3105   6.727   4.380   0.536  0.0953 -0.1275  0.4961
  777SOL     hw 3106   6.787   4.453   0.518  0.0867 -0.4080 -0.7255
  777SOL     hw 3107   6.691   4.400   0.622 -0.6039  1.8127 -0.1912
  777SOL     vw 3108   6.730   4.392   0.545  0.0021  0.0916  0.2442
  778SOL     ow 3109   3.507   3.980   0.089 -0.4476 -0.1386 -0.7802
  778SOL     hw 3110   3.446   3.910   0.064 -0.2213 -0.3249 -0.8132
  778SOL     hw 3111   3.473   4.057   0.044 -0.7907 -0.1899 -0.6171
  778SOL     vw 3112   3.494   3.981   0.080 -0.4631 -0.1700 -0.7630
  779SOL     ow 3113   1.541   1.437   4.873 -0.3873 -0.6820 -0.1265
  779SOL     hw 3114   1.481   1.371   4.908  0.7513 -2.5726 -1.5432
  779SOL     hw 3115   1.627   1.411   4.907  0.1462 -0.2057 -1.0730
  779SOL     vw 3116   1.544   1.425   4.882 -0.1667 -0.8686 -0.4382
  780SOL     ow 3117   0.140   3.299   5.438  0.2839 -0.3876 -1.0891
  780SOL     hw 3118   0.060   3.345   5.462  1.5532  2.0122 -1.1694
  780SOL     hw 3119   0.188   3.289   5.521 -0.3392 -2.4727 -0.9153
  780SOL     vw 3120   0.136   3.304   5.452  0.3692 -0.3462 -1.0772
  781SOL     ow 3121   6.924   0.249   4.726  0.4089 -0.3671 -0.8026
  781SOL     hw 3122   6.836   0.219   4.749 -0.4884  2.1952 -0.5327
  781SOL     hw 3123   6.911   0.337   4.690  2.9667  0.7131  0.6225
  781SOL     vw 3124   6.910   0.257   4.724  0.6278  0.1135 -0.5786
  782SOL     ow 3125   2.085   4.156   0.978 -0.1775  0.2583 -0.5223
  782SOL     hw 3126   2.147   4.091   0.944 -1.2644 -1.3889  0.5019
  782SOL     hw 3127   1.999   4.118   0.960 -0.8157  0.5882  1.6377
  782SOL     vw 3128   2.082   4.142   0.971 -0.4052  0.0842 -0.1021
  783SOL     ow 3129   4.669   6.026   0.613 -0.1903 -0.5413 -0.1698
  783SOL     hw 3130   4.650   5.981   0.695  1.1103 -0.7402  0.0538
  783SOL     hw 3131   4.731   5.969   0.568 -0.4927 -0.1914 -1.0633
  783SOL     vw 3132   4.675   6.013   0.618 -0.0587 -0.5217 -0.2582
  784SOL     ow 3133   3.221   6.701   4.096 -0.0842 -0.4113  0.6859
  784SOL     hw 3134   3.131   6.698   4.127 -0.4387  0.5471 -0.1723
  784SOL     hw 3135   3.272   6.657   4.163 -1.2428 -1.3090  0.9942
  784SOL     vw 3136   3.216   6.695   4.109 -0.2838 -0.4029  0.6137
  785SOL     ow 3137   5.512   5.990   2.967 -0.1859  0.2400  0.4193
  785SOL     hw 3138   5.465   5.908   2.977 -0.5589  0.4954  0.8065
  785SOL     hw 3139   5.445   6.054   2.943  0.3861  0.0695 -1.7887
  785SOL     vw 3140   5.497   5.988   2.965 -0.1595  0.2513  0.1791
  786SOL     ow 3141   2.256   0.818   6.408 -0.0469  0.3662 -0.2707
  786SOL     hw 3142   2.328   0.763   6.377  0.3622  0.2862  0.7957
  786SOL     hw 3143   2.268   0.902   6.363  0.8715  0.4371  0.0856
  786SOL     vw 3144   2.267   0.822   6.398  0.1281  0.3650 -0.0830
  787SOL     ow 3145   2.946   1.272   4.093 -0.0066 -0.2525  0.0098
  787SOL     hw 3146   3.009   1.221   4.144  0.3540 -1.5300 -1.5993
  787SOL     hw 3147   2.992   1.354   4.074  0.3805 -0.3353  0.5633
  787SOL     vw 3148   2.960   1.276   4.097  0.0919 -0.4320 -0.1292
  788SOL     ow 3149   3.493   6.042   0.220 -0.6138  0.0941  0.7814
  788SOL     hw 3150   3.437   5.983   0.169 -1.2791 -0.9434  2.6015
  788SOL     hw 3151   3.431   6.094   0.273  0.0701 -0.7064  2.4502
  788SOL     vw 3152   3.477   6.041   0.221 -0.6114 -0.1485  1.2417
  789SOL     ow 3153   6.794   0.071   2.836  0.3739  0.4050 -0.1997
  789SOL     hw 3154   6.765  -0.019   2.823  2.9296 -0.3800 -1.0295
  789SOL     hw 3155   6.843   0.069   2.918 -0.5740  1.3694  0.4263
  789SOL     vw 3156   6.797   0.059   2.845  0.5858  0.4287 -0.2265
  790SOL     ow 3157   0.353   0.190   1.796  0.1616  0.5022  0.4884
  790SOL     hw 3158   0.376   0.276   1.832  0.0551  0.6833  0.1227
  790SOL     hw 3159   0.314   0.209   1.711 -0.2658  0.1181  0.5962
  790SOL     vw 3160   0.351   0.204   1.790  0.0912  0.4754  0.4544
  791SOL     ow 3161   6.236   2.012   0.386 -0.4333 -0.1759 -0.6321
  791SOL     hw 3162   6.329   1.995   0.401 -0.0105  1.5741 -0.9648
  791SOL     hw 3163   6.223   1.992   0.293  0.0893  1.2887 -1.0564
  791SOL     vw 3164   6.247   2.007   0.375 -0.3085  0.2482 -0.7320
  792SOL     ow 3165   3.837   4.906   2.421 -0.1349 -0.1101  0.2138
  792SOL     hw 3166   3.749   4.941   2.435 -0.6246 -0.4527 -1.7508
  792SOL     hw 3167   3.826   4.839   2.354  1.7177  0.3339 -0.6069
  792SOL     vw 3168   3.824   4.902   2.414  0.0448 -0.0968 -0.1538
  793SOL     ow 3169   5.977   3.766   5.542  0.6253 -0.2768 -0.1174
  793SOL     hw 3170   5.991   3.857   5.519  3.3562 -1.3593 -3.5554
  793SOL     hw 3171   6.041   3.748   5.611 -0.2636  0.4534  0.9277
  793SOL     vw 3172   5.987   3.775   5.548  0.8681 -0.3234 -0.4330
  794SOL     ow 3173   5.501   0.289   0.347 -0.1074 -0.2019 -0.2194
  794SOL     hw 3174   5.551   0.229   0.402 -1.0744 -1.0303 -0.1987
  794SOL     hw 3175   5.566   0.337   0.297  0.7119 -0.9729  0.0853
  794SOL     vw 3176   5.516   0.287   0.348 -0.1268 -0.4129 -0.1764
  795SOL     ow 3177   3.228   5.087   5.752  0.0624  0.3499  0.1690
  795SOL     hw 3178   3.312   5.041   5.741  0.2637  0.7363  0.0868
  795SOL     hw 3179   3.228   5.153   5.683 -0.4495  0.1468 -0.0287
  795SOL     vw 3180   3.239   5.089   5.741  0.0213  0.3741  0.1321
  796SOL     ow 3181   1.669   5.914   6.711  0.3503  0.0968  0.4150
  796SOL     hw 3182   1.635   5.942   6.796 -0.1064 -1.6418  0.8533
  796SOL     hw 3183   1.598   5.864   6.672  0.1946  1.6609 -1.4689
  796SOL     vw 3184   1.655   5.911   6.717  0.2695  0.0734  0.2241
  797SOL     ow 3185   5.258   1.945   6.817  0.2502  0.2589 -0.3105
  797SOL     hw 3186   5.185   2.002   6.841  1.1882  1.7047 -0.7896
  797SOL     hw 3187   5.242   1.921   6.726  0.1297  0.1791 -0.2683
  797SOL     vw 3188   5.246   1.949   6.808  0.3579  0.4390 -0.3681
  798SOL     ow 3189   2.625   0.207   4.806  0.1609 -0.5782 -0.4926
  798SOL     hw 3190   2.678   0.219   4.728  0.7478  1.3979  0.1503
  798SOL     hw 3191   2.688   0.194   4.877 -0.3054 -0.7314 -0.0908
  798SOL     vw 3192   2.640   0.207   4.805  0.1768 -0.3377 -0.3548
  799SOL     ow 3193   2.631   3.126   3.258  0.2167  0.3709 -0.0125
  799SOL     hw 3194   2.663   3.055   3.202 -2.3243  1.2873 -2.8821
  799SOL     hw 3195   2.709   3.156   3.305  2.4056 -0.9460 -2.5315
  799SOL     vw 3196   2.646   3.121   3.257  0.1702  0.3181 -0.7234
  800SOL     ow 3197   2.055   5.619   4.014  0.0122  0.2391 -0.2247
  800SOL     hw 3198   2.014   5.704   4.030  0.4601  0.5808 -0.8323
  800SOL     hw 3199   2.078   5.621   3.921 -0.9054 -0.9560 -0.4969
  800SOL     vw 3200   2.053   5.630   4.004 -0.0498  0.1264 -0.3409
  801SOL     ow 3201   1.085   4.911   2.899  0.3314 -0.2446  0.3088
  801SOL     hw 3202   1.149   4.862   2.847 -1.5539 -0.2946 -2.1409
  801SOL     hw 3203   1.019   4.847   2.923  0.3540  0.1299  1.4230
  801SOL     vw 3204   1.085   4.896   2.895  0.0856 -0.2017  0.1326
  802SOL     ow 3205   2.006   1.922   3.368  0.4937  0.1190  0.1375
  802SOL     hw 3206   1.914   1.917   3.344  1.1569 -2.8873 -2.6221
  802SOL     hw 3207   2.029   2.015   3.357 -1.8813  0.7026 -0.4554
  802SOL     vw 3208   1.997   1.934   3.363  0.2678 -0.2006 -0.3047
  803SOL     ow 3209   1.506   4.138   5.071  0.1152 -0.4867  0.2444
  803SOL     hw 3210   1.486   4.135   5.164 -0.6452 -2.8052  0.0627
  803SOL     hw 3211   1.422   4.129   5.027  0.6691 -1.9927 -0.6073
  803SOL     vw 3212   1.492   4.136   5.077  0.0880 -0.9916  0.1082
  804SOL     ow 3213   6.375   6.070   6.075 -0.2117 -0.0981  0.4573
  804SOL     hw 3214   6.306   6.133   6.098  0.2586  0.4707  0.3202
  804SOL     hw 3215   6.327   5.991   6.049 -0.8086  0.2091  0.5972
  804SOL     vw 3216   6.359   6.068   6.075 -0.2284  0.0174  0.4575
  805SOL     ow 3217   0.105   1.089   2.268 -0.0603  0.0336 -0.1742
  805SOL     hw 3218   0.153   1.010   2.293 -0.3020 -0.2232 -0.5091
  805SOL     hw 3219   0.076   1.127   2.351  0.3307 -0.0563  0.0047
  805SOL     vw 3220   0.107   1.084   2.282 -0.0406 -0.0122 -0.1947
  806SOL     ow 3221   0.325   4.336   1.233  1.1813 -0.1300 -0.1237
  806SOL     hw 3222   0.381   4.409   1.206  1.9391 -0.4165  0.6211
  806SOL     hw 3223   0.316   4.347   1.328 -0.2987  0.0857 -0.2723
  806SOL     vw 3224   0.331   4.347   1.242  1.0860 -0.1395 -0.0451
  807SOL     ow 3225   1.583   6.172   3.859 -0.3506 -0.6638 -0.3405
  807SOL     hw 3226   1.514   6.116   3.893  1.2166 -2.2492  0.4125
  807SOL     hw 3227   1.650   6.111   3.828 -0.1661  0.7667 -3.0659
  807SOL     vw 3228   1.583   6.157   3.859 -0.1195 -0.6840 -0.6008
  808SOL     ow 3229   0.208   6.296   3.990 -0.2356  0.1628 -0.5072
  808SOL     hw 3230   0.247   6.354   3.925 -1.6121  1.0239 -0.5884
  808SOL     hw 3231   0.281   6.240   4.019  1.3436  2.4593  0.1932
  808SOL     vw 3232   0.223   6.296   3.985 -0.2088  0.5796 -0.4256
  809SOL     ow 3233   1.916   1.321   4.155  0.2881  0.2618  0.0951
  809SOL     hw 3234   1.992   1.265   4.172  0.5439 -0.3635 -2.5912
  809SOL     hw 3235   1.852   1.296   4.222  0.8514 -2.4256 -0.2401
  809SOL     vw 3236   1.918   1.310   4.166  0.3961 -0.1753 -0.3037
  810SOL     ow 3237   3.718   0.578   6.343  0.3354 -0.4538 -0.5102
  810SOL     hw 3238   3.682   0.495   6.313 -1.0658  0.5664 -1.7679
  810SOL     hw 3239   3.664   0.645   6.301  1.2840  1.1065  0.6431
  810SOL     vw 3240   3.706   0.576   6.333  0.2757 -0.1134 -0.5238
  811SOL     ow 3241   3.051   6.959   2.343 -0.0258 -0.3807 -1.1422
  811SOL     hw 3242   3.113   7.011   2.394  0.1792  1.1981 -2.9053
  811SOL     hw 3243   3.106   6.896   2.296 -0.0333 -0.5965 -0.8690
  811SOL     vw 3244   3.067   6.957   2.343  0.0002 -0.2010 -1.3390
  812SOL     ow 3245   6.578   5.548   1.372 -0.4423 -0.0177  0.4728
  812SOL     hw 3246   6.662   5.556   1.326 -0.7020 -0.8108 -0.1725
  812SOL     hw 3247   6.547   5.638   1.381  0.3302  0.2598  0.4408
  812SOL     vw 3248   6.585   5.561   1.367 -0.3746 -0.0858  0.3834
  813SOL     ow 3249   0.957   5.901   3.366  0.6253 -0.4398  0.6925
  813SOL     hw 3250   0.965   5.832   3.431  1.4117 -2.1161 -1.0714
  813SOL     hw 3251   0.898   5.865   3.300  0.0333  1.1068  0.3351
  813SOL     vw 3252   0.950   5.887   3.365  0.6510 -0.4568  0.4125
  814SOL     ow 3253   1.786   6.353   3.968  0.0529  0.5598 -0.9288
  814SOL     hw 3254   1.794   6.267   4.010 -2.0141  0.3532 -0.8460
  814SOL     hw 3255   1.857   6.405   4.006 -0.0849 -0.4271  0.7851
  814SOL     vw 3256   1.796   6.348   3.978 -0.2380  0.4025 -0.6918
  815SOL     ow 3257   0.561   0.270   0.206  0.3070  0.1264 -0.1583
  815SOL     hw 3258   0.614   0.349   0.203  0.0408  0.4079  1.5037
  815SOL     hw 3259   0.475   0.298   0.173  0.0792  0.6800  0.8453
  815SOL     vw 3260   0.556   0.284   0.201  0.2418  0.2366  0.1934
  816SOL     ow 3261   6.477   6.566   5.165 -0.6336 -0.1087 -0.4350
  816SOL     hw 3262   6.537   6.611   5.225  1.1448 -1.5258 -1.0339
  816SOL     hw 3263   6.394   6.611   5.175  0.3536  1.5161  0.9705
  816SOL     vw 3264   6.474   6.578   5.174 -0.2687 -0.0815 -0.3285
  817SOL     ow 3265   1.055   1.012   2.374 -0.1538 -0.0078 -0.2017
  817SOL     hw 3266   1.069   1.026   2.280  1.0132  1.9033  0.2178
  817SOL     hw 3267   0.988   1.077   2.397  1.4717  1.3802  0.7677
  817SOL     vw 3268   1.048   1.023   2.364  0.2146  0.4275 -0.0184
  818SOL     ow 3269   6.199   6.595   3.277  0.2090  0.2424 -0.2637
  818SOL     hw 3270   6.130   6.657   3.252  1.1822  1.3488 -0.2937
  818SOL     hw 3271   6.212   6.541   3.199  0.4875  1.0855 -0.8068
  818SOL     vw 3272   6.191   6.596   3.264  0.3741  0.4997 -0.3395
  819SOL     ow 3273   5.754   0.852   2.478 -0.0635  0.4054  0.2560
  819SOL     hw 3274   5.824   0.786   2.478 -0.2165  0.2304 -0.4805
  819SOL     hw 3275   5.792   0.927   2.524  0.7125  0.4185 -0.3706
  819SOL     vw 3276   5.769   0.853   2.484  0.0186  0.3841  0.0762
  820SOL     ow 3277   6.747   3.463   2.537 -0.8907 -0.0387  0.3560
  820SOL     hw 3278   6.797   3.423   2.466 -1.6744  0.6096 -0.6007
  820SOL     hw 3279   6.749   3.557   2.517 -0.7694  0.2034  1.4434
  820SOL     vw 3280   6.754   3.470   2.525 -0.9782  0.0788  0.3734
  821SOL     ow 3281   2.948   5.135   3.725 -0.1205  0.3404 -0.2924
  821SOL     hw 3282   2.982   5.166   3.809 -1.2236  0.9420 -0.0499
  821SOL     hw 3283   2.961   5.209   3.665  0.3352  0.0405 -0.5722
  821SOL     vw 3284   2.954   5.149   3.728 -0.2060  0.3803 -0.2973
  822SOL     ow 3285   6.466   0.421   3.925  0.0897  0.0370 -0.1904
  822SOL     hw 3286   6.454   0.456   4.013  2.6974 -3.3212  1.7378
  822SOL     hw 3287   6.400   0.352   3.918 -0.1245  0.3073 -0.9062
  822SOL     vw 3288   6.455   0.416   3.935  0.4053 -0.3704 -0.0304
  823SOL     ow 3289   6.416   6.855   0.401 -0.3268  0.3786  0.1859
  823SOL     hw 3290   6.380   6.888   0.318  3.0411  2.2760 -0.6978
  823SOL     hw 3291   6.414   6.932   0.459  1.6998  0.4097  0.2556
  823SOL     vw 3292   6.411   6.870   0.398  0.3850  0.6332  0.0785
  824SOL     ow 3293   2.316   6.662   5.918  0.7323  0.7303 -0.1780
  824SOL     hw 3294   2.249   6.601   5.886  0.8282  1.2651 -1.4545
  824SOL     hw 3295   2.281   6.749   5.898  0.2681  1.1596  2.2773
  824SOL     vw 3296   2.303   6.665   5.911  0.6838  0.8574 -0.0224
  825SOL     ow 3297   4.747   5.243   3.852 -0.0886 -0.3211  0.6668
  825SOL     hw 3298   4.691   5.167   3.866  0.3800 -0.4126  2.3253
  825SOL     hw 3299   4.699   5.298   3.790 -1.5325 -0.8745  1.2523
  825SOL     vw 3300   4.733   5.240   3.846 -0.2172 -0.4060  0.9630
  826SOL     ow 3301   6.675   3.171   1.051 -0.2536 -0.8835 -0.1157
  826SOL     hw 3302   6.742   3.108   1.025 -0.9197 -1.0461 -1.5569
  826SOL     hw 3303   6.597   3.144   1.003 -0.7314  0.6490 -0.2655
  826SOL     vw 3304   6.674   3.159   1.041 -0.4046 -0.7029 -0.3255
  827SOL     ow 3305   2.342   3.222   0.521  0.2699 -0.7320  1.2393
  827SOL     hw 3306   2.252   3.200   0.496  1.2236 -2.2293 -1.1658
  827SOL     hw 3307   2.370   3.288   0.458  1.2019 -1.0275  1.3297
  827SOL     vw 3308   2.334   3.228   0.510  0.5188 -0.9686  0.9339
  828SOL     ow 3309   4.773   3.783   1.033  0.2650 -0.2938 -0.0014
  828SOL     hw 3310   4.689   3.747   1.064 -0.9550  0.9315 -1.6876
  828SOL     hw 3311   4.838   3.718   1.059 -1.3708 -1.9225  0.2387
  828SOL     vw 3312   4.770   3.770   1.040 -0.1116 -0.3470 -0.1922
  829SOL     ow 3313   6.881   1.631   1.128  0.5765  0.3528  0.1980
  829SOL     hw 3314   6.896   1.570   1.056  2.5068  1.2695 -0.2678
  829SOL     hw 3315   6.955   1.616   1.188  0.9198  1.9424  0.2338
  829SOL     vw 3316   6.893   1.621   1.126  0.8764  0.6835  0.1413
  830SOL     ow 3317   5.384   0.167   5.366  0.0594  0.5143  0.4639
  830SOL     hw 3318   5.412   0.251   5.327  1.3575  0.0255  0.2729
  830SOL     hw 3319   5.465   0.117   5.373 -0.8936 -1.2533 -0.6780
  830SOL     vw 3320   5.399   0.172   5.362  0.1049  0.2165  0.2882
  831SOL     ow 3321   5.224   5.152   2.409 -0.4763 -0.4693 -0.3339
  831SOL     hw 3322   5.181   5.142   2.324  1.3847  0.0715 -1.3790
  831SOL     hw 3323   5.313   5.121   2.395  0.3154  1.0761  0.9902
  831SOL     vw 3324   5.230   5.147   2.396 -0.1261 -0.1941 -0.2971
  832SOL     ow 3325   1.845   1.667   6.365 -0.6274 -0.6528 -0.0728
  832SOL     hw 3326   1.929   1.697   6.399 -0.6347 -2.0888  1.3322
  832SOL     hw 3327   1.866   1.597   6.304 -0.6774  1.2394 -2.4071
  832SOL     vw 3328   1.859   1.662   6.362 -0.6350 -0.5927 -0.1953
  833SOL     ow 3329   0.376   1.299   5.112 -0.2832 -0.1086 -0.3150
  833SOL     hw 3330   0.421   1.231   5.063 -1.1587  0.0104 -1.2964
  833SOL     hw 3331   0.315   1.338   5.050 -1.0993  0.3479  0.7369
  833SOL     vw 3332   0.374   1.295   5.098 -0.5064 -0.0327 -0.3057
  834SOL     ow 3333   3.515   5.288   4.207  0.0458  0.1503  0.2053
  834SOL     hw 3334   3.473   5.209   4.172 -0.6327  0.9991 -0.9913
  834SOL     hw 3335   3.458   5.360   4.179  2.5569  1.4549 -2.1176
  834SOL     vw 3336   3.502   5.287   4.199  0.2875  0.4342 -0.2589
  835SOL     ow 3337   4.839   2.845   4.010 -0.5794 -0.2012 -0.3136
  835SOL     hw 3338   4.866   2.760   4.045 -1.2151 -0.3610 -0.1842
  835SOL     hw 3339   4.916   2.879   3.965 -0.3069 -0.8253 -0.3254
  835SOL     vw 3340   4.852   2.839   4.009 -0.6275 -0.3046 -0.2978
  836SOL     ow 3341   5.032   4.521   4.673  0.2401  0.0850  0.7989
  836SOL     hw 3342   4.986   4.455   4.725  0.4699 -0.1382  0.7244
  836SOL     hw 3343   5.125   4.503   4.689  0.3249 -0.1799  0.0816
  836SOL     vw 3344   5.038   4.510   4.682  0.2818  0.0207  0.6943
  837SOL     ow 3345   2.192   3.365   0.020 -0.2861 -0.7353  0.0305
  837SOL     hw 3346   2.157   3.404   0.101  0.7136 -1.6220  0.9314
  837SOL     hw 3347   2.279   3.403   0.011 -0.8331  0.2682 -1.3232
  837SOL     vw 3348   2.199   3.375   0.030 -0.2264 -0.7198 -0.0293
  838SOL     ow 3349   4.759   2.069   2.220 -0.7535 -0.0279 -0.1849
  838SOL     hw 3350   4.735   2.083   2.311 -0.7884 -0.4708 -0.1268
  838SOL     hw 3351   4.808   1.987   2.219 -2.0126 -0.7955 -0.7735
  838SOL     vw 3352   4.762   2.060   2.232 -0.9243 -0.1875 -0.2550
  839SOL     ow 3353   3.684   3.360   5.065  0.0514  0.0588 -0.9869
  839SOL     hw 3354   3.666   3.411   5.144  0.0863  0.4057 -1.2017
  839SOL     hw 3355   3.599   3.330   5.035  0.1496 -1.2442 -0.0464
  839SOL     vw 3356   3.671   3.363   5.071  0.0688 -0.0672 -0.8912
  840SOL     ow 3357   5.867   1.580   3.140 -0.2953  0.6571 -0.5554
  840SOL     hw 3358   5.779   1.617   3.138 -1.4541 -1.7598  0.6393
  840SOL     hw 3359   5.862   1.502   3.083 -0.1255 -1.6626  2.3648
  840SOL     vw 3360   5.855   1.574   3.132 -0.4258  0.0322 -0.0125
  841SOL     ow 3361   2.413   4.934   0.535 -0.1311  0.2084  0.3530
  841SOL     hw 3362   2.455   4.994   0.473 -0.6386  1.7111  1.4123
  841SOL     hw 3363   2.482   4.912   0.597  1.4462 -4.0618 -2.4325
  841SOL     vw 3364   2.428   4.939   0.535  0.0100 -0.1569  0.1253
  842SOL     ow 3365   0.621   4.550   4.912  0.0037 -0.6311 -0.3345
  842SOL     hw 3366   0.698   4.500   4.941  0.2528 -0.0938 -0.0697
  842SOL     hw 3367   0.616   4.531   4.818  1.1132  0.1718 -0.5851
  842SOL     vw 3368   0.631   4.541   4.903  0.1829 -0.4542 -0.3326
  843SOL     ow 3369   4.657   0.714   1.516  0.2420  0.1233  0.1522
  843SOL     hw 3370   4.592   0.780   1.493 -0.4428 -0.0678  1.4624
  843SOL     hw 3371   4.618   0.631   1.488  0.2998  0.0972  0.1487
  843SOL     vw 3372   4.643   0.712   1.509  0.1590  0.0947  0.3245
  844SOL     ow 3373   5.550   3.112   2.917 -0.2442 -0.0003  0.9990
  844SOL     hw 3374   5.589   3.024   2.909 -0.9457 -0.1699 -1.1523
  844SOL     hw 3375   5.562   3.151   2.830 -2.1816  1.0901  1.1832
  844SOL     vw 3376   5.557   3.106   2.905 -0.5925  0.1212  0.7395
  845SOL     ow 3377   2.932   3.754   4.546  0.0404 -0.3934  0.5737
  845SOL     hw 3378   2.896   3.788   4.628  0.5049  0.0568  0.5994
  845SOL     hw 3379   2.952   3.833   4.494 -0.1670 -0.6700  0.0662
  845SOL     vw 3380   2.930   3.769   4.550  0.0744 -0.3705  0.5100
  846SOL     ow 3381   0.974   4.585   1.133 -0.2540  0.3985 -0.8078
  846SOL     hw 3382   1.027   4.658   1.102 -0.8317  1.9039  1.4930
  846SOL     hw 3383   0.915   4.566   1.060 -1.7787  3.9444 -0.7083
  846SOL     vw 3384   0.973   4.592   1.119 -0.5314  1.0650 -0.4911
  847SOL     ow 3385   5.824   2.944   0.828  0.5911  0.0244 -0.2466
  847SOL     hw 3386   5.758   2.889   0.785  0.5748  1.1673 -1.7396
  847SOL     hw 3387   5.907   2.901   0.811  0.2864 -1.7477  2.1344
  847SOL     vw 3388   5.826   2.931   0.820  0.5486 -0.0585 -0.1295
  848SOL     ow 3389   6.379   4.738   0.512  0.7272 -0.3072  0.0445
  848SOL     hw 3390   6.359   4.716   0.421  2.1369  1.8539 -0.8629
  848SOL     hw 3391   6.424   4.660   0.546 -0.7839 -1.5678 -0.7214
  848SOL     vw 3392   6.382   4.725   0.504  0.7138 -0.1884 -0.1763
  849SOL     ow 3393   3.160   3.321   5.196  0.3684 -0.2206  0.1246
  849SOL     hw 3394   3.193   3.363   5.117 -0.9567  0.5670 -0.0286
  849SOL     hw 3395   3.068   3.302   5.177  0.7346 -2.7175  0.3867
  849SOL     vw 3396   3.152   3.324   5.183  0.2419 -0.4460  0.1392
  850SOL     ow 3397   0.327   6.504   2.489 -0.5440 -0.5176  0.2413
  850SOL     hw 3398   0.398   6.470   2.543  0.7954  1.9966  0.1956
  850SOL     hw 3399   0.258   6.526   2.551  0.6168  1.4678  0.9017
  850SOL     vw 3400   0.327   6.502   2.504 -0.2141  0.0763  0.3223
  851SOL     ow 3401   0.919   5.744   6.080 -0.3373 -0.4139 -0.2558
  851SOL     hw 3402   0.864   5.666   6.090 -0.2060 -0.7664 -1.9956
  851SOL     hw 3403   0.857   5.814   6.057 -0.5592  0.2481  2.0352
  851SOL     vw 3404   0.903   5.743   6.078 -0.3493 -0.3734 -0.1831
  852SOL     ow 3405   6.968   0.832   4.098  0.6020  0.4208 -0.4995
  852SOL     hw 3406   6.976   0.866   4.009  2.2139  1.6398  0.0611
  852SOL     hw 3407   7.040   0.770   4.107  1.0848  1.0678  0.2580
  852SOL     vw 3408   6.978   0.828   4.088  0.8783  0.6670 -0.3254
  853SOL     ow 3409   0.878   1.928   1.491 -0.9868  0.1391 -0.2700
  853SOL     hw 3410   0.782   1.928   1.499 -0.9099  0.4002  0.8487
  853SOL     hw 3411   0.896   1.993   1.423 -1.6607 -0.9555 -1.5341
  853SOL     vw 3412   0.868   1.937   1.483 -1.0656  0.0291 -0.2893
  854SOL     ow 3413   1.795   4.728   4.406  0.2964 -0.3082 -0.2243
  854SOL     hw 3414   1.788   4.634   4.419  1.9293 -0.3630  0.6429
  854SOL     hw 3415   1.764   4.743   4.317 -2.0759 -1.3387  0.3505
  854SOL     vw 3416   1.790   4.718   4.396  0.1987 -0.4513 -0.0341
  855SOL     ow 3417   0.148   4.209   2.034 -0.8616  0.5079 -0.2496
  855SOL     hw 3418   0.195   4.199   2.117  1.5283  0.9566 -1.4762
  855SOL     hw 3419   0.058   4.229   2.060  0.1108  2.0827  2.2645
  855SOL     vw 3420   0.142   4.210   2.049 -0.4180  0.7746 -0.0795
  856SOL     ow 3421   0.429   5.567   5.649 -0.2600 -0.8673  0.2009
  856SOL     hw 3422   0.337   5.543   5.636  0.0843 -1.5140 -1.3208
  856SOL     hw 3423   0.429   5.620   5.729 -2.1466  0.3446 -0.5239
  856SOL     vw 3424   0.416   5.571   5.658 -0.4635 -0.7927 -0.0954
  857SOL     ow 3425   4.945   4.029   3.583  0.5221 -0.1262 -0.9164
  857SOL     hw 3426   4.929   4.111   3.630 -0.4731 -0.6756 -0.2456
  857SOL     hw 3427   5.004   3.980   3.641 -1.0314 -0.9750  0.0271
  857SOL     vw 3428   4.951   4.033   3.597  0.1857 -0.3107 -0.7035
  858SOL     ow 3429   1.865   6.709   0.812 -0.5452  0.1438 -0.1149
  858SOL     hw 3430   1.848   6.803   0.810  0.9961  0.4504  0.2568
  858SOL     hw 3431   1.780   6.669   0.793 -1.1930  1.6038 -0.4064
  858SOL     vw 3432   1.851   6.716   0.809 -0.4274  0.3772 -0.1043
  859SOL     ow 3433   2.004   0.319   2.301  0.3031  0.0781 -0.0454
  859SOL     hw 3434   1.946   0.395   2.300  0.5663  0.3290 -2.9435
  859SOL     hw 3435   2.083   0.349   2.255  0.5792 -1.8158 -0.8672
  859SOL     vw 3436   2.007   0.333   2.295  0.3742 -0.1387 -0.5362
  860SOL     ow 3437   2.781   0.799   1.734  0.7593 -0.2545 -0.6362
  860SOL     hw 3438   2.792   0.731   1.668  1.4007 -1.7604  0.9433
  860SOL     hw 3439   2.846   0.779   1.801  0.4313  1.4664  0.2637
  860SOL     vw 3440   2.791   0.788   1.734  0.8007 -0.2261 -0.3091
  861SOL     ow 3441   4.412   5.333   4.203 -0.5786  0.1622 -0.4200
  861SOL     hw 3442   4.453   5.251   4.231 -0.2475  1.2185  2.4961
  861SOL     hw 3443   4.343   5.305   4.143  1.6776 -1.9436 -2.2367
  861SOL     vw 3444   4.408   5.318   4.199 -0.2375  0.0238 -0.2749
  862SOL     ow 3445   0.678   5.577   5.818  0.3859  0.6229  0.3681
  862SOL     hw 3446   0.678   5.670   5.795 -1.3556  0.6694  0.4112
  862SOL     hw 3447   0.611   5.570   5.886  0.7549 -0.6159  0.6154
  862SOL     vw 3448   0.669   5.589   5.824  0.2048  0.4652  0.4063
  863SOL     ow 3449   0.350   2.800   0.867 -0.8068 -0.9437 -0.5416
  863SOL     hw 3450   0.275   2.754   0.906  0.1318 -0.8112  1.5601
  863SOL     hw 3451   0.424   2.778   0.924  0.2718  0.7756 -1.2063
  863SOL     vw 3452   0.350   2.791   0.880 -0.5407 -0.6994 -0.3520
  864SOL     ow 3453   5.930   1.817   5.097 -0.2535  0.0605 -0.5076
  864SOL     hw 3454   5.980   1.823   5.178  0.8734  0.7551 -1.2251
  864SOL     hw 3455   5.977   1.751   5.045 -1.4697 -1.0381 -0.2804
  864SOL     vw 3456   5.943   1.809   5.101 -0.2651  0.0072 -0.5724
  865SOL     ow 3457   5.554   0.243   6.927  0.8081  0.1697  0.4004
  865SOL     hw 3458   5.572   0.305   6.998 -2.0855  0.9829  0.5327
  865SOL     hw 3459   5.499   0.291   6.865 -1.8653 -2.2412  0.6771
  865SOL     vw 3460   5.549   0.257   6.928  0.0734 -0.0411  0.4542
  866SOL     ow 3461   0.715   0.760   3.039  0.5128  0.0776  0.0441
  866SOL     hw 3462   0.802   0.793   3.064  0.0639  0.3599  1.3503
  866SOL     hw 3463   0.691   0.701   3.111 -0.2658 -0.2177 -0.4486
  866SOL     vw 3464   0.723   0.756   3.052  0.3508  0.0758  0.1515
  867SOL     ow 3465   6.602   2.936   5.772  0.3522 -0.1580 -0.2320
  867SOL     hw 3466   6.558   2.879   5.835 -0.2172 -1.3843 -1.6749
  867SOL     hw 3467   6.663   2.987   5.824  0.7594 -1.9785  1.1578
  867SOL     vw 3468   6.604   2.935   5.787  0.3307 -0.5600 -0.2389
  868SOL     ow 3469   4.198   4.979   5.559 -0.4012  0.0263  0.0356
  868SOL     hw 3470   4.273   5.015   5.605 -0.0586 -0.0542 -0.4543
  868SOL     hw 3471   4.151   4.928   5.625 -0.8195  1.2334  0.7167
  868SOL     vw 3472   4.201   4.977   5.574 -0.4113  0.1748  0.0608
  869SOL     ow 3473   2.318   6.174   3.352  0.2574  0.5087 -0.0946
  869SOL     hw 3474   2.271   6.169   3.269 -3.1644  1.9033  1.5821
  869SOL     hw 3475   2.369   6.093   3.356 -0.9158 -0.4438 -2.7004
  869SOL     vw 3476   2.319   6.163   3.342 -0.3490  0.5670 -0.2173
  870SOL     ow 3477   4.447   2.637   1.427  0.1437  0.8366  0.3397
  870SOL     hw 3478   4.411   2.724   1.408 -0.4562  0.5918  0.3150
  870SOL     hw 3479   4.375   2.591   1.472 -0.2223 -0.2726 -1.2922
  870SOL     vw 3480   4.433   2.642   1.431  0.0162  0.6580  0.1211
  871SOL     ow 3481   6.547   3.713   5.934  0.3265  0.1531  0.4031
  871SOL     hw 3482   6.468   3.766   5.927 -0.8435 -1.7267 -2.1202
  871SOL     hw 3483   6.522   3.637   5.986  0.9359  0.2680  0.8824
  871SOL     vw 3484   6.533   3.710   5.940  0.2525 -0.0796  0.1335
  872SOL     ow 3485   0.604   1.879   2.574  0.3796 -0.3481 -0.6573
  872SOL     hw 3486   0.679   1.877   2.515  0.6279 -0.4377 -0.3435
  872SOL     hw 3487   0.558   1.797   2.557  0.5844 -0.4860 -0.5603
  872SOL     vw 3488   0.608   1.868   2.564  0.4394 -0.3781 -0.6032
  873SOL     ow 3489   1.979   0.735   1.507 -0.0314 -0.3043  0.1871
  873SOL     hw 3490   1.979   0.718   1.601 -3.1891  0.1595  0.3736
  873SOL     hw 3491   2.020   0.821   1.498  1.7859 -1.0398  0.8909
  873SOL     vw 3492   1.984   0.744   1.519 -0.2081 -0.3402  0.3045
  874SOL     ow 3493   5.197   3.345   6.205 -0.3096  0.3659  0.1918
  874SOL     hw 3494   5.263   3.400   6.246 -2.2792  0.0993  4.1857
  874SOL     hw 3495   5.131   3.406   6.172  0.0166  0.5239 -0.1665
  874SOL     vw 3496   5.197   3.360   6.206 -0.5267  0.3517  0.6714
  875SOL     ow 3497   5.090   2.854   6.510  0.0213  0.6456  0.6718
  875SOL     hw 3498   5.026   2.792   6.474  0.0003  1.2990 -0.4690
  875SOL     hw 3499   5.145   2.801   6.568 -1.3991  0.0238  1.4909
  875SOL     vw 3500   5.089   2.839   6.513 -0.1690  0.6498  0.6297
  876SOL     ow 3501   0.317   3.131   3.143  0.0482 -0.4575  0.0786
  876SOL     hw 3502   0.263   3.097   3.072 -1.4768 -1.8157  1.7802
  876SOL     hw 3503   0.406   3.102   3.123  0.3175  1.9148 -2.8433
  876SOL     vw 3504   0.321   3.123   3.131 -0.1175 -0.3237 -0.0824
  877SOL     ow 3505   3.628   1.511   1.048  0.2926 -0.7450 -0.0623
  877SOL     hw 3506   3.571   1.445   1.008 -1.2055  0.5229 -0.1131
  877SOL     hw 3507   3.695   1.460   1.093 -1.6101 -2.3985  1.0921
  877SOL     vw 3508   3.629   1.495   1.049 -0.1562 -0.7959  0.0833
  878SOL     ow 3509   4.874   5.854   6.598  0.7486  0.1512 -0.3953
  878SOL     hw 3510   4.883   5.886   6.508  3.2245 -1.7664 -0.9514
  878SOL     hw 3511   4.951   5.889   6.643  0.3146 -0.1262  0.5756
  878SOL     vw 3512   4.886   5.863   6.592  1.0180 -0.1383 -0.3409
  879SOL     ow 3513   6.566   2.019   3.888  0.3467 -0.0504 -0.3294
  879SOL     hw 3514   6.572   2.112   3.867 -0.4279 -0.0203 -0.4347
  879SOL     hw 3515   6.599   2.012   3.978  1.4495  0.1575 -0.7029
  879SOL     vw 3516   6.571   2.030   3.897  0.3898 -0.0190 -0.3926
  880SOL     ow 3517   1.787   2.020   1.659  0.4694 -0.7994 -0.0520
  880SOL     hw 3518   1.699   2.049   1.684  0.2161 -0.5336 -1.1566
  880SOL     hw 3519   1.842   2.043   1.733  0.2438  2.3665 -0.7101
  880SOL     vw 3520   1.783   2.027   1.672  0.4061 -0.3465 -0.2847
  881SOL     ow 3521   5.847   2.480   3.826  0.5736 -0.0023 -0.0573
  881SOL     hw 3522   5.787   2.405   3.818  0.5811 -0.0935  0.6396
  881SOL     hw 3523   5.934   2.441   3.818  0.6085 -0.2000  1.0609
  881SOL     vw 3524   5.851   2.465   3.824  0.5794 -0.0403  0.1823
  882SOL     ow 3525   3.235   5.232   6.032 -0.3800  0.4340 -0.0893
  882SOL     hw 3526   3.317   5.196   6.063 -0.6371  0.5602  0.7486
  882SOL     hw 3527   3.228   5.318   6.074 -0.2233  1.0798 -1.3279
  882SOL     vw 3528   3.245   5.238   6.041 -0.3933  0.5360 -0.1421
  883SOL     ow 3529   0.320   3.424   1.279  0.3945 -0.1430 -0.7180
  883SOL     hw 3530   0.325   3.340   1.234  1.1383  0.1134 -1.1416
  883SOL     hw 3531   0.254   3.412   1.347 -0.9667 -0.4605 -2.0453
  883SOL     vw 3532   0.312   3.411   1.282  0.3130 -0.1509 -0.9490
  884SOL     ow 3533   3.983   5.463   1.493 -0.4632  0.8153  0.0212
  884SOL     hw 3534   4.068   5.435   1.524 -2.0075 -1.6900  2.4517
  884SOL     hw 3535   3.962   5.540   1.546 -1.7598 -1.6307  3.4472
  884SOL     vw 3536   3.991   5.469   1.504 -0.8380  0.1621  0.7939
  885SOL     ow 3537   4.258   5.412   1.499 -0.0233  0.6357 -0.4173
  885SOL     hw 3538   4.284   5.320   1.493 -3.5587 -0.5300 -0.3593
  885SOL     hw 3539   4.304   5.445   1.577 -1.2854 -2.1669  1.6950
  885SOL     vw 3540   4.267   5.404   1.509 -0.6564  0.1121 -0.1309
  886SOL     ow 3541   3.520   1.233   2.001 -0.1257 -0.2502 -0.4594
  886SOL     hw 3542   3.531   1.196   2.089 -2.2478 -0.5339 -0.2716
  886SOL     hw 3543   3.598   1.287   1.988  0.6333 -0.8728  1.2484
  886SOL     vw 3544   3.532   1.235   2.011 -0.3055 -0.3697 -0.2093
  887SOL     ow 3545   3.519   2.990   4.031  0.2694  0.4958 -0.0804
  887SOL     hw 3546   3.450   2.997   3.965  0.4477 -0.8680 -0.4422
  887SOL     hw 3547   3.477   3.018   4.112 -0.5733  0.1556 -0.3850
  887SOL     vw 3548   3.504   2.995   4.033  0.1817  0.2711 -0.1686
  888SOL     ow 3549   0.893   1.065   4.298  0.4794 -0.0899  0.1683
  888SOL     hw 3550   0.854   1.044   4.213  1.4069  2.9739 -1.1404
  888SOL     hw 3551   0.977   1.019   4.298 -0.6514 -2.3111  0.6949
  888SOL     vw 3552   0.899   1.056   4.287  0.4525  0.0213  0.0648
  889SOL     ow 3553   1.654   6.634   4.788 -0.0137 -0.4705  0.3458
  889SOL     hw 3554   1.638   6.646   4.882  1.6175 -3.8249  1.2070
  889SOL     hw 3555   1.570   6.603   4.754 -1.4864  3.3458 -0.0916
  889SOL     vw 3556   1.641   6.632   4.796  0.0072 -0.4098  0.4020
  890SOL     ow 3557   6.185   6.752   3.505 -0.4585  0.2807 -0.2898
  890SOL     hw 3558   6.166   6.761   3.598  1.9712 -0.0376  0.3024
  890SOL     hw 3559   6.139   6.825   3.464 -0.7003  1.0607  1.3039
  890SOL     vw 3560   6.177   6.763   3.512 -0.1700  0.3419 -0.0014
  891SOL     ow 3561   3.791   0.718   5.590 -0.4935 -0.0451  0.2698
  891SOL     hw 3562   3.730   0.791   5.582  1.4508  1.4401 -3.3483
  891SOL     hw 3563   3.777   0.666   5.511  0.8583 -1.3699  0.8392
  891SOL     vw 3564   3.781   0.721   5.578 -0.0587 -0.0239 -0.1323
  892SOL     ow 3565   5.487   2.260   1.036 -0.9596 -0.2208 -1.0410
  892SOL     hw 3566   5.407   2.280   1.085  0.2774 -0.4609  1.2094
  892SOL     hw 3567   5.553   2.318   1.073  0.9222 -2.9947  0.3249
  892SOL     vw 3568   5.485   2.270   1.047 -0.5476 -0.6185 -0.5639
  893SOL     ow 3569   6.919   2.043   4.784  0.2074  0.4149  1.1486
  893SOL     hw 3570   6.907   2.009   4.872  0.0107  0.2960  1.0767
  893SOL     hw 3571   6.929   1.965   4.729  1.0102  0.4983  1.1622
  893SOL     vw 3572   6.919   2.028   4.788  0.2871  0.4102  1.1411
  894SOL     ow 3573   6.372   0.695   2.852  0.1428  0.0078  0.4734
  894SOL     hw 3574   6.360   0.652   2.936 -2.4471 -0.6532 -0.1233
  894SOL     hw 3575   6.304   0.657   2.796 -1.1903  3.5665 -0.6188
  894SOL     vw 3576   6.361   0.684   2.855 -0.3748  0.3902  0.2506
  895SOL     ow 3577   5.539   4.855   3.094 -0.7292 -0.2399  0.0975
  895SOL     hw 3578   5.509   4.876   3.182  0.6517 -0.1869  0.5835
  895SOL     hw 3579   5.625   4.814   3.107 -1.1811 -1.6634 -1.1283
  895SOL     vw 3580   5.546   4.852   3.108 -0.6065 -0.4208 -0.0001
  896SOL     ow 3581   4.161   5.717   5.812 -0.2939 -0.1077 -0.3949
  896SOL     hw 3582   4.144   5.719   5.718 -2.3155  1.1121 -0.0640
  896SOL     hw 3583   4.182   5.807   5.835  0.6107 -0.4746  0.2809
  896SOL     vw 3584   4.161   5.729   5.803 -0.4411  0.0048 -0.2620
  897SOL     ow 3585   5.089   0.328   1.091 -0.7026 -0.1064 -0.4211
  897SOL     hw 3586   5.079   0.422   1.109  1.2749  0.1196 -0.2073
  897SOL     hw 3587   5.034   0.285   1.156  0.6037  0.8695  1.4329
  897SOL     vw 3588   5.081   0.335   1.102 -0.2692  0.0522 -0.1482
  898SOL     ow 3589   6.806   1.945   3.046 -0.1660 -0.2753  1.0749
  898SOL     hw 3590   6.722   1.989   3.056 -0.2020  0.5053 -1.8071
  898SOL     hw 3591   6.872   2.012   3.065 -0.2384  0.4808 -1.0738
  898SOL     vw 3592   6.804   1.959   3.050 -0.1802 -0.0725  0.4110
  899SOL     ow 3593   6.705   3.400   2.840  0.8361  0.0983  0.4596
  899SOL     hw 3594   6.731   3.336   2.906  0.1538 -1.0755 -0.3779
  899SOL     hw 3595   6.781   3.459   2.834  3.0556 -2.6317 -1.1797
  899SOL     vw 3596   6.719   3.400   2.848  1.0390 -0.4168  0.1329
  900SOL     ow 3597   6.296   2.475   6.751  0.7113 -0.1869  0.2737
  900SOL     hw 3598   6.248   2.488   6.670  0.2183 -0.9512  0.4266
  900SOL     hw 3599   6.301   2.379   6.760  1.8866 -0.1147  0.4816
  900SOL     vw 3600   6.290   2.464   6.742  0.8013 -0.2782  0.3214
  901SOL     ow 3601   5.271   6.692   2.174  0.3254  0.9580  0.2930
  901SOL     hw 3602   5.177   6.682   2.160  0.5884 -1.0367 -0.3791
  901SOL     hw 3603   5.309   6.610   2.143  2.2361  1.4439  1.1727
  901SOL     vw 3604   5.264   6.680   2.168  0.6123  0.7589  0.3203
  902SOL     ow 3605   2.057   6.544   2.694 -0.3928  0.3218  0.0655
  902SOL     hw 3606   2.135   6.590   2.724 -1.2170  3.1735 -1.7985
  902SOL     hw 3607   2.077   6.518   2.604 -1.6704  1.4399 -0.5729
  902SOL     vw 3608   2.070   6.547   2.686 -0.6701  0.8454 -0.2648
  903SOL     ow 3609   7.003   5.250   1.832  0.8392  0.5210  0.0141
  903SOL     hw 3610   6.915   5.286   1.819  1.4618  1.5315 -1.7066
  903SOL     hw 3611   7.045   5.258   1.747  1.8533 -2.0998  0.1797
  903SOL     vw 3612   6.997   5.256   1.819  1.0552  0.3085 -0.1910
  904SOL     ow 3613   3.856   0.510   5.875 -0.6478 -0.7355  0.5121
  904SOL     hw 3614   3.885   0.421   5.855 -4.2902 -2.3857  1.7281
  904SOL     hw 3615   3.784   0.499   5.937 -4.2797  2.6880 -2.5166
  904SOL     vw 3616   3.851   0.497   5.880 -1.6074 -0.5015  0.2730
  905SOL     ow 3617   2.933   5.167   0.554  0.2798 -0.4194 -0.0200
  905SOL     hw 3618   2.881   5.140   0.630  1.0316 -1.2463  0.2050
  905SOL     hw 3619   2.870   5.169   0.481 -0.7475  1.6286  0.8209
  905SOL     vw 3620   2.918   5.164   0.554  0.2434 -0.2580  0.1207
  906SOL     ow 3621   1.158   5.609   0.315 -0.0572  0.4228 -0.1388
  906SOL     hw 3622   1.134   5.569   0.398 -0.4648  0.4735 -0.2279
  906SOL     hw 3623   1.204   5.690   0.339  0.2830  0.1786  0.0357
  906SOL     vw 3624   1.161   5.614   0.329 -0.0662  0.3972 -0.1276
  907SOL     ow 3625   4.327   1.380   5.646  0.6371 -0.2533  0.0890
  907SOL     hw 3626   4.352   1.380   5.554 -0.0375 -0.0887 -0.1004
  907SOL     hw 3627   4.240   1.419   5.647  0.8004  0.1091  0.8448
  907SOL     vw 3628   4.319   1.385   5.634  0.5693 -0.1838  0.1638
  908SOL     ow 3629   4.845   1.913   2.842 -0.0193 -0.2411  0.4036
  908SOL     hw 3630   4.775   1.953   2.792 -0.7148 -0.0559  1.5043
  908SOL     hw 3631   4.925   1.939   2.796 -0.4266  2.3602  1.0122
  908SOL     vw 3632   4.847   1.921   2.829 -0.1650  0.1265  0.6291
  909SOL     ow 3633   5.257   5.775   6.020 -0.0607 -0.0694 -0.4218
  909SOL     hw 3634   5.337   5.808   6.061 -0.2475  0.2715 -0.3306
  909SOL     hw 3635   5.265   5.802   5.928 -0.1430  0.0985 -0.3796
  909SOL     vw 3636   5.269   5.783   6.013 -0.0963 -0.0021 -0.4044
  910SOL     ow 3637   3.774   0.842   0.726  0.5330  1.0563 -0.2134
  910SOL     hw 3638   3.784   0.838   0.821  0.1993 -0.2032 -0.2098
  910SOL     hw 3639   3.727   0.924   0.711 -0.1318  0.8836  0.7879
  910SOL     vw 3640   3.769   0.852   0.737  0.4013  0.8673 -0.0808
  911SOL     ow 3641   0.910   1.555   5.782  0.2337 -0.1395  0.0988
  911SOL     hw 3642   0.929   1.501   5.705 -2.1641  0.7189 -1.2147
  911SOL     hw 3643   0.972   1.627   5.777  0.7215 -0.5855 -0.4869
  911SOL     vw 3644   0.920   1.557   5.771 -0.0184 -0.0851 -0.1519
  912SOL     ow 3645   2.379   2.409   5.260 -0.1006 -0.1928 -0.5523
  912SOL     hw 3646   2.426   2.325   5.259  2.7136  1.2593  0.2245
  912SOL     hw 3647   2.391   2.442   5.349  1.6626  2.4520 -1.6459
  912SOL     vw 3648   2.387   2.402   5.272  0.5033  0.3479 -0.5944
  913SOL     ow 3649   0.408   3.743   0.287 -0.1602 -0.0156  0.0561
  913SOL     hw 3650   0.501   3.725   0.271 -0.5906 -2.3673 -0.1014
  913SOL     hw 3651   0.382   3.797   0.212  0.4931 -1.5826 -1.3977
  913SOL     vw 3652   0.417   3.748   0.275 -0.1308 -0.5324 -0.1565
  914SOL     ow 3653   2.379   4.432   2.942  0.2799 -0.3360  0.1392
  914SOL     hw 3654   2.388   4.350   2.893 -0.3122 -1.2162  1.4505
  914SOL     hw 3655   2.306   4.477   2.899 -2.9999 -2.8949  2.4264
  914SOL     vw 3656   2.371   4.427   2.930 -0.2309 -0.7896  0.6140
  915SOL     ow 3657   0.716   5.316   6.919  0.7894 -0.3022 -0.2739
  915SOL     hw 3658   0.755   5.231   6.900 -0.5830 -1.0736  0.2074
  915SOL     hw 3659   0.773   5.379   6.875  2.1015 -1.4231 -0.2332
  915SOL     vw 3660   0.728   5.313   6.910  0.7814 -0.5519 -0.2048
  916SOL     ow 3661   1.293   5.967   3.472 -0.7499 -0.1134 -0.6082
  916SOL     hw 3662   1.326   5.879   3.490  0.0241 -0.1661 -2.1134
  916SOL     hw 3663   1.205   5.968   3.510 -0.1117 -0.9191  0.9840
  916SOL     vw 3664   1.286   5.956   3.479 -0.5636 -0.2267 -0.5968
  917SOL     ow 3665   3.671   2.435   3.514  0.3963 -0.3634 -0.3008
  917SOL     hw 3666   3.683   2.514   3.568  3.1910 -0.4254 -0.7056
  917SOL     hw 3667   3.666   2.468   3.424  0.8397 -0.5947 -0.4121
  917SOL     vw 3668   3.672   2.450   3.509  0.8236 -0.4021 -0.3690
  918SOL     ow 3669   3.000   4.137   2.858  0.2070  0.5010 -0.7764
  918SOL     hw 3670   3.069   4.083   2.821  0.7177  1.1961 -0.8468
  918SOL     hw 3671   3.012   4.131   2.953 -0.5491 -0.5555 -0.7309
  918SOL     vw 3672   3.010   4.129   2.866  0.1746  0.4530 -0.7796
  919SOL     ow 3673   4.427   3.083   2.463 -0.1446  0.5409 -1.0392
  919SOL     hw 3674   4.368   3.072   2.537  0.9404 -0.7539 -0.3053
  919SOL     hw 3675   4.403   3.167   2.424 -0.4447  1.4944  1.0646
  919SOL     vw 3676   4.416   3.093   2.467 -0.0410  0.4959 -0.6649
  920SOL     ow 3677   5.677   1.125   4.787 -0.2714  0.2457  0.4278
  920SOL     hw 3678   5.767   1.139   4.815 -0.0858 -2.6952  1.7170
  920SOL     hw 3679   5.647   1.051   4.840 -1.4303 -2.8662 -4.0424
  920SOL     vw 3680   5.685   1.117   4.798 -0.4001 -0.5529  0.0081
  921SOL     ow 3681   2.960   1.535   6.518  0.0312 -0.1363 -0.0097
  921SOL     hw 3682   3.030   1.582   6.474 -0.4682  0.4600 -0.1821
  921SOL     hw 3683   2.880   1.580   6.491 -0.5906 -1.8534 -1.1900
  921SOL     vw 3684   2.959   1.547   6.509 -0.1167 -0.2841 -0.1879
  922SOL     ow 3685   2.872   5.056   2.065  0.1289  0.5882  0.3934
  922SOL     hw 3686   2.952   5.094   2.100 -0.9480  0.9668  2.5779
  922SOL     hw 3687   2.855   4.980   2.121  0.9222 -1.8103 -2.3644
  922SOL     vw 3688   2.880   5.051   2.077  0.0916  0.3219  0.3178
  923SOL     ow 3689   3.851   3.769   1.299 -0.0896  0.5453  0.8147
  923SOL     hw 3690   3.894   3.684   1.310 -0.9151  0.1165  0.8223
  923SOL     hw 3691   3.787   3.754   1.229  0.4093  1.4167  0.1542
  923SOL     vw 3692   3.848   3.755   1.291 -0.1327  0.6038  0.7285
  924SOL     ow 3693   6.573   1.448   6.614 -0.3517 -0.2529  0.3042
  924SOL     hw 3694   6.666   1.461   6.630 -0.1002  2.3810 -2.4934
  924SOL     hw 3695   6.569   1.403   6.530 -1.6458 -1.4675  0.9724
  924SOL     vw 3696   6.585   1.444   6.605 -0.4892 -0.0657  0.0229
  925SOL     ow 3697   5.616   2.473   6.907  0.2356  0.0727  1.0134
  925SOL     hw 3698   5.572   2.556   6.924 -2.2949 -1.1144  0.6831
  925SOL     hw 3699   5.674   2.492   6.833 -1.5637  1.1815 -0.1767
  925SOL     vw 3700   5.618   2.487   6.899 -0.3355  0.0622  0.8125
  926SOL     ow 3701   5.778   2.778   3.940  0.2065 -0.3195 -0.2879
  926SOL     hw 3702   5.737   2.772   4.026  0.1132  0.2298 -0.2884
  926SOL     hw 3703   5.868   2.806   3.959 -0.1064  0.8542 -0.4115
  926SOL     vw 3704   5.785   2.781   3.954  0.1531 -0.0920 -0.3042
  927SOL     ow 3705   2.833   1.482   3.514 -0.0332  0.3420 -0.3253
  927SOL     hw 3706   2.786   1.460   3.434 -3.8515 -3.4305  2.5171
  927SOL     hw 3707   2.805   1.571   3.534  0.1659  0.9649 -2.5095
  927SOL     vw 3708   2.823   1.491   3.506 -0.5107 -0.0736 -0.2384
  928SOL     ow 3709   3.634   0.486   6.020  0.2939 -0.6251  0.9183
  928SOL     hw 3710   3.606   0.411   6.073 -1.0269 -1.1808 -0.4877
  928SOL     hw 3711   3.602   0.562   6.067 -1.6737 -1.1495  0.5059
  928SOL     vw 3712   3.626   0.486   6.033 -0.1401 -0.7676  0.6783
  929SOL     ow 3713   5.988   0.290   1.980 -0.0618  0.1740 -0.0587
  929SOL     hw 3714   6.036   0.219   2.023 -0.9551 -0.6977 -0.4944
  929SOL     hw 3715   6.022   0.291   1.891 -0.1284  0.2351 -0.0830
  929SOL     vw 3716   5.999   0.281   1.974 -0.1886  0.0670 -0.1194
  930SOL     ow 3717   5.074   5.690   6.226 -0.2097  0.0362 -1.0607
  930SOL     hw 3718   5.052   5.781   6.242 -1.3626 -0.5086  0.8008
  930SOL     hw 3719   5.114   5.661   6.308 -1.0755 -1.4589 -1.1334
  930SOL     vw 3720   5.076   5.698   6.239 -0.4761 -0.2327 -0.8247
  931SOL     ow 3721   6.115   2.363   4.493 -0.7656 -0.3929  0.0980
  931SOL     hw 3722   6.105   2.328   4.405 -0.9877  2.0468 -0.9281
  931SOL     hw 3723   6.027   2.356   4.532 -1.0258 -0.1575 -0.4345
  931SOL     vw 3724   6.102   2.358   4.486 -0.8292 -0.0399 -0.1078
  932SOL     ow 3725   0.391   2.751   3.383 -0.5448 -0.1196 -0.0682
  932SOL     hw 3726   0.467   2.786   3.430 -1.0757 -0.4468  1.0702
  932SOL     hw 3727   0.355   2.827   3.336  1.5949 -0.3334 -2.2753
  932SOL     vw 3728   0.396   2.766   3.383 -0.3325 -0.1910 -0.2092
  933SOL     ow 3729   5.804   2.100   1.765  1.0920 -0.5189  0.2969
  933SOL     hw 3730   5.772   2.190   1.761 -0.9277 -1.2262 -0.4287
  933SOL     hw 3731   5.774   2.068   1.849  1.8757 -0.5233  0.5870
  933SOL     vw 3732   5.796   2.108   1.775  0.9289 -0.6129  0.2394
  934SOL     ow 3733   2.007   5.349   3.339  0.0377 -0.1264  0.1465
  934SOL     hw 3734   1.990   5.433   3.381  0.5011  0.4368 -0.7543
  934SOL     hw 3735   2.103   5.344   3.334  0.0982 -1.4285  1.5766
  934SOL     vw 3736   2.018   5.359   3.344  0.1068 -0.2239  0.2165
  935SOL     ow 3737   4.227   1.504   2.291 -0.7381  0.2923  0.5141
  935SOL     hw 3738   4.188   1.421   2.263  3.8031 -1.5160 -1.4096
  935SOL     hw 3739   4.196   1.515   2.381 -0.7891 -4.0906  1.2684
  935SOL     vw 3740   4.218   1.494   2.299 -0.1457 -0.5246  0.3597
  936SOL     ow 3741   4.687   0.795   6.954  0.2419 -0.1050 -0.2104
  936SOL     hw 3742   4.778   0.786   6.927  0.1024  2.2034 -1.7153
  936SOL     hw 3743   4.666   0.887   6.938 -2.3023 -0.5327  0.2435
  936SOL     vw 3744   4.696   0.806   6.948 -0.1121  0.1431 -0.3493
  937SOL     ow 3745   0.170   1.922   4.069 -0.4798 -0.0593 -0.2898
  937SOL     hw 3746   0.088   1.937   4.116 -1.5852 -3.0306 -1.0372
  937SOL     hw 3747   0.221   1.866   4.128  0.5265  0.7321 -0.3698
  937SOL     vw 3748   0.166   1.917   4.083 -0.4929 -0.3469 -0.3989
  938SOL     ow 3749   3.655   0.584   4.802  0.1449  0.2793 -0.1064
  938SOL     hw 3750   3.653   0.513   4.866  2.9025  0.4012  0.2628
  938SOL     hw 3751   3.720   0.555   4.738  0.2027  1.8131 -0.7652
  938SOL     vw 3752   3.663   0.570   4.802  0.5163  0.4977 -0.1447
  939SOL     ow 3753   1.331   1.247   3.272  0.5093 -0.2256 -0.5794
  939SOL     hw 3754   1.349   1.326   3.220 -1.2334  0.3214 -0.4062
  939SOL     hw 3755   1.252   1.210   3.232 -0.0761 -0.5455  0.8169
  939SOL     vw 3756   1.323   1.252   3.260  0.2022 -0.1957 -0.3723
  940SOL     ow 3757   4.778   4.444   2.278  0.3497 -0.0492 -0.6226
  940SOL     hw 3758   4.795   4.397   2.360  2.8838  0.4132 -0.8005
  940SOL     hw 3759   4.822   4.391   2.211  1.0000  1.1911 -1.2034
  940SOL     vw 3760   4.786   4.431   2.280  0.7696  0.1757 -0.7226
  941SOL     ow 3761   5.286   2.682   2.124 -0.2405 -0.8141  0.4015
  941SOL     hw 3762   5.334   2.601   2.107 -0.9652 -1.3601  0.9032
  941SOL     hw 3763   5.195   2.655   2.130 -0.4820  0.0276  0.6920
  941SOL     vw 3764   5.280   2.668   2.122 -0.3679 -0.7751  0.5059
  942SOL     ow 3765   2.380   3.107   3.071  0.1495  0.4834 -0.1567
  942SOL     hw 3766   2.291   3.077   3.054  0.3171 -1.1849  1.5695
  942SOL     hw 3767   2.433   3.062   3.006  0.1494 -1.5575  1.1744
  942SOL     vw 3768   2.375   3.097   3.060  0.1715 -0.0061  0.2466
  943SOL     ow 3769   0.305   6.096   7.008 -0.3254  0.5068  0.6053
  943SOL     hw 3770   0.264   6.064   7.089  1.2229  0.0352  1.2245
  943SOL     hw 3771   0.363   6.167   7.037  1.9789 -1.1353  0.2777
  943SOL     vw 3772   0.307   6.101   7.022  0.1829  0.2279  0.6435
  944SOL     ow 3773   4.614   2.466   4.705  0.4684  1.0822 -0.7631
  944SOL     hw 3774   4.680   2.504   4.646  1.6223  1.8230  0.9243
  944SOL     hw 3775   4.546   2.532   4.711 -1.2258 -0.1962 -3.5357
  944SOL     vw 3776   4.614   2.479   4.698  0.3970  1.0114 -0.9060
  945SOL     ow 3777   5.597   4.246   3.123  0.2821 -0.8105  0.2774
  945SOL     hw 3778   5.601   4.308   3.050  0.7958  1.2994  1.9824
  945SOL     hw 3779   5.520   4.193   3.106 -0.2440  0.3759 -1.2354
  945SOL     vw 3780   5.588   4.248   3.111  0.2804 -0.3755  0.3027
  946SOL     ow 3781   5.838   3.297   2.060 -0.2029  0.5965  0.3149
  946SOL     hw 3782   5.884   3.261   1.985  1.2695  0.1666  1.3705
  946SOL     hw 3783   5.899   3.288   2.133 -1.9969 -0.0691  1.8350
  946SOL     vw 3784   5.852   3.291   2.060 -0.2453  0.4518  0.6547
  947SOL     ow 3785   3.259   4.464   4.628 -0.8083  0.3546 -0.2211
  947SOL     hw 3786   3.207   4.471   4.548 -0.1019 -0.8864 -0.8300
  947SOL     hw 3787   3.245   4.373   4.657  1.1704 -0.1037 -0.5502
  947SOL     vw 3788   3.250   4.453   4.621 -0.4539  0.1304 -0.3448
  948SOL     ow 3789   6.281   5.040   0.576  0.6316 -0.2620 -0.9234
  948SOL     hw 3790   6.343   5.102   0.538  2.1375 -1.4901 -0.5511
  948SOL     hw 3791   6.208   5.095   0.605  1.5080  1.2238 -1.3940
  948SOL     vw 3792   6.279   5.056   0.575  0.9458 -0.2284 -0.9364
  949SOL     ow 3793   6.440   5.930   2.253  0.1135 -0.1263  0.9404
  949SOL     hw 3794   6.410   5.845   2.284 -0.6415  0.4872  1.9238
  949SOL     hw 3795   6.500   5.909   2.181 -0.9267 -1.4493  0.4100
  949SOL     vw 3796   6.444   5.916   2.247 -0.1235 -0.2198  1.0002
  950SOL     ow 3797   3.709   5.329   1.593  0.1166  0.0273  0.3226
  950SOL     hw 3798   3.692   5.379   1.673  1.0454 -0.7504  1.0206
  950SOL     hw 3799   3.640   5.263   1.590  0.1403 -0.0050  0.5301
  950SOL     vw 3800   3.698   5.327   1.603  0.2422 -0.0796  0.4421
  951SOL     ow 3801   1.890   4.684   1.757 -0.7282 -0.7504  0.3409
  951SOL     hw 3802   1.911   4.716   1.845  1.9116 -0.7267 -0.2219
  951SOL     hw 3803   1.883   4.764   1.704 -2.1211 -0.7751  0.4482
  951SOL     vw 3804   1.892   4.699   1.761 -0.5637 -0.7508  0.2809
  952SOL     ow 3805   5.892   0.207   5.404  0.5023 -0.0639 -0.4349
  952SOL     hw 3806   5.881   0.157   5.485  3.2042 -1.2323 -0.6972
  952SOL     hw 3807   5.865   0.146   5.335 -1.1867  0.7146 -0.5134
  952SOL     vw 3808   5.887   0.192   5.406  0.6361 -0.1154 -0.4802
  953SOL     ow 3809   3.231   2.298   6.532  0.5789 -0.4695 -0.2399
  953SOL     hw 3810   3.240   2.209   6.498  1.6677 -1.2437  1.8717
  953SOL     hw 3811   3.314   2.340   6.512  1.3221 -1.0040  1.4784
  953SOL     vw 3812   3.243   2.291   6.525  0.8206 -0.6422  0.2654
  954SOL     ow 3813   4.775   6.253   2.503 -0.0345  0.3092  0.6494
  954SOL     hw 3814   4.810   6.336   2.471 -0.5115  0.0265 -0.6519
  954SOL     hw 3815   4.822   6.186   2.454 -2.7355 -0.0769 -1.6881
  954SOL     vw 3816   4.786   6.255   2.492 -0.4539  0.2208  0.1694
  955SOL     ow 3817   1.305   1.216   5.381 -0.0765 -0.1706 -0.4035
  955SOL     hw 3818   1.302   1.165   5.299 -2.0465 -0.7110 -0.0498
  955SOL     hw 3819   1.214   1.227   5.406  0.4653  0.0973  1.6747
  955SOL     vw 3820   1.293   1.210   5.373 -0.2649 -0.2066 -0.0825
  956SOL     ow 3821   6.403   5.009   4.221 -0.4340  0.2535 -0.2853
  956SOL     hw 3822   6.477   5.051   4.176  1.1344 -0.8174  1.1966
  956SOL     hw 3823   6.342   5.081   4.237  0.7030  1.3657 -0.7076
  956SOL     vw 3824   6.405   5.024   4.217 -0.0770  0.2589 -0.1457
  957SOL     ow 3825   2.288   4.809   1.122  0.5279  0.1783  0.1842
  957SOL     hw 3826   2.216   4.866   1.094 -2.0465 -2.8700  0.0164
  957SOL     hw 3827   2.338   4.793   1.042 -0.3119  0.0850 -0.3327
  957SOL     vw 3828   2.285   4.815   1.108  0.0774 -0.2363  0.0938
  958SOL     ow 3829   3.649   4.395   3.861 -0.2652 -0.6748 -0.4558
  958SOL     hw 3830   3.614   4.320   3.814 -1.5578 -0.8046  0.6577
  958SOL     hw 3831   3.664   4.363   3.950 -2.1664  0.6775  0.4353
  958SOL     vw 3832   3.646   4.381   3.867 -0.6865 -0.5136 -0.1913
  959SOL     ow 3833   2.980   5.709   0.991  0.6643  0.4884 -0.0315
  959SOL     hw 3834   2.964   5.647   1.062 -0.9131  0.4170 -0.4257
  959SOL     hw 3835   3.013   5.788   1.034  2.1878 -0.4006  0.5277
  959SOL     vw 3836   2.982   5.711   1.006  0.6572  0.3617 -0.0098
  960SOL     ow 3837   3.315   6.974   3.976 -0.3538  0.2314 -0.3000
  960SOL     hw 3838   3.232   7.014   4.005 -0.5918 -0.8121  0.4818
  960SOL     hw 3839   3.383   7.029   4.016 -0.6764 -0.4246  1.2061
  960SOL     vw 3840   3.313   6.987   3.985 -0.4280  0.0072  0.0018
  961SOL     ow 3841   5.248   1.059   6.234 -0.1250  0.6755 -0.7130
  961SOL     hw 3842   5.173   1.011   6.200 -0.2400  0.4762 -0.1877
  961SOL     hw 3843   5.322   1.030   6.180  0.3816 -2.2711  1.3304
  961SOL     vw 3844   5.248   1.049   6.222 -0.0732  0.2604 -0.3741
  962SOL     ow 3845   1.188   3.578   4.566  0.0913 -0.7619 -0.0836
  962SOL     hw 3846   1.245   3.600   4.640  0.6867  0.0692 -0.7809
  962SOL     hw 3847   1.146   3.496   4.593  0.5019 -0.6226  1.0580
  962SOL     vw 3848   1.190   3.570   4.580  0.2241 -0.6340 -0.0250
  963SOL     ow 3849   3.482   0.489   3.609  0.1604  0.4216  0.4636
  963SOL     hw 3850   3.552   0.526   3.554 -0.4298 -0.2146 -0.7654
  963SOL     hw 3851   3.528   0.432   3.671  0.7522 -0.0479 -0.3783
  963SOL     vw 3852   3.497   0.486   3.610  0.1607  0.2757  0.1903
  964SOL     ow 3853   5.297   0.910   6.522 -0.2851 -0.3379 -0.2168
  964SOL     hw 3854   5.242   0.837   6.551 -0.9892  0.4067  0.3696
  964SOL     hw 3855   5.361   0.921   6.593 -0.0402 -0.5161 -0.4063
  964SOL     vw 3856   5.298   0.901   6.536 -0.3459 -0.2632 -0.1645
  965SOL     ow 3857   4.428   1.450   5.936 -0.4707 -0.3333 -0.0740
  965SOL     hw 3858   4.462   1.512   6.000  3.0763 -0.4923 -1.5620
  965SOL     hw 3859   4.351   1.412   5.978  0.3856  1.1415  3.1547
  965SOL     vw 3860   4.423   1.453   5.950  0.1101 -0.1597  0.1557
  966SOL     ow 3861   0.231   2.837   4.467 -0.5521 -0.4329  0.1011
  966SOL     hw 3862   0.235   2.799   4.379 -0.1558 -0.5499  0.1677
  966SOL     hw 3863   0.313   2.887   4.475 -0.7242 -0.1805  0.2929
  966SOL     vw 3864   0.243   2.838   4.456 -0.5225 -0.4151  0.1349
  967SOL     ow 3865   4.672   6.867   3.150 -0.6299  0.9887 -0.6500
  967SOL     hw 3866   4.699   6.945   3.102  1.1040 -0.3263 -1.9265
  967SOL     hw 3867   4.615   6.820   3.089 -1.0463  0.8587 -0.1722
  967SOL     vw 3868   4.668   6.871   3.135 -0.4563  0.7980 -0.7554
  968SOL     ow 3869   6.284   1.203   0.660  0.0268  0.3130  0.0068
  968SOL     hw 3870   6.242   1.238   0.738 -2.4299  0.6408 -1.3614
  968SOL     hw 3871   6.346   1.271   0.633  1.1194  0.0635  1.7746
  968SOL     vw 3872   6.286   1.217   0.666 -0.1533  0.3233  0.0595
  969SOL     ow 3873   6.350   5.335   1.402 -0.5489 -0.4266  0.6995
  969SOL     hw 3874   6.361   5.345   1.308  1.6161  0.3940  0.9907
  969SOL     hw 3875   6.372   5.243   1.419 -0.9989 -0.5900  0.4003
  969SOL     vw 3876   6.354   5.324   1.392 -0.3228 -0.3397  0.6984
  970SOL     ow 3877   7.013   4.011   5.031 -0.0948  0.1852  0.2679
  970SOL     hw 3878   7.041   4.101   5.045 -0.7748  0.4713 -0.1569
  970SOL     hw 3879   7.091   3.958   5.051 -0.0490  0.7658  1.8146
  970SOL     vw 3880   7.027   4.016   5.036 -0.1785  0.2995  0.4158
  971SOL     ow 3881   6.847   5.083   4.761  0.0495  0.1635 -0.4494
  971SOL     hw 3882   6.931   5.085   4.808 -0.6880  1.6526  0.9133
  971SOL     hw 3883   6.838   5.171   4.725  0.7305 -0.9976 -3.8539
  971SOL     vw 3884   6.857   5.095   4.763  0.0420  0.2069 -0.7188
  972SOL     ow 3885   5.620   3.500   1.969 -0.1480 -0.2587 -1.3464
  972SOL     hw 3886   5.525   3.515   1.974 -0.3064 -1.3193 -0.8279
  972SOL     hw 3887   5.633   3.462   1.882 -0.4778 -1.7832 -0.7638
  972SOL     vw 3888   5.609   3.497   1.958 -0.2127 -0.5999 -1.2012
  973SOL     ow 3889   6.611   6.112   0.462  0.1494  0.0913 -0.5196
  973SOL     hw 3890   6.600   6.197   0.506 -0.0310 -1.4615  2.7273
  973SOL     hw 3891   6.703   6.089   0.477  0.0714 -0.4980 -0.9311
  973SOL     vw 3892   6.622   6.120   0.470  0.1156 -0.1912 -0.1455
  974SOL     ow 3893   6.739   6.766   4.352 -1.0889 -0.0348  0.6218
  974SOL     hw 3894   6.751   6.671   4.348 -1.1565 -0.0423  0.6005
  974SOL     hw 3895   6.770   6.797   4.267 -0.3349  0.0452  0.9148
  974SOL     vw 3896   6.744   6.757   4.340 -0.9983 -0.0253  0.6578
  975SOL     ow 3897   4.683   3.739   6.953 -0.1949  0.8061  0.2881
  975SOL     hw 3898   4.643   3.724   6.868  1.3270 -0.5261 -0.2328
  975SOL     hw 3899   4.609   3.744   7.014 -1.2008 -0.9821 -0.7137
  975SOL     vw 3900   4.668   3.738   6.950 -0.1268  0.3945  0.0868
  976SOL     ow 3901   5.029   5.794   4.903 -0.3892  0.2862  0.3258
  976SOL     hw 3902   4.995   5.802   4.992  0.2449 -1.4447  0.7689
  976SOL     hw 3903   4.979   5.722   4.864  0.9740 -0.5929  0.1307
  976SOL     vw 3904   5.018   5.785   4.909 -0.1256 -0.0582  0.3588
  977SOL     ow 3905   6.625   5.031   4.950  0.2210 -0.3703 -0.5660
  977SOL     hw 3906   6.675   5.088   5.010 -1.5482  1.7400 -0.9928
  977SOL     hw 3907   6.557   4.992   5.005  0.3110 -0.6533 -0.6525
  977SOL     vw 3908   6.623   5.033   4.965 -0.0005 -0.1292 -0.6337
  978SOL     ow 3909   5.587   5.999   2.672 -0.1070  0.9323  0.0231
  978SOL     hw 3910   5.498   6.027   2.648 -0.5183 -0.5027 -0.2586
  978SOL     hw 3911   5.612   5.939   2.602  0.7008  0.5712  0.6138
  978SOL     vw 3912   5.578   5.995   2.660 -0.0546  0.6952  0.0639
  979SOL     ow 3913   6.792   0.906   5.562  0.3941  0.1066  0.3214
  979SOL     hw 3914   6.803   0.899   5.467  1.5958  0.3120  0.4281
  979SOL     hw 3915   6.717   0.965   5.573  0.0596 -0.1477 -0.4920
  979SOL     vw 3916   6.783   0.913   5.550  0.5083  0.1001  0.2282
  980SOL     ow 3917   6.792   5.209   5.126  0.2649 -0.2080  0.2427
  980SOL     hw 3918   6.762   5.284   5.074 -1.6247 -0.9877  0.1591
  980SOL     hw 3919   6.876   5.239   5.163  0.1613  1.4880 -0.7548
  980SOL     vw 3920   6.799   5.223   5.124  0.0019 -0.0873  0.1001
  981SOL     ow 3921   1.777   3.351   5.113  0.0181 -0.0214  0.1424
  981SOL     hw 3922   1.838   3.277   5.112 -0.1574 -0.1656 -0.9452
  981SOL     hw 3923   1.734   3.348   5.027  0.6935  1.9257 -0.3114
  981SOL     vw 3924   1.779   3.341   5.102  0.0840  0.2165 -0.0610
  982SOL     ow 3925   5.001   1.112   4.831  0.6844 -0.2625  1.0696
  982SOL     hw 3926   5.030   1.148   4.747 -2.4146  1.0409  0.3985
  982SOL     hw 3927   5.023   1.180   4.895 -2.1249  1.5278  0.3089
  982SOL     vw 3928   5.008   1.126   4.828 -0.0954  0.1457  0.8807
  983SOL     ow 3929   6.519   4.812   5.516 -0.3717  0.1733 -0.1536
  983SOL     hw 3930   6.479   4.740   5.566 -0.0606 -1.5038 -2.1565
  983SOL     hw 3931   6.459   4.826   5.443  0.0550  1.3567 -0.2971
  983SOL     vw 3932   6.506   4.804   5.513 -0.2742  0.1085 -0.4365
  984SOL     ow 3933   1.152   3.178   5.239  0.2030 -0.2995 -0.0469
  984SOL     hw 3934   1.084   3.135   5.186 -1.5054  2.0364  0.0577
  984SOL     hw 3935   1.185   3.109   5.297 -0.5799 -2.0147 -1.5454
  984SOL     vw 3936   1.147   3.163   5.240 -0.1258 -0.2176 -0.2308
  985SOL     ow 3937   5.326   5.248   0.502 -0.7338 -0.1137  0.5081
  985SOL     hw 3938   5.248   5.216   0.546  1.4538 -2.7251  2.8573
  985SOL     hw 3939   5.389   5.176   0.509  0.3723 -0.4091 -5.9394
  985SOL     vw 3940   5.324   5.234   0.509 -0.2992 -0.4971 -0.0326
  986SOL     ow 3941   2.645   2.538   0.878 -0.1045 -0.2922  0.2668
  986SOL     hw 3942   2.574   2.553   0.941  0.4917  1.7771  0.4970
  986SOL     hw 3943   2.608   2.563   0.794 -0.4370 -1.6909 -0.0312
  986SOL     vw 3944   2.631   2.543   0.876 -0.0696 -0.2037  0.2579
  987SOL     ow 3945   2.459   2.930   5.633  0.3816 -0.6137 -0.4541
  987SOL     hw 3946   2.520   2.946   5.561  0.5728  2.6125  0.2522
  987SOL     hw 3947   2.387   2.991   5.616 -1.0944 -2.0528  0.4405
  987SOL     vw 3948   2.458   2.940   5.621  0.2121 -0.3780 -0.2427
  988SOL     ow 3949   1.968   4.287   2.925 -0.8140 -0.5221 -1.0389
  988SOL     hw 3950   2.048   4.235   2.913 -0.8837 -0.5607 -1.3537
  988SOL     hw 3951   1.991   4.373   2.890  0.1471  0.4796  1.7692
  988SOL     vw 3952   1.982   4.291   2.919 -0.6964 -0.3951 -0.7100
  989SOL     ow 3953   6.823   5.387   1.615  0.7911  0.3922  1.0120
  989SOL     hw 3954   6.835   5.296   1.591 -0.2191  0.4232  0.2995
  989SOL     hw 3955   6.892   5.434   1.568  1.4975 -0.0335  1.6193
  989SOL     vw 3956   6.834   5.381   1.606  0.7508  0.3402  0.9981
  990SOL     ow 3957   2.339   0.018   6.169 -0.0972 -0.7426  0.0550
  990SOL     hw 3958   2.268   0.058   6.120 -0.7511 -0.5183  1.1753
  990SOL     hw 3959   2.412   0.080   6.162 -0.6422 -0.0366  0.5621
  990SOL     vw 3960   2.339   0.031   6.161 -0.2553 -0.6199  0.2694
  991SOL     ow 3961   3.832   4.875   0.312 -0.0869  1.0870  0.6197
  991SOL     hw 3962   3.901   4.894   0.249 -0.8320  0.8250 -0.2924
  991SOL     hw 3963   3.853   4.787   0.344 -0.4443  0.6663 -0.2745
  991SOL     vw 3964   3.844   4.866   0.308 -0.2322  0.9968  0.3814
  992SOL     ow 3965   4.519   1.373   4.800 -0.2408 -0.8146 -0.0174
  992SOL     hw 3966   4.538   1.282   4.824  1.2531 -0.8558 -1.1758
  992SOL     hw 3967   4.566   1.426   4.865 -0.0745 -0.8868 -0.0779
  992SOL     vw 3968   4.528   1.368   4.812 -0.0219 -0.8295 -0.1783
  993SOL     ow 3969   5.661   3.190   5.841  0.5333 -0.2492  0.4612
  993SOL     hw 3970   5.722   3.116   5.848 -0.8066 -1.5883 -1.0110
  993SOL     hw 3971   5.612   3.172   5.761 -0.2864  1.9407  0.4209
  993SOL     vw 3972   5.663   3.178   5.832  0.2484 -0.1370  0.2618
  994SOL     ow 3973   3.438   2.019   4.136  0.4231 -0.0294  0.3053
  994SOL     hw 3974   3.460   1.938   4.091  0.0217  0.1561 -0.2546
  994SOL     hw 3975   3.483   2.087   4.086  0.1471  0.1589  0.3064
  994SOL     vw 3976   3.447   2.018   4.123  0.3338  0.0199  0.2313
  995SOL     ow 3977   4.351   6.665   4.384 -0.0045  0.0554  0.3365
  995SOL     hw 3978   4.379   6.643   4.473  1.3062  0.1149 -0.0505
  995SOL     hw 3979   4.258   6.643   4.382 -0.4492  1.5206  2.1979
  995SOL     vw 3980   4.342   6.659   4.395  0.1097  0.2568  0.5310
  996SOL     ow 3981   2.325   1.725   6.839 -0.1130 -0.2783  0.4217
  996SOL     hw 3982   2.380   1.673   6.780 -0.7194  0.6916 -1.0566
  996SOL     hw 3983   2.352   1.816   6.823 -0.9759  0.0759  0.9058
  996SOL     vw 3984   2.336   1.731   6.829 -0.3068 -0.1036  0.2909
  997SOL     ow 3985   1.591   5.955   1.023  0.1128  0.3427  1.1060
  997SOL     hw 3986   1.594   5.953   0.927  1.1608  0.4817  1.1185
  997SOL     hw 3987   1.626   5.870   1.049  1.1852  0.8413  1.3590
  997SOL     vw 3988   1.596   5.943   1.013  0.3926  0.4265  1.1410
  998SOL     ow 3989   0.718   5.247   2.007  0.4945  0.3367 -0.2256
  998SOL     hw 3990   0.697   5.167   1.959  0.2896  1.0352 -1.3375
  998SOL     hw 3991   0.679   5.234   2.093  1.6483 -1.3176  0.0878
  998SOL     vw 3992   0.710   5.235   2.012  0.6197  0.2108 -0.3308
  999SOL     ow 3993   4.731   4.686   4.541 -0.3775 -0.4643 -0.4284
  999SOL     hw 3994   4.640   4.667   4.567 -0.3195 -2.7070 -1.5555
  999SOL     hw 3995   4.723   4.727   4.455 -0.3384  0.8030  0.1496
  999SOL     vw 3996   4.718   4.689   4.533 -0.3650 -0.5932 -0.5009
 1000SOL     ow 3997   4.152   0.218   1.057  0.9746  0.6098  0.6145
 1000SOL     hw 3998   4.131   0.279   1.128 -1.0067  1.0908 -0.3115
 1000SOL     hw 3999   4.081   0.153   1.061  3.0116 -1.7183  1.5867
 1000SOL     vw 4000   4.140   0.217   1.067  0.9823  0.3661  0.6205
 1001SOL     ow 4001   1.556   4.433   5.018 -0.3259  0.2886  0.0381
 1001SOL     hw 4002   1.561   4.529   5.021 -0.0563  0.2535  1.3820
 1001SOL     hw 4003   1.472   4.412   5.057  0.3189 -0.0600  1.3080
 1001SOL     vw 4004   1.546   4.443   5.023 -0.2053  0.2377  0.3831
 1002SOL     ow 4005   2.616   0.991   1.909  0.0052  0.1972 -0.1910
 1002SOL     hw 4006   2.685   1.014   1.972  0.2899 -1.6555  0.2338
 1002SOL     hw 4007   2.568   0.919   1.951  0.2393 -1.1384 -2.0749
 1002SOL     vw 4008   2.619   0.984   1.923  0.0737 -0.2235 -0.3834
 1003SOL     ow 4009   6.068   0.644   0.777 -0.4728 -0.0266 -0.5109
 1003SOL     hw 4010   5.994   0.674   0.722 -0.4891 -0.9247 -0.9969
 1003SOL     hw 4011   6.124   0.721   0.785 -0.3922  0.0967 -1.9388
 1003SOL     vw 4012   6.065   0.658   0.771 -0.4644 -0.1289 -0.7635
 1004SOL     ow 4013   4.862   3.865   0.792 -0.2724 -0.9111  0.3243
 1004SOL     hw 4014   4.790   3.809   0.822 -0.5124 -0.4841  0.5433
 1004SOL     hw 4015   4.835   3.895   0.705  0.6267 -2.5225 -0.5710
 1004SOL     vw 4016   4.849   3.861   0.784 -0.1857 -1.0674  0.2350
 1005SOL     ow 4017   2.773   3.503   3.322  0.4194  0.3588  1.0494
 1005SOL     hw 4018   2.832   3.529   3.252  0.9154 -0.4654  1.1430
 1005SOL     hw 4019   2.790   3.410   3.334  1.7982  0.8656  3.6355
 1005SOL     vw 4020   2.783   3.494   3.314  0.6667  0.3170  1.4030
 1006SOL     ow 4021   2.552   1.235   2.802  0.0126  0.2041  0.1941
 1006SOL     hw 4022   2.569   1.216   2.710  1.3595  0.6770  0.3300
 1006SOL     hw 4023   2.474   1.292   2.801 -0.0879  0.0571 -0.6350
 1006SOL     vw 4024   2.544   1.240   2.790  0.1770  0.2471  0.1026
 1007SOL     ow 4025   2.167   6.597   6.156 -0.3220  0.3580  0.6628
 1007SOL     hw 4026   2.118   6.515   6.150 -0.7151  0.7036 -1.5043
 1007SOL     hw 4027   2.100   6.665   6.166 -0.3733  0.7865 -1.8738
 1007SOL     vw 4028   2.152   6.595   6.157 -0.3805  0.4601  0.0422
 1008SOL     ow 4029   1.141   5.029   3.186 -0.2222  0.0522 -0.4671
 1008SOL     hw 4030   1.161   5.105   3.240 -1.7748  0.6357 -0.6744
 1008SOL     hw 4031   1.061   4.993   3.223 -0.0847 -0.8617 -1.0231
 1008SOL     vw 4032   1.133   5.034   3.198 -0.4088  0.0088 -0.5679
 1009SOL     ow 4033   1.552   4.177   0.043  0.2441 -0.2741  0.2258
 1009SOL     hw 4034   1.592   4.226  -0.028  0.5359 -0.6266  0.1455
 1009SOL     hw 4035   1.524   4.095   0.003 -0.2446 -0.1729  0.3592
 1009SOL     vw 4036   1.554   4.172   0.029  0.2182 -0.3073  0.2328
 1010SOL     ow 4037   0.733   0.036   6.901  0.6918  1.1572  0.6252
 1010SOL     hw 4038   0.723  -0.050   6.943  0.7745  1.6496  1.7018
 1010SOL     hw 4039   0.701   0.098   6.967 -1.4145  1.8379 -0.9323
 1010SOL     vw 4040   0.727   0.033   6.915  0.4248  1.3123  0.5620
 1011SOL     ow 4041   6.568   5.661   3.168 -0.7776  0.3227 -0.0837
 1011SOL     hw 4042   6.477   5.658   3.198 -0.9410 -1.0276 -0.6142
 1011SOL     hw 4043   6.614   5.711   3.235 -1.6247 -0.3429  1.0257
 1011SOL     vw 4044   6.562   5.667   3.181 -0.9112  0.0567 -0.0073
 1012SOL     ow 4045   3.332   6.462   5.814 -0.0570 -0.6648 -0.1407
 1012SOL     hw 4046   3.346   6.471   5.719  0.4972 -0.6297 -0.0624
 1012SOL     hw 4047   3.257   6.519   5.832  1.5063  1.5428 -0.1496
 1012SOL     vw 4048   3.324   6.471   5.804  0.2226 -0.3691 -0.1314
 1013SOL     ow 4049   5.696   0.254   2.141  0.1988  0.1605  0.5540
 1013SOL     hw 4050   5.748   0.290   2.213 -0.1595 -1.0769  1.4768
 1013SOL     hw 4051   5.612   0.232   2.182 -0.2823  0.1240 -0.4205
 1013SOL     vw 4052   5.691   0.256   2.156  0.0882 -0.0076  0.5472
 1014SOL     ow 4053   6.718   0.048   5.555 -0.1213 -0.2117 -0.7444
 1014SOL     hw 4054   6.714  -0.047   5.549  0.4016 -0.2304 -0.8827
 1014SOL     hw 4055   6.683   0.080   5.472 -1.4708 -0.2479 -0.2062
 1014SOL     vw 4056   6.713   0.040   5.544 -0.2301 -0.2189 -0.6919
 1015SOL     ow 4057   5.775   6.312   5.541 -0.5025  0.2235  0.2771
 1015SOL     hw 4058   5.752   6.400   5.572  1.1855  0.0957  2.0258
 1015SOL     hw 4059   5.691   6.271   5.521 -1.4734  1.4646  1.6198
 1015SOL     vw 4060   5.761   6.318   5.542 -0.4082  0.3707  0.6850
 1016SOL     ow 4061   2.876   5.980   0.845 -0.4099 -0.7561  0.4031
 1016SOL     hw 4062   2.928   6.018   0.774 -0.3476 -1.4680  0.0557
 1016SOL     hw 4063   2.785   5.998   0.820 -0.4190 -1.6263 -0.2342
 1016SOL     vw 4064   2.871   5.988   0.832 -0.4029 -0.9649  0.2731
 1017SOL     ow 4065   5.598   0.665   5.983  0.0881 -0.5561  0.2580
 1017SOL     hw 4066   5.529   0.649   5.919 -0.2020  1.7197 -0.0996
 1017SOL     hw 4067   5.552   0.686   6.064  0.4060 -0.9349  0.5407
 1017SOL     vw 4068   5.583   0.666   5.985  0.0918 -0.3058  0.2482
 1018SOL     ow 4069   4.613   5.767   6.701 -0.3343  0.3974  0.3013
 1018SOL     hw 4070   4.542   5.712   6.732  0.4765 -1.8128 -1.4487
 1018SOL     hw 4071   4.571   5.834   6.648 -1.2050  0.0062  0.4905
 1018SOL     vw 4072   4.598   5.768   6.698 -0.3424  0.0541  0.0954
 1019SOL     ow 4073   2.151   3.533   6.825  0.6710  0.6628 -0.5781
 1019SOL     hw 4074   2.124   3.578   6.905 -0.7136 -0.7520 -0.2168
 1019SOL     hw 4075   2.229   3.581   6.796 -0.6423  3.2395 -0.1650
 1019SOL     vw 4076   2.158   3.546   6.832  0.3150  0.8161 -0.4759
 1020SOL     ow 4077   2.619   5.107   3.635 -0.4923  0.1443 -0.3876
 1020SOL     hw 4078   2.604   5.199   3.656 -1.7702 -0.3579  1.1119
 1020SOL     hw 4079   2.541   5.062   3.668  0.3060 -1.5298 -0.6704
 1020SOL     vw 4080   2.607   5.113   3.642 -0.5558 -0.1428 -0.2270
 1021SOL     ow 4081   5.552   4.313   5.336 -0.0300 -0.4314  0.7056
 1021SOL     hw 4082   5.540   4.220   5.317  0.4785 -0.2907 -0.4055
 1021SOL     hw 4083   5.645   4.329   5.321 -0.0628  0.2019  1.1452
 1021SOL     vw 4084   5.563   4.303   5.331  0.0327 -0.3290  0.6170
 1022SOL     ow 4085   4.264   2.408   0.806  0.1272 -1.1157 -0.1312
 1022SOL     hw 4086   4.241   2.431   0.896  0.4749 -0.4028 -0.2185
 1022SOL     hw 4087   4.323   2.334   0.815  1.4581 -0.0365  0.3231
 1022SOL     vw 4088   4.269   2.401   0.819  0.3488 -0.8792 -0.0828
 1023SOL     ow 4089   1.892   4.918   3.824  0.4283 -0.6259 -0.0120
 1023SOL     hw 4090   1.857   4.834   3.795  2.3657 -0.4004 -3.5818
 1023SOL     hw 4091   1.986   4.903   3.832  0.7441  1.0439 -0.1960
 1023SOL     vw 4092   1.900   4.905   3.821  0.7256 -0.3760 -0.5074
 1024SOL     ow 4093   3.789   1.132   3.277 -0.5788  0.7703  0.3397
 1024SOL     hw 4094   3.778   1.050   3.325 -1.1250 -0.8544 -2.4030
 1024SOL     hw 4095   3.708   1.180   3.294 -0.7386  0.2798  1.0539
 1024SOL     vw 4096   3.777   1.128   3.286 -0.6720  0.4913  0.0722
 1025SOL     ow 4097   4.394   3.642   4.726  0.1194  0.6211  0.0992
 1025SOL     hw 4098   4.351   3.623   4.809 -0.6335 -0.8047 -0.5736
 1025SOL     hw 4099   4.372   3.734   4.708  0.0487  0.8576  1.3089
 1025SOL     vw 4100   4.385   3.652   4.734  0.0107  0.4641  0.1702
 1026SOL     ow 4101   6.527   4.873   6.771 -0.6047  0.0181  0.1854
 1026SOL     hw 4102   6.575   4.904   6.693 -1.0033  1.0072  0.3147
 1026SOL     hw 4103   6.560   4.784   6.785 -0.0333  0.0647 -0.7176
 1026SOL     vw 4104   6.538   4.866   6.762 -0.5817  0.1547  0.0834
 1027SOL     ow 4105   6.269   5.414   3.875  0.3914 -0.2773  1.0158
 1027SOL     hw 4106   6.342   5.361   3.907  1.1784  0.4489  0.5033
 1027SOL     hw 4107   6.249   5.474   3.947 -0.4711 -1.2235  1.5783
 1027SOL     vw 4108   6.276   5.415   3.889  0.3812 -0.3064  1.0225
 1028SOL     ow 4109   1.458   2.529   4.539 -0.4712 -0.1929 -0.2529
 1028SOL     hw 4110   1.508   2.568   4.611  0.1703  0.3655 -0.9876
 1028SOL     hw 4111   1.456   2.436   4.559  0.1696 -0.1127  0.2115
 1028SOL     vw 4112   1.464   2.522   4.551 -0.3020 -0.1086 -0.2882
 1029SOL     ow 4113   1.048   6.917   3.298  0.2496 -0.0773  0.1608
 1029SOL     hw 4114   1.087   6.840   3.340 -1.0883 -1.9972 -1.8589
 1029SOL     hw 4115   1.067   6.905   3.205  0.3195  2.2992 -0.1967
 1029SOL     vw 4116   1.056   6.905   3.291  0.0823 -0.0169 -0.1527
 1030SOL     ow 4117   2.044   6.499   5.763  0.4231  0.7438 -0.1496
 1030SOL     hw 4118   2.081   6.433   5.821  0.2077  0.6153 -0.1575
 1030SOL     hw 4119   1.973   6.538   5.814  2.5661  3.2716  1.1694
 1030SOL     vw 4120   2.039   6.496   5.778  0.6775  1.0602  0.0234
 1031SOL     ow 4121   3.357   4.310   5.621  0.0096  0.2508 -0.1573
 1031SOL     hw 4122   3.341   4.404   5.619 -0.6208  0.1389 -0.8633
 1031SOL     hw 4123   3.354   4.283   5.529  0.5820 -0.3966  0.0012
 1031SOL     vw 4124   3.355   4.319   5.609  0.0019  0.1507 -0.2294
 1032SOL     ow 4125   6.944   0.724   6.257  0.8289  0.4309 -0.3229
 1032SOL     hw 4126   6.906   0.666   6.191 -0.3445  1.6535 -0.7738
 1032SOL     hw 4127   7.036   0.701   6.260  1.3142  1.4473 -3.6623
 1032SOL     vw 4128   6.951   0.714   6.249  0.7381  0.7263 -0.8228
 1033SOL     ow 4129   4.521   1.440   3.832 -0.2124 -0.2229 -0.3335
 1033SOL     hw 4130   4.577   1.370   3.866 -0.5000  0.2425  1.1697
 1033SOL     hw 4131   4.465   1.464   3.906 -0.9276  0.7868 -1.1781
 1033SOL     vw 4132   4.521   1.434   3.847 -0.3445 -0.0283 -0.2466
 1034SOL     ow 4133   3.988   2.335   1.772  0.3889  0.1017  0.0867
 1034SOL     hw 4134   4.044   2.376   1.837  0.3366  1.0306 -0.4436
 1034SOL     hw 4135   3.974   2.402   1.706 -0.8931 -0.2925 -0.0728
 1034SOL     vw 4136   3.993   2.349   1.772  0.2129  0.1723 -0.0044
 1035SOL     ow 4137   0.628   6.750   3.879  0.6122 -0.2402  0.1912
 1035SOL     hw 4138   0.605   6.680   3.818 -1.2575  0.4177  0.1017
 1035SOL     hw 4139   0.628   6.829   3.826  1.1686  0.0531  0.6139
 1035SOL     vw 4140   0.625   6.751   3.864  0.4389 -0.1147  0.2352
 1036SOL     ow 4141   0.497   0.557   3.847  0.6930  0.3741 -0.9769
 1036SOL     hw 4142   0.426   0.524   3.902  2.0289  0.4627  0.9174
 1036SOL     hw 4143   0.499   0.498   3.772 -1.2847  0.3149 -1.0250
 1036SOL     vw 4144   0.488   0.545   3.844  0.6083  0.3780 -0.7334
 1037SOL     ow 4145   3.234   1.196   1.928  0.6616 -0.7528  0.1995
 1037SOL     hw 4146   3.164   1.144   1.969 -1.0612  2.2887  1.4829
 1037SOL     hw 4147   3.191   1.238   1.853  1.6389 -0.2385 -0.0851
 1037SOL     vw 4148   3.219   1.195   1.924  0.5633 -0.2837  0.3313
 1038SOL     ow 4149   3.779   2.904   3.875 -0.4785  0.9442  0.0548
 1038SOL     hw 4150   3.847   2.909   3.808  1.9151  0.4518  2.3347
 1038SOL     hw 4151   3.751   2.812   3.874 -0.4150  0.9267 -0.1902
 1038SOL     vw 4152   3.784   2.893   3.866 -0.1544  0.8770  0.3234
 1039SOL     ow 4153   3.894   5.336   2.067 -0.2084 -0.0398 -0.4989
 1039SOL     hw 4154   3.804   5.356   2.093 -0.3639 -0.7013 -0.5277
 1039SOL     hw 4155   3.947   5.360   2.143 -0.5089 -0.5679 -0.1193
 1039SOL     vw 4156   3.889   5.342   2.080 -0.2686 -0.1967 -0.4525
 1040SOL     ow 4157   6.445   6.676   0.665 -0.1256  0.3176  0.3455
 1040SOL     hw 4158   6.388   6.611   0.707  0.6734 -0.6796 -0.0541
 1040SOL     hw 4159   6.484   6.725   0.737 -0.8775  0.4738  0.6476
 1040SOL     vw 4160   6.443   6.674   0.680 -0.1194  0.2067  0.3327
 1041SOL     ow 4161   5.814   4.294   5.489  0.6373 -0.8536 -0.6887
 1041SOL     hw 4162   5.867   4.214   5.479 -1.6140 -2.6648  0.8793
 1041SOL     hw 4163   5.805   4.305   5.584 -1.0617 -0.1207 -0.9061
 1041SOL     vw 4164   5.820   4.285   5.500  0.1161 -0.9959 -0.5107
 1042SOL     ow 4165   2.264   2.165   2.689  0.3002 -0.2867 -0.5828
 1042SOL     hw 4166   2.196   2.138   2.628 -1.9738  0.4161  1.4607
 1042SOL     hw 4167   2.320   2.088   2.699  0.5036 -0.5554 -3.1043
 1042SOL     vw 4168   2.263   2.151   2.683  0.0269 -0.2295 -0.6459
 1043SOL     ow 4169   2.782   2.299   1.040 -0.4701 -0.7098  0.4098
 1043SOL     hw 4170   2.872   2.278   1.064  0.3945  0.9713 -1.1249
 1043SOL     hw 4171   2.755   2.228   0.982 -0.4575 -1.6589  1.5446
 1043SOL     vw 4172   2.790   2.287   1.036 -0.3544 -0.6131  0.3570
 1044SOL     ow 4173   2.358   0.024   6.450  0.0932  0.5987  0.2657
 1044SOL     hw 4174   2.451   0.037   6.470  0.6290 -1.8537 -0.2395
 1044SOL     hw 4175   2.354   0.028   6.355 -0.0834 -0.5092  0.2197
 1044SOL     vw 4176   2.370   0.026   6.440  0.1405  0.1289  0.1929
 1045SOL     ow 4177   0.532   1.479   6.660  0.1797 -0.8149 -0.7800
 1045SOL     hw 4178   0.459   1.516   6.710  0.2367 -1.3302 -0.3105
 1045SOL     hw 4179   0.609   1.526   6.690  0.0955 -0.5243 -1.0124
 1045SOL     vw 4180   0.532   1.490   6.671  0.1761 -0.8446 -0.7484
 1046SOL     ow 4181   4.615   5.551   4.269 -0.5329  0.2950  0.0118
 1046SOL     hw 4182   4.672   5.522   4.340 -3.3379 -0.7346  2.0422
 1046SOL     hw 4183   4.615   5.647   4.275  0.7942  0.3090  0.0585
 1046SOL     vw 4184   4.622   5.560   4.279 -0.7279  0.1609  0.2861
 1047SOL     ow 4185   4.251   4.306   6.000  0.0188  0.1147  0.6119
 1047SOL     hw 4186   4.203   4.234   5.960  1.5630 -1.2286  1.0663
 1047SOL     hw 4187   4.266   4.278   6.090  1.8440  0.3583  0.4137
 1047SOL     vw 4188   4.247   4.293   6.006  0.4632 -0.0303  0.6456
 1048SOL     ow 4189   2.558   0.439   2.963 -0.4433  0.3146 -0.3229
 1048SOL     hw 4190   2.495   0.442   2.891 -0.2288 -3.5813 -0.8979
 1048SOL     hw 4191   2.643   0.439   2.920 -0.2588 -0.2091  0.0368
 1048SOL     vw 4192   2.561   0.440   2.948 -0.3908 -0.2685 -0.3513
 1049SOL     ow 4193   4.466   6.751   3.023 -0.0773 -0.3673  0.0419
 1049SOL     hw 4194   4.438   6.802   2.947  3.5155 -0.0672 -1.2817
 1049SOL     hw 4195   4.443   6.661   3.001  2.2020 -0.5118 -2.2658
 1049SOL     vw 4196   4.459   6.746   3.010  0.6979 -0.3464 -0.4371
 1050SOL     ow 4197   3.183   5.484   4.397  0.4106 -0.7966 -0.2459
 1050SOL     hw 4198   3.252   5.458   4.458  1.0655  0.4697 -0.3953
 1050SOL     hw 4199   3.153   5.402   4.358  1.1061 -1.4735  0.5907
 1050SOL     vw 4200   3.188   5.470   4.400  0.5888 -0.7188 -0.1552
 1051SOL     ow 4201   5.990   3.299   2.302  0.5524 -0.2839 -0.0444
 1051SOL     hw 4202   6.073   3.252   2.308  0.4084 -0.5158  0.1024
 1051SOL     hw 4203   5.940   3.271   2.378  0.1038 -0.5942 -0.4465
 1051SOL     vw 4204   5.994   3.289   2.312  0.4742 -0.3554 -0.0782
 1052SOL     ow 4205   0.444   3.623   2.513 -0.3723 -0.0362  0.4277
 1052SOL     hw 4206   0.393   3.638   2.434 -0.9029  1.6586  1.0404
 1052SOL     hw 4207   0.399   3.674   2.581  0.6864 -0.5581  1.5681
 1052SOL     vw 4208   0.432   3.632   2.512 -0.3026  0.1186  0.6590
 1053SOL     ow 4209   5.882   6.805   6.965 -0.4806  0.4317 -0.2755
 1053SOL     hw 4210   5.867   6.721   7.009 -0.9942  0.4925 -0.3312
 1053SOL     hw 4211   5.942   6.852   7.022  0.9741 -0.5429 -0.9431
 1053SOL     vw 4212   5.888   6.800   6.978 -0.3567  0.3109 -0.3707
 1054SOL     ow 4213   0.032   5.174   5.520  0.4984 -0.0552 -0.3762
 1054SOL     hw 4214   0.044   5.214   5.433  1.9963 -0.0301 -0.1788
 1054SOL     hw 4215   0.059   5.083   5.508  0.4234 -0.1287  0.0035
 1054SOL     vw 4216   0.037   5.168   5.507  0.6861 -0.0618 -0.2999
 1055SOL     ow 4217   4.725   2.865   5.145 -0.2026  0.9652 -0.6945
 1055SOL     hw 4218   4.786   2.804   5.103  1.9833  2.8023 -0.3971
 1055SOL     hw 4219   4.667   2.894   5.075 -1.2299 -1.2947 -0.8612
 1055SOL     vw 4220   4.726   2.860   5.131 -0.0496  0.9093 -0.6773
 1056SOL     ow 4221   4.139   2.455   6.159  0.1424 -0.4501 -0.3514
 1056SOL     hw 4222   4.107   2.436   6.247  1.1053 -2.2832 -0.3353
 1056SOL     hw 4223   4.096   2.389   6.104  1.2565 -0.7815 -0.8581
 1056SOL     vw 4224   4.129   2.444   6.163  0.4168 -0.7356 -0.4163
 1057SOL     ow 4225   4.641   3.459   4.793  0.1421 -0.5793  0.0110
 1057SOL     hw 4226   4.694   3.379   4.796  1.0284 -0.0811 -1.2041
 1057SOL     hw 4227   4.676   3.513   4.863  1.1892 -0.3154 -0.6850
 1057SOL     vw 4228   4.653   3.455   4.802  0.3970 -0.4786 -0.2410
 1058SOL     ow 4229   0.500   3.217   6.583 -0.3544  0.0306 -0.0313
 1058SOL     hw 4230   0.456   3.300   6.568  1.2160  0.6738 -1.3355
 1058SOL     hw 4231   0.509   3.178   6.496  0.2465 -0.8197  0.3904
 1058SOL     vw 4232   0.495   3.223   6.570 -0.0679  0.0032 -0.1478
 1059SOL     ow 4233   4.637   6.484   4.355  0.1175  0.2355  0.0237
 1059SOL     hw 4234   4.675   6.536   4.427  0.1567  0.5669 -0.2333
 1059SOL     hw 4235   4.708   6.478   4.291 -0.0690  0.3379 -0.1919
 1059SOL     vw 4236   4.652   6.490   4.356  0.0980  0.2928 -0.0384
 1060SOL     ow 4237   0.777   3.379   6.608  0.5038 -0.0386  0.0555
 1060SOL     hw 4238   0.778   3.449   6.543  1.1088 -0.6335 -0.6027
 1060SOL     hw 4239   0.718   3.313   6.571  0.6673 -0.2809  0.2207
 1060SOL     vw 4240   0.769   3.379   6.595  0.6052 -0.1490 -0.0093
 1061SOL     ow 4241   2.666   5.262   2.175 -0.1394 -0.0270 -0.0385
 1061SOL     hw 4242   2.726   5.336   2.176  0.1635 -0.2648 -0.2921
 1061SOL     hw 4243   2.682   5.216   2.257 -0.2396  0.1188  0.0626
 1061SOL     vw 4244   2.676   5.266   2.186 -0.1127 -0.0393 -0.0587
 1062SOL     ow 4245   5.603   4.334   3.902 -0.6862 -0.1847  0.0986
 1062SOL     hw 4246   5.593   4.349   3.808  2.7552 -0.6975 -0.4713
 1062SOL     hw 4247   5.618   4.240   3.909 -0.1593 -0.0306  1.0845
 1062SOL     vw 4248   5.604   4.324   3.890 -0.1626 -0.2317  0.1534
 1063SOL     ow 4249   4.172   0.406   0.806  0.0611  0.1127 -0.2211
 1063SOL     hw 4250   4.152   0.411   0.713  1.6458  0.5682 -0.5714
 1063SOL     hw 4251   4.103   0.457   0.849 -0.4355  0.2579 -1.1869
 1063SOL     vw 4252   4.161   0.414   0.800  0.2046  0.1920 -0.3947
 1064SOL     ow 4253   2.469   4.461   0.231 -0.0801 -0.2642  0.4370
 1064SOL     hw 4254   2.428   4.517   0.165  0.4970  2.1304  1.9833
 1064SOL     hw 4255   2.495   4.522   0.301  2.8800 -2.1261  1.1157
 1064SOL     vw 4256   2.467   4.477   0.231  0.3866 -0.1938  0.7306
 1065SOL     ow 4257   3.464   0.521   2.469 -0.3341  0.7456 -0.1583
 1065SOL     hw 4258   3.393   0.456   2.464  3.0603 -3.4903  0.2762
 1065SOL     hw 4259   3.472   0.555   2.380 -0.7383 -1.3643 -1.0646
 1065SOL     vw 4260   3.455   0.517   2.457  0.0606 -0.0916 -0.2205
 1066SOL     ow 4261   7.011   1.045   5.759 -0.3635 -0.6974  0.0356
 1066SOL     hw 4262   7.006   1.139   5.777  0.1883 -0.3621 -1.4514
 1066SOL     hw 4263   7.101   1.022   5.780 -1.0182 -1.3776  2.4036
 1066SOL     vw 4264   7.022   1.054   5.764 -0.3772 -0.7429  0.1519
 1067SOL     ow 4265   3.066   6.535   5.148 -0.0558  0.1743 -0.4660
 1067SOL     hw 4266   3.160   6.537   5.165  0.4030  0.2132 -2.7183
 1067SOL     hw 4267   3.048   6.444   5.123 -0.0995  0.6842 -2.4367
 1067SOL     vw 4268   3.076   6.523   5.147 -0.0010  0.2468 -1.0233
 1068SOL     ow 4269   6.717   0.586   2.234 -0.6028 -0.1943 -0.0622
 1068SOL     hw 4270   6.703   0.585   2.328  0.7788 -0.8220  0.1590
 1068SOL     hw 4271   6.812   0.574   2.223 -0.7629 -0.3544 -1.5281
 1068SOL     vw 4272   6.728   0.584   2.245 -0.4413 -0.2983 -0.2264
 1069SOL     ow 4273   4.966   6.985   6.244 -0.1301  0.0240 -0.3065
 1069SOL     hw 4274   5.062   6.993   6.245 -0.2058  1.1020  0.3650
 1069SOL     hw 4275   4.936   7.065   6.202 -0.7849  0.6314  1.2543
 1069SOL     vw 4276   4.975   6.996   6.239 -0.2265  0.2465 -0.0119
 1070SOL     ow 4277   5.768   3.344   5.161 -0.4643  0.7488  0.0332
 1070SOL     hw 4278   5.732   3.387   5.084 -0.4842  1.1771  0.2753
 1070SOL     hw 4279   5.739   3.254   5.155  1.8157  0.0322 -1.9346
 1070SOL     vw 4280   5.760   3.338   5.150 -0.1662  0.7108 -0.1943
 1071SOL     ow 4281   0.293   3.426   5.191  0.2486  0.1318  0.0575
 1071SOL     hw 4282   0.327   3.451   5.105 -0.2180  0.0228 -0.1617
 1071SOL     hw 4283   0.311   3.502   5.247 -1.8698  1.3413 -0.7942
 1071SOL     vw 4284   0.300   3.440   5.187 -0.0924  0.2769 -0.0839
 1072SOL     ow 4285   2.105   1.791   4.471  0.3113  0.2444 -0.3206
 1072SOL     hw 4286   2.110   1.759   4.380 -0.2371 -0.9985  0.0701
 1072SOL     hw 4287   2.191   1.772   4.507 -0.3281 -1.9518  0.2388
 1072SOL     vw 4288   2.117   1.784   4.463  0.1546 -0.2093 -0.1950
 1073SOL     ow 4289   1.947   5.068   5.179  0.2828  0.0722  0.6267
 1073SOL     hw 4290   1.876   5.108   5.129  1.7236  1.3606 -0.4689
 1073SOL     hw 4291   1.938   4.974   5.162 -0.2213  0.3460 -0.7622
 1073SOL     vw 4292   1.937   5.061   5.170  0.4064  0.2780  0.2990
 1074SOL     ow 4293   4.523   5.509   1.376 -0.0756 -0.2916 -0.2532
 1074SOL     hw 4294   4.573   5.505   1.458 -0.5857  0.4225  0.1021
 1074SOL     hw 4295   4.567   5.577   1.325 -0.9635  0.7166  0.2740
 1074SOL     vw 4296   4.536   5.518   1.380 -0.2604 -0.0644 -0.1368
 1075SOL     ow 4297   0.125   2.976   3.369 -0.4132 -0.0253 -0.2787
 1075SOL     hw 4298   0.078   2.903   3.328  1.4192 -1.4897  0.0904
 1075SOL     hw 4299   0.146   2.945   3.457 -1.3995  1.8081  0.6642
 1075SOL     vw 4300   0.122   2.963   3.375 -0.3015  0.0234 -0.1055
 1076SOL     ow 4301   1.163   5.839   5.316  0.3021  0.5385 -0.1499
 1076SOL     hw 4302   1.090   5.899   5.325  2.2455  2.9696  0.6429
 1076SOL     hw 4303   1.147   5.792   5.234 -0.5604  3.3164 -1.6894
 1076SOL     vw 4304   1.151   5.841   5.306  0.4447  1.2257 -0.2484
 1077SOL     ow 4305   1.671   6.981   0.216  0.3545  0.4113 -0.0293
 1077SOL     hw 4306   1.766   6.980   0.224  0.4105 -1.5142 -0.4168
 1077SOL     hw 4307   1.646   6.889   0.205 -1.6926  0.7072  1.4789
 1077SOL     vw 4308   1.680   6.969   0.215  0.0919  0.1965  0.1186
 1078SOL     ow 4309   5.564   4.948   1.474 -0.1431 -1.0335  0.0740
 1078SOL     hw 4310   5.641   5.004   1.466 -0.1312 -0.9647  0.6503
 1078SOL     hw 4311   5.494   4.998   1.431  0.2054 -1.2548 -0.7653
 1078SOL     vw 4312   5.565   4.962   1.467 -0.0958 -1.0536  0.0393
 1079SOL     ow 4313   2.700   0.131   1.289  1.0689  0.2076  0.0830
 1079SOL     hw 4314   2.685   0.085   1.206  1.9211 -0.0085  0.0333
 1079SOL     hw 4315   2.700   0.224   1.265  1.2429  0.1495 -0.1482
 1079SOL     vw 4316   2.698   0.137   1.275  1.2043  0.1714  0.0459
 1080SOL     ow 4317   0.351   3.156   2.200 -0.2248  0.2187  0.3133
 1080SOL     hw 4318   0.421   3.183   2.142 -0.1069 -0.5360  0.0891
 1080SOL     hw 4319   0.316   3.237   2.236  0.4524  0.6235  0.0657
 1080SOL     vw 4320   0.356   3.170   2.197 -0.1199  0.1724  0.2509
 1081poe    c31 4321   1.420   2.806   3.270 -0.4326  0.0791  0.4512
 1081poe     o2 4322   1.353   2.930   3.273  0.7165  0.7226  0.1958
 1081poe    c23 4323   1.277   2.943   3.155  0.5284  0.4116  0.2834
 1081poe    c23 4324   1.184   3.065   3.146 -0.1562 -0.1517 -0.4942
 1081poe     o2 4325   1.249   3.166   3.220 -0.3573 -0.1683 -0.2924
 1081poe    c23 4326   1.169   3.244   3.306 -0.0789 -0.5081  0.2774
 1081poe    c23 4327   1.162   3.176   3.444  0.0092 -0.0853  0.4909
 1081poe     o2 4328   1.291   3.156   3.496 -0.1094  0.4234  1.0063
 1081poe    c23 4329   1.298   3.098   3.624 -0.5196 -0.3420  0.6933
 1081poe    c23 4330   1.448   3.065   3.634 -0.1877  0.8043 -0.2564
 1081poe     o2 4331   1.491   2.993   3.520 -0.4558  0.1773  0.0316
 1081poe    c31 4332   1.615   2.931   3.547 -0.9522 -0.5647  0.6552
 1082poe    c31 4333   0.799   2.184   2.742 -0.2590 -0.0506 -0.2255
 1082poe     o2 4334   0.744   2.074   2.812 -0.0303  0.1959  0.3498
 1082poe    c23 4335   0.698   2.110   2.940  0.5848 -0.0485  0.6432
 1082poe    c23 4336   0.662   1.984   3.021  0.7224 -0.3889  0.1773
 1082poe     o2 4337   0.588   1.906   2.930  0.0217  0.1375  0.2929
 1082poe    c23 4338   0.519   1.799   2.991  0.1213  0.2453  0.5982
 1082poe    c23 4339   0.408   1.755   2.894  0.7297  0.6507 -0.3010
 1082poe     o2 4340   0.454   1.705   2.771  0.2498  0.4091 -0.3856
 1082poe    c23 4341   0.355   1.655   2.684 -0.0809  0.1681  0.1248
 1082poe    c23 4342   0.413   1.589   2.558  0.4618 -0.2605  0.5990
 1082poe     o2 4343   0.498   1.662   2.472 -0.2511  0.0738  0.1775
 1082poe    c31 4344   0.454   1.673   2.338 -0.5330 -0.2416  0.2427
 1083poe    c31 4345   6.860   3.461   5.004 -0.1857 -0.1492 -0.0658
 1083poe     o2 4346   6.862   3.597   5.042  0.1163 -0.2241  0.1844
 1083poe    c23 4347   6.735   3.629   5.093  0.2536  0.1324  0.3066
 1083poe    c23 4348   6.736   3.774   5.144 -0.0157  0.3041 -0.1675
 1083poe     o2 4349   6.734   3.875   5.046  0.3549  0.0949 -0.3954
 1083poe    c23 4350   6.647   3.979   5.084  0.2987  0.0472 -0.3917
 1083poe    c23 4351   6.633   4.063   4.956 -0.1318  0.4158 -0.1096
 1083poe     o2 4352   6.765   4.081   4.908  0.1366 -0.7020  0.1863
 1083poe    c23 4353   6.787   4.145   4.784 -0.0465  0.1010  0.5667
 1083poe    c23 4354   6.929   4.137   4.724  0.0234  0.1941  0.7167
 1083poe     o2 4355   6.964   4.006   4.686 -0.1826  0.1119  0.8083
 1083poe    c31 4356   7.080   4.015   4.606 -0.5099 -0.1006  0.3017
 1084poe    c31 4357   6.094   6.069   2.221  0.1663  0.2247  0.0019
 1084poe     o2 4358   6.225   6.120   2.227  0.1621  0.2716 -0.2710
 1084poe    c23 4359   6.220   6.249   2.170  0.4972  0.3180 -0.1972
 1084poe    c23 4360   6.364   6.286   2.130  0.1985  0.6188 -0.9994
 1084poe     o2 4361   6.444   6.269   2.245 -0.0648  0.2874 -0.8628
 1084poe    c23 4362   6.578   6.280   2.205  0.0161  0.9616 -0.4285
 1084poe    c23 4363   6.674   6.262   2.324 -0.4519  0.7348 -0.0825
 1084poe     o2 4364   6.664   6.139   2.392  0.1305  0.8157  0.1624
 1084poe    c23 4365   6.766   6.139   2.489  0.5438 -0.3076 -0.2619
 1084poe    c23 4366   6.760   6.009   2.571 -0.2601  0.0632  0.2701
 1084poe     o2 4367   6.828   5.911   2.496  0.2445  0.2686  0.4524
 1084poe    c31 4368   6.816   5.781   2.550  0.6610 -0.1382 -0.4195
 1085poe    c31 4369   3.611   3.095   6.261  0.4640 -0.2863 -0.3666
 1085poe     o2 4370   3.688   2.979   6.239  0.5635 -0.2168 -0.3887
 1085poe    c23 4371   3.613   2.884   6.165 -0.0943  0.1800 -0.2343
 1085poe    c23 4372   3.687   2.758   6.117 -0.4896 -0.3000  0.4000
 1085poe     o2 4373   3.768   2.737   6.230 -0.3860 -0.6706  0.2565
 1085poe    c23 4374   3.866   2.638   6.209  0.1964 -0.1754  0.5930
 1085poe    c23 4375   3.892   2.574   6.346  0.2247 -0.4292  0.4704
 1085poe     o2 4376   3.957   2.666   6.431  0.1076  0.5176 -0.4551
 1085poe    c23 4377   3.992   2.631   6.563  0.2180  0.3854 -0.5202
 1085poe    c23 4378   4.075   2.740   6.633  0.0161 -0.2179  0.6742
 1085poe     o2 4379   3.980   2.828   6.690  0.2147  0.0515  0.5938
 1085poe    c31 4380   4.033   2.937   6.761  0.3770  0.3830 -0.0315
 1086poe    c31 4381   5.461   7.012   6.704  0.0940  0.1010 -0.4199
 1086poe     o2 4382   5.498   7.013   6.840  0.0610  0.0257 -0.4101
 1086poe    c23 4383   5.471   6.887   6.895 -0.4605  0.0153 -0.6803
 1086poe    c23 4384   5.491   6.904   7.047  0.1900  0.2817 -0.7948
 1086poe     o2 4385   5.601   6.992   7.058  0.3975 -0.0638 -0.0231
 1086poe    c23 4386   5.632   7.010   7.194  0.5083 -0.1543 -0.0366
 1086poe    c23 4387   5.756   7.102   7.195 -0.1834  0.7823  0.5325
 1086poe     o2 4388   5.745   7.222   7.122  0.5439  0.3678 -0.2682
 1086poe    c23 4389   5.856   7.309   7.116  0.6417  0.2408 -0.3072
 1086poe    c23 4390   5.801   7.419   7.024 -0.9345 -0.2939 -0.0307
 1086poe     o2 4391   5.675   7.470   7.063 -0.4594  0.5135  0.4841
 1086poe    c31 4392   5.660   7.598   7.007 -0.5440  0.2185 -0.1747
 1087poe    c31 4393   4.146   4.921   0.444 -0.7159  0.1306 -0.7635
 1087poe     o2 4394   4.195   4.945   0.314  0.2045  0.0798 -0.4326
 1087poe    c23 4395   4.167   5.069   0.252  0.4720  0.4217  0.1250
 1087poe    c23 4396   4.124   5.049   0.106 -0.3584  0.2676  0.3881
 1087poe     o2 4397   4.009   4.968   0.115  0.2689 -0.7279 -0.3160
 1087poe    c23 4398   3.975   4.894  -0.000 -0.8203 -0.0202 -0.4627
 1087poe    c23 4399   3.894   4.971  -0.107 -0.1496  0.7399 -0.4356
 1087poe     o2 4400   3.806   4.895  -0.187 -0.1755  0.0799  0.2032
 1087poe    c23 4401   3.732   4.993  -0.256 -0.1773 -0.1371 -0.1035
 1087poe    c23 4402   3.616   4.923  -0.329 -0.4551  0.4383 -0.2245
 1087poe     o2 4403   3.652   4.803  -0.394  0.0854  0.6081 -0.2506
 1087poe    c31 4404   3.528   4.736  -0.384  0.4519 -0.0783 -0.2644
 1088poe    c31 4405   0.536   5.223   3.543  0.3300 -0.8237  0.0276
 1088poe     o2 4406   0.530   5.228   3.403  0.0657  0.1638  0.0657
 1088poe    c23 4407   0.654   5.233   3.336  0.4241  1.3372  0.7919
 1088poe    c23 4408   0.622   5.252   3.187  0.4158 -0.7621  0.5003
 1088poe     o2 4409   0.530   5.150   3.153  0.0545 -0.2756 -0.0062
 1088poe    c23 4410   0.513   5.154   3.013 -0.8093 -0.3255  0.0926
 1088poe    c23 4411   0.416   5.036   2.996 -0.7133 -0.3338 -0.3917
 1088poe     o2 4412   0.332   5.020   3.108 -0.5608 -0.3287 -0.2765
 1088poe    c23 4413   0.205   4.976   3.063 -0.4571 -1.0477  0.1154
 1088poe    c23 4414   0.111   5.088   3.015  0.4649 -0.3014  0.0101
 1088poe     o2 4415   0.156   5.176   2.914  0.1418 -0.2343 -0.0789
 1088poe    c31 4416   0.044   5.244   2.864  0.0546 -0.6484 -0.4532
 1089poe    c31 4417   0.628   0.039   5.051  0.0302 -0.4798 -0.2996
 1089poe     o2 4418   0.755   0.090   5.017 -0.0698  0.1511  0.2520
 1089poe    c23 4419   0.771   0.054   4.882 -0.1682 -0.1325  0.3138
 1089poe    c23 4420   0.916   0.096   4.855 -0.1181 -0.2977  0.3257
 1089poe     o2 4421   0.920   0.235   4.880 -0.1386 -0.2796  0.2281
 1089poe    c23 4422   1.054   0.280   4.876 -0.1637 -0.2235 -0.0268
 1089poe    c23 4423   1.044   0.424   4.929 -0.6804 -0.2052 -0.1758
 1089poe     o2 4424   0.956   0.434   5.039 -0.5294  0.1731 -0.0881
 1089poe    c23 4425   0.913   0.567   5.057  0.5534  0.5206  0.0215
 1089poe    c23 4426   0.822   0.591   5.179 -0.7604  0.7483 -0.9864
 1089poe     o2 4427   0.698   0.531   5.147 -0.5394 -0.2393 -0.0479
 1089poe    c31 4428   0.634   0.504   5.270  0.5191 -1.1124  0.3247
 1090poe    c31 4429   0.094   0.891   1.344  0.2400  0.0373  0.2788
 1090poe     o2 4430   0.162   0.881   1.221  0.0738  0.4724  0.1488
 1090poe    c23 4431   0.302   0.868   1.235  0.0095 -0.2842  0.1463
 1090poe    c23 4432   0.363   0.729   1.209  0.4320 -0.1463  0.4060
 1090poe     o2 4433   0.360   0.694   1.073  0.3482  0.1944  0.3193
 1090poe    c23 4434   0.397   0.559   1.054 -0.0693  0.1607 -0.2669
 1090poe    c23 4435   0.287   0.452   1.063  0.3981 -0.2449  0.7439
 1090poe     o2 4436   0.180   0.470   0.972  0.5341 -0.3984  0.5509
 1090poe    c23 4437   0.092   0.360   0.967  0.0216  0.0083  0.5108
 1090poe    c23 4438   0.009   0.387   0.840  0.3202  0.4336  0.4054
 1090poe     o2 4439  -0.038   0.520   0.837 -0.0967  0.2789  0.0729
 1090poe    c31 4440  -0.147   0.522   0.748  0.1819 -0.2022 -0.2841
 1091poe    c31 4441   0.216   0.499   6.235 -0.1360  0.0528 -0.1075
 1091poe     o2 4442   0.170   0.618   6.296  0.4195  0.1423  0.1409
 1091poe    c23 4443   0.249   0.733   6.276  0.0855  0.3072 -0.2313
 1091poe    c23 4444   0.240   0.823   6.400  0.2515  0.3136 -0.2237
 1091poe     o2 4445   0.107   0.851   6.440  0.3556  0.0643  0.3082
 1091poe    c23 4446   0.099   0.901   6.572  0.0380  0.5039  0.1258
 1091poe    c23 4447  -0.034   0.848   6.629 -0.0550  1.0478  0.4160
 1091poe     o2 4448  -0.129   0.899   6.538  0.0388  0.0119 -0.2746
 1091poe    c23 4449  -0.257   0.907   6.595  0.0403  0.0160 -0.2723
 1091poe    c23 4450  -0.355   0.942   6.481 -0.0768 -0.2499 -0.2536
 1091poe     o2 4451  -0.330   0.849   6.378  0.1009  0.1203 -0.5455
 1091poe    c31 4452  -0.423   0.885   6.278  0.2506  1.0864 -0.3404
 1092poe    c31 4453   6.350   2.232   4.319 -0.0297  0.0325  0.3266
 1092poe     o2 4454   6.359   2.293   4.446  0.2821 -0.1944  0.4154
 1092poe    c23 4455   6.493   2.303   4.491  0.3137  0.3574  0.2061
 1092poe    c23 4456   6.503   2.392   4.616  0.5627  0.3477  0.1919
 1092poe     o2 4457   6.399   2.345   4.698  0.1307  0.5417 -0.2393
 1092poe    c23 4458   6.397   2.412   4.822 -0.2039  0.3632 -0.1460
 1092poe    c23 4459   6.257   2.388   4.883 -0.2830  0.5398 -0.2563
 1092poe     o2 4460   6.165   2.409   4.778 -0.5531  0.2939 -0.0714
 1092poe    c23 4461   6.043   2.457   4.830 -0.5673  0.2313 -0.0472
 1092poe    c23 4462   5.946   2.484   4.714 -0.6212 -0.0470 -0.0687
 1092poe     o2 4463   5.898   2.371   4.645  0.2763 -0.2017 -0.4486
 1092poe    c31 4464   5.778   2.319   4.697  0.1864 -0.0311 -0.4848
 1093poe    c31 4465   6.138   0.162   5.750 -0.9443  0.2429  0.0825
 1093poe     o2 4466   6.149   0.256   5.645 -0.2729  0.3047  0.1998
 1093poe    c23 4467   6.277   0.242   5.589 -0.1191  0.0510  0.6075
 1093poe    c23 4468   6.295   0.331   5.465 -0.3784  0.0047  0.5364
 1093poe     o2 4469   6.200   0.342   5.361  0.1288  0.6373  0.1329
 1093poe    c23 4470   6.262   0.395   5.246  0.4771  0.1733  0.1061
 1093poe    c23 4471   6.170   0.368   5.126 -0.0152 -0.1070  0.5432
 1093poe     o2 4472   6.039   0.344   5.174 -0.5317  0.3607 -0.5814
 1093poe    c23 4473   5.941   0.312   5.079 -0.6508 -0.6466 -0.1341
 1093poe    c23 4474   5.902   0.164   5.066 -0.0306 -0.7902 -0.3858
 1093poe     o2 4475   5.830   0.101   5.170  0.2185 -0.2213  0.1402
 1093poe    c31 4476   5.768  -0.018   5.127 -0.0343 -0.0450  0.0083
 1094poe    c31 4477   6.853   6.056   6.408  0.7048 -0.2019  0.4911
 1094poe     o2 4478   6.745   5.966   6.420  0.1260  0.4305  0.0827
 1094poe    c23 4479   6.628   6.034   6.382 -0.2113  0.0846  0.4907
 1094poe    c23 4480   6.514   5.959   6.453  0.0465 -0.1510  0.6564
 1094poe     o2 4481   6.537   5.830   6.402  0.1103 -0.0162  0.3442
 1094poe    c23 4482   6.458   5.734   6.468 -0.5942  0.2527 -0.0927
 1094poe    c23 4483   6.491   5.602   6.396  0.3833  0.2569  0.3367
 1094poe     o2 4484   6.627   5.596   6.361  0.3277  0.1318  0.1409
 1094poe    c23 4485   6.644   5.474   6.293  0.2152  0.4340 -0.4354
 1094poe    c23 4486   6.792   5.430   6.297 -0.0188 -0.3485 -0.1753
 1094poe     o2 4487   6.870   5.526   6.229 -0.1969  0.3622  0.6026
 1094poe    c31 4488   6.999   5.470   6.219 -0.1618  0.6093 -0.5150
 1095poe    c31 4489   3.693   0.099   3.482  0.4478 -0.1275 -0.7638
 1095poe     o2 4490   3.736   0.055   3.355  0.1040 -0.0810 -0.8980
 1095poe    c23 4491   3.656   0.098   3.247  0.1041  1.5256 -0.2911
 1095poe    c23 4492   3.756   0.120   3.132  0.1359 -0.3931 -0.6740
 1095poe     o2 4493   3.837   0.005   3.125  0.4300 -0.2606  0.4281
 1095poe    c23 4494   3.951   0.024   3.044  0.1206  0.1986  0.0992
 1095poe    c23 4495   4.063  -0.061   3.107 -0.2101 -0.0820  0.3122
 1095poe     o2 4496   4.050  -0.056   3.247 -0.0036  0.2693  0.3204
 1095poe    c23 4497   4.112  -0.170   3.303  0.0318 -0.0494 -0.3563
 1095poe    c23 4498   4.070  -0.158   3.451 -0.3604 -0.1066 -0.4609
 1095poe     o2 4499   3.929  -0.151   3.448 -0.3239  0.7622 -0.3865
 1095poe    c31 4500   3.888  -0.202   3.573 -0.2201 -0.7310 -0.9352
 1096poe    c31 4501   5.342   0.866   5.088  0.1282  0.0329 -1.0346
 1096poe     o2 4502   5.210   0.909   5.065 -0.1394  0.0649  0.4626
 1096poe    c23 4503   5.144   0.970   5.174 -0.4743 -0.3864  0.5149
 1096poe    c23 4504   4.994   0.937   5.190 -0.3177 -0.8775  1.0103
 1096poe     o2 4505   4.922   0.932   5.069  0.0018 -0.6204  0.8076
 1096poe    c23 4506   4.784   0.912   5.092 -0.1620 -0.0735  0.3405
 1096poe    c23 4507   4.725   0.830   4.976 -0.2054 -0.1675  0.4286
 1096poe     o2 4508   4.814   0.859   4.870 -0.3337  0.1422  0.4033
 1096poe    c23 4509   4.780   0.784   4.756  0.2734  0.5185 -0.0290
 1096poe    c23 4510   4.791   0.858   4.621 -0.8198  0.2414 -0.2825
 1096poe     o2 4511   4.922   0.910   4.626 -0.4941 -0.5731 -0.0912
 1096poe    c31 4512   4.952   0.948   4.493  0.3482  0.0285  0.2577
 1097poe    c31 4513   3.304   6.459   1.399  0.3016  0.2840 -0.7916
 1097poe     o2 4514   3.324   6.442   1.537  0.1144  0.2503 -0.7696
 1097poe    c23 4515   3.213   6.467   1.622  0.2366 -0.5017 -0.3809
 1097poe    c23 4516   3.240   6.471   1.773  0.3141  0.4410 -0.4185
 1097poe     o2 4517   3.319   6.357   1.797 -0.1023  0.2757  0.2024
 1097poe    c23 4518   3.307   6.318   1.932  0.3871  0.3179  0.2609
 1097poe    c23 4519   3.438   6.249   1.973  0.6525  0.7431  0.1325
 1097poe     o2 4520   3.454   6.142   1.883 -0.4400  0.3619  0.3779
 1097poe    c23 4521   3.540   6.035   1.916  0.1698  0.7011 -0.1088
 1097poe    c23 4522   3.692   6.057   1.924  0.2301  0.2544 -0.0045
 1097poe     o2 4523   3.743   6.142   2.025 -0.1666  0.2695  0.1823
 1097poe    c31 4524   3.873   6.189   1.999 -0.2574  0.5022  0.1488
 1098poe    c31 4525   4.879   4.379   4.207  0.0901 -0.4111  0.1962
 1098poe     o2 4526   4.976   4.317   4.127 -0.1149  0.1136 -0.4632
 1098poe    c23 4527   5.102   4.342   4.186 -0.2533 -0.1452 -0.0577
 1098poe    c23 4528   5.188   4.217   4.163  0.0700  0.0537  0.0586
 1098poe     o2 4529   5.176   4.107   4.251  0.8910  0.2139  0.3775
 1098poe    c23 4530   5.214   4.128   4.385 -0.0393 -0.8823  0.8245
 1098poe    c23 4531   5.361   4.166   4.413 -0.2177  0.0870  0.4898
 1098poe     o2 4532   5.404   4.293   4.372  0.0583 -0.1681 -0.0249
 1098poe    c23 4533   5.545   4.289   4.370  0.0520 -0.3138 -0.1292
 1098poe    c23 4534   5.623   4.408   4.313  0.5172 -0.7703 -0.4549
 1098poe     o2 4535   5.599   4.461   4.185 -0.1074  0.1418  0.0315
 1098poe    c31 4536   5.486   4.545   4.193 -0.5890 -0.5552  0.7146
 1099poe    c31 4537   0.374   4.346   5.595 -0.3370 -0.5410 -0.4209
 1099poe     o2 4538   0.472   4.272   5.665 -0.2822  0.1028  0.1943
 1099poe    c23 4539   0.421   4.143   5.693 -0.2207  0.0775  0.1903
 1099poe    c23 4540   0.541   4.050   5.716 -0.2479  0.0010  0.0190
 1099poe     o2 4541   0.624   4.123   5.804  0.2927  0.0547 -0.5289
 1099poe    c23 4542   0.750   4.062   5.819  0.2276  0.0565  0.0222
 1099poe    c23 4543   0.821   4.144   5.928 -0.0533 -0.1608  0.3721
 1099poe     o2 4544   0.790   4.275   5.887 -0.2276 -0.2308  0.2807
 1099poe    c23 4545   0.866   4.371   5.958 -0.2381  0.2824 -0.3869
 1099poe    c23 4546   1.013   4.394   5.918 -0.1112 -0.4299 -0.3426
 1099poe     o2 4547   1.032   4.398   5.779  0.1048 -0.2413 -0.3083
 1099poe    c31 4548   1.169   4.380   5.750  0.1212 -0.2775 -0.2090
 1100poe    c31 4549   5.384   0.993   4.619  0.4017 -0.4597 -0.0727
 1100poe     o2 4550   5.521   0.979   4.589  0.4766 -0.0692  0.0931
 1100poe    c23 4551   5.536   0.920   4.462 -0.0882 -0.5540  0.2480
 1100poe    c23 4552   5.688   0.934   4.444 -0.2107  0.2612 -0.1900
 1100poe     o2 4553   5.736   1.066   4.458  0.1000  0.1366 -0.0602
 1100poe    c23 4554   5.864   1.088   4.405  0.1460 -0.2480 -0.1045
 1100poe    c23 4555   5.907   1.229   4.449 -0.3144 -0.1610  0.0663
 1100poe     o2 4556   5.888   1.232   4.589  0.2652  0.3747  0.1334
 1100poe    c23 4557   6.014   1.247   4.650  0.2109  0.6446  0.1791
 1100poe    c23 4558   6.016   1.180   4.789 -0.0777  0.2436 -0.0093
 1100poe     o2 4559   5.912   1.238   4.864 -0.0071  0.1811  0.1363
 1100poe    c31 4560   5.944   1.272   4.997 -0.2617  0.3720  0.1493
 1101poe    c31 4561   5.683   5.250   1.570 -0.3010 -0.3243  0.5570
 1101poe     o2 4562   5.729   5.117   1.568  0.3614 -0.0898 -0.8245
 1101poe    c23 4563   5.731   5.076   1.703  0.4819  0.9955 -0.4840
 1101poe    c23 4564   5.827   4.956   1.716 -0.3123  0.4199  0.1782
 1101poe     o2 4565   5.782   4.843   1.644 -0.1268 -0.0899  0.8512
 1101poe    c23 4566   5.841   4.728   1.700 -0.6717 -0.5172  0.5615
 1101poe    c23 4567   5.816   4.608   1.607  0.3199  0.0185 -0.4182
 1101poe     o2 4568   5.677   4.614   1.585  0.2620  0.3145  0.0327
 1101poe    c23 4569   5.618   4.501   1.526  0.3496  0.5193 -0.4497
 1101poe    c23 4570   5.526   4.513   1.402 -0.1318 -0.3390 -0.1825
 1101poe     o2 4571   5.420   4.594   1.449  0.3071  0.0177  0.2027
 1101poe    c31 4572   5.326   4.624   1.349  0.5130 -0.8127 -0.2440
 1102poe    c31 4573   4.324   7.036   6.271 -0.5388  0.7653 -0.1765
 1102poe     o2 4574   4.357   7.143   6.356  0.2464 -0.0685  0.5974
 1102poe    c23 4575   4.482   7.197   6.318  0.3361 -0.1911  0.7156
 1102poe    c23 4576   4.507   7.343   6.362 -0.6678  0.1578  0.1688
 1102poe     o2 4577   4.531   7.370   6.498 -0.2302  0.3579  0.0541
 1102poe    c23 4578   4.538   7.509   6.523 -1.1938  0.3340  0.4892
 1102poe    c23 4579   4.528   7.535   6.674  0.2561  0.3254  0.5974
 1102poe     o2 4580   4.413   7.472   6.728  0.2524 -0.4025 -0.2341
 1102poe    c23 4581   4.416   7.475   6.869  0.1702  0.0581 -0.2416
 1102poe    c23 4582   4.286   7.419   6.930  0.5668 -0.6054  0.0058
 1102poe     o2 4583   4.255   7.314   6.841 -0.2356 -0.5038  0.1614
 1102poe    c31 4584   4.125   7.271   6.874 -0.4971 -0.0291 -0.2245
 1103poe    c31 4585   1.339   1.498   0.801  0.1568  0.1524 -0.1158
 1103poe     o2 4586   1.257   1.401   0.863 -0.0552  0.6465  0.3868
 1103poe    c23 4587   1.194   1.441   0.983 -0.5444  0.8590  0.0645
 1103poe    c23 4588   1.115   1.330   1.053  0.3921  0.1178 -0.0229
 1103poe     o2 4589   1.026   1.272   0.959  0.5658 -0.2202  0.0181
 1103poe    c23 4590   0.960   1.150   0.980 -0.5599  0.4041  0.1654
 1103poe    c23 4591   1.052   1.027   0.976 -0.1001  0.7339  0.5550
 1103poe     o2 4592   1.142   1.056   0.871 -0.1289 -0.8140  0.0786
 1103poe    c23 4593   1.252   0.970   0.857  0.2397 -0.3487  0.0985
 1103poe    c23 4594   1.327   1.017   0.731  0.8852 -0.5052  0.4193
 1103poe     o2 4595   1.338   1.157   0.739 -0.0619 -0.3830 -0.2930
 1103poe    c31 4596   1.441   1.176   0.646  0.1598 -0.3967 -0.0513
 1104poe    c31 4597   3.568   3.693   4.232 -0.1056 -0.2446  0.4226
 1104poe     o2 4598   3.531   3.829   4.234  0.1940 -0.1713  0.9781
 1104poe    c23 4599   3.648   3.906   4.250  0.0485  0.2939 -0.1216
 1104poe    c23 4600   3.612   4.033   4.329 -0.3303 -0.0023  0.1870
 1104poe     o2 4601   3.508   4.100   4.262 -0.0846 -0.0310 -0.2302
 1104poe    c23 4602   3.463   4.221   4.320  0.1046  0.0564 -0.2669
 1104poe    c23 4603   3.351   4.282   4.235  0.2176  0.5163 -0.0894
 1104poe     o2 4604   3.261   4.192   4.174  0.5414  0.0372  0.1315
 1104poe    c23 4605   3.146   4.264   4.134  1.0592  0.7224 -0.1416
 1104poe    c23 4606   3.111   4.259   3.984  1.3070 -0.1291 -0.1757
 1104poe     o2 4607   3.086   4.136   3.920 -0.3779 -0.0995  0.3705
 1104poe    c31 4608   3.013   4.151   3.801  0.2184 -0.2235 -0.0117
 1105poe    c31 4609   3.511   6.697   4.408  0.1172 -0.3578 -0.2446
 1105poe     o2 4610   3.562   6.605   4.502 -0.1792  0.4102  0.6871
 1105poe    c23 4611   3.680   6.657   4.559  0.1052  0.1711  0.3129
 1105poe    c23 4612   3.697   6.576   4.689  0.3914  0.0240  0.1870
 1105poe     o2 4613   3.686   6.439   4.660 -0.2529  0.1105 -0.0107
 1105poe    c23 4614   3.651   6.362   4.773  0.3733  0.0380  0.1397
 1105poe    c23 4615   3.564   6.254   4.706  0.4446 -0.3774  0.7062
 1105poe     o2 4616   3.470   6.319   4.623 -0.2135 -0.8683  1.0613
 1105poe    c23 4617   3.387   6.229   4.553 -0.2600 -0.1183  0.1404
 1105poe    c23 4618   3.312   6.325   4.458  0.0205 -0.1089 -0.0728
 1105poe     o2 4619   3.407   6.405   4.391  0.2849 -0.4939 -0.1605
 1105poe    c31 4620   3.387   6.418   4.252 -0.7618  0.5843  0.0741
 1106poe    c31 4621   3.867   3.576   4.860 -0.1461  0.3381 -0.4558
 1106poe     o2 4622   3.902   3.440   4.872 -0.3048  0.3415  0.0781
 1106poe    c23 4623   3.928   3.401   4.739 -0.1717  0.0479  0.1895
 1106poe    c23 4624   3.958   3.250   4.752  0.1654  0.1890  1.0893
 1106poe     o2 4625   3.863   3.182   4.831 -0.4643 -0.3006 -0.0642
 1106poe    c23 4626   3.861   3.044   4.802 -0.0925 -0.2655 -0.2722
 1106poe    c23 4627   3.722   2.981   4.826 -0.6750  0.9271 -0.4089
 1106poe     o2 4628   3.664   3.033   4.943  0.5347  0.2394  0.5231
 1106poe    c23 4629   3.543   2.972   4.980  0.6377 -0.0987  0.3026
 1106poe    c23 4630   3.461   3.061   5.075  0.0147 -0.3231 -0.0121
 1106poe     o2 4631   3.533   3.085   5.194  0.4526 -0.2410 -0.2887
 1106poe    c31 4632   3.452   3.164   5.279  0.5832 -0.7274  0.2957
 1107poe    c31 4633   2.459   0.733   0.771  0.1542 -0.7268  0.9837
 1107poe     o2 4634   2.522   0.725   0.645 -0.2294 -0.0644  0.7455
 1107poe    c23 4635   2.522   0.589   0.608  0.0626  0.1524 -0.0654
 1107poe    c23 4636   2.616   0.587   0.485  0.0927  0.1000 -0.0414
 1107poe     o2 4637   2.552   0.622   0.364 -0.0467  0.3788  0.1123
 1107poe    c23 4638   2.531   0.760   0.341  0.8501  0.5065  0.0032
 1107poe    c23 4639   2.450   0.786   0.212 -0.5539  0.0433  0.7714
 1107poe     o2 4640   2.343   0.697   0.190 -0.6893  0.2097  0.7572
 1107poe    c23 4641   2.292   0.694   0.058  0.4298 -0.1414  0.3184
 1107poe    c23 4642   2.150   0.637   0.040  0.2190  0.5032 -0.0776
 1107poe     o2 4643   2.138   0.513   0.106 -0.2961  0.2315 -0.6674
 1107poe    c31 4644   2.015   0.457   0.066 -0.0068 -0.6065 -0.4037
 1108poe    c31 4645   2.146   6.832   6.659 -0.1650 -0.4696 -0.3275
 1108poe     o2 4646   2.115   6.961   6.611  0.3116 -0.1902  0.1068
 1108poe    c23 4647   1.999   6.967   6.532  0.2002  0.4450  0.3073
 1108poe    c23 4648   1.954   7.114   6.517 -0.3077  0.2128 -0.5845
 1108poe     o2 4649   2.067   7.196   6.501  0.0875 -0.2845 -0.3980
 1108poe    c23 4650   2.054   7.270   6.381 -0.4679  0.7771  0.3014
 1108poe    c23 4651   2.155   7.386   6.382  0.0743  0.3137 -0.0712
 1108poe     o2 4652   2.286   7.335   6.365  0.0205  0.1739 -0.0585
 1108poe    c23 4653   2.380   7.416   6.300  0.5240 -0.4414 -0.1027
 1108poe    c23 4654   2.506   7.339   6.255  0.1877 -0.6736 -0.6557
 1108poe     o2 4655   2.510   7.264   6.135 -0.2820 -1.1108 -0.4022
 1108poe    c31 4656   2.510   7.345   6.019  0.8496 -0.0917  0.2766
 1109poe    c31 4657   2.482   2.149   5.497  0.0261 -0.4444  0.2034
 1109poe     o2 4658   2.453   2.167   5.361 -0.4056 -0.1659  0.3334
 1109poe    c23 4659   2.424   2.050   5.288 -0.3623  0.2125 -0.3025
 1109poe    c23 4660   2.393   2.063   5.138  0.6575  0.1349 -0.5235
 1109poe     o2 4661   2.289   2.157   5.129  0.0853 -0.3982  0.3898
 1109poe    c23 4662   2.201   2.129   5.022  0.5121 -0.2932  0.0098
 1109poe    c23 4663   2.075   2.216   5.033  0.5137 -0.2717 -0.1423
 1109poe     o2 4664   2.111   2.349   5.063 -0.3168  0.0009 -0.3131
 1109poe    c23 4665   2.013   2.442   5.023 -0.3829 -0.0971 -0.3819
 1109poe    c23 4666   2.060   2.577   5.081  0.2156 -0.4932  0.0712
 1109poe     o2 4667   2.119   2.549   5.206 -0.2232 -0.2855  0.3277
 1109poe    c31 4668   2.150   2.667   5.278 -0.0137 -0.1919  0.0838
 1110poe    c31 4669   3.533   2.929   5.691 -0.5052  0.0419 -0.0702
 1110poe     o2 4670   3.531   2.855   5.571  0.3839 -0.4948  0.2353
 1110poe    c23 4671   3.407   2.790   5.549  0.1205  0.2042 -0.4037
 1110poe    c23 4672   3.432   2.720   5.414 -0.4949 -0.1705 -0.3249
 1110poe     o2 4673   3.560   2.660   5.426 -0.7072 -0.5987 -0.1781
 1110poe    c23 4674   3.587   2.572   5.319  0.4405  0.0128 -0.4009
 1110poe    c23 4675   3.740   2.554   5.327  0.4551  0.2204 -0.1881
 1110poe     o2 4676   3.804   2.679   5.339  0.6085  0.1315 -0.0758
 1110poe    c23 4677   3.943   2.659   5.326  0.5318 -0.2194 -0.3707
 1110poe    c23 4678   4.026   2.780   5.371  0.3867 -0.1204 -0.3713
 1110poe     o2 4679   4.021   2.819   5.507  0.0263 -0.4904 -0.2765
 1110poe    c31 4680   4.050   2.956   5.515  0.4161 -0.5895  0.0403
 1111poe    c31 4681   2.366   3.230   2.430  0.5956  0.5050  0.5355
 1111poe     o2 4682   2.366   3.363   2.381 -0.3919  0.2352 -0.2317
 1111poe    c23 4683   2.421   3.444   2.483 -0.0113 -0.1840 -0.0977
 1111poe    c23 4684   2.373   3.586   2.448 -0.3654 -0.3458 -0.2878
 1111poe     o2 4685   2.235   3.612   2.441 -0.2183  0.6049  0.1344
 1111poe    c23 4686   2.215   3.752   2.438 -0.2385  0.5854 -0.9605
 1111poe    c23 4687   2.066   3.776   2.466  0.0362  0.4232  0.8079
 1111poe     o2 4688   2.006   3.671   2.393  0.1919  0.2999  0.8595
 1111poe    c23 4689   1.887   3.727   2.343  0.5700  0.2494 -0.1213
 1111poe    c23 4690   1.828   3.663   2.216  0.2815 -0.1607  0.2130
 1111poe     o2 4691   1.906   3.673   2.099 -0.4664  0.4359 -0.2471
 1111poe    c31 4692   1.943   3.799   2.049 -0.0591  0.3662 -0.1251
 1112poe    c31 4693   6.474   1.038   5.502  0.3796 -0.5885 -1.0604
 1112poe     o2 4694   6.577   1.048   5.598 -0.4980  0.0535 -0.1650
 1112poe    c23 4695   6.528   1.065   5.729  0.3185 -0.3847  0.2004
 1112poe    c23 4696   6.641   1.084   5.832  0.3974  0.2065  0.0094
 1112poe     o2 4697   6.736   0.980   5.822  0.3073  0.1259 -0.0062
 1112poe    c23 4698   6.766   0.939   5.954 -0.2004  0.2543  0.1529
 1112poe    c23 4699   6.810   0.791   5.949 -0.4425  0.1854  0.0708
 1112poe     o2 4700   6.910   0.796   5.849 -0.1272  0.3941  0.3967
 1112poe    c23 4701   6.964   0.668   5.824  0.0778  0.5041  0.2824
 1112poe    c23 4702   7.076   0.702   5.724  0.0535  0.2090  0.1558
 1112poe     o2 4703   7.024   0.763   5.608 -0.0265 -0.3748 -0.1219
 1112poe    c31 4704   7.122   0.786   5.510  0.1777  0.1102  0.1916
 1113poe    c31 4705   5.713   4.041   1.955  0.2702 -0.2077 -0.0092
 1113poe     o2 4706   5.661   3.981   2.071 -0.2828 -0.2639 -0.2844
 1113poe    c23 4707   5.524   4.004   2.095 -0.2726  0.0949 -0.5598
 1113poe    c23 4708   5.469   3.911   2.206  0.8689 -0.0059 -0.0627
 1113poe     o2 4709   5.523   3.920   2.335  0.2208  0.1198  0.2046
 1113poe    c23 4710   5.418   3.867   2.413  0.1471  0.0084  0.0285
 1113poe    c23 4711   5.450   3.875   2.563  0.3727 -0.0065 -0.0176
 1113poe     o2 4712   5.589   3.889   2.573  0.4401 -0.4305 -0.3238
 1113poe    c23 4713   5.642   3.890   2.704 -0.2865  0.0033 -0.0310
 1113poe    c23 4714   5.794   3.910   2.691 -0.2879  0.4622  0.5802
 1113poe     o2 4715   5.822   3.998   2.584 -0.2722 -0.1172  0.1007
 1113poe    c31 4716   5.945   4.063   2.606 -0.3646  0.1490 -0.1596
 1114poe    c31 4717   4.604   0.971   2.120 -0.1922  0.3373  0.2307
 1114poe     o2 4718   4.706   0.968   2.022 -0.3522  1.3223  0.0165
 1114poe    c23 4719   4.833   0.976   2.082 -0.2583 -0.5475  0.1431
 1114poe    c23 4720   4.934   0.893   2.000  0.0713 -0.2613  0.2543
 1114poe     o2 4721   4.981   0.952   1.881 -0.1667  0.0524  0.3143
 1114poe    c23 4722   5.068   1.062   1.902 -0.1653  0.0894  0.1149
 1114poe    c23 4723   5.130   1.115   1.772 -0.0360 -0.3266  0.0049
 1114poe     o2 4724   5.022   1.125   1.682 -0.0148  0.1660  0.0285
 1114poe    c23 4725   5.074   1.156   1.555 -0.1753  0.1232 -0.0477
 1114poe    c23 4726   4.968   1.188   1.447 -0.1560  0.3560  0.0020
 1114poe     o2 4727   4.904   1.067   1.414 -0.1023  0.2773  0.1862
 1114poe    c31 4728   4.814   1.091   1.308 -0.0949  0.4985  0.2298
 1115poe    c31 4729   4.656   1.664   6.692  0.1964 -0.5369  0.6285
 1115poe     o2 4730   4.785   1.716   6.718  0.2365 -0.1958 -0.2384
 1115poe    c23 4731   4.813   1.750   6.851 -0.1958 -0.0977 -0.1694
 1115poe    c23 4732   4.816   1.901   6.880 -0.7461  0.0149 -0.6809
 1115poe     o2 4733   4.934   1.977   6.863 -0.3425 -0.3824  0.2493
 1115poe    c23 4734   4.902   2.114   6.858 -0.0410 -0.2953  0.6967
 1115poe    c23 4735   4.996   2.197   6.948  0.2543 -0.1582  0.2625
 1115poe     o2 4736   5.132   2.216   6.915  0.3771  0.0552  0.8820
 1115poe    c23 4737   5.136   2.338   6.846 -0.1158 -0.7702 -0.6518
 1115poe    c23 4738   5.278   2.370   6.795 -0.0167  0.0835  0.1289
 1115poe     o2 4739   5.328   2.273   6.705  0.2261  0.0123  0.3384
 1115poe    c31 4740   5.405   2.337   6.606 -0.0544 -0.0360  0.0878
 1116poe    c31 4741   6.862   2.299   5.133  0.6269 -0.5897  0.2312
 1116poe     o2 4742   6.946   2.197   5.082 -0.0416 -0.9405 -0.1787
 1116poe    c23 4743   6.927   2.088   5.169  0.1999 -0.8959 -0.0714
 1116poe    c23 4744   7.060   2.010   5.172  0.4865 -0.4150 -0.0536
 1116poe     o2 4745   7.091   1.960   5.044 -0.6590 -0.0897 -0.4731
 1116poe    c23 4746   7.224   1.915   5.028 -0.3872  0.2393  0.7633
 1116poe    c23 4747   7.255   1.892   4.879 -1.2141 -0.6172  0.7201
 1116poe     o2 4748   7.241   2.003   4.794  0.7197 -0.3767  0.6896
 1116poe    c23 4749   7.322   2.002   4.679 -0.1765  0.3073  0.0389
 1116poe    c23 4750   7.299   2.125   4.589  0.5754  0.5580  0.1765
 1116poe     o2 4751   7.163   2.156   4.611  0.4602 -0.0182  0.2937
 1116poe    c31 4752   7.103   2.215   4.498  0.1576 -0.5659  0.1649
 1117poe    c31 4753   1.377   1.340   4.588  0.8055 -0.3130  0.9070
 1117poe     o2 4754   1.400   1.477   4.611 -0.2326  0.1394 -0.6068
 1117poe    c23 4755   1.299   1.562   4.561 -0.5430 -0.0298 -0.2626
 1117poe    c23 4756   1.315   1.703   4.622 -0.0387 -0.3494  0.3558
 1117poe     o2 4757   1.360   1.677   4.753  0.1519 -0.8422  0.1983
 1117poe    c23 4758   1.345   1.797   4.825 -0.1429 -0.3831 -0.6202
 1117poe    c23 4759   1.432   1.816   4.950 -0.1379 -0.2792 -0.6388
 1117poe     o2 4760   1.566   1.828   4.909 -0.0258  0.3269 -0.1038
 1117poe    c23 4761   1.639   1.897   5.008 -0.3264  0.5231 -0.0198
 1117poe    c23 4762   1.788   1.863   5.017 -0.3781  0.2576 -0.1792
 1117poe     o2 4763   1.854   1.894   4.896  0.1125  0.3823  0.1153
 1117poe    c31 4764   1.976   1.824   4.886 -0.0867  0.0604 -0.0685
 1118poe    c31 4765   1.367   2.063   0.492 -0.1360  0.6966 -0.0969
 1118poe     o2 4766   1.257   2.011   0.421  0.2032  0.0366 -0.1473
 1118poe    c23 4767   1.259   2.060   0.289 -0.6610  0.7423  0.0922
 1118poe    c23 4768   1.175   1.970   0.197 -0.1423  0.3895 -0.0440
 1118poe     o2 4769   1.079   1.910   0.282 -0.1173 -0.1135 -0.3612
 1118poe    c23 4770   0.979   1.834   0.220 -0.9516  0.7694 -0.1304
 1118poe    c23 4771   0.879   1.784   0.326 -0.2623 -0.5065 -0.0617
 1118poe     o2 4772   0.964   1.754   0.434 -0.0363  0.0948 -0.0657
 1118poe    c23 4773   0.891   1.714   0.548 -0.2659  0.3170 -0.1361
 1118poe    c23 4774   0.990   1.711   0.666  0.0360 -0.0579 -0.3986
 1118poe     o2 4775   1.059   1.832   0.646 -0.3156  0.2470  0.2121
 1118poe    c31 4776   1.144   1.857   0.756  0.5262  0.0605 -0.3858
 1119poe    c31 4777   4.306   5.671   6.611 -0.3959  0.8763  0.2971
 1119poe     o2 4778   4.375   5.619   6.722 -0.3150  0.1465 -0.0889
 1119poe    c23 4779   4.420   5.487   6.704 -0.4071  0.1187 -0.1194
 1119poe    c23 4780   4.414   5.406   6.835  0.2649  0.2836  0.0150
 1119poe     o2 4781   4.298   5.420   6.913 -0.3547 -0.2985 -0.7925
 1119poe    c23 4782   4.203   5.317   6.896 -0.6724 -0.1633  0.1081
 1119poe    c23 4783   4.066   5.359   6.953 -0.8221 -0.4417 -0.0450
 1119poe     o2 4784   4.091   5.414   7.080  0.5964  0.8012 -0.8291
 1119poe    c23 4785   3.992   5.503   7.126  0.3353 -0.2624  0.7736
 1119poe    c23 4786   4.043   5.551   7.263  0.5261 -1.0314  0.9738
 1119poe     o2 4787   4.174   5.602   7.252  0.0036  0.2005  0.3173
 1119poe    c31 4788   4.192   5.663   7.378 -0.4402  0.6853  0.1490
 1120poe    c31 4789   5.507   6.417   0.389 -0.1675  0.1433  0.1328
 1120poe     o2 4790   5.382   6.393   0.329  0.0224 -0.7165  0.0770
 1120poe    c23 4791   5.364   6.259   0.288 -0.1085 -0.6462 -0.0948
 1120poe    c23 4792   5.276   6.276   0.162 -0.4016  0.0550  0.2004
 1120poe     o2 4793   5.185   6.382   0.181 -0.4462 -0.0979  0.8705
 1120poe    c23 4794   5.094   6.425   0.083  0.1267  0.5372  0.5999
 1120poe    c23 4795   4.980   6.512   0.139 -0.0647  0.8047 -0.1987
 1120poe     o2 4796   5.010   6.576   0.261 -0.3461 -0.4664  0.5499
 1120poe    c23 4797   4.899   6.649   0.309 -0.2952 -0.3628  0.5094
 1120poe    c23 4798   4.934   6.766   0.404  0.0226  0.2484 -0.3441
 1120poe     o2 4799   4.949   6.701   0.528 -0.4542  0.2078 -0.3062
 1120poe    c31 4800   4.963   6.768   0.652  0.2847  0.1216 -0.3388
 1121poe    c31 4801   2.071   0.677   5.352  0.4705 -0.2202 -0.2944
 1121poe     o2 4802   2.010   0.591   5.258 -0.3214  0.1916 -0.1633
 1121poe    c23 4803   1.932   0.493   5.324 -0.3400  0.4549  0.2066
 1121poe    c23 4804   1.783   0.523   5.298 -0.4625 -0.4120 -0.1056
 1121poe     o2 4805   1.745   0.514   5.163  0.3952 -0.2141 -0.3696
 1121poe    c23 4806   1.619   0.576   5.147  0.1270 -0.6420  0.0568
 1121poe    c23 4807   1.573   0.527   5.008  0.0150  0.2562 -0.2298
 1121poe     o2 4808   1.682   0.520   4.920 -0.3846 -0.5539 -0.6737
 1121poe    c23 4809   1.629   0.500   4.791 -1.0894  0.3547 -0.5429
 1121poe    c23 4810   1.750   0.510   4.695  0.1588 -0.3071  0.9061
 1121poe     o2 4811   1.836   0.616   4.727  0.6687 -0.3421 -0.3149
 1121poe    c31 4812   1.911   0.671   4.620 -0.3102  0.0626 -0.8026
 1122poe    c31 4813   7.012   6.926   4.518  0.0382 -1.0229  0.4701
 1122poe     o2 4814   6.894   6.990   4.474  0.4961 -0.1685  0.4680
 1122poe    c23 4815   6.910   7.065   4.355  0.3701 -0.3134  0.3601
 1122poe    c23 4816   6.774   7.135   4.338  0.2629 -0.4319  0.7302
 1122poe     o2 4817   6.681   7.034   4.371 -0.1467 -0.0361  0.7958
 1122poe    c23 4818   6.550   7.081   4.352 -0.0001 -0.2308 -0.8433
 1122poe    c23 4819   6.466   6.952   4.367 -0.3365  0.0762 -0.0214
 1122poe     o2 4820   6.519   6.874   4.471  0.1035  0.0739 -0.2446
 1122poe    c23 4821   6.430   6.767   4.492  0.3143 -0.0356  0.0975
 1122poe    c23 4822   6.377   6.777   4.637  0.0451 -0.8169  0.0606
 1122poe     o2 4823   6.488   6.778   4.724  0.0603 -0.0020  0.0442
 1122poe    c31 4824   6.457   6.800   4.860 -1.1963  0.4069 -0.2963
 1123poe    c31 4825   2.703   1.011   4.213 -0.1569 -0.5209 -0.9358
 1123poe     o2 4826   2.697   1.120   4.123 -0.4440  0.3655  0.1458
 1123poe    c23 4827   2.607   1.073   4.026 -0.1149  0.0099  0.0092
 1123poe    c23 4828   2.642   1.154   3.899 -0.7820  0.3629  0.0468
 1123poe     o2 4829   2.664   1.286   3.944 -0.3872  0.3035  0.0328
 1123poe    c23 4830   2.680   1.376   3.837  0.8254  0.0465 -0.0155
 1123poe    c23 4831   2.673   1.518   3.896  0.4579 -0.0202  0.1032
 1123poe     o2 4832   2.763   1.504   4.003  0.1212  0.0386  0.3968
 1123poe    c23 4833   2.736   1.601   4.102  0.0960  0.3159  0.1210
 1123poe    c23 4834   2.755   1.526   4.235  0.3258 -0.7464 -0.4975
 1123poe     o2 4835   2.699   1.396   4.235  0.1308 -0.6698  0.3993
 1123poe    c31 4836   2.660   1.371   4.368 -0.1018 -0.5316  0.3584
 1124poe    c31 4837   4.384   0.583   5.988 -0.1673 -0.3631 -0.7137
 1124poe     o2 4838   4.492   0.619   5.905  0.2204  0.3191  0.0802
 1124poe    c23 4839   4.623   0.618   5.957  0.2477 -0.3909  0.0061
 1124poe    c23 4840   4.732   0.642   5.851 -0.3780 -0.2084 -0.6049
 1124poe     o2 4841   4.728   0.769   5.791 -0.1182  0.2421  0.3145
 1124poe    c23 4842   4.843   0.799   5.715 -0.2291  0.1946  0.1270
 1124poe    c23 4843   4.831   0.933   5.641  0.2697  0.2156  0.0825
 1124poe     o2 4844   4.703   0.943   5.583  0.2122  0.3032  0.2245
 1124poe    c23 4845   4.694   1.044   5.485 -0.0043 -0.2398 -0.3141
 1124poe    c23 4846   4.545   1.029   5.451 -0.0050  0.0248 -0.4246
 1124poe     o2 4847   4.472   0.978   5.561  0.3349  0.9433  0.2482
 1124poe    c31 4848   4.336   1.004   5.531  0.2263  0.2254  0.0957
 1125poe    c31 4849   6.627   3.040   3.731 -0.1968 -0.3162 -0.0361
 1125poe     o2 4850   6.645   3.097   3.859  0.1818  0.5354 -0.4567
 1125poe    c23 4851   6.521   3.151   3.900  0.0645 -0.0199 -0.0648
 1125poe    c23 4852   6.516   3.214   4.040 -0.7674 -0.3215  0.0453
 1125poe     o2 4853   6.589   3.129   4.127 -0.0769  0.2133 -0.0033
 1125poe    c23 4854   6.589   3.171   4.261 -0.3628 -0.6123  0.2609
 1125poe    c23 4855   6.684   3.083   4.346  0.2155 -0.0348  0.2233
 1125poe     o2 4856   6.809   3.074   4.282  0.1477 -0.1684  0.1093
 1125poe    c23 4857   6.909   3.048   4.377 -0.1803 -0.4408  0.3833
 1125poe    c23 4858   7.045   3.056   4.305 -0.1647  0.1053  0.4625
 1125poe     o2 4859   7.048   3.020   4.169 -0.2448 -0.6189  0.6463
 1125poe    c31 4860   7.178   3.025   4.115 -0.4954  0.7149  0.1317
 1126poe    c31 4861   3.509   4.841   1.565 -0.2108  0.7829  0.1433
 1126poe     o2 4862   3.471   4.838   1.701  0.7017 -0.1938  0.3984
 1126poe    c23 4863   3.364   4.927   1.725 -0.0280 -1.0506  0.3788
 1126poe    c23 4864   3.309   4.926   1.868 -0.0216 -0.3175  0.3917
 1126poe     o2 4865   3.260   4.800   1.908  0.1755 -0.3723  0.4637
 1126poe    c23 4866   3.123   4.798   1.944  0.3643 -0.4985  1.1745
 1126poe    c23 4867   3.062   4.661   1.909  0.3823 -0.1927 -0.0859
 1126poe     o2 4868   3.144   4.552   1.946  0.9939  0.1126 -0.5214
 1126poe    c23 4869   3.073   4.432   1.965  0.2693  0.4765 -0.9034
 1126poe    c23 4870   3.176   4.322   1.933 -0.7694 -0.7012 -0.2551
 1126poe     o2 4871   3.249   4.366   1.821 -0.0677 -0.5117  0.2687
 1126poe    c31 4872   3.345   4.271   1.780 -0.5229 -0.6894 -0.3960
 1127poe    c31 4873   1.836   0.329   3.774 -0.4887 -0.3933  0.0072
 1127poe     o2 4874   1.871   0.463   3.801  0.1197 -0.5862  0.2030
 1127poe    c23 4875   1.987   0.502   3.732  0.1964 -0.3271  0.4767
 1127poe    c23 4876   1.998   0.649   3.779  0.2058 -0.0779 -0.2913
 1127poe     o2 4877   1.876   0.716   3.757 -0.4208 -0.9070  0.5604
 1127poe    c23 4878   1.889   0.853   3.785 -0.4597 -0.6833 -0.4660
 1127poe    c23 4879   1.747   0.896   3.741 -0.2001  1.0568  0.2928
 1127poe     o2 4880   1.651   0.831   3.821  0.3118 -0.0716  0.0069
 1127poe    c23 4881   1.547   0.909   3.875  0.1755 -0.0008 -0.3585
 1127poe    c23 4882   1.432   0.816   3.916  0.4120 -0.0520  0.1974
 1127poe     o2 4883   1.397   0.737   3.804 -0.2746  0.4876  0.0207
 1127poe    c31 4884   1.270   0.677   3.819 -0.2555  0.4848  0.1794
 1128poe    c31 4885   3.088   1.717   3.645  0.0429  0.0747  0.2504
 1128poe     o2 4886   3.079   1.618   3.545  0.0318  0.2502  0.0758
 1128poe    c23 4887   3.186   1.640   3.457 -0.0529 -0.2781 -0.1639
 1128poe    c23 4888   3.158   1.525   3.358 -0.2746 -0.4011  0.0390
 1128poe     o2 4889   3.148   1.402   3.425  0.0667 -0.3273  0.2303
 1128poe    c23 4890   3.088   1.301   3.347 -0.1492 -0.0899  0.0869
 1128poe    c23 4891   3.092   1.177   3.438 -0.7349 -0.1776 -0.0004
 1128poe     o2 4892   3.033   1.177   3.566 -0.3451 -0.1463  0.1804
 1128poe    c23 4893   3.017   1.055   3.636 -0.8040 -0.3646 -0.2948
 1128poe    c23 4894   2.968   1.101   3.775  0.2600 -0.2792  0.0652
 1128poe     o2 4895   3.066   1.173   3.846  0.3152  0.3124 -0.5884
 1128poe    c31 4896   3.165   1.093   3.907  0.0106  0.4778  0.1340
 1129poe    c31 4897   3.998   1.470   4.654 -0.6592  0.0953 -0.2203
 1129poe     o2 4898   4.024   1.604   4.689  0.0026  0.0027 -0.3395
 1129poe    c23 4899   4.132   1.651   4.612  0.2426 -0.0855 -0.0574
 1129poe    c23 4900   4.106   1.801   4.593  0.1564 -0.1014 -0.0648
 1129poe     o2 4901   4.110   1.874   4.713 -0.6544 -0.1445 -0.0044
 1129poe    c23 4902   3.997   1.956   4.729 -0.7035 -0.2078 -0.0288
 1129poe    c23 4903   4.007   2.023   4.867  0.8422 -0.2287 -0.1158
 1129poe     o2 4904   3.995   1.922   4.965 -0.0468 -0.0099  0.0126
 1129poe    c23 4905   3.886   1.956   5.047  0.1868  0.0223  0.3113
 1129poe    c23 4906   3.843   1.823   5.111 -0.2563 -0.3418 -0.7265
 1129poe     o2 4907   3.958   1.752   5.152 -0.4465 -0.1064  0.2546
 1129poe    c31 4908   3.932   1.674   5.266 -0.2375  0.6713  0.8349
 1130poe    c31 4909   2.813   1.208   1.716  0.1715 -0.5870  0.3528
 1130poe     o2 4910   2.751   1.090   1.671  0.0675 -0.2234 -0.4701
 1130poe    c23 4911   2.695   1.124   1.546 -0.3856  0.1267 -0.1732
 1130poe    c23 4912   2.604   1.009   1.500 -0.8142  0.4631 -0.1863
 1130poe     o2 4913   2.550   0.937   1.608 -0.2038  0.0967 -0.1167
 1130poe    c23 4914   2.460   0.836   1.568  0.0406 -0.2788  0.2706
 1130poe    c23 4915   2.458   0.728   1.677 -0.3649 -0.3799  0.1630
 1130poe     o2 4916   2.451   0.781   1.808 -0.1208 -0.2257  0.1126
 1130poe    c23 4917   2.447   0.683   1.909  0.0205  0.1209  0.4566
 1130poe    c23 4918   2.396   0.731   2.046 -0.3554  0.4431  0.2063
 1130poe     o2 4919   2.497   0.812   2.102 -0.0901  0.2731 -0.0245
 1130poe    c31 4920   2.472   0.867   2.230  0.2992  0.3856  0.0041
 1131poe    c31 4921   0.103   4.489   2.981 -0.5639  0.7736 -0.3562
 1131poe     o2 4922   0.223   4.529   2.918 -0.1089 -0.3983 -0.2664
 1131poe    c23 4923   0.330   4.543   3.008 -0.0757 -0.0304 -0.3602
 1131poe    c23 4924   0.425   4.649   2.949  0.4486  0.0190  0.5515
 1131poe     o2 4925   0.459   4.614   2.817 -0.2551 -0.1822  0.4179
 1131poe    c23 4926   0.560   4.706   2.781 -0.3206 -0.2437  0.0747
 1131poe    c23 4927   0.627   4.657   2.652 -0.6428 -0.5844  0.0350
 1131poe     o2 4928   0.518   4.643   2.563 -0.2128  0.3083 -0.6454
 1131poe    c23 4929   0.571   4.641   2.432 -0.4731  0.0256 -0.7468
 1131poe    c23 4930   0.462   4.659   2.325 -0.6465  0.0193 -0.5714
 1131poe     o2 4931   0.383   4.542   2.324 -0.1046 -0.3576 -0.1289
 1131poe    c31 4932   0.371   4.510   2.187  0.1399  0.1412 -0.2677
 1132poe    c31 4933   0.580   3.400   1.002 -0.8143 -0.4011 -0.4125
 1132poe     o2 4934   0.466   3.483   1.014 -0.0153  0.6977 -0.3632
 1132poe    c23 4935   0.407   3.519   0.891 -0.7672 -0.1460 -0.2512
 1132poe    c23 4936   0.260   3.554   0.921 -0.6323  0.2977 -0.1009
 1132poe     o2 4937   0.255   3.623   1.043  0.5929 -0.3233  0.3059
 1132poe    c23 4938   0.174   3.738   1.041  0.8115 -0.1681  0.2277
 1132poe    c23 4939   0.150   3.808   1.176 -1.0232  0.1765 -0.2363
 1132poe     o2 4940   0.251   3.897   1.220 -0.6135 -0.3699 -0.0584
 1132poe    c23 4941   0.221   3.939   1.351  0.5952 -0.2067  0.1717
 1132poe    c23 4942   0.349   3.965   1.434  0.0918  1.1595  0.5463
 1132poe     o2 4943   0.431   3.851   1.433 -0.5661  0.6793  0.3730
 1132poe    c31 4944   0.555   3.880   1.494 -0.2307 -0.2083  0.1335
 1133poe    c31 4945   4.910   5.671   6.917  0.6275  0.2596  0.1877
 1133poe     o2 4946   4.865   5.618   6.794  0.1265  0.2652  0.3632
 1133poe    c23 4947   4.952   5.523   6.736  0.1486  0.1535  0.5807
 1133poe    c23 4948   4.869   5.456   6.626  1.6295 -0.3098 -0.2890
 1133poe     o2 4949   4.823   5.557   6.539  0.2999 -0.5561  0.1038
 1133poe    c23 4950   4.767   5.514   6.417 -0.3469 -0.0025  0.1982
 1133poe    c23 4951   4.647   5.607   6.390 -0.3954 -0.0731  0.1662
 1133poe     o2 4952   4.688   5.742   6.384 -0.2884 -0.1102  0.0643
 1133poe    c23 4953   4.607   5.825   6.303 -0.6497 -0.3310  0.2007
 1133poe    c23 4954   4.606   5.951   6.392 -0.8086 -0.4689  0.3971
 1133poe     o2 4955   4.530   5.954   6.510 -0.5869  0.4929  0.5202
 1133poe    c31 4956   4.536   6.076   6.582  0.0855  0.9852 -0.3508
 1134poe    c31 4957   1.985   5.873   6.890 -0.7542  0.0881  0.2046
 1134poe     o2 4958   1.959   5.955   6.778 -0.0205  0.0390 -0.0028
 1134poe    c23 4959   2.077   6.023   6.740 -0.0599  0.2145  0.1867
 1134poe    c23 4960   2.020   6.108   6.625 -0.0241 -0.1714 -0.1213
 1134poe     o2 4961   1.931   6.033   6.545  0.3187 -0.8480  0.1240
 1134poe    c23 4962   1.865   6.086   6.432 -0.6913 -0.0383  1.0670
 1134poe    c23 4963   1.797   5.970   6.357 -0.0861 -0.1193  0.6369
 1134poe     o2 4964   1.740   5.875   6.444 -0.3005  0.2321  0.8793
 1134poe    c23 4965   1.650   5.787   6.380 -0.0333  0.3358  0.3661
 1134poe    c23 4966   1.559   5.707   6.474  0.4093  0.0236  0.5339
 1134poe     o2 4967   1.484   5.779   6.570 -0.3584  0.0983 -0.1140
 1134poe    c31 4968   1.385   5.699   6.629  0.6856 -0.8869  0.3346
 1135poe    c31 4969   6.648   4.135   5.602 -0.2653  0.3248  0.1390
 1135poe     o2 4970   6.726   4.076   5.705  0.3969  0.1774 -0.4370
 1135poe    c23 4971   6.829   4.155   5.759  0.1161  0.3935 -0.2102
 1135poe    c23 4972   6.931   4.050   5.807 -0.1783  0.1540 -0.1050
 1135poe     o2 4973   6.892   3.986   5.927 -0.4159  0.2903 -0.1083
 1135poe    c23 4974   6.935   4.060   6.040 -0.3926 -0.0879  0.1298
 1135poe    c23 4975   7.040   3.988   6.126 -0.0426  0.6461  0.3236
 1135poe     o2 4976   6.984   3.868   6.174  0.1746  0.4112 -0.0055
 1135poe    c23 4977   7.085   3.779   6.215 -0.2667  0.0366  0.2889
 1135poe    c23 4978   7.037   3.634   6.196  0.5077 -0.1981  0.0703
 1135poe     o2 4979   6.999   3.620   6.061 -0.7407  0.7119  0.3101
 1135poe    c31 4980   6.951   3.488   6.049  0.3735  0.3114  0.1341
 1136poe    c31 4981   0.127   4.125   3.379 -0.7782 -0.2871 -0.2561
 1136poe     o2 4982   0.048   4.057   3.284 -0.8091 -0.2524 -0.2546
 1136poe    c23 4983  -0.037   4.135   3.203  0.3702  0.7655 -0.5377
 1136poe    c23 4984  -0.057   4.046   3.079 -0.6806  0.5751 -0.2377
 1136poe     o2 4985  -0.127   3.925   3.097  0.2416  0.0942  0.1541
 1136poe    c23 4986  -0.175   3.895   2.968  0.8368 -0.4967  0.0639
 1136poe    c23 4987  -0.287   3.792   2.990 -0.0437  0.4511  0.0792
 1136poe     o2 4988  -0.259   3.706   3.098 -0.7337  0.4392  0.2542
 1136poe    c23 4989  -0.385   3.655   3.135 -0.5143 -0.5392 -0.3062
 1136poe    c23 4990  -0.375   3.534   3.230  0.2320 -0.2233  0.0215
 1136poe     o2 4991  -0.294   3.577   3.337 -0.1861  0.2465  0.1536
 1136poe    c31 4992  -0.246   3.477   3.424 -0.7724 -0.0881  0.0974
 1137poe    c31 4993   0.242   4.267   3.890 -0.2718  0.0887 -0.1052
 1137poe     o2 4994   0.273   4.324   3.765  0.0648  0.6659  0.2340
 1137poe    c23 4995   0.409   4.307   3.734 -0.0394  0.1771  0.0212
 1137poe    c23 4996   0.433   4.370   3.595 -0.4599  0.4958  0.0905
 1137poe     o2 4997   0.505   4.291   3.503 -0.8080  0.2724  0.0116
 1137poe    c23 4998   0.530   4.357   3.382 -0.3541  1.0446  0.5226
 1137poe    c23 4999   0.656   4.445   3.374  0.2445  0.1165 -0.5457
 1137poe     o2 5000   0.771   4.363   3.387  0.1483  0.0878  0.1308
 1137poe    c23 5001   0.890   4.434   3.412 -0.1080  0.4615  0.3096
 1137poe    c23 5002   0.995   4.335   3.465 -0.0137  0.3663 -0.0528
 1137poe     o2 5003   1.003   4.222   3.381 -0.5653  0.3261 -0.0560
 1137poe    c31 5004   1.135   4.206   3.332 -0.2571 -0.1466  0.9074
 1138poe    c31 5005   0.448   4.001   1.893 -0.7355  0.2744 -0.2602
 1138poe     o2 5006   0.321   3.974   1.949 -0.7262 -0.0904 -0.4110
 1138poe    c23 5007   0.316   3.843   2.001 -0.1962 -0.1850 -0.5915
 1138poe    c23 5008   0.168   3.800   1.993 -0.2188 -0.1793 -0.1997
 1138poe     o2 5009   0.084   3.913   2.000 -0.1633 -0.0957 -0.8970
 1138poe    c23 5010  -0.052   3.879   2.014  0.0979 -0.7808  0.0748
 1138poe    c23 5011  -0.122   3.980   2.106 -0.4206 -0.3674 -0.7603
 1138poe     o2 5012  -0.142   4.101   2.036  0.5427  0.1175 -0.2160
 1138poe    c23 5013  -0.196   4.189   2.132  0.5991  0.1799 -0.2417
 1138poe    c23 5014  -0.194   4.337   2.087  0.2040 -0.0238 -0.9354
 1138poe     o2 5015  -0.059   4.376   2.083  0.2332  0.0048  0.0281
 1138poe    c31 5016  -0.038   4.515   2.090  0.0083  0.0361  0.0748
 1139poe    c31 5017   6.986   5.446   0.382 -0.2655  0.8110 -0.6391
 1139poe     o2 5018   6.954   5.336   0.300 -0.0320  0.2604 -0.0019
 1139poe    c23 5019   7.023   5.344   0.177  0.1301  0.5904  0.1107
 1139poe    c23 5020   6.927   5.252   0.100  0.4388  0.3466  0.0174
 1139poe     o2 5021   6.907   5.132   0.171  0.1435  0.3021 -0.1414
 1139poe    c23 5022   6.808   5.046   0.119  0.1380  0.1032  0.1901
 1139poe    c23 5023   6.803   4.947   0.237  0.5707  0.3307  0.4008
 1139poe     o2 5024   6.818   5.024   0.354  0.2461  0.3295  0.4447
 1139poe    c23 5025   6.768   4.954   0.465  0.0315  0.0504  0.1741
 1139poe    c23 5026   6.815   5.052   0.574 -0.0707  0.2275  0.0587
 1139poe     o2 5027   6.802   5.179   0.515  0.9708  0.2197 -0.2109
 1139poe    c31 5028   6.815   5.275   0.617 -0.9123  0.1453  0.1255
 1140poe    c31 5029   3.483   1.032   1.357 -0.0667  0.2408 -0.0363
 1140poe     o2 5030   3.533   1.159   1.391 -0.1549  0.3974 -0.4890
 1140poe    c23 5031   3.648   1.174   1.311 -0.0898 -0.0184 -0.4728
 1140poe    c23 5032   3.753   1.267   1.372 -0.3758 -0.1268  0.1919
 1140poe     o2 5033   3.708   1.400   1.356  0.4993  0.1738  0.1510
 1140poe    c23 5034   3.791   1.499   1.412  0.5332 -0.0061  0.4262
 1140poe    c23 5035   3.724   1.638   1.402  0.1663 -0.2165 -0.1132
 1140poe     o2 5036   3.728   1.706   1.279 -0.2876 -0.3976 -0.2314
 1140poe    c23 5037   3.855   1.754   1.241 -0.3547  0.1324  0.1956
 1140poe    c23 5038   3.852   1.833   1.109 -0.0247 -0.6561 -0.2902
 1140poe     o2 5039   3.736   1.784   1.046 -0.3282 -0.1800 -0.1050
 1140poe    c31 5040   3.736   1.824   0.910  0.9219  0.3159  0.0262
 1141poe    c31 5041   3.046   5.663   2.173 -0.2317  0.7908  0.6494
 1141poe     o2 5042   2.924   5.630   2.236 -0.2452 -0.3413  0.0544
 1141poe    c23 5043   2.928   5.645   2.376  0.3615 -0.0775  0.0144
 1141poe    c23 5044   2.818   5.558   2.440  0.3243  0.0434  0.1141
 1141poe     o2 5045   2.836   5.419   2.452  0.5530  0.0725  0.1035
 1141poe    c23 5046   2.726   5.363   2.520 -0.0329  0.4571 -0.5149
 1141poe    c23 5047   2.746   5.215   2.557 -0.2376  0.5230 -0.1379
 1141poe     o2 5048   2.719   5.136   2.444  0.6454  0.0496 -0.0307
 1141poe    c23 5049   2.729   5.003   2.489 -0.0067  0.0389  0.1001
 1141poe    c23 5050   2.678   4.896   2.390 -0.2069 -0.1276  0.3824
 1141poe     o2 5051   2.760   4.866   2.280 -0.2074 -0.3184  0.4338
 1141poe    c31 5052   2.718   4.751   2.209 -0.0712 -0.0598 -0.0752
 1142poe    c31 5053   1.361   5.200   6.430  0.5522  0.2368  0.1250
 1142poe     o2 5054   1.445   5.087   6.422  0.5520  0.2344  0.1571
 1142poe    c23 5055   1.521   5.069   6.539 -0.1906 -0.9459  0.4713
 1142poe    c23 5056   1.639   4.970   6.521  0.3470 -0.2260 -0.0216
 1142poe     o2 5057   1.585   4.846   6.482  0.2133 -0.2735  0.3121
 1142poe    c23 5058   1.680   4.742   6.477  0.5960  0.0758  0.2713
 1142poe    c23 5059   1.599   4.614   6.447  0.0911  0.4223  0.1537
 1142poe     o2 5060   1.539   4.625   6.320 -0.5035 -0.1979  0.3776
 1142poe    c23 5061   1.446   4.521   6.299 -0.9212  0.2446  0.0294
 1142poe    c23 5062   1.411   4.530   6.149  0.4803  0.3402 -0.3027
 1142poe     o2 5063   1.377   4.663   6.116 -0.0150  0.3387  0.1841
 1142poe    c31 5064   1.292   4.650   6.004  0.2190  0.4262 -0.0054
 1143poe    c31 5065   3.812   1.145   6.916  0.9915 -0.0974  0.3189
 1143poe     o2 5066   3.843   1.242   6.818  0.3017 -0.3594 -0.1639
 1143poe    c23 5067   3.942   1.184   6.737  0.9827  0.6980 -0.0977
 1143poe    c23 5068   3.958   1.290   6.626  0.3161  0.1234 -0.7507
 1143poe     o2 5069   3.972   1.413   6.693  0.1150 -0.1510 -0.2065
 1143poe    c23 5070   4.076   1.497   6.649  0.2715 -0.0499  0.3394
 1143poe    c23 5071   4.059   1.643   6.693  0.6824  0.0725  0.1017
 1143poe     o2 5072   4.017   1.649   6.828 -0.1089 -0.1000 -0.1308
 1143poe    c23 5073   4.020   1.783   6.871 -0.5192  0.1892 -0.9700
 1143poe    c23 5074   3.913   1.828   6.973 -0.3697 -0.2027 -0.6378
 1143poe     o2 5075   3.785   1.810   6.916 -0.5768 -0.1977 -0.1728
 1143poe    c31 5076   3.685   1.810   7.016 -0.2384 -0.0313  0.1674
 1144poe    c31 5077   0.748   3.639   6.828 -0.1189  0.3127 -0.3636
 1144poe     o2 5078   0.856   3.557   6.792 -0.0812  0.1141  0.1867
 1144poe    c23 5079   0.982   3.591   6.846  0.1752  0.0163 -0.3382
 1144poe    c23 5080   1.099   3.525   6.770 -0.0573 -0.6242 -0.1452
 1144poe     o2 5081   1.082   3.385   6.771 -0.2714 -0.5957  0.4857
 1144poe    c23 5082   1.191   3.334   6.697 -0.0664  0.1203  0.2873
 1144poe    c23 5083   1.151   3.185   6.703  0.9463 -0.1495  0.4039
 1144poe     o2 5084   1.019   3.185   6.655  1.1823  0.1732 -0.2668
 1144poe    c23 5085   0.973   3.051   6.664  0.3992  0.4190 -0.5446
 1144poe    c23 5086   0.866   3.011   6.560  0.2182 -0.3864 -0.0543
 1144poe     o2 5087   0.934   3.004   6.437  0.3493 -0.1603  0.0036
 1144poe    c31 5088   0.850   2.973   6.328 -0.7294 -0.3565  0.8684
 1145poe    c31 5089   4.467   1.914   4.402  0.6857 -0.2916 -0.2860
 1145poe     o2 5090   4.484   1.951   4.537 -0.9502 -0.0729 -0.1293
 1145poe    c23 5091   4.471   1.853   4.638 -0.0898 -0.3838 -0.3190
 1145poe    c23 5092   4.595   1.814   4.721 -0.3269  0.0532  0.2469
 1145poe     o2 5093   4.683   1.744   4.635 -0.0351  0.5660  0.1210
 1145poe    c23 5094   4.796   1.695   4.703 -0.0646 -0.0069 -0.2417
 1145poe    c23 5095   4.849   1.568   4.633  0.0788  0.0676 -0.2683
 1145poe     o2 5096   4.749   1.468   4.625  0.2903 -0.1766  0.1245
 1145poe    c23 5097   4.796   1.374   4.532 -0.3196  0.4702 -0.8499
 1145poe    c23 5098   4.718   1.243   4.553  0.0335  0.3911 -0.0221
 1145poe     o2 5099   4.581   1.272   4.532 -0.1057 -0.0879  0.2106
 1145poe    c31 5100   4.512   1.152   4.507  0.0407  0.0799 -1.0343
 1146poe    c31 5101   6.155   4.510   1.357 -0.1250 -0.1903  0.2822
 1146poe     o2 5102   6.251   4.452   1.443  0.0314 -0.3358  0.0112
 1146poe    c23 5103   6.207   4.486   1.573 -0.0144  0.1866 -0.1393
 1146poe    c23 5104   6.275   4.391   1.674 -0.1077  0.4608  0.1820
 1146poe     o2 5105   6.411   4.370   1.646 -0.1252 -0.0712  0.4937
 1146poe    c23 5106   6.485   4.308   1.749 -0.1258  0.2999  0.7198
 1146poe    c23 5107   6.622   4.324   1.681 -0.2519 -0.0146  0.3848
 1146poe     o2 5108   6.623   4.310   1.541  0.6581  0.4483  0.3323
 1146poe    c23 5109   6.651   4.176   1.506  0.6684  0.5161  0.0761
 1146poe    c23 5110   6.612   4.196   1.359  0.2321  0.3132  0.1604
 1146poe     o2 5111   6.475   4.230   1.357  0.1669  0.0567  0.2251
 1146poe    c31 5112   6.426   4.226   1.225  0.2575 -1.0384  0.2197
 1147poe    c31 5113   1.129   5.695   5.840  0.2033  0.4995  0.0244
 1147poe     o2 5114   1.234   5.711   5.747  0.2689  0.2063  0.0475
 1147poe    c23 5115   1.193   5.637   5.635  1.0007 -0.3373  0.1336
 1147poe    c23 5116   1.306   5.561   5.563  0.6546 -0.9238  0.1987
 1147poe     o2 5117   1.374   5.661   5.489 -0.2702 -0.1411  0.3861
 1147poe    c23 5118   1.457   5.588   5.402 -0.1428  0.3739  0.0715
 1147poe    c23 5119   1.545   5.686   5.324  0.4826 -0.7345 -0.6537
 1147poe     o2 5120   1.463   5.773   5.249 -0.1169 -0.4260  0.3440
 1147poe    c23 5121   1.541   5.824   5.143 -0.3950  0.0536  0.3664
 1147poe    c23 5122   1.448   5.882   5.035  0.1445  0.0798 -0.0875
 1147poe     o2 5123   1.359   5.981   5.080 -0.2753 -0.5399  0.4666
 1147poe    c31 5124   1.274   6.013   4.973  0.0854  0.2236  0.4024
 1148poe    c31 5125   3.644   3.003   1.664  0.0322  0.5173 -0.1418
 1148poe     o2 5126   3.564   3.047   1.557  0.2150  0.2028 -0.4097
 1148poe    c23 5127   3.585   2.973   1.439  0.4534  0.2206 -0.3778
 1148poe    c23 5128   3.551   3.070   1.324 -0.1690  0.4199 -0.0283
 1148poe     o2 5129   3.432   3.136   1.361 -0.1285  0.3546  0.2197
 1148poe    c23 5130   3.402   3.235   1.265  0.1264  0.2640  0.0457
 1148poe    c23 5131   3.260   3.289   1.292  0.2053  0.5186 -0.0435
 1148poe     o2 5132   3.254   3.346   1.421  0.0833  0.1958  0.0951
 1148poe    c23 5133   3.124   3.397   1.437 -0.0552 -0.1695  0.1515
 1148poe    c23 5134   3.096   3.422   1.586 -1.2043  0.2640 -0.1231
 1148poe     o2 5135   3.100   3.303   1.661 -0.3100  0.2552 -0.1692
 1148poe    c31 5136   3.056   3.331   1.793 -0.2299  0.4271 -0.1787
 1149poe    c31 5137   0.786   0.528   5.596  0.2057  0.1497 -0.2001
 1149poe     o2 5138   0.797   0.559   5.733 -0.2523 -0.6304  0.0151
 1149poe    c23 5139   0.669   0.585   5.786 -0.0034 -0.2405  0.4323
 1149poe    c23 5140   0.674   0.608   5.938 -0.0218  0.2622  0.3610
 1149poe     o2 5141   0.789   0.688   5.950  0.2431 -0.1177  0.4025
 1149poe    c23 5142   0.802   0.750   6.076 -0.0133 -0.4018  0.5683
 1149poe    c23 5143   0.908   0.862   6.073 -0.2801 -0.1720 -0.4404
 1149poe     o2 5144   1.014   0.828   5.987  0.1703  0.2666 -0.0669
 1149poe    c23 5145   1.129   0.904   6.015  0.2198  0.1380  0.0807
 1149poe    c23 5146   1.236   0.879   5.906 -0.0083  0.1016 -0.1378
 1149poe     o2 5147   1.288   0.750   5.930 -0.2901 -0.0136 -0.1466
 1149poe    c31 5148   1.360   0.721   5.813  0.1259  0.3922  0.0058
 1150poe    c31 5149   4.782   4.162   0.816  0.6062  0.0405 -0.4394
 1150poe     o2 5150   4.825   4.093   0.932 -0.4728  0.2632  0.0982
 1150poe    c23 5151   4.897   4.183   1.014  0.1433  0.0197 -0.1737
 1150poe    c23 5152   4.945   4.115   1.144 -0.5482  0.3331  0.2520
 1150poe     o2 5153   4.972   3.978   1.124  0.3077  0.5255  0.0738
 1150poe    c23 5154   5.012   3.924   1.248  0.3680  0.3050 -0.0414
 1150poe    c23 5155   5.082   3.788   1.226  0.2071  0.2499 -0.2111
 1150poe     o2 5156   4.996   3.691   1.171  0.1760  0.0281  0.2240
 1150poe    c23 5157   5.051   3.561   1.167 -0.6487 -0.3185 -0.2220
 1150poe    c23 5158   4.937   3.466   1.128  0.0752 -1.1562 -0.3102
 1150poe     o2 5159   4.863   3.493   1.011  0.3199  0.5086 -0.0969
 1150poe    c31 5160   4.938   3.489   0.892  0.3612  0.9157 -0.0864
 1151poe    c31 5161   6.162   5.869   4.773  0.4873  0.3294 -0.1731
 1151poe     o2 5162   6.167   5.954   4.661 -0.6557  0.3425 -0.2308
 1151poe    c23 5163   6.073   6.056   4.686 -0.6212  0.3806 -0.2547
 1151poe    c23 5164   6.041   6.146   4.565 -0.2850  0.4561 -0.2876
 1151poe     o2 5165   6.174   6.158   4.518 -0.0673 -0.1033  0.1729
 1151poe    c23 5166   6.186   6.207   4.387 -0.2518  0.0147  0.2002
 1151poe    c23 5167   6.334   6.205   4.347 -0.2279 -0.4099  0.3008
 1151poe     o2 5168   6.396   6.098   4.414  0.3151 -0.2261  0.1003
 1151poe    c23 5169   6.444   6.005   4.318  0.2745 -0.0722 -0.0688
 1151poe    c23 5170   6.479   5.879   4.399  0.0541 -0.0353  0.0893
 1151poe     o2 5171   6.377   5.852   4.492  0.0399  0.5726  0.2559
 1151poe    c31 5172   6.351   5.716   4.518 -0.7576  0.6125 -0.3079
 1152poe    c31 5173   4.344   2.642   6.344  0.3166  0.0125 -0.2476
 1152poe     o2 5174   4.351   2.508   6.303 -0.0576  0.0619 -0.4764
 1152poe    c23 5175   4.448   2.441   6.381 -0.0429  0.2821 -0.3042
 1152poe    c23 5176   4.416   2.293   6.350 -0.9560  0.3091  0.4588
 1152poe     o2 5177   4.393   2.290   6.211 -0.2507  0.0742  0.3425
 1152poe    c23 5178   4.378   2.160   6.157  0.5716  0.2441 -0.3062
 1152poe    c23 5179   4.382   2.164   6.004  0.5019  0.2462 -0.3082
 1152poe     o2 5180   4.320   2.281   5.956  0.2720  0.1568 -0.2297
 1152poe    c23 5181   4.327   2.270   5.815  0.1416 -0.3486 -0.1972
 1152poe    c23 5182   4.242   2.371   5.736  0.1223  0.0432  0.3187
 1152poe     o2 5183   4.290   2.503   5.750 -0.1477  0.1289  0.4514
 1152poe    c31 5184   4.215   2.574   5.655 -0.3658 -0.0079  0.5211
 1153poe    c31 5185   3.669   2.774   2.464  0.1626  0.3337  0.0067
 1153poe     o2 5186   3.652   2.728   2.331  0.1875 -0.1589  0.1706
 1153poe    c23 5187   3.523   2.673   2.316  0.0987  0.0267  0.2486
 1153poe    c23 5188   3.480   2.703   2.172 -0.0676  0.1173  0.3165
 1153poe     o2 5189   3.603   2.696   2.104 -0.0057 -0.7379  0.5033
 1153poe    c23 5190   3.578   2.692   1.965  0.2391  1.0513  0.3864
 1153poe    c23 5191   3.700   2.639   1.888 -0.1835  0.0092  0.4221
 1153poe     o2 5192   3.804   2.729   1.918 -0.3254  0.0700  0.7271
 1153poe    c23 5193   3.920   2.725   1.838 -0.8204 -0.5561  0.0254
 1153poe    c23 5194   4.011   2.846   1.870 -0.1317 -0.9744 -0.3373
 1153poe     o2 5195   4.079   2.829   1.992 -0.6208  0.6163  0.1768
 1153poe    c31 5196   4.199   2.903   1.996 -0.1278 -0.1708  0.1519
 1154poe    c31 5197   3.781   6.076   5.786  0.4510 -0.1606 -0.1225
 1154poe     o2 5198   3.835   6.134   5.902 -0.3474 -0.3657  0.3615
 1154poe    c23 5199   3.965   6.089   5.935  0.1090  0.1405 -0.7185
 1154poe    c23 5200   4.057   6.213   5.936  0.2013  0.0730  0.2497
 1154poe     o2 5201   4.086   6.268   5.809 -0.2854  0.6268  0.3769
 1154poe    c23 5202   4.109   6.406   5.830  0.3266  0.5834  0.0194
 1154poe    c23 5203   4.166   6.474   5.705  0.3793  0.5497  0.0256
 1154poe     o2 5204   4.090   6.432   5.594  0.1629  0.0396  0.3628
 1154poe    c23 5205   4.104   6.531   5.495  0.5322 -0.4273 -0.0555
 1154poe    c23 5206   3.996   6.530   5.385 -0.2934 -0.2275  0.7441
 1154poe     o2 5207   4.012   6.428   5.290  0.0589  0.0920  0.4554
 1154poe    c31 5208   3.886   6.371   5.261  0.5101 -0.4390 -0.5315
 1155poe    c31 5209   0.989   7.008   6.642 -0.3281 -0.0497 -0.5892
 1155poe     o2 5210   0.937   7.129   6.693  0.2844 -0.0401  0.0206
 1155poe    c23 5211   1.038   7.227   6.696  0.5101 -0.2766  0.3633
 1155poe    c23 5212   0.979   7.351   6.765 -0.1179 -0.2373 -0.2284
 1155poe     o2 5213   0.838   7.344   6.764 -0.0964 -0.7024 -0.2253
 1155poe    c23 5214   0.772   7.445   6.837 -0.2799 -0.6717 -0.4334
 1155poe    c23 5215   0.621   7.436   6.808 -0.2602  0.6588 -1.0095
 1155poe     o2 5216   0.577   7.307   6.846  0.1706  0.7922 -0.0269
 1155poe    c23 5217   0.438   7.293   6.827  0.3147 -0.2535 -0.3756
 1155poe    c23 5218   0.365   7.281   6.692 -0.0042  0.1202 -0.2377
 1155poe     o2 5219   0.391   7.163   6.619  0.2102  0.1034 -0.1369
 1155poe    c31 5220   0.346   7.171   6.485  0.4353 -0.4889 -0.2498
 1156poe    c31 5221   0.112   6.693   2.720 -0.6094  0.0472  0.1905
 1156poe     o2 5222   0.129   6.568   2.656 -0.0863  0.1511  0.1267
 1156poe    c23 5223   0.016   6.485   2.665 -0.0470  0.0907  0.0556
 1156poe    c23 5224  -0.077   6.509   2.545  0.2091 -0.3045 -0.2236
 1156poe     o2 5225  -0.034   6.449   2.425  0.3811 -0.4980 -0.0651
 1156poe    c23 5226  -0.090   6.523   2.319  0.5940  0.1166  0.2508
 1156poe    c23 5227  -0.012   6.502   2.188  0.2223 -0.4713  0.1204
 1156poe     o2 5228   0.125   6.534   2.193  0.1887 -0.3377  0.1979
 1156poe    c23 5229   0.185   6.555   2.067  0.1724 -0.3664  0.1854
 1156poe    c23 5230   0.313   6.632   2.104  0.1266 -0.2410  0.0819
 1156poe     o2 5231   0.374   6.577   2.218  0.0518 -0.0300  0.2246
 1156poe    c31 5232   0.514   6.580   2.201  0.0740 -0.6014  0.2865
 1157poe    c31 5233   3.268   0.368   3.847 -0.6526  0.3475  0.3389
 1157poe     o2 5234   3.270   0.334   3.710 -0.4953  0.0439  0.4166
 1157poe    c23 5235   3.263   0.195   3.686  0.2383  0.1083 -0.2119
 1157poe    c23 5236   3.194   0.198   3.549 -0.3392 -0.0056  0.0755
 1157poe     o2 5237   3.256   0.293   3.465 -0.3293  0.3178  0.4425
 1157poe    c23 5238   3.214   0.278   3.331 -0.5356  0.4367  0.4937
 1157poe    c23 5239   3.293   0.353   3.223 -0.1354 -0.2228  0.3229
 1157poe     o2 5240   3.313   0.482   3.277  0.3218 -0.2877  0.3134
 1157poe    c23 5241   3.216   0.581   3.302  0.6020  0.0723 -0.0026
 1157poe    c23 5242   3.263   0.680   3.410 -1.1569  0.8098  0.1297
 1157poe     o2 5243   3.263   0.615   3.535 -0.1222  0.3423 -0.0952
 1157poe    c31 5244   3.197   0.688   3.637 -0.3636 -0.1028  0.0720
 1158poe    c31 5245   0.241   5.454   4.195  0.4372  0.1100  0.2479
 1158poe     o2 5246   0.379   5.429   4.212  0.3231 -0.4178  0.3987
 1158poe    c23 5247   0.408   5.425   4.350 -0.6448  0.4912  0.6384
 1158poe    c23 5248   0.557   5.389   4.362 -0.6505  0.0944 -0.3967
 1158poe     o2 5249   0.610   5.469   4.258  0.0755  0.3200  0.1438
 1158poe    c23 5250   0.751   5.461   4.265  0.0704 -0.4248 -0.4744
 1158poe    c23 5251   0.813   5.569   4.176 -0.2229  0.5999  0.5372
 1158poe     o2 5252   0.758   5.552   4.047  0.7416 -0.1832  0.2177
 1158poe    c23 5253   0.838   5.590   3.937 -0.0222 -0.1362 -0.3263
 1158poe    c23 5254   0.864   5.740   3.919 -0.3046 -0.0980 -0.4245
 1158poe     o2 5255   0.752   5.824   3.899 -0.4371 -0.1554  0.0669
 1158poe    c31 5256   0.792   5.951   3.944 -0.7488  0.1181 -0.4165
 1159poe    c31 5257   6.946   6.135   1.539 -0.0520  0.2486 -0.5309
 1159poe     o2 5258   6.836   6.096   1.460 -0.3591 -0.1729  0.0948
 1159poe    c23 5259   6.712   6.079   1.525 -0.1954 -0.7949  0.2448
 1159poe    c23 5260   6.607   6.099   1.415 -0.3335  0.1891  0.5444
 1159poe     o2 5261   6.646   6.021   1.304 -0.5610  0.2234  0.4405
 1159poe    c23 5262   6.531   5.993   1.226 -0.1548 -0.4727  0.0828
 1159poe    c23 5263   6.576   5.890   1.121  0.0910 -0.0010 -0.2758
 1159poe     o2 5264   6.693   5.939   1.060  0.1082  0.3157  0.0081
 1159poe    c23 5265   6.720   5.843   0.960  0.2196 -0.0592  0.3943
 1159poe    c23 5266   6.870   5.844   0.925  0.1672  0.3680  0.1787
 1159poe     o2 5267   6.945   5.805   1.038 -0.4022 -0.9368  0.1188
 1159poe    c31 5268   7.078   5.770   1.006 -0.0769  0.2790  0.0787
 1160poe    c31 5269   2.236   0.868   4.432 -0.5496 -0.2049 -0.3224
 1160poe     o2 5270   2.149   0.960   4.495  0.0373  0.2120 -0.1103
 1160poe    c23 5271   2.025   0.967   4.429 -0.0107 -0.2224 -0.0688
 1160poe    c23 5272   1.971   1.111   4.436  0.9714  0.1347  0.3000
 1160poe     o2 5273   1.934   1.157   4.564  0.4964 -0.0234  0.2221
 1160poe    c23 5274   1.880   1.287   4.561  0.5413 -0.0160 -0.7090
 1160poe    c23 5275   1.868   1.357   4.698 -0.2173 -0.5587 -0.4879
 1160poe     o2 5276   1.996   1.365   4.755 -0.7372 -0.2754  0.6574
 1160poe    c23 5277   2.052   1.494   4.738 -0.2399 -0.6217 -0.3538
 1160poe    c23 5278   2.205   1.486   4.755 -0.2168 -0.1010 -0.3220
 1160poe     o2 5279   2.249   1.383   4.841 -0.2234  0.2236  0.0757
 1160poe    c31 5280   2.388   1.400   4.858 -0.2127  0.1608  0.0517
 1161poe    c31 5281   5.688   4.157   3.447 -0.2022 -0.4030 -0.4699
 1161poe     o2 5282   5.786   4.130   3.349  0.8746  0.0126  0.4568
 1161poe    c23 5283   5.896   4.202   3.397  0.4199  0.6223  0.5971
 1161poe    c23 5284   5.979   4.235   3.271  0.0001 -0.0151  0.1503
 1161poe     o2 5285   5.889   4.257   3.165 -0.0058 -0.2855  0.0978
 1161poe    c23 5286   5.964   4.278   3.048 -0.3130 -0.3019 -0.1029
 1161poe    c23 5287   5.867   4.343   2.947 -0.2976  0.6226  0.4664
 1161poe     o2 5288   5.785   4.244   2.891  0.0253  0.2671  0.6144
 1161poe    c23 5289   5.710   4.299   2.785  0.3362  0.3557  0.4398
 1161poe    c23 5290   5.560   4.309   2.820  0.0644 -0.1701 -0.5050
 1161poe     o2 5291   5.525   4.408   2.915  0.0090 -0.3458 -0.3424
 1161poe    c31 5292   5.442   4.506   2.857  0.2936  0.1998  0.1620
 1162poe    c31 5293   1.637   1.473   5.570 -0.2162 -0.0929 -0.3328
 1162poe     o2 5294   1.572   1.375   5.493 -0.2374 -0.1530 -0.2389
 1162poe    c23 5295   1.677   1.335   5.408  0.0017  0.1344 -0.0783
 1162poe    c23 5296   1.625   1.235   5.303  0.2645  0.2237 -0.2941
 1162poe     o2 5297   1.591   1.121   5.378  0.7990  0.0308 -0.3387
 1162poe    c23 5298   1.594   1.000   5.306  0.2416 -0.2643  0.1259
 1162poe    c23 5299   1.570   0.880   5.400 -0.0408  0.0116  0.4080
 1162poe     o2 5300   1.685   0.869   5.481  0.2357  0.1520  0.0413
 1162poe    c23 5301   1.651   0.859   5.618 -0.1476  0.1664 -0.0517
 1162poe    c23 5302   1.778   0.906   5.691 -0.4183  1.1092 -0.1817
 1162poe     o2 5303   1.752   1.044   5.677  0.2506  1.2018 -0.5647
 1162poe    c31 5304   1.856   1.099   5.755  0.2557 -0.1680  0.4345
 1163poe    c31 5305   3.530   5.047   0.850  0.6862 -0.1574 -0.7651
 1163poe     o2 5306   3.417   4.970   0.885  0.6488  0.2637  0.0633
 1163poe    c23 5307   3.307   5.028   0.819  0.3719 -0.5637 -0.2062
 1163poe    c23 5308   3.193   4.924   0.824  0.2038 -0.3616  0.1818
 1163poe     o2 5309   3.235   4.792   0.797 -0.2612 -0.4442 -0.1530
 1163poe    c23 5310   3.146   4.692   0.839 -0.0993 -0.4874  0.0839
 1163poe    c23 5311   3.217   4.557   0.814  0.3950 -0.2537  0.2168
 1163poe     o2 5312   3.348   4.545   0.865  0.3819 -0.0740  0.2948
 1163poe    c23 5313   3.404   4.417   0.846 -0.2049 -0.4147  0.8092
 1163poe    c23 5314   3.555   4.415   0.875 -0.0542  0.0134  0.0788
 1163poe     o2 5315   3.639   4.487   0.787 -0.0325 -0.2305 -0.1004
 1163poe    c31 5316   3.771   4.438   0.796  0.1286  0.2316  0.0839
 1164poe    c31 5317   1.998   6.137   2.761  0.0384 -1.1394  0.1456
 1164poe     o2 5318   2.083   6.079   2.857  0.5614 -0.0981  0.3228
 1164poe    c23 5319   2.173   6.178   2.901  0.2070  0.3040  0.1521
 1164poe    c23 5320   2.271   6.122   3.006 -0.1839 -0.5519  0.0632
 1164poe     o2 5321   2.364   6.028   2.955 -0.0103 -0.0378 -0.5892
 1164poe    c23 5322   2.319   5.895   2.972  0.2963 -0.0968 -0.2246
 1164poe    c23 5323   2.444   5.814   3.009  0.3995  0.1410 -0.0466
 1164poe     o2 5324   2.523   5.795   2.894  0.1768 -0.4806 -0.1028
 1164poe    c23 5325   2.646   5.742   2.938  0.1784 -0.2305  0.1936
 1164poe    c23 5326   2.757   5.760   2.834 -0.2377  0.0829 -0.1987
 1164poe     o2 5327   2.749   5.898   2.809  0.1954  0.0362 -0.6262
 1164poe    c31 5328   2.874   5.957   2.781  0.2015  0.4692  0.2650
 1165poe    c31 5329   5.301   3.632   1.871 -0.6629  0.2533  0.5663
 1165poe     o2 5330   5.355   3.523   1.942  0.4658  0.5179  0.1213
 1165poe    c23 5331   5.257   3.472   2.029  0.3083  0.5314 -0.0475
 1165poe    c23 5332   5.301   3.367   2.133 -0.3625  0.3990  0.1078
 1165poe     o2 5333   5.400   3.414   2.222 -0.0651 -0.8750  0.4599
 1165poe    c23 5334   5.476   3.315   2.288  0.0826 -0.7672  0.4528
 1165poe    c23 5335   5.591   3.372   2.373  0.2487 -0.5051  0.0551
 1165poe     o2 5336   5.691   3.433   2.295  0.2339 -0.4056  0.1136
 1165poe    c23 5337   5.697   3.568   2.335 -0.0658 -0.4567  0.3337
 1165poe    c23 5338   5.820   3.636   2.272 -0.3841  0.4112  0.6390
 1165poe     o2 5339   5.816   3.614   2.133  0.5827 -0.2401  0.7048
 1165poe    c31 5340   5.939   3.660   2.082  0.1342  0.4502  0.2310
 1166poe    c31 5341   3.339   2.024   3.813  0.2811 -0.8369 -0.5915
 1166poe     o2 5342   3.347   2.083   3.685  0.3772 -0.4665 -0.4190
 1166poe    c23 5343   3.314   1.987   3.586  0.9145 -0.4868 -0.5848
 1166poe    c23 5344   3.357   2.030   3.445 -0.0828  0.6217 -0.5682
 1166poe     o2 5345   3.308   2.159   3.414  0.1047  0.8123 -0.0815
 1166poe    c23 5346   3.313   2.175   3.274 -0.2568  0.2784 -0.1584
 1166poe    c23 5347   3.299   2.326   3.248  0.0471  0.2511 -0.4872
 1166poe     o2 5348   3.174   2.362   3.304  0.3337  0.0824  0.2787
 1166poe    c23 5349   3.136   2.497   3.289  0.1487  0.0056  0.0417
 1166poe    c23 5350   3.011   2.520   3.377  0.2405 -0.1324  0.2093
 1166poe     o2 5351   3.044   2.490   3.511  0.5449 -0.0254  0.1599
 1166poe    c31 5352   3.074   2.612   3.575 -0.0125  0.1569  0.0730
 1167poe    c31 5353   4.861   3.679   3.632  0.5906  0.2714 -0.2524
 1167poe     o2 5354   4.808   3.733   3.751 -0.3710  0.1951 -0.6329
 1167poe    c23 5355   4.683   3.795   3.732 -0.5184  0.1307  0.1056
 1167poe    c23 5356   4.691   3.935   3.797  0.1702  0.3019 -0.3468
 1167poe     o2 5357   4.776   3.927   3.909 -0.3541  0.4420  0.0605
 1167poe    c23 5358   4.806   4.043   3.983  0.1025  0.1340  0.3692
 1167poe    c23 5359   4.890   3.978   4.094  0.4170  0.1325  0.1308
 1167poe     o2 5360   5.001   3.913   4.035  0.3157 -0.1485  0.2507
 1167poe    c23 5361   5.046   3.828   4.138 -0.3570 -0.9400 -0.0967
 1167poe    c23 5362   5.086   3.700   4.061  0.0210 -0.7228 -0.2665
 1167poe     o2 5363   4.993   3.662   3.962  0.0807 -0.5978 -0.3703
 1167poe    c31 5364   5.006   3.525   3.932  0.2390 -0.6048 -0.2676
 1168poe    c31 5365   5.671   4.056   0.997  0.4936 -0.2197 -1.0369
 1168poe     o2 5366   5.759   3.988   1.084 -0.4843 -0.3502 -0.1216
 1168poe    c23 5367   5.812   4.085   1.172 -0.4283 -0.5966  0.1177
 1168poe    c23 5368   5.881   4.054   1.306  0.0633 -0.5660 -0.1265
 1168poe     o2 5369   5.784   3.999   1.391 -0.0005  0.0770  0.2234
 1168poe    c23 5370   5.829   3.945   1.513  0.5456  0.0291  0.0021
 1168poe    c23 5371   5.714   3.870   1.583  0.1733  0.1395 -0.4905
 1168poe     o2 5372   5.696   3.749   1.512 -0.4102 -0.1093  0.0679
 1168poe    c23 5373   5.600   3.672   1.580 -0.6644  0.0264 -0.1374
 1168poe    c23 5374   5.575   3.541   1.503 -0.2085 -0.0609 -0.1380
 1168poe     o2 5375   5.545   3.584   1.372 -0.2541  0.7356  0.1252
 1168poe    c31 5376   5.440   3.509   1.316 -0.2526  1.0288 -0.2731
 1169poe    c31 5377   1.386   5.454   0.012 -0.0738  0.3260 -0.3838
 1169poe     o2 5378   1.247   5.439   0.034 -0.0965  0.1494 -0.6422
 1169poe    c23 5379   1.222   5.331   0.121 -0.4786  0.5914 -0.2023
 1169poe    c23 5380   1.072   5.297   0.121 -0.1703 -0.8348  0.3545
 1169poe     o2 5381   1.012   5.416   0.167  0.1110 -0.5004 -0.1297
 1169poe    c23 5382   0.873   5.388   0.163  0.0446 -0.2658  0.4396
 1169poe    c23 5383   0.809   5.528   0.170 -0.0083 -0.2605 -0.0768
 1169poe     o2 5384   0.889   5.630   0.115 -0.1979  0.0268  0.1765
 1169poe    c23 5385   0.843   5.761   0.143  0.7599  0.3703  0.1521
 1169poe    c23 5386   0.845   5.841   0.011  0.2058  0.4127  0.1679
 1169poe     o2 5387   0.816   5.975   0.045 -0.2271  0.4272 -0.2533
 1169poe    c31 5388   0.783   6.048  -0.071  0.0586 -0.4597 -0.9046
 1170poe    c31 5389   1.721   1.982   3.179 -0.3804 -0.4356 -0.1880
 1170poe     o2 5390   1.787   1.877   3.246  0.4559  0.1682 -0.0415
 1170poe    c23 5391   1.797   1.780   3.143  0.4998 -0.3828  0.4751
 1170poe    c23 5392   1.833   1.638   3.189  0.3120 -0.5103  0.2285
 1170poe     o2 5393   1.950   1.636   3.267  0.2735  0.2778  0.3094
 1170poe    c23 5394   1.961   1.503   3.311 -1.3739  0.2184  0.5799
 1170poe    c23 5395   2.059   1.517   3.429  0.0541  0.1096 -0.5641
 1170poe     o2 5396   2.159   1.608   3.389 -0.0169  0.1519 -0.6445
 1170poe    c23 5397   2.269   1.623   3.474 -0.0056 -0.4368 -0.5474
 1170poe    c23 5398   2.355   1.710   3.380 -0.1268  0.3804  0.0846
 1170poe     o2 5399   2.284   1.829   3.356 -0.0235  0.4699  0.2224
 1170poe    c31 5400   2.371   1.938   3.332  0.0240  0.2852 -0.4391
 1171poe    c31 5401   3.588   0.438   0.107  0.2924 -0.5287 -0.4160
 1171poe     o2 5402   3.507   0.423  -0.007 -0.2161 -0.0677 -0.1214
 1171poe    c23 5403   3.538   0.516  -0.109  0.4177 -0.7082 -0.5216
 1171poe    c23 5404   3.434   0.610  -0.173  0.6711 -0.2855 -0.3130
 1171poe     o2 5405   3.327   0.550  -0.242  0.0113  0.4357  0.0713
 1171poe    c23 5406   3.240   0.639  -0.309 -0.3244  0.3731  0.4161
 1171poe    c23 5407   3.117   0.560  -0.359  0.1977 -0.2420  0.0757
 1171poe     o2 5408   3.064   0.489  -0.249  0.3216 -0.4359  0.0094
 1171poe    c23 5409   2.935   0.530  -0.210  0.3101  0.0807 -0.5655
 1171poe    c23 5410   2.888   0.448  -0.089  1.0260 -0.2276 -0.4889
 1171poe     o2 5411   2.871   0.309  -0.102  0.0068 -0.0757 -0.9111
 1171poe    c31 5412   2.848   0.247   0.023 -0.0057 -0.1169 -0.9336
 1172poe    c31 5413   6.558   0.574   2.576  0.4649 -0.4014 -0.0397
 1172poe     o2 5414   6.684   0.570   2.512  0.2797 -0.1694 -0.4248
 1172poe    c23 5415   6.771   0.649   2.590 -0.5325 -0.1700  0.5046
 1172poe    c23 5416   6.916   0.654   2.537 -0.7574  0.0483 -0.0868
 1172poe     o2 5417   6.914   0.703   2.404 -0.2947  0.7628  0.1630
 1172poe    c23 5418   7.043   0.692   2.350 -0.2611 -0.2209  0.4312
 1172poe    c23 5419   7.040   0.681   2.197 -0.4763 -0.6179  0.4633
 1172poe     o2 5420   6.990   0.557   2.151  0.1189 -0.6556 -0.0936
 1172poe    c23 5421   7.050   0.516   2.030  0.4342  0.2203 -0.2444
 1172poe    c23 5422   7.031   0.364   2.012 -0.4830  0.2090  0.7306
 1172poe     o2 5423   6.892   0.343   1.999 -0.4191  0.3617 -0.2645
 1172poe    c31 5424   6.859   0.206   1.990 -0.2712  0.2636  0.5956
 1173poe    c31 5425   6.616   2.154   2.021  0.0125  0.3744 -0.3553
 1173poe     o2 5426   6.516   2.253   2.012 -0.0531  0.3767  0.3575
 1173poe    c23 5427   6.507   2.320   2.135  0.2211  0.2870  0.4260
 1173poe    c23 5428   6.358   2.342   2.167 -0.0160 -0.3497 -0.2229
 1173poe     o2 5429   6.274   2.413   2.079 -0.5275 -0.2853  0.3059
 1173poe    c23 5430   6.334   2.535   2.042 -0.4723 -0.3174  0.2879
 1173poe    c23 5431   6.260   2.615   1.933  0.4854  0.0350 -0.1125
 1173poe     o2 5432   6.242   2.540   1.815  0.5281  0.2802 -0.2753
 1173poe    c23 5433   6.156   2.602   1.722  0.3397  0.0673 -0.2440
 1173poe    c23 5434   6.138   2.485   1.624  0.5910 -0.0608 -0.1385
 1173poe     o2 5435   6.089   2.363   1.675 -0.0380  0.0865 -0.3721
 1173poe    c31 5436   6.052   2.263   1.582 -0.7006 -0.3492  0.3516
 1174poe    c31 5437   4.963   4.265   2.060  0.2907 -0.1658 -0.4040
 1174poe     o2 5438   4.884   4.381   2.047  0.5443  0.1586  0.7574
 1174poe    c23 5439   4.932   4.467   1.946 -0.0391 -0.1646  0.1953
 1174poe    c23 5440   4.837   4.588   1.938  0.0448 -0.0959  0.2351
 1174poe     o2 5441   4.830   4.645   2.066 -0.5876 -0.4662  0.3682
 1174poe    c23 5442   4.739   4.752   2.050 -0.0685 -0.1281 -0.3732
 1174poe    c23 5443   4.681   4.781   2.189 -0.2248 -0.5548 -0.3466
 1174poe     o2 5444   4.784   4.758   2.282  0.0441  0.4563 -0.3796
 1174poe    c23 5445   4.725   4.787   2.407  0.4590 -0.0137 -0.0668
 1174poe    c23 5446   4.814   4.738   2.522  0.5065  0.0210 -0.0892
 1174poe     o2 5447   4.832   4.599   2.523  0.4202  0.0111  0.3386
 1174poe    c31 5448   4.922   4.586   2.631  0.1919  0.1099  0.5441
 1175poe    c31 5449   2.447   2.515   6.750  0.0169  0.2105 -0.3233
 1175poe     o2 5450   2.348   2.600   6.804  0.0057 -0.2586  0.4203
 1175poe    c23 5451   2.231   2.573   6.730  0.0198  0.2814  0.1953
 1175poe    c23 5452   2.113   2.662   6.775  0.0990  0.3240  0.3181
 1175poe     o2 5453   2.114   2.653   6.916  0.1000 -0.1982  0.2847
 1175poe    c23 5454   2.004   2.721   6.972  0.3764  0.3591  0.1539
 1175poe    c23 5455   2.000   2.726   7.126  0.1200 -0.3156  0.1717
 1175poe     o2 5456   2.122   2.775   7.177  0.2077 -0.2340 -0.1162
 1175poe    c23 5457   2.091   2.905   7.221  0.4039 -0.0773 -0.4347
 1175poe    c23 5458   2.222   2.982   7.243 -0.2096  0.8421  0.0416
 1175poe     o2 5459   2.299   3.006   7.127  0.0198 -0.0781 -0.0051
 1175poe    c31 5460   2.398   3.106   7.143 -0.6232  0.5737 -0.0257
 1176poe    c31 5461   2.725   6.750   2.370 -0.2057 -0.3882  0.3202
 1176poe     o2 5462   2.791   6.869   2.410 -0.1421 -0.4014  0.2560
 1176poe    c23 5463   2.710   6.930   2.507 -0.1803  0.2724 -0.1955
 1176poe    c23 5464   2.797   7.037   2.576 -0.3659  0.3872 -0.1380
 1176poe     o2 5465   2.839   7.124   2.473  0.6121  0.3043  0.1863
 1176poe    c23 5466   2.765   7.238   2.435 -0.1356 -0.1576  0.2339
 1176poe    c23 5467   2.839   7.289   2.309 -0.5383 -0.0092  0.0572
 1176poe     o2 5468   2.860   7.180   2.222 -0.3760 -0.0391  0.1335
 1176poe    c23 5469   2.757   7.184   2.126  0.4213  0.5692 -0.7137
 1176poe    c23 5470   2.791   7.055   2.049 -0.6855  0.2314 -0.6578
 1176poe     o2 5471   2.840   6.963   2.145  0.2582  0.9626 -0.4158
 1176poe    c31 5472   2.920   6.872   2.074  0.2084  0.2986  0.3741
 1177poe    c31 5473   0.204   0.584   5.164 -0.7550 -0.3310 -0.1651
 1177poe     o2 5474   0.214   0.523   5.038  0.3979 -0.6089  0.0536
 1177poe    c23 5475   0.294   0.611   4.961 -0.8723  0.5174 -0.0087
 1177poe    c23 5476   0.305   0.541   4.823 -0.3563 -0.3223  0.4485
 1177poe     o2 5477   0.346   0.409   4.850  0.4010 -0.1653  0.0811
 1177poe    c23 5478   0.303   0.328   4.743  0.8432 -0.3393  0.0359
 1177poe    c23 5479   0.320   0.175   4.756  0.6045 -0.3653  0.0355
 1177poe     o2 5480   0.242   0.134   4.866 -0.7025  0.0853 -0.6877
 1177poe    c23 5481   0.283   0.004   4.902 -0.0554  0.4930  0.0825
 1177poe    c23 5482   0.195  -0.052   5.016 -0.0861 -0.2811 -0.3107
 1177poe     o2 5483   0.210   0.022   5.135 -0.3306 -0.0081 -0.4470
 1177poe    c31 5484   0.092   0.000   5.209 -0.0073  0.0522  0.0984
 1178poe    c31 5485   2.083   3.354   1.751 -0.3124 -0.3078 -0.5876
 1178poe     o2 5486   2.012   3.258   1.826  0.1191 -0.3131 -0.1860
 1178poe    c23 5487   2.014   3.295   1.962  0.3505 -0.5671 -0.1197
 1178poe    c23 5488   1.892   3.247   2.042 -0.2074  0.4797 -0.3255
 1178poe     o2 5489   1.867   3.108   2.047 -0.3475  0.5311  0.5581
 1178poe    c23 5490   1.743   3.071   2.103 -0.4678  0.1863  0.0707
 1178poe    c23 5491   1.696   2.950   2.021  0.1030 -0.5293  0.7893
 1178poe     o2 5492   1.799   2.855   2.002  0.2882 -0.0234 -0.8460
 1178poe    c23 5493   1.746   2.742   1.937 -0.3708 -0.1797 -0.0517
 1178poe    c23 5494   1.872   2.663   1.896 -0.1575  0.0304  0.1955
 1178poe     o2 5495   1.987   2.744   1.905  0.2318 -0.4689 -0.2424
 1178poe    c31 5496   2.096   2.654   1.910  0.4524 -0.1558  0.7317
 1179poe    c31 5497   1.121   4.716   4.820  0.0238 -0.3142  0.4026
 1179poe     o2 5498   1.206   4.678   4.714 -0.1199  0.0915  0.1391
 1179poe    c23 5499   1.321   4.756   4.732 -0.1886  0.0452  0.7870
 1179poe    c23 5500   1.436   4.660   4.697 -0.4747 -0.1207  0.2972
 1179poe     o2 5501   1.391   4.618   4.570 -0.3586  0.5219  0.0388
 1179poe    c23 5502   1.490   4.550   4.497 -0.3787  0.2140  0.2959
 1179poe    c23 5503   1.438   4.547   4.352 -0.0594 -0.0132  0.1843
 1179poe     o2 5504   1.302   4.508   4.347  0.0164 -0.2766  0.1920
 1179poe    c23 5505   1.282   4.458   4.217 -0.4305  0.1166  0.1079
 1179poe    c23 5506   1.144   4.390   4.216 -0.2484 -0.2544 -0.4796
 1179poe     o2 5507   1.140   4.304   4.327 -0.2126 -0.1830 -0.4232
 1179poe    c31 5508   1.056   4.194   4.300 -0.4756 -0.1244  0.1318
 1180poe    c31 5509   3.494   5.842   0.509  0.0502 -0.1512  0.3325
 1180poe     o2 5510   3.454   5.736   0.593  0.4072 -0.0767  0.5991
 1180poe    c23 5511   3.560   5.665   0.653  0.4519 -0.2106  0.3624
 1180poe    c23 5512   3.495   5.593   0.773 -0.0220  0.2301  0.3747
 1180poe     o2 5513   3.398   5.492   0.761  0.7111 -0.4625  0.2071
 1180poe    c23 5514   3.336   5.462   0.884  0.1332  0.4270  0.1407
 1180poe    c23 5515   3.200   5.390   0.873 -0.0165  0.7557 -0.1713
 1180poe     o2 5516   3.099   5.479   0.829 -0.0799  0.8388  0.1383
 1180poe    c23 5517   2.982   5.401   0.825  0.1795  0.4449  0.1043
 1180poe    c23 5518   2.876   5.476   0.742 -0.3078 -0.0946  0.2325
 1180poe     o2 5519   2.870   5.616   0.761 -0.3269 -0.0417 -0.1585
 1180poe    c31 5520   2.741   5.660   0.726 -0.4620 -0.0584  0.3116
 1181poe    c31 5521   1.493   3.150   5.534 -0.1470  0.0158  0.4623
 1181poe     o2 5522   1.501   3.150   5.675  0.1931 -0.1094  0.4438
 1181poe    c23 5523   1.635   3.157   5.718  0.3993 -0.3991 -0.1333
 1181poe    c23 5524   1.657   3.176   5.870 -0.0348  0.6733 -0.2005
 1181poe     o2 5525   1.575   3.076   5.926  0.9299 -0.1049 -0.1602
 1181poe    c23 5526   1.555   3.097   6.064 -1.2437  0.3030 -0.5063
 1181poe    c23 5527   1.428   3.016   6.100 -0.4748 -0.5239  0.4061
 1181poe     o2 5528   1.310   3.080   6.056 -0.3062 -0.3071  0.2626
 1181poe    c23 5529   1.207   2.984   6.051 -0.5940 -0.0151  0.5711
 1181poe    c23 5530   1.090   3.041   5.969 -0.4659 -0.1036  0.3269
 1181poe     o2 5531   1.091   3.180   5.991  0.0311 -0.0881  0.2242
 1181poe    c31 5532   0.990   3.238   5.911 -0.0650  0.1839  0.5398
 1182poe    c31 5533   5.989   1.748   6.226  0.4951 -0.0731  0.0102
 1182poe     o2 5534   6.064   1.807   6.329 -0.3317  0.2765  0.4202
 1182poe    c23 5535   6.001   1.920   6.386 -0.3400  0.3416  0.2816
 1182poe    c23 5536   6.064   2.052   6.340 -0.3197  0.2253 -0.0257
 1182poe     o2 5537   6.068   2.095   6.205  0.3753  0.3197  0.0207
 1182poe    c23 5538   6.188   2.067   6.136  0.3444 -0.0837  0.1277
 1182poe    c23 5539   6.153   2.114   5.994  0.2088  0.3956  0.3188
 1182poe     o2 5540   6.078   2.233   6.007 -0.5253 -0.0763  0.4522
 1182poe    c23 5541   6.024   2.264   5.881 -0.2914 -0.8872  0.1471
 1182poe    c23 5542   5.908   2.360   5.911  0.0587 -0.3117 -0.3080
 1182poe     o2 5543   5.832   2.301   6.014 -0.3085  0.2633 -0.2474
 1182poe    c31 5544   5.700   2.352   6.008 -0.3067  0.2544 -0.3639
 1183poe    c31 5545   6.772   1.803   1.440 -0.3875 -0.1195  0.3988
 1183poe     o2 5546   6.697   1.731   1.345 -0.0454  0.0023  0.0367
 1183poe    c23 5547   6.559   1.744   1.370 -0.0346 -0.2582  0.2253
 1183poe    c23 5548   6.500   1.750   1.228  0.4011  0.0956  0.0562
 1183poe     o2 5549   6.533   1.632   1.158  0.5412  0.1414  0.0450
 1183poe    c23 5550   6.533   1.642   1.017 -0.2120  0.0436  0.0328
 1183poe    c23 5551   6.566   1.499   0.971  0.1868  0.2832 -0.4297
 1183poe     o2 5552   6.680   1.455   1.042 -0.3544 -0.2072  0.1377
 1183poe    c23 5553   6.726   1.329   0.998 -0.2845 -0.1295 -0.0105
 1183poe    c23 5554   6.663   1.204   1.061  0.6902 -0.8284 -0.3942
 1183poe     o2 5555   6.675   1.199   1.201  0.3406 -0.3478 -0.3436
 1183poe    c31 5556   6.568   1.118   1.247  0.2613 -0.2748 -0.3999
 1184poe    c31 5557   2.486   5.035   1.974  0.3174  0.0336  0.1948
 1184poe     o2 5558   2.605   5.095   1.929  0.6166 -0.8874 -0.2644
 1184poe    c23 5559   2.596   5.155   1.802  0.4240  0.4832  0.3794
 1184poe    c23 5560   2.714   5.245   1.762  0.1634  0.3766 -0.6739
 1184poe     o2 5561   2.776   5.289   1.881  0.1849 -0.3937 -0.3945
 1184poe    c23 5562   2.875   5.389   1.876  0.0299 -0.1967  0.3840
 1184poe    c23 5563   3.017   5.347   1.916  0.3272 -0.0151 -0.4487
 1184poe     o2 5564   3.019   5.312   2.053 -0.3114  0.2016 -0.3829
 1184poe    c23 5565   3.148   5.267   2.085 -0.2621  1.0041  0.6060
 1184poe    c23 5566   3.136   5.195   2.221 -0.3158 -0.0600  0.0501
 1184poe     o2 5567   3.085   5.064   2.209 -0.6023  0.0584 -0.0544
 1184poe    c31 5568   3.077   5.014   2.341 -0.0071  0.3383  0.0929
 1185poe    c31 5569   3.754   2.604   0.140 -0.5054  0.0019  0.3618
 1185poe     o2 5570   3.685   2.533   0.039 -0.2434 -0.1971  0.3235
 1185poe    c23 5571   3.562   2.503   0.101 -0.3662  0.3460  0.3444
 1185poe    c23 5572   3.465   2.434   0.002  0.3971  0.7891 -0.7314
 1185poe     o2 5573   3.545   2.346  -0.073  0.1699 -0.4728  0.4787
 1185poe    c23 5574   3.468   2.271  -0.164  0.7196  0.2428 -0.5958
 1185poe    c23 5575   3.535   2.185  -0.272  0.5032 -0.0265 -0.5174
 1185poe     o2 5576   3.590   2.265  -0.374  0.1145  0.5815 -0.2506
 1185poe    c23 5577   3.589   2.195  -0.496 -0.8455  0.1185  0.0115
 1185poe    c23 5578   3.605   2.270  -0.630  0.9066  0.6679  0.4908
 1185poe     o2 5579   3.484   2.342  -0.637  0.4470 -0.1397 -0.0323
 1185poe    c31 5580   3.462   2.385  -0.769 -0.2365 -0.0073  0.1223
 1186poe    c31 5581   0.617   4.322   0.326  0.1251  0.4672 -0.1193
 1186poe     o2 5582   0.612   4.190   0.375  0.0706  0.5246  0.0303
 1186poe    c23 5583   0.720   4.151   0.456  0.3090  0.7830 -0.1632
 1186poe    c23 5584   0.798   4.049   0.372 -0.0315 -0.2742  0.7747
 1186poe     o2 5585   0.725   3.931   0.346 -0.2267  0.0055  0.0241
 1186poe    c23 5586   0.793   3.841   0.262 -0.1259  0.2370 -0.1442
 1186poe    c23 5587   0.808   3.697   0.314 -0.0906  0.4174  0.3583
 1186poe     o2 5588   0.680   3.642   0.332 -0.0176 -0.0052 -0.3541
 1186poe    c23 5589   0.679   3.501   0.333  0.0732 -0.0056 -0.2032
 1186poe    c23 5590   0.543   3.434   0.360 -0.0004  0.3505  0.3165
 1186poe     o2 5591   0.529   3.368   0.483  0.1725 -0.1662  0.0622
 1186poe    c31 5592   0.396   3.374   0.530 -0.2262  0.2742 -1.0827
 1187poe    c31 5593   1.995   6.215   0.560 -0.1568 -0.5404 -0.2989
 1187poe     o2 5594   2.065   6.098   0.523  0.0906 -0.5317  0.1379
 1187poe    c23 5595   2.052   5.990   0.613 -0.2056 -0.3824  0.2747
 1187poe    c23 5596   2.161   5.890   0.571  0.2930  0.1969  0.1797
 1187poe     o2 5597   2.184   5.906   0.432  0.2903  0.6439  0.2298
 1187poe    c23 5598   2.288   5.822   0.388 -0.4740 -0.3983  0.3825
 1187poe    c23 5599   2.261   5.822   0.236 -0.4819 -0.0428  0.3843
 1187poe     o2 5600   2.205   5.948   0.206  0.0791  0.1597  0.1791
 1187poe    c23 5601   2.289   6.016   0.115  0.3576 -0.5423 -0.1000
 1187poe    c23 5602   2.239   6.162   0.127  0.0918 -0.6453  0.0672
 1187poe     o2 5603   2.168   6.192   0.245  0.4634 -0.0518  0.1421
 1187poe    c31 5604   2.121   6.325   0.235  0.5214 -0.0476 -0.0872
 1188poe    c31 5605   2.699   5.138   3.980  0.8873  0.5690  0.1645
 1188poe     o2 5606   2.758   5.033   3.907 -0.0577 -0.0974  0.3450
 1188poe    c23 5607   2.708   4.908   3.949 -0.4971 -0.1048 -0.1780
 1188poe    c23 5608   2.768   4.799   3.859  0.2305 -0.0423  0.2198
 1188poe     o2 5609   2.761   4.860   3.732 -0.3396 -0.5914 -0.0220
 1188poe    c23 5610   2.826   4.794   3.626 -0.3437 -0.7089  0.0484
 1188poe    c23 5611   2.816   4.873   3.494 -0.6668  0.3387  0.6855
 1188poe     o2 5612   2.859   5.003   3.525  0.1426  0.1264  0.4858
 1188poe    c23 5613   2.911   5.077   3.417  0.1179  0.1662  0.5015
 1188poe    c23 5614   2.895   5.230   3.409  0.3960  0.1528 -0.5375
 1188poe     o2 5615   2.945   5.288   3.528 -0.3965 -0.0455 -0.0988
 1188poe    c31 5616   2.926   5.428   3.524  1.0820  0.2027  0.6727
 1189poe    c31 5617   2.262   4.550   6.140  0.5244 -0.5364 -0.2575
 1189poe     o2 5618   2.186   4.664   6.170  0.6667 -0.3759 -0.5057
 1189poe    c23 5619   2.123   4.649   6.296  0.3266  0.1232 -0.6126
 1189poe    c23 5620   2.038   4.777   6.309  0.4662  0.1482  0.1101
 1189poe     o2 5621   2.113   4.897   6.315  0.3769  0.2189 -0.1588
 1189poe    c23 5622   2.149   4.921   6.450 -0.0120  0.2118 -0.0519
 1189poe    c23 5623   2.296   4.963   6.435  0.0882 -0.1325 -0.0555
 1189poe     o2 5624   2.299   5.058   6.331 -0.0848 -0.3894 -0.2945
 1189poe    c23 5625   2.428   5.114   6.327 -0.3339  0.2237  0.0544
 1189poe    c23 5626   2.445   5.206   6.205  0.1948  0.5660  0.3783
 1189poe     o2 5627   2.354   5.150   6.112 -0.0156  0.3811  0.6929
 1189poe    c31 5628   2.362   5.223   5.992 -0.3517 -0.2984  0.2550
 1190poe    c31 5629   1.364   4.039   5.384 -0.4715  0.2250 -0.1188
 1190poe     o2 5630   1.460   4.125   5.328 -0.3304  0.2679  0.1865
 1190poe    c23 5631   1.539   4.191   5.424  0.4026 -0.2802 -0.0281
 1190poe    c23 5632   1.600   4.317   5.360  0.1029 -0.1401 -0.0437
 1190poe     o2 5633   1.668   4.287   5.240 -0.4364 -0.5023 -0.2618
 1190poe    c23 5634   1.800   4.236   5.246 -0.4356 -0.5089 -0.3251
 1190poe    c23 5635   1.893   4.290   5.137  0.1479  0.2233  0.5176
 1190poe     o2 5636   1.824   4.256   5.018  0.7528  0.4427  0.0978
 1190poe    c23 5637   1.849   4.336   4.905  0.7386 -0.1213 -0.3069
 1190poe    c23 5638   1.771   4.277   4.786  0.4186 -0.8579  0.2648
 1190poe     o2 5639   1.644   4.243   4.837 -0.0810  0.2666 -0.2108
 1190poe    c31 5640   1.555   4.194   4.739 -0.3275  0.5577 -0.1352
 1191poe    c31 5641   3.379   1.521   4.544 -0.2504 -0.0746  0.0260
 1191poe     o2 5642   3.251   1.559   4.590  0.1663  0.9196  0.4059
 1191poe    c23 5643   3.146   1.486   4.531  0.3177  0.3322  0.8519
 1191poe    c23 5644   3.014   1.514   4.605 -0.7128 -0.1235 -0.7506
 1191poe     o2 5645   3.041   1.510   4.743 -0.1135 -0.3310 -0.8706
 1191poe    c23 5646   2.926   1.544   4.817  0.3443 -0.1503 -0.2298
 1191poe    c23 5647   2.981   1.599   4.950 -0.5459  0.0078  0.0802
 1191poe     o2 5648   3.084   1.692   4.933 -0.3824 -0.1014  0.4505
 1191poe    c23 5649   3.135   1.755   5.048 -0.8221 -0.1728  0.6846
 1191poe    c23 5650   3.209   1.656   5.141 -0.0769  0.0808  0.3688
 1191poe     o2 5651   3.324   1.597   5.084 -0.3986 -0.0787 -0.1227
 1191poe    c31 5652   3.351   1.473   5.145  0.6091  0.2608  0.1472
 1192poe    c31 5653   1.558   1.025   1.110 -0.3508  0.2364 -0.4475
 1192poe     o2 5654   1.445   0.961   1.165  0.0772  0.0827  0.2637
 1192poe    c23 5655   1.457   0.822   1.182 -1.0541 -0.0833 -0.2051
 1192poe    c23 5656   1.378   0.759   1.298 -0.1940 -0.9695 -0.0859
 1192poe     o2 5657   1.457   0.769   1.414  0.4889 -0.2275 -0.6082
 1192poe    c23 5658   1.393   0.715   1.527  0.7085  0.5620 -0.0970
 1192poe    c23 5659   1.483   0.723   1.652  0.2000 -0.0114  0.3132
 1192poe     o2 5660   1.515   0.860   1.655  0.5270 -0.0773 -0.0613
 1192poe    c23 5661   1.566   0.883   1.784 -0.2149 -0.1042  0.2423
 1192poe    c23 5662   1.619   1.028   1.791  0.7532 -0.4610  0.3721
 1192poe     o2 5663   1.714   1.053   1.689 -0.6689  0.5923 -0.7289
 1192poe    c31 5664   1.813   1.147   1.722 -0.1670 -0.2142  0.1040
 1193poe    c31 5665   2.412   1.107   6.325 -0.1108  0.3950 -0.0511
 1193poe     o2 5666   2.273   1.086   6.336 -0.1409  0.5186 -0.1959
 1193poe    c23 5667   2.230   1.160   6.448 -0.2704  0.1582 -0.0054
 1193poe    c23 5668   2.085   1.123   6.485 -0.2111 -0.5242 -0.4290
 1193poe     o2 5669   2.049   0.989   6.509 -0.6326 -0.4245 -0.4929
 1193poe    c23 5670   1.913   0.992   6.545 -0.5106  0.9418 -0.0905
 1193poe    c23 5671   1.869   0.845   6.541  0.3463  0.6789 -0.1454
 1193poe     o2 5672   1.959   0.773   6.622 -0.2641  0.0406 -0.0136
 1193poe    c23 5673   1.929   0.640   6.657 -0.1134  0.1764  0.6309
 1193poe    c23 5674   2.066   0.591   6.709  0.3559  0.3898 -0.3900
 1193poe     o2 5675   2.162   0.623   6.611  0.3445  0.4087 -0.3948
 1193poe    c31 5676   2.283   0.555   6.638 -0.2379 -0.7780 -0.6935
 1194poe    c31 5677   0.712   6.833   5.714 -0.8656 -0.4021  0.0747
 1194poe     o2 5678   0.643   6.719   5.667  0.2223 -0.6459 -0.9863
 1194poe    c23 5679   0.690   6.599   5.726  0.9215  0.1826  0.1975
 1194poe    c23 5680   0.597   6.478   5.747  0.8634  0.2816  0.5103
 1194poe     o2 5681   0.568   6.421   5.622  0.0868 -0.2491  0.9249
 1194poe    c23 5682   0.473   6.321   5.651 -0.3207 -0.1223  0.0606
 1194poe    c23 5683   0.411   6.260   5.524 -0.8451 -0.0776  0.2935
 1194poe     o2 5684   0.346   6.367   5.458 -0.0474 -0.2552 -0.8025
 1194poe    c23 5685   0.206   6.353   5.456 -0.1574  0.5452  0.2854
 1194poe    c23 5686   0.141   6.455   5.362  0.3016  0.1615 -0.4559
 1194poe     o2 5687   0.205   6.579   5.377 -0.0233  0.2350  0.3898
 1194poe    c31 5688   0.120   6.689   5.353  0.3418  0.3237 -0.5670
 1195poe    c31 5689   0.635   0.918   0.749  0.2156  0.3987  0.4165
 1195poe     o2 5690   0.521   1.000   0.749 -0.1658 -0.1219  0.2042
 1195poe    c23 5691   0.512   1.079   0.633 -0.3582 -0.2518  0.1306
 1195poe    c23 5692   0.398   1.180   0.650 -0.3853 -0.2056 -0.3004
 1195poe     o2 5693   0.425   1.257   0.766 -0.3220 -0.9308  0.1700
 1195poe    c23 5694   0.330   1.360   0.781 -0.0613 -0.6098 -0.3700
 1195poe    c23 5695   0.352   1.456   0.900  0.2464 -0.9497 -0.1493
 1195poe     o2 5696   0.411   1.381   1.003  0.6921 -0.4888 -0.0650
 1195poe    c23 5697   0.404   1.447   1.128 -0.2797 -0.7396  0.0169
 1195poe    c23 5698   0.481   1.350   1.218 -0.0454 -0.2795  0.3172
 1195poe     o2 5699   0.589   1.292   1.149 -0.0309 -0.1920  0.2662
 1195poe    c31 5700   0.654   1.199   1.234  0.9066 -0.2353 -0.4729
 1196poe    c31 5701   5.524   5.941   2.060  0.6544 -0.3348  0.3325
 1196poe     o2 5702   5.596   5.941   1.938  0.5059 -0.3633  0.2444
 1196poe    c23 5703   5.683   5.830   1.930  1.2086  0.1792  0.2701
 1196poe    c23 5704   5.766   5.835   1.801  0.6564 -0.6956 -0.1252
 1196poe     o2 5705   5.853   5.945   1.788  0.2868 -0.4256 -0.3240
 1196poe    c23 5706   5.923   5.944   1.665  0.8835 -0.0612  0.0101
 1196poe    c23 5707   5.955   6.088   1.620 -0.4664  0.3398  0.2764
 1196poe     o2 5708   5.849   6.176   1.594 -0.3029  0.4065 -0.1788
 1196poe    c23 5709   5.887   6.311   1.576 -0.0545  0.3541 -0.0535
 1196poe    c23 5710   5.763   6.385   1.522 -0.2801 -0.1454 -0.2326
 1196poe     o2 5711   5.674   6.408   1.629  0.0898  0.6663 -0.0940
 1196poe    c31 5712   5.625   6.540   1.628 -1.1495  0.2135 -0.5612
 1197poe    c31 5713   0.754   3.279   3.849  0.1618 -0.2669  0.1088
 1197poe     o2 5714   0.876   3.345   3.826 -0.1254  0.3371  0.3042
 1197poe    c23 5715   0.985   3.271   3.877  0.0021  0.2573 -0.0835
 1197poe    c23 5716   1.105   3.367   3.891  0.6722 -0.6318  0.2989
 1197poe     o2 5717   1.115   3.453   3.780  0.0773 -0.3803  0.4371
 1197poe    c23 5718   1.184   3.573   3.807 -0.8671  0.1618  0.4940
 1197poe    c23 5719   1.179   3.651   3.675 -0.0171  0.4997  0.6509
 1197poe     o2 5720   1.040   3.645   3.650  0.0723  0.1745  0.2041
 1197poe    c23 5721   0.986   3.741   3.562 -0.0721 -0.2099 -0.1308
 1197poe    c23 5722   1.020   3.696   3.419 -0.2134  0.4448 -0.3744
 1197poe     o2 5723   0.946   3.580   3.388 -0.2330  0.3765 -0.0788
 1197poe    c31 5724   0.946   3.574   3.247  0.5572 -0.2736 -0.0542
 1198poe    c31 5725   5.180   2.617   3.504  0.3010 -0.0734 -0.1866
 1198poe     o2 5726   5.136   2.527   3.602  0.5735 -0.0946 -0.0829
 1198poe    c23 5727   5.171   2.396   3.561  0.6333 -0.0453 -0.1881
 1198poe    c23 5728   5.127   2.292   3.666  0.1384  0.2219 -0.1288
 1198poe     o2 5729   4.987   2.286   3.675  0.2022 -0.1267  0.7311
 1198poe    c23 5730   4.938   2.189   3.765 -0.2719 -0.3331  0.2598
 1198poe    c23 5731   4.788   2.176   3.730 -0.0834 -0.3304 -0.5666
 1198poe     o2 5732   4.741   2.306   3.702 -0.1468 -0.1829  0.1998
 1198poe    c23 5733   4.601   2.300   3.690 -0.1186  0.1541 -0.3099
 1198poe    c23 5734   4.522   2.410   3.615 -0.0392  0.1225 -0.4399
 1198poe     o2 5735   4.578   2.465   3.499  0.1937  0.2453 -0.2698
 1198poe    c31 5736   4.484   2.499   3.399 -0.3338 -0.3116  0.0341
 1199poe    c31 5737   1.082   6.941   0.663 -0.2328 -0.0857 -0.5594
 1199poe     o2 5738   1.112   7.077   0.687  0.3802 -0.4000  0.5760
 1199poe    c23 5739   1.243   7.117   0.652  0.2288 -0.3695  0.0245
 1199poe    c23 5740   1.282   7.247   0.724 -0.3844 -0.1866  0.0375
 1199poe     o2 5741   1.163   7.318   0.701 -0.2616 -0.2172 -0.7468
 1199poe    c23 5742   1.187   7.449   0.747 -0.7406 -0.7233  1.0279
 1199poe    c23 5743   1.079   7.536   0.679  0.4076 -0.0134  0.0785
 1199poe     o2 5744   0.952   7.481   0.706  0.0502  0.6518 -0.2231
 1199poe    c23 5745   0.853   7.564   0.651 -0.3396  0.2629 -0.1156
 1199poe    c23 5746   0.717   7.546   0.719  0.2176 -0.3042  0.8639
 1199poe     o2 5747   0.658   7.423   0.686 -0.0561  0.0272  0.1025
 1199poe    c31 5748   0.517   7.433   0.688 -0.1106 -0.5738 -0.3974
 1200poe    c31 5749   6.348   4.262   4.061 -0.0133 -0.3657  0.2221
 1200poe     o2 5750   6.463   4.188   4.026  0.2245  0.3610 -0.5662
 1200poe    c23 5751   6.462   4.053   4.069  0.0923  0.5858  0.1372
 1200poe    c23 5752   6.610   4.013   4.083  0.1254  0.6596  0.0038
 1200poe     o2 5753   6.661   4.048   3.957  0.0792  0.2139 -0.1397
 1200poe    c23 5754   6.802   4.057   3.950  0.1422 -0.6392 -0.1383
 1200poe    c23 5755   6.834   4.088   3.802  0.3505 -0.0839  0.0217
 1200poe     o2 5756   6.760   4.200   3.759  0.3219  0.0978  0.5347
 1200poe    c23 5757   6.850   4.298   3.714  0.5660 -0.3900 -0.0492
 1200poe    c23 5758   6.773   4.423   3.668  0.4576 -0.2478  0.5188
 1200poe     o2 5759   6.695   4.497   3.760  0.7465  0.2601  0.3552
 1200poe    c31 5760   6.616   4.592   3.692  0.1551  0.0810  0.7830
 1201poe    c31 5761   0.576   2.663   6.334  0.0511  0.1529  0.0528
 1201poe     o2 5762   0.576   2.651   6.474  0.4338 -0.5409 -0.0024
 1201poe    c23 5763   0.497   2.537   6.502  0.3269 -0.4358  0.1242
 1201poe    c23 5764   0.476   2.503   6.651  0.0804  0.2200  0.2439
 1201poe     o2 5765   0.589   2.427   6.687 -0.1671 -0.3675 -0.2006
 1201poe    c23 5766   0.557   2.351   6.801 -0.2729 -0.5920 -0.3781
 1201poe    c23 5767   0.676   2.262   6.840 -0.5099 -0.5622  0.4355
 1201poe     o2 5768   0.784   2.352   6.830 -0.5230 -0.6336 -0.3501
 1201poe    c23 5769   0.901   2.287   6.875 -0.5277 -0.7143 -0.4518
 1201poe    c23 5770   1.020   2.379   6.845 -0.4758 -0.6877 -0.1734
 1201poe     o2 5771   0.996   2.459   6.732  0.1782  0.0997  0.2374
 1201poe    c31 5772   1.128   2.470   6.683  0.2449 -0.1411  0.3605
 1202poe    c31 5773   0.098   1.695   6.510 -0.0755 -0.1543 -0.3589
 1202poe     o2 5774   0.228   1.642   6.496  0.3894  0.8301  0.0734
 1202poe    c23 5775   0.270   1.702   6.375  0.0841  0.2923 -0.3054
 1202poe    c23 5776   0.424   1.702   6.378  0.0808  0.0282 -0.0073
 1202poe     o2 5777   0.474   1.571   6.390  0.3063  0.1468  0.3492
 1202poe    c23 5778   0.615   1.567   6.383  0.3003 -0.0697  0.3177
 1202poe    c23 5779   0.659   1.426   6.340 -0.6294  0.0191 -0.9737
 1202poe     o2 5780   0.584   1.332   6.412  0.2662  0.4023  0.5140
 1202poe    c23 5781   0.617   1.197   6.389  0.2401  0.4594  0.1325
 1202poe    c23 5782   0.497   1.117   6.444  0.2537  0.2172 -0.1854
 1202poe     o2 5783   0.470   1.130   6.582  0.4121 -0.2898 -0.1060
 1202poe    c31 5784   0.546   1.051   6.671  0.0574  0.3308  0.7527
 1203poe    c31 5785   6.108   2.852   2.529  0.4193 -0.1308 -0.2528
 1203poe     o2 5786   6.127   2.737   2.607 -0.4616 -0.0272  0.1308
 1203poe    c23 5787   6.114   2.624   2.524  0.5527  0.1897 -0.3475
 1203poe    c23 5788   6.123   2.495   2.609  0.3173  0.2504 -0.2307
 1203poe     o2 5789   6.065   2.507   2.737 -0.2273 -0.5294 -0.3950
 1203poe    c23 5790   6.103   2.410   2.832 -0.0416  0.0942  0.1782
 1203poe    c23 5791   6.043   2.459   2.965  0.0582 -0.2066  0.3356
 1203poe     o2 5792   6.077   2.596   2.966 -0.8235  0.0224 -0.0267
 1203poe    c23 5793   6.031   2.671   3.076 -0.2475 -0.0869  0.2915
 1203poe    c23 5794   5.878   2.684   3.088 -0.2864  0.1591 -0.4098
 1203poe     o2 5795   5.843   2.790   3.175  0.4604  0.4187 -0.4220
 1203poe    c31 5796   5.708   2.817   3.150  0.1641 -0.2662  0.3682
 1204poe    c31 5797   2.349   0.662   2.723 -0.1995 -0.5345 -0.0842
 1204poe     o2 5798   2.463   0.581   2.713  0.0383 -0.2265  0.1064
 1204poe    c23 5799   2.521   0.596   2.585 -0.2971 -0.5908 -0.0925
 1204poe    c23 5800   2.650   0.512   2.597  0.0321 -0.1316 -0.3767
 1204poe     o2 5801   2.748   0.565   2.683  0.1352 -0.4648 -0.2909
 1204poe    c23 5802   2.856   0.476   2.701  0.4879  0.0476  0.1587
 1204poe    c23 5803   2.918   0.486   2.841  0.1278  0.2377  0.3060
 1204poe     o2 5804   2.829   0.430   2.935  0.1070 -0.2817 -0.0168
 1204poe    c23 5805   2.902   0.414   3.054 -0.0835  0.2288  0.1741
 1204poe    c23 5806   2.865   0.278   3.116  0.3952 -0.1559 -0.3764
 1204poe     o2 5807   2.727   0.266   3.143  0.5843 -0.7071  0.3991
 1204poe    c31 5808   2.684   0.132   3.138  0.2314 -0.5748 -0.2732
 1205poe    c31 5809   6.075   4.085   4.399  0.6021 -0.2372  0.2379
 1205poe     o2 5810   5.936   4.059   4.392  0.4478  0.4951  0.5423
 1205poe    c23 5811   5.904   3.927   4.431 -0.3955  0.2683 -0.8439
 1205poe    c23 5812   5.795   3.942   4.538  0.2883 -0.0360 -0.0917
 1205poe     o2 5813   5.822   3.988   4.669 -0.3068  0.0423  0.0083
 1205poe    c23 5814   5.701   4.014   4.736 -0.0575  0.4623  0.3011
 1205poe    c23 5815   5.687   4.157   4.792 -0.1965  0.7646 -0.4934
 1205poe     o2 5816   5.785   4.204   4.882 -0.0411 -0.0777 -0.2143
 1205poe    c23 5817   5.739   4.306   4.968 -0.6856 -0.7868  0.2901
 1205poe    c23 5818   5.810   4.291   5.104  0.5160  0.1337 -0.2226
 1205poe     o2 5819   5.941   4.343   5.102  0.5710 -0.0038 -0.1304
 1205poe    c31 5820   5.954   4.404   5.228 -0.5156  0.5269 -0.2651
 1206poe    c31 5821   4.655   3.335   2.576 -0.3287 -0.3483  0.0140
 1206poe     o2 5822   4.694   3.200   2.593 -0.1820 -0.3681 -0.4412
 1206poe    c23 5823   4.698   3.175   2.732  0.3739 -0.0224 -0.3909
 1206poe    c23 5824   4.746   3.028   2.736 -0.0456 -0.1824 -1.0469
 1206poe     o2 5825   4.647   2.940   2.687 -0.1695 -0.8424  0.3481
 1206poe    c23 5826   4.682   2.805   2.705  0.0478 -0.7608  0.5565
 1206poe    c23 5827   4.583   2.731   2.613  0.0285  0.1380 -0.1565
 1206poe     o2 5828   4.594   2.789   2.485  0.7184  0.2641 -0.0420
 1206poe    c23 5829   4.518   2.705   2.401 -0.3632  0.8571  0.3234
 1206poe    c23 5830   4.558   2.756   2.262 -0.6294  0.1238 -0.0282
 1206poe     o2 5831   4.566   2.897   2.255  0.4231  0.0633 -0.2901
 1206poe    c31 5832   4.573   2.944   2.122  0.2398 -0.4090 -0.4688
 1207poe    c31 5833   0.142   1.446   2.176  0.6459 -0.1071  0.6433
 1207poe     o2 5834   0.232   1.357   2.115 -0.1230 -0.3684 -0.1299
 1207poe    c23 5835   0.250   1.383   1.978  0.5440  0.1110  0.0433
 1207poe    c23 5836   0.364   1.288   1.938  0.1397 -0.3013 -0.1337
 1207poe     o2 5837   0.321   1.163   1.988  0.6902 -0.5755 -0.3417
 1207poe    c23 5838   0.394   1.058   1.928  0.5405 -0.9603  0.1371
 1207poe    c23 5839   0.357   0.924   1.993 -0.2044 -0.8968 -0.1452
 1207poe     o2 5840   0.373   0.958   2.129 -0.1974 -0.5154 -0.2407
 1207poe    c23 5841   0.397   0.844   2.208  0.1871 -0.3191 -0.0705
 1207poe    c23 5842   0.379   0.858   2.360  0.7143  0.6804 -0.0936
 1207poe     o2 5843   0.256   0.917   2.394  0.6229  0.3669  0.1246
 1207poe    c31 5844   0.228   0.896   2.531 -0.1058 -0.8875 -0.1962
 1208poe    c31 5845   6.258   2.184   7.007 -0.6354 -0.4586 -0.0425
 1208poe     o2 5846   6.199   2.305   6.965  0.4295  0.0979  0.0276
 1208poe    c23 5847   6.058   2.301   6.977  0.4745  0.0891  0.5912
 1208poe    c23 5848   5.991   2.414   6.898  0.0403 -0.5093  0.0867
 1208poe     o2 5849   6.046   2.541   6.926 -0.3775 -0.2921 -0.0642
 1208poe    c23 5850   5.961   2.653   6.921 -0.2112 -0.1992 -1.0243
 1208poe    c23 5851   6.045   2.770   6.976 -0.3587 -0.4554 -0.2476
 1208poe     o2 5852   6.181   2.747   6.948 -0.2070  0.0379  0.0710
 1208poe    c23 5853   6.264   2.773   7.059  0.1676 -0.2649 -0.1321
 1208poe    c23 5854   6.393   2.691   7.042  0.5225  0.2473  0.0572
 1208poe     o2 5855   6.359   2.557   7.013  0.2575  0.2441  0.3702
 1208poe    c31 5856   6.479   2.486   7.034  0.0486 -0.1753  0.1379
 1209poe    c31 5857   4.786   0.008   2.891 -0.2567  0.1136  0.3128
 1209poe     o2 5858   4.760   0.018   3.029 -0.4696 -0.4432  0.3169
 1209poe    c23 5859   4.869   0.085   3.089 -0.4025 -0.2151 -0.0565
 1209poe    c23 5860   4.837   0.133   3.232  0.1605 -0.0000 -0.0000
 1209poe     o2 5861   4.848   0.016   3.310 -0.0380 -0.0478 -0.0444
 1209poe    c23 5862   4.811   0.027   3.446  0.0402 -0.0330 -0.0246
 1209poe    c23 5863   4.861  -0.103   3.514  0.4245  0.3648  0.4631
 1209poe     o2 5864   4.789  -0.209   3.454 -0.1930  0.6704  0.6550
 1209poe    c23 5865   4.768  -0.317   3.542 -0.2407 -0.0966 -0.2798
 1209poe    c23 5866   4.676  -0.416   3.470 -0.1198 -0.7017  0.3790
 1209poe     o2 5867   4.722  -0.426   3.337  0.3092 -0.2326  0.4903
 1209poe    c31 5868   4.685  -0.541   3.265 -0.5725  0.3314  0.0236
 1210poe    c31 5869   5.074   4.261   3.434  0.1092 -0.8090  0.4037
 1210poe     o2 5870   5.022   4.162   3.347  0.4776 -0.5399 -0.1247
 1210poe    c23 5871   5.052   4.164   3.209  0.3387  0.2127 -0.1498
 1210poe    c23 5872   4.973   4.266   3.125 -0.2798  0.1385  0.3306
 1210poe     o2 5873   4.838   4.229   3.143 -0.3945  0.4031  0.0227
 1210poe    c23 5874   4.760   4.206   3.028  0.0722  0.6457 -0.3473
 1210poe    c23 5875   4.773   4.084   2.935  0.0819  0.3131  0.0849
 1210poe     o2 5876   4.755   3.958   2.996  0.2724  0.2079 -0.0750
 1210poe    c23 5877   4.784   3.854   2.905  0.5709  0.2179  0.0063
 1210poe    c23 5878   4.746   3.710   2.945  0.4440  0.1282 -0.4367
 1210poe     o2 5879   4.806   3.655   3.060 -0.1023  0.1478 -0.1378
 1210poe    c31 5880   4.771   3.520   3.078 -0.2539  0.2496  0.3349
 1211poe    c31 5881   1.506   2.686   5.815  0.1672  0.1245 -0.2909
 1211poe     o2 5882   1.557   2.732   5.938  0.1402 -0.2192 -0.1488
 1211poe    c23 5883   1.692   2.759   5.906  0.0953  0.0211 -0.1415
 1211poe    c23 5884   1.764   2.787   6.040  0.4668 -0.5885 -0.2073
 1211poe     o2 5885   1.740   2.675   6.122 -0.7750 -0.2537 -0.0798
 1211poe    c23 5886   1.763   2.713   6.256 -0.3530 -0.0783 -0.1991
 1211poe    c23 5887   1.733   2.597   6.352  0.2518 -0.1612 -0.1058
 1211poe     o2 5888   1.607   2.568   6.295  0.1122  0.2584 -0.0108
 1211poe    c23 5889   1.548   2.448   6.340  0.0765  0.3255  0.1237
 1211poe    c23 5890   1.427   2.426   6.248  0.0637  0.3737  0.1286
 1211poe     o2 5891   1.458   2.436   6.111 -0.4304 -0.2280 -0.0353
 1211poe    c31 5892   1.363   2.393   6.016 -0.1179 -0.2159 -0.3547
 1212poe    c31 5893   4.910   6.754   1.365  0.0190  0.7120 -0.5934
 1212poe     o2 5894   4.831   6.662   1.438  0.2323  0.8075 -0.2366
 1212poe    c23 5895   4.697   6.673   1.393 -0.0447 -0.0167  0.3733
 1212poe    c23 5896   4.584   6.628   1.487 -0.2892  0.2294  0.1967
 1212poe     o2 5897   4.574   6.487   1.488  0.5559  0.1664  0.6326
 1212poe    c23 5898   4.472   6.454   1.580 -0.0326  0.4588  0.0964
 1212poe    c23 5899   4.420   6.311   1.559  0.0456  0.5732 -0.9538
 1212poe     o2 5900   4.546   6.248   1.549 -0.3684 -0.4511 -0.0134
 1212poe    c23 5901   4.519   6.118   1.502 -0.7815 -0.1168 -0.7186
 1212poe    c23 5902   4.646   6.037   1.532 -0.8237  0.1773  0.3084
 1212poe     o2 5903   4.750   6.117   1.481 -0.5561  0.1156  0.7548
 1212poe    c31 5904   4.871   6.047   1.493 -0.5114  0.1348  0.4078
 1213poe    c31 5905   1.425   2.060   1.694 -0.6442  0.0997  0.7766
 1213poe     o2 5906   1.541   2.116   1.636 -0.8432  0.2238  0.4958
 1213poe    c23 5907   1.514   2.125   1.498 -0.0305  0.0685  0.3263
 1213poe    c23 5908   1.632   2.188   1.421  0.0425 -0.5106 -0.0465
 1213poe     o2 5909   1.765   2.144   1.437  0.1312 -0.0982  0.3713
 1213poe    c23 5910   1.855   2.232   1.372 -0.0536  0.1886  0.4992
 1213poe    c23 5911   1.992   2.167   1.403  0.1042  0.2945  0.0336
 1213poe     o2 5912   1.969   2.028   1.410 -0.0752  0.2969 -0.5042
 1213poe    c23 5913   2.088   1.953   1.419 -0.2187  0.1820  0.5200
 1213poe    c23 5914   2.037   1.808   1.436  0.3142 -0.0815 -0.0919
 1213poe     o2 5915   1.949   1.807   1.546  0.1226 -0.3597 -0.2485
 1213poe    c31 5916   1.986   1.721   1.651  0.4521  0.7213  0.5300
 1214poe    c31 5917   2.680   3.322   1.585  0.3782 -0.6877 -0.4418
 1214poe     o2 5918   2.602   3.225   1.518 -0.3606 -0.1774 -0.3224
 1214poe    c23 5919   2.572   3.118   1.605  0.0166 -0.5584 -0.6616
 1214poe    c23 5920   2.491   3.030   1.508 -0.2349 -0.0903 -0.8788
 1214poe     o2 5921   2.397   3.124   1.461 -0.8662 -0.1225  0.2940
 1214poe    c23 5922   2.300   3.066   1.376 -0.5228 -0.3875  0.0804
 1214poe    c23 5923   2.190   3.170   1.349 -0.0155  0.4313  1.0907
 1214poe     o2 5924   2.254   3.278   1.285  0.1625 -0.3429 -0.0693
 1214poe    c23 5925   2.160   3.373   1.239  0.4093 -0.0908 -0.0587
 1214poe    c23 5926   2.216   3.502   1.177 -0.4003  0.3087  0.0228
 1214poe     o2 5927   2.299   3.586   1.255 -0.5774  0.3584  0.1596
 1214poe    c31 5928   2.361   3.691   1.184 -0.2425  0.2096  0.2293
 1215poe    c31 5929   4.199   4.635   6.092 -0.0727 -0.6294  0.3188
 1215poe     o2 5930   4.272   4.594   5.979 -0.0827  0.0072  0.0732
 1215poe    c23 5931   4.396   4.659   5.963 -0.0026 -0.1055  0.2344
 1215poe    c23 5932   4.431   4.626   5.816 -0.2222 -0.3445  0.2341
 1215poe     o2 5933   4.403   4.490   5.791 -0.9004 -0.2400  0.3853
 1215poe    c23 5934   4.470   4.428   5.684 -0.2204  0.9531  0.0975
 1215poe    c23 5935   4.433   4.278   5.685  0.4908  0.7728  0.2629
 1215poe     o2 5936   4.295   4.275   5.713  0.5057  0.0395  0.2514
 1215poe    c23 5937   4.238   4.148   5.688  0.1875  0.1513  0.4148
 1215poe    c23 5938   4.096   4.120   5.742  0.2505 -0.9419  0.0438
 1215poe     o2 5939   4.099   4.138   5.882 -0.1550 -0.1671 -0.0409
 1215poe    c31 5940   3.965   4.161   5.920 -0.1512  0.4659 -0.3944
 1216poe    c31 5941   1.779   4.346   6.270  0.2070 -0.4251 -0.2650
 1216poe     o2 5942   1.691   4.237   6.248  0.2181 -0.4069 -0.3967
 1216poe    c23 5943   1.690   4.205   6.110  0.4142  0.6171 -0.6451
 1216poe    c23 5944   1.605   4.081   6.080  0.4270  0.5791 -0.5264
 1216poe     o2 5945   1.653   3.970   6.153  0.0939  0.5343 -0.3748
 1216poe    c23 5946   1.595   3.851   6.105  1.1017 -0.0938 -0.0591
 1216poe    c23 5947   1.654   3.741   6.196  0.1884 -0.3191  0.2719
 1216poe     o2 5948   1.602   3.763   6.325 -0.3612  0.2395 -0.0403
 1216poe    c23 5949   1.595   3.646   6.404 -0.9647  0.1292 -0.2455
 1216poe    c23 5950   1.563   3.696   6.546  0.0338  0.0904  0.0036
 1216poe     o2 5951   1.595   3.832   6.558  0.7924 -0.0954  0.1472
 1216poe    c31 5952   1.646   3.870   6.684 -0.3067  1.0784  0.2637
 1217poe    c31 5953   4.784   6.554   2.611  0.4915  0.1589 -0.0888
 1217poe     o2 5954   4.694   6.461   2.669 -0.2150  0.6642 -0.3527
 1217poe    c23 5955   4.559   6.500   2.664 -0.4003  0.0809  0.1408
 1217poe    c23 5956   4.472   6.436   2.554  0.3219  0.3079 -0.5714
 1217poe     o2 5957   4.465   6.299   2.589  0.2549  0.4433 -0.0534
 1217poe    c23 5958   4.395   6.217   2.499  0.1728  0.8658 -0.3771
 1217poe    c23 5959   4.414   6.076   2.557 -0.0462  0.9214 -0.1672
 1217poe     o2 5960   4.549   6.058   2.596 -0.1695 -0.0879 -0.1775
 1217poe    c23 5961   4.576   5.920   2.584  0.0763 -0.0895  0.3613
 1217poe    c23 5962   4.694   5.858   2.662  0.5920 -0.1576 -0.4590
 1217poe     o2 5963   4.824   5.870   2.610  0.4359 -0.3545 -0.9016
 1217poe    c31 5964   4.912   5.772   2.660 -0.0759 -0.1894  0.3449
 1218poe    c31 5965   5.263   1.101   4.306  0.9258 -0.0366  0.8314
 1218poe     o2 5966   5.292   1.189   4.199 -0.4598 -0.4680  0.0864
 1218poe    c23 5967   5.396   1.151   4.111 -0.6827  0.4350 -0.5795
 1218poe    c23 5968   5.535   1.211   4.137 -0.6129 -0.0510  0.2034
 1218poe     o2 5969   5.554   1.350   4.121  0.2144 -0.2239 -0.3900
 1218poe    c23 5970   5.561   1.394   3.987 -0.0591  0.3925 -0.2070
 1218poe    c23 5971   5.582   1.544   4.012  0.4026  0.3129 -0.1184
 1218poe     o2 5972   5.476   1.602   4.083  0.1947  0.0820 -0.2406
 1218poe    c23 5973   5.503   1.738   4.109  0.0175  0.0905 -0.0981
 1218poe    c23 5974   5.391   1.801   4.195 -0.4299 -0.3654 -0.3393
 1218poe     o2 5975   5.358   1.694   4.280  0.4023 -0.6086 -0.3070
 1218poe    c31 5976   5.289   1.742   4.394  0.7541 -0.0158 -0.3365
 1219poe    c31 5977   5.764   0.543   1.983 -0.2393 -0.9049  0.7134
 1219poe     o2 5978   5.762   0.424   1.908 -0.6330 -0.7371  0.4586
 1219poe    c23 5979   5.631   0.415   1.856 -0.3157 -0.2446 -0.4593
 1219poe    c23 5980   5.615   0.272   1.801 -0.2576 -0.3702 -0.1520
 1219poe     o2 5981   5.689   0.179   1.878  0.3010  0.2014  0.0109
 1219poe    c23 5982   5.659   0.050   1.830  0.0249  0.4161 -0.3997
 1219poe    c23 5983   5.794  -0.023   1.826 -0.2555 -0.1842  0.6949
 1219poe     o2 5984   5.867   0.016   1.940  0.4300 -0.3906  0.3325
 1219poe    c23 5985   5.994  -0.047   1.943  0.3240 -0.6441 -0.2743
 1219poe    c23 5986   6.059  -0.032   2.082 -1.0229  0.3958  0.2752
 1219poe     o2 5987   6.075   0.101   2.126 -0.1023  0.5619 -0.5246
 1219poe    c31 5988   6.181   0.115   2.218 -0.2961 -0.3462 -0.1507
 1220poe    c31 5989   2.544   3.404   4.338  0.4374 -0.1042 -0.1778
 1220poe     o2 5990   2.589   3.430   4.469 -0.1193 -0.1666  0.0287
 1220poe    c23 5991   2.507   3.375   4.569  0.3657 -0.5603  0.2166
 1220poe    c23 5992   2.539   3.434   4.708  0.1405 -0.2788  0.1521
 1220poe     o2 5993   2.453   3.542   4.736  0.4584 -0.0422  0.2258
 1220poe    c23 5994   2.405   3.542   4.869 -0.3397 -0.1194 -0.0585
 1220poe    c23 5995   2.253   3.570   4.869 -0.3044  0.0797 -0.3891
 1220poe     o2 5996   2.223   3.705   4.843 -0.3609  0.1973  0.2692
 1220poe    c23 5997   2.116   3.718   4.752 -0.2611  0.1042  0.1378
 1220poe    c23 5998   2.103   3.866   4.713  0.1581  0.1006 -0.0222
 1220poe     o2 5999   2.072   3.963   4.811 -0.8933  0.2249 -0.4606
 1220poe    c31 6000   1.940   3.970   4.860 -0.7520  0.9506 -0.1684
 1221poe    c31 6001   4.706   5.241   1.274  1.3371  0.5227  0.1667
 1221poe     o2 6002   4.743   5.136   1.187 -0.3528  0.0346  0.0095
 1221poe    c23 6003   4.796   5.181   1.064  0.2687 -0.5241  0.0664
 1221poe    c23 6004   4.837   5.079   0.957  0.6895 -0.3073  0.0206
 1221poe     o2 6005   4.914   4.990   1.034  0.1456 -0.9079 -0.1223
 1221poe    c23 6006   4.918   4.864   0.970  0.3301 -0.7356 -0.4551
 1221poe    c23 6007   4.966   4.758   1.071  0.2044 -0.2298  0.1426
 1221poe     o2 6008   4.868   4.756   1.172  0.1393 -0.2058  0.0796
 1221poe    c23 6009   4.880   4.635   1.244 -0.8008 -0.0531  0.5126
 1221poe    c23 6010   4.787   4.617   1.365  0.1694 -0.1384  1.2519
 1221poe     o2 6011   4.651   4.619   1.330  0.3475 -0.5201  0.5223
 1221poe    c31 6012   4.567   4.581   1.437 -0.1825  0.1580  0.3577
 1222poe    c31 6013   0.866   1.843   1.905 -0.6242  0.0804 -0.1460
 1222poe     o2 6014   0.883   1.792   1.775 -0.2866  0.5873 -0.3060
 1222poe    c23 6015   0.857   1.653   1.780 -0.4516  0.6348  0.1415
 1222poe    c23 6016   0.857   1.592   1.639 -0.2334  0.8123  0.0634
 1222poe     o2 6017   0.974   1.646   1.583 -0.1194  0.4952 -0.0033
 1222poe    c23 6018   1.002   1.581   1.461 -0.6466 -0.7777  0.5301
 1222poe    c23 6019   1.140   1.640   1.426 -0.8304 -0.4282  0.3906
 1222poe     o2 6020   1.136   1.780   1.447  0.1836 -0.2131 -0.7429
 1222poe    c23 6021   1.209   1.857   1.354 -0.1479  0.9263 -0.0704
 1222poe    c23 6022   1.116   1.941   1.265 -0.6838 -0.0824 -0.4709
 1222poe     o2 6023   1.053   2.046   1.335  0.5418 -0.0486  0.6024
 1222poe    c31 6024   1.100   2.172   1.292 -0.3815  0.1227  0.0837
 1223poe    c31 6025   5.719   6.739   6.639  0.6997  0.4052  0.0213
 1223poe     o2 6026   5.718   6.693   6.506 -0.4837  0.1736  0.0985
 1223poe    c23 6027   5.697   6.813   6.436 -0.4836 -0.0650 -0.3152
 1223poe    c23 6028   5.709   6.799   6.283  0.6846  0.0403 -0.2412
 1223poe     o2 6029   5.663   6.669   6.252  0.0250  0.2935 -0.3327
 1223poe    c23 6030   5.687   6.642   6.116 -0.7979  0.8355 -0.5952
 1223poe    c23 6031   5.621   6.505   6.093 -0.0135  0.4007 -0.2944
 1223poe     o2 6032   5.679   6.411   6.181 -0.1033  0.6597  0.0430
 1223poe    c23 6033   5.602   6.293   6.183  1.0690 -0.1178 -0.1280
 1223poe    c23 6034   5.629   6.196   6.299 -0.8672 -0.2922  0.2115
 1223poe     o2 6035   5.588   6.227   6.431  0.3368  0.5246  0.4120
 1223poe    c31 6036   5.598   6.114   6.514 -0.4410  0.2758  0.1767
 1224poe    c31 6037   0.696   4.486   1.378 -0.1268 -0.6149  0.2348
 1224poe     o2 6038   0.836   4.471   1.368 -0.0881  0.0026 -0.1389
 1224poe    c23 6039   0.874   4.365   1.453 -0.0615  0.5581  0.5526
 1224poe    c23 6040   1.009   4.308   1.407  0.1123  0.4492  1.1909
 1224poe     o2 6041   1.092   4.413   1.363  0.0237 -0.0427 -0.2084
 1224poe    c23 6042   1.228   4.388   1.391 -0.0192 -0.0457 -0.0041
 1224poe    c23 6043   1.308   4.429   1.267 -0.7373 -0.3362 -0.5705
 1224poe     o2 6044   1.270   4.562   1.238  0.2734  0.1840  0.4385
 1224poe    c23 6045   1.333   4.615   1.124 -0.0442 -0.4644 -0.0470
 1224poe    c23 6046   1.290   4.762   1.106 -0.8093 -0.7454 -0.5475
 1224poe     o2 6047   1.152   4.778   1.086 -0.8012  0.2905  0.1499
 1224poe    c31 6048   1.115   4.911   1.115 -0.1461  0.5253 -0.0892
 1225poe    c31 6049   3.005   5.561   4.805  0.6308 -0.4944 -0.5612
 1225poe     o2 6050   3.022   5.701   4.818 -0.4736 -0.3750 -0.3058
 1225poe    c23 6051   3.146   5.756   4.783 -0.7242  0.6983  0.4565
 1225poe    c23 6052   3.267   5.698   4.859 -0.1400  0.5737 -0.5502
 1225poe     o2 6053   3.282   5.730   4.995  0.7640 -0.4664 -0.3921
 1225poe    c23 6054   3.397   5.679   5.058  0.4411 -0.4719  0.1952
 1225poe    c23 6055   3.407   5.745   5.197  0.3128 -0.5823  0.2577
 1225poe     o2 6056   3.298   5.697   5.272 -0.0671  0.4019  0.3487
 1225poe    c23 6057   3.297   5.730   5.409 -0.0571  0.5328  0.3176
 1225poe    c23 6058   3.179   5.653   5.471  0.0777 -0.1235 -0.2208
 1225poe     o2 6059   3.076   5.669   5.375 -0.2042 -0.0877  0.0844
 1225poe    c31 6060   2.951   5.687   5.437 -0.2872 -0.1740 -0.0596
 1226poe    c31 6061   1.244   2.618   1.364 -0.5979 -0.4903 -0.7324
 1226poe     o2 6062   1.379   2.630   1.328 -0.4833  0.2337 -0.0944
 1226poe    c23 6063   1.391   2.557   1.207  0.6037  0.1580  0.0444
 1226poe    c23 6064   1.526   2.578   1.135  0.4315  0.0792 -0.3027
 1226poe     o2 6065   1.551   2.715   1.154 -0.1668  0.1053  0.3733
 1226poe    c23 6066   1.663   2.770   1.088 -0.1522 -0.0646  0.2554
 1226poe    c23 6067   1.713   2.897   1.159  0.3776  0.0818 -0.3705
 1226poe     o2 6068   1.609   2.982   1.203  0.1910 -0.0544 -0.5427
 1226poe    c23 6069   1.673   3.082   1.279 -0.3652 -0.4116  0.4149
 1226poe    c23 6070   1.576   3.188   1.335  0.0280  0.2043 -0.0528
 1226poe     o2 6071   1.470   3.123   1.401 -0.4036  0.6424 -0.3052
 1226poe    c31 6072   1.403   3.228   1.467  0.3862  1.2067 -0.3977
 1227poe    c31 6073   1.140   5.062   2.430  0.1541 -0.3484 -0.0253
 1227poe     o2 6074   1.182   5.101   2.301  0.8605 -0.0523  0.2905
 1227poe    c23 6075   1.310   5.161   2.296  0.6953  0.2900  0.1413
 1227poe    c23 6076   1.330   5.219   2.155  0.0910  0.0817 -0.0337
 1227poe     o2 6077   1.291   5.115   2.068  0.2390  0.5775 -0.7083
 1227poe    c23 6078   1.362   5.118   1.946  0.2356 -0.1455 -0.7330
 1227poe    c23 6079   1.366   4.985   1.868  0.3785 -0.1232 -0.7636
 1227poe     o2 6080   1.248   4.925   1.820 -0.1416  0.2329  0.0471
 1227poe    c23 6081   1.210   4.965   1.690 -0.1917 -0.2299 -0.0804
 1227poe    c23 6082   1.283   4.914   1.565  0.3258 -0.1234  0.1760
 1227poe     o2 6083   1.244   4.784   1.528  0.0991  0.0177 -0.0866
 1227poe    c31 6084   1.365   4.719   1.499 -0.0088 -0.5448  0.6919
 1228poe    c31 6085   0.043   3.237   3.690  0.1675  0.1489  0.3782
 1228poe     o2 6086  -0.034   3.302   3.790 -0.1832  0.5573 -0.1539
 1228poe    c23 6087   0.011   3.435   3.793  0.4570  0.3545 -0.4199
 1228poe    c23 6088   0.084   3.497   3.914 -0.1544 -0.5220  0.4123
 1228poe     o2 6089   0.014   3.534   4.031 -0.0971  0.0859  0.2572
 1228poe    c23 6090   0.017   3.673   4.054  0.6370  0.1094  0.0421
 1228poe    c23 6091  -0.091   3.724   4.151  0.6059 -0.2656  0.2026
 1228poe     o2 6092  -0.113   3.666   4.278  0.1822 -0.2113  0.1535
 1228poe    c23 6093  -0.193   3.752   4.356 -0.0623 -0.4640  0.1871
 1228poe    c23 6094  -0.181   3.691   4.496  0.1170  0.0195  0.3836
 1228poe     o2 6095  -0.223   3.558   4.478 -0.6293  0.3349 -0.2627
 1228poe    c31 6096  -0.321   3.526   4.575 -0.6759 -0.7981 -0.6666
 1229poe    c31 6097   1.161   1.528   5.092 -0.3167 -0.0533  0.2805
 1229poe     o2 6098   1.087   1.606   5.182  0.4045  0.4486  0.4496
 1229poe    c23 6099   1.103   1.557   5.313 -0.2631 -0.4795  0.1965
 1229poe    c23 6100   1.016   1.637   5.412 -0.3903 -0.1318 -0.1951
 1229poe     o2 6101   0.919   1.698   5.330 -0.3044  0.3808  0.0765
 1229poe    c23 6102   0.796   1.721   5.395 -0.3269  0.6049 -0.0425
 1229poe    c23 6103   0.713   1.778   5.279 -0.6269  0.4245  0.0819
 1229poe     o2 6104   0.784   1.860   5.189 -0.0143 -0.5427 -0.3301
 1229poe    c23 6105   0.749   1.995   5.208  0.5463 -0.4412  0.0041
 1229poe    c23 6106   0.822   2.097   5.118  0.1062 -0.4137 -0.3280
 1229poe     o2 6107   0.960   2.100   5.148  0.0278 -0.3858  0.0352
 1229poe    c31 6108   1.017   2.196   5.062  0.0722 -0.3592  0.0946
 1230poe    c31 6109   2.554   2.692   1.771  0.2435  0.3122  0.1296
 1230poe     o2 6110   2.523   2.573   1.702 -0.5887  0.6746 -0.1242
 1230poe    c23 6111   2.404   2.595   1.630 -0.3464  1.1583 -0.3811
 1230poe    c23 6112   2.376   2.463   1.555  0.1380  1.0978 -0.4561
 1230poe     o2 6113   2.502   2.414   1.514 -0.0962  0.3731 -0.3177
 1230poe    c23 6114   2.475   2.299   1.437  0.4909 -0.1949  0.3173
 1230poe    c23 6115   2.598   2.236   1.367  0.7412  0.2588  0.3451
 1230poe     o2 6116   2.676   2.180   1.470  0.2390 -0.2408  0.4657
 1230poe    c23 6117   2.804   2.143   1.424  0.2292  0.3425 -0.0467
 1230poe    c23 6118   2.904   2.098   1.532 -0.0056 -0.3175 -0.0971
 1230poe     o2 6119   2.936   2.196   1.629  0.7516 -0.3127 -0.3473
 1230poe    c31 6120   3.017   2.142   1.731 -0.2282 -0.9007  0.1437
 1231poe    c31 6121   3.723   4.104   6.499  0.1046  0.4562  0.3430
 1231poe     o2 6122   3.675   3.972   6.487 -0.0556  0.5363  0.0809
 1231poe    c23 6123   3.690   3.915   6.359 -0.1207  0.2383  0.2044
 1231poe    c23 6124   3.649   3.767   6.353  0.3580  0.0908  0.4500
 1231poe     o2 6125   3.737   3.696   6.436  0.2447 -0.2186  0.3084
 1231poe    c23 6126   3.703   3.559   6.445  0.4844 -0.3798 -1.0281
 1231poe    c23 6127   3.771   3.502   6.571 -0.7341  0.7931  0.2108
 1231poe     o2 6128   3.734   3.570   6.688 -0.3783  0.7402  0.3543
 1231poe    c23 6129   3.733   3.470   6.788  0.1158 -0.0115 -0.3769
 1231poe    c23 6130   3.719   3.539   6.925 -0.1640 -0.0921 -0.3643
 1231poe     o2 6131   3.798   3.654   6.942 -0.0532 -0.2288  0.0826
 1231poe    c31 6132   3.729   3.751   7.018  0.5053  0.2282  0.0107
 1232poe    c31 6133   3.967   5.624   1.823 -0.5357  0.5343  0.2007
 1232poe     o2 6134   3.925   5.628   1.688 -0.0173 -0.6051 -0.0046
 1232poe    c23 6135   3.832   5.734   1.690  0.7856  0.1187  0.1285
 1232poe    c23 6136   3.810   5.771   1.543  0.7568 -0.1176  0.0722
 1232poe     o2 6137   3.765   5.656   1.475  0.7376  0.0326 -0.1738
 1232poe    c23 6138   3.740   5.671   1.337 -0.2110  0.2172  0.0109
 1232poe    c23 6139   3.687   5.545   1.266 -0.0755  0.3044 -0.2475
 1232poe     o2 6140   3.785   5.445   1.275 -0.3640  0.0777  0.5089
 1232poe    c23 6141   3.734   5.326   1.219 -1.0325  0.2140  0.8126
 1232poe    c23 6142   3.826   5.207   1.252 -0.5354  0.5021  0.4815
 1232poe     o2 6143   3.882   5.220   1.381 -0.6322  0.0578  0.5717
 1232poe    c31 6144   3.933   5.096   1.423  0.1541  0.3181  0.4097
 1233poe    c31 6145   4.446   0.690   3.715  0.2852  0.1793  0.2832
 1233poe     o2 6146   4.399   0.800   3.790  0.3047  0.0070  0.5504
 1233poe    c23 6147   4.431   0.922   3.727 -0.4361  0.0197  0.1852
 1233poe    c23 6148   4.460   1.011   3.849 -0.0933 -0.2379  0.2954
 1233poe     o2 6149   4.360   0.975   3.941  0.1540 -0.5335  0.4519
 1233poe    c23 6150   4.343   1.060   4.053 -0.1382  0.1715 -0.1131
 1233poe    c23 6151   4.197   1.083   4.096  0.0377  0.0379  0.5596
 1233poe     o2 6152   4.136   0.960   4.127 -0.0248 -0.0875 -0.0646
 1233poe    c23 6153   4.008   0.982   4.183 -0.1351 -0.3582 -0.2043
 1233poe    c23 6154   3.935   0.847   4.184 -0.6361 -0.0854  0.6274
 1233poe     o2 6155   3.956   0.793   4.056 -0.0571  0.5111  0.4677
 1233poe    c31 6156   3.876   0.677   4.053  0.1745  0.3495  0.4781
 1234poe    c31 6157   1.227   3.271   4.729  0.7706  0.3437 -0.2816
 1234poe     o2 6158   1.138   3.342   4.645  0.5140  0.1864 -0.1430
 1234poe    c23 6159   1.063   3.256   4.562 -0.3925  0.5200  0.3138
 1234poe    c23 6160   0.963   3.327   4.469 -0.5629 -0.2327 -0.0851
 1234poe     o2 6161   1.033   3.420   4.390 -0.3262  0.1614  0.5836
 1234poe    c23 6162   0.963   3.439   4.269 -0.7792  0.1261  0.8377
 1234poe    c23 6163   0.961   3.587   4.228  0.1525 -0.1841 -0.4061
 1234poe     o2 6164   1.098   3.621   4.236  0.0646  0.0603  0.1887
 1234poe    c23 6165   1.126   3.751   4.190 -0.3241  0.2507  0.4765
 1234poe    c23 6166   1.279   3.763   4.204 -0.2771 -0.3542  0.5272
 1234poe     o2 6167   1.315   3.738   4.338  0.3145  0.2351  0.4817
 1234poe    c31 6168   1.456   3.738   4.353  0.4444 -0.5933 -0.6219
 1235poe    c31 6169   3.834   0.146   0.903  0.2486  1.5007 -0.1707
 1235poe     o2 6170   3.971   0.134   0.873  0.1324 -0.7230 -0.0326
 1235poe    c23 6171   3.983   0.080   0.743  0.5737  0.3077 -0.4348
 1235poe    c23 6172   4.128   0.027   0.730  0.5347 -0.0086  0.3395
 1235poe     o2 6173   4.228   0.123   0.755  0.3625  0.1496  0.4249
 1235poe    c23 6174   4.348   0.049   0.759  0.4595  0.2542 -0.4080
 1235poe    c23 6175   4.454   0.157   0.791  0.3255  0.2315  0.1270
 1235poe     o2 6176   4.424   0.234   0.905 -0.1161  0.0158  0.1613
 1235poe    c23 6177   4.518   0.339   0.913  0.1209 -0.1389 -0.5132
 1235poe    c23 6178   4.504   0.413   1.048 -0.0967  0.5171 -0.8925
 1235poe     o2 6179   4.367   0.443   1.061 -0.1209  0.1597 -0.2775
 1235poe    c31 6180   4.333   0.508   1.181  0.0197 -0.6145  0.1856
 1236poe    c31 6181   5.314   5.452   6.129  0.7101  0.2757 -0.9483
 1236poe     o2 6182   5.213   5.499   6.043  0.1716  0.2034 -0.3609
 1236poe    c23 6183   5.135   5.397   5.985  0.3513 -0.1795  0.0621
 1236poe    c23 6184   5.054   5.462   5.871  0.1890  0.0442  0.3034
 1236poe     o2 6185   5.033   5.596   5.912 -0.4594  0.0482 -0.0324
 1236poe    c23 6186   4.935   5.664   5.837 -0.5353 -0.1272 -0.0943
 1236poe    c23 6187   4.863   5.779   5.910  0.3085  0.2454  0.1621
 1236poe     o2 6188   4.966   5.848   5.978  0.2119 -0.0590  0.6176
 1236poe    c23 6189   4.906   5.962   6.034  0.3423  0.0317  0.5717
 1236poe    c23 6190   5.014   6.041   6.112  0.6655  0.3878 -0.2212
 1236poe     o2 6191   5.056   5.965   6.224  0.0211 -0.3427 -0.4595
 1236poe    c31 6192   5.193   5.994   6.243 -0.2104  0.5197 -0.0697
 1237poe    c31 6193   0.822   4.241   5.525 -0.2523  0.7422 -0.0266
 1237poe     o2 6194   0.762   4.336   5.610 -0.5033  0.1884  0.4262
 1237poe    c23 6195   0.791   4.473   5.589 -0.7080  0.1528 -0.1216
 1237poe    c23 6196   0.668   4.550   5.640 -0.4466 -0.0389  0.8199
 1237poe     o2 6197   0.624   4.491   5.761  0.0788 -0.7343  0.6765
 1237poe    c23 6198   0.524   4.559   5.833  0.4263 -0.1287  0.5877
 1237poe    c23 6199   0.512   4.479   5.964 -0.5146 -0.2463  0.4347
 1237poe     o2 6200   0.498   4.339   5.957  0.0317 -0.2838  0.0414
 1237poe    c23 6201   0.438   4.295   6.077 -0.8099  0.5516 -0.0598
 1237poe    c23 6202   0.399   4.146   6.090 -0.2266  0.3802 -0.2327
 1237poe     o2 6203   0.485   4.037   6.065  0.3739  0.8492 -0.2501
 1237poe    c31 6204   0.580   4.013   6.166  0.2770  0.4693 -0.2480
 1238poe    c31 6205   0.965   6.750   2.987 -0.3142  0.2669  0.0300
 1238poe     o2 6206   0.979   6.879   3.042  0.1636 -0.0478  0.6577
 1238poe    c23 6207   0.884   6.969   2.989  0.4280 -0.2142 -0.1045
 1238poe    c23 6208   0.889   7.106   3.059  0.1340  0.0248 -0.5418
 1238poe     o2 6209   0.869   7.118   3.198 -0.1344 -0.3066 -0.5508
 1238poe    c23 6210   0.887   7.249   3.246  0.4105 -0.2307 -0.9618
 1238poe    c23 6211   0.817   7.261   3.382  0.7756 -0.1399 -0.7807
 1238poe     o2 6212   0.883   7.158   3.452 -0.1198  0.0617  0.3938
 1238poe    c23 6213   0.842   7.135   3.585  0.5957  0.6470  0.7236
 1238poe    c23 6214   0.908   7.005   3.636 -0.1385 -0.0820 -0.1408
 1238poe     o2 6215   0.882   6.917   3.530  0.2635 -0.4080  0.0310
 1238poe    c31 6216   0.859   6.787   3.581 -0.1891 -0.5512 -0.5245
 1239poe    c31 6217   5.946   3.460   4.058  0.2399 -0.1118 -0.1214
 1239poe     o2 6218   5.808   3.431   4.054  0.1298  0.3424  0.2695
 1239poe    c23 6219   5.731   3.533   4.114  0.5922  0.5944  0.4404
 1239poe    c23 6220   5.590   3.471   4.117  0.7450  0.2548  0.7124
 1239poe     o2 6221   5.584   3.358   4.202  0.1335 -0.1436  0.1480
 1239poe    c23 6222   5.526   3.251   4.131  0.5237 -0.1544 -0.1580
 1239poe    c23 6223   5.507   3.130   4.224 -0.1808  0.2672  0.2591
 1239poe     o2 6224   5.485   3.182   4.353  0.2771  0.5610  0.2173
 1239poe    c23 6225   5.427   3.088   4.441 -0.0456  0.6608  0.1122
 1239poe    c23 6226   5.426   3.116   4.592 -0.1671 -0.0588  0.2455
 1239poe     o2 6227   5.378   3.243   4.631 -0.3399 -0.1843  0.4415
 1239poe    c31 6228   5.432   3.272   4.758  0.3780 -0.3671  0.1815
 1240poe    c31 6229   6.687   5.638   4.168 -0.0572 -0.1791 -0.1573
 1240poe     o2 6230   6.808   5.702   4.134 -0.3031  0.4805  0.2011
 1240poe    c23 6231   6.881   5.747   4.246 -0.2011  0.1439  0.2726
 1240poe    c23 6232   7.027   5.777   4.209 -0.2021  0.2461  0.3483
 1240poe     o2 6233   7.003   5.836   4.083 -0.4602 -0.4356  0.0734
 1240poe    c23 6234   7.115   5.859   4.001 -0.4852  0.9976  0.4161
 1240poe    c23 6235   7.082   5.926   3.866 -0.2042  0.1668 -0.0721
 1240poe     o2 6236   6.987   5.856   3.789 -0.0116  0.0723 -0.2274
 1240poe    c23 6237   6.978   5.905   3.657 -0.5637 -0.2110 -0.2987
 1240poe    c23 6238   6.911   6.042   3.641 -0.0783  0.0334 -0.2503
 1240poe     o2 6239   6.793   6.053   3.717  0.4238  0.0999  0.5414
 1240poe    c31 6240   6.703   6.156   3.682 -0.2071 -0.5338  0.2713
 1241poe    c31 6241   6.158   0.235   4.782  0.3840  0.0321  0.2783
 1241poe     o2 6242   6.133   0.288   4.654  0.1923  0.4393  0.4809
 1241poe    c23 6243   6.065   0.410   4.665 -0.4026  0.1580  0.0033
 1241poe    c23 6244   5.981   0.441   4.540  0.0061  0.7771 -0.1208
 1241poe     o2 6245   6.056   0.374   4.441 -0.4810 -0.7541  0.5175
 1241poe    c23 6246   5.999   0.390   4.313 -0.0176 -0.2873  0.3642
 1241poe    c23 6247   6.095   0.338   4.205 -0.5680 -0.1860 -0.1792
 1241poe     o2 6248   6.109   0.198   4.221  0.4067 -0.0998 -0.2171
 1241poe    c23 6249   6.198   0.137   4.130  0.0887 -0.0548 -0.5641
 1241poe    c23 6250   6.175  -0.014   4.111  0.0461 -0.0979 -0.1892
 1241poe     o2 6251   6.192  -0.083   4.232 -0.1454  0.2114  0.0153
 1241poe    c31 6252   6.146  -0.214   4.208 -0.1925  0.3354 -0.5834
 1242poe    c31 6253   0.957   4.143   6.987 -0.3466 -0.5579 -0.2918
 1242poe     o2 6254   0.970   4.284   6.994 -0.1840 -0.5808 -0.1300
 1242poe    c23 6255   0.844   4.333   7.035  0.0697  0.3086 -0.4075
 1242poe    c23 6256   0.846   4.480   6.987 -0.3548  0.3247 -0.3766
 1242poe     o2 6257   0.894   4.477   6.855 -0.2288 -0.0413 -0.3247
 1242poe    c23 6258   0.867   4.599   6.790 -0.1740  0.0196 -0.2324
 1242poe    c23 6259   0.965   4.630   6.676 -0.0901  0.0766 -0.1459
 1242poe     o2 6260   1.095   4.650   6.727 -0.1088  0.9293 -0.4155
 1242poe    c23 6261   1.202   4.653   6.635  0.1941  0.4934 -0.0792
 1242poe    c23 6262   1.308   4.745   6.697  0.0384  0.1946  0.6427
 1242poe     o2 6263   1.361   4.648   6.784  0.2632 -0.2055  0.0624
 1242poe    c31 6264   1.470   4.699   6.857  0.0108  0.5513 -0.0853
 1243poe    c31 6265   2.624   3.569   6.090  0.6156  0.3377  0.5193
 1243poe     o2 6266   2.743   3.520   6.033  0.2520 -0.3826  0.3699
 1243poe    c23 6267   2.778   3.391   6.079  0.3988 -0.5136 -0.1047
 1243poe    c23 6268   2.926   3.368   6.042  0.5044 -0.5257  0.3245
 1243poe     o2 6269   2.945   3.416   5.911 -0.3518  0.4341  0.5322
 1243poe    c23 6270   3.079   3.453   5.890 -0.3346 -0.1495 -0.4646
 1243poe    c23 6271   3.106   3.528   5.758  0.1784  0.3709 -0.0716
 1243poe     o2 6272   3.026   3.643   5.758  0.5644  0.6429 -0.3332
 1243poe    c23 6273   2.978   3.667   5.627 -0.3294  1.2279  0.0917
 1243poe    c23 6274   2.833   3.719   5.643 -0.9774 -0.3277 -0.5187
 1243poe     o2 6275   2.753   3.639   5.726 -0.0183 -0.5500  0.2172
 1243poe    c31 6276   2.614   3.666   5.731  0.1006  0.0391  0.5328
 1244poe    c31 6277   0.683   0.310   2.845  0.0219  0.4264 -0.6648
 1244poe     o2 6278   0.766   0.424   2.848  0.7418 -0.1114  0.3827
 1244poe    c23 6279   0.864   0.427   2.747 -0.0703 -0.0996 -0.4127
 1244poe    c23 6280   0.949   0.554   2.761  0.1907 -0.3247  0.0642
 1244poe     o2 6281   0.885   0.674   2.724  0.5214 -0.2892 -0.4081
 1244poe    c23 6282   0.937   0.795   2.775  0.7539 -0.3720 -0.4468
 1244poe    c23 6283   0.873   0.924   2.721  0.6220 -0.2208  0.0717
 1244poe     o2 6284   0.754   0.930   2.797 -0.0563  0.1698 -0.9926
 1244poe    c23 6285   0.696   1.058   2.793 -0.7616 -0.1179 -0.2993
 1244poe    c23 6286   0.579   1.078   2.891 -0.0217  0.0339  0.5624
 1244poe     o2 6287   0.520   0.951   2.906  0.7355 -0.3524  0.3165
 1244poe    c31 6288   0.396   0.970   2.971  0.5120  0.6656 -0.3809
 1245poe    c31 6289   1.758   3.949   2.731 -0.5556 -0.1867 -0.4071
 1245poe     o2 6290   1.687   4.070   2.715  0.2199  0.3280 -0.0196
 1245poe    c23 6291   1.562   4.074   2.781 -0.3415 -0.0727 -1.0186
 1245poe    c23 6292   1.513   4.218   2.755  0.3606  0.3501 -0.0731
 1245poe     o2 6293   1.553   4.252   2.624  0.4844  0.0153 -0.1230
 1245poe    c23 6294   1.484   4.366   2.580  0.7898  0.2286 -0.0517
 1245poe    c23 6295   1.538   4.414   2.444 -0.0053  0.0194 -0.4474
 1245poe     o2 6296   1.676   4.419   2.470 -0.1134 -0.4586  0.2645
 1245poe    c23 6297   1.730   4.466   2.348  0.1307  0.2358  0.6353
 1245poe    c23 6298   1.878   4.431   2.323  0.1285  0.1043  0.8086
 1245poe     o2 6299   1.889   4.290   2.330  0.4578  0.0953  0.1248
 1245poe    c31 6300   2.021   4.249   2.302  0.3995 -0.0831  0.1102
 1246poe    c31 6301   2.874   1.661   5.849 -0.8235 -0.5546  0.2223
 1246poe     o2 6302   2.992   1.584   5.848 -0.4799 -0.0307 -0.0841
 1246poe    c23 6303   2.986   1.480   5.753  0.3437  0.0330 -0.2149
 1246poe    c23 6304   3.122   1.416   5.719  0.4067 -0.1846  0.4353
 1246poe     o2 6305   3.213   1.495   5.646 -0.3193  0.1082 -0.1653
 1246poe    c23 6306   3.331   1.426   5.614 -0.0169  0.4117  0.2776
 1246poe    c23 6307   3.412   1.516   5.518 -0.4609 -0.0964 -0.5883
 1246poe     o2 6308   3.426   1.641   5.581  0.1021 -0.1337 -0.6385
 1246poe    c23 6309   3.560   1.686   5.584  0.0301  0.0429  0.4118
 1246poe    c23 6310   3.571   1.839   5.567 -0.3477 -0.0159 -0.4171
 1246poe     o2 6311   3.509   1.895   5.680 -0.6312  0.1602 -0.6593
 1246poe    c31 6312   3.575   2.019   5.669  0.5710 -0.4263 -0.1917
 1247poe    c31 6313   3.278   1.687   2.373 -0.7293 -0.2613 -0.1305
 1247poe     o2 6314   3.314   1.552   2.389  0.3292  0.0049 -0.1981
 1247poe    c23 6315   3.262   1.507   2.513  0.0472 -0.2541 -0.4086
 1247poe    c23 6316   3.319   1.369   2.551 -0.3117 -0.3112 -0.0789
 1247poe     o2 6317   3.334   1.300   2.430 -0.0538 -0.0528 -0.1978
 1247poe    c23 6318   3.332   1.161   2.455  0.9425 -0.0287  0.0558
 1247poe    c23 6319   3.371   1.092   2.323 -0.1362  0.4129 -0.5046
 1247poe     o2 6320   3.507   1.101   2.289 -0.1201 -0.1770 -0.6140
 1247poe    c23 6321   3.592   1.000   2.338 -0.1979  0.0047 -0.0987
 1247poe    c23 6322   3.722   0.980   2.258 -0.2138 -0.3722 -0.0318
 1247poe     o2 6323   3.693   0.930   2.129  0.3279 -0.6272 -0.0574
 1247poe    c31 6324   3.813   0.869   2.087  0.4295 -0.6185  0.2186
 1248poe    c31 6325   5.697   0.154   3.013 -0.5351 -0.1433  0.5527
 1248poe     o2 6326   5.701   0.292   3.042 -0.1570 -0.2212  0.8714
 1248poe    c23 6327   5.839   0.320   3.048 -0.2199  0.0093  1.3012
 1248poe    c23 6328   5.871   0.471   3.052  0.0246 -0.0030  0.1401
 1248poe     o2 6329   5.865   0.525   3.182  0.2887 -0.4241  0.3321
 1248poe    c23 6330   5.912   0.658   3.182 -0.3011 -0.2070 -0.3062
 1248poe    c23 6331   5.868   0.718   3.317  0.6919 -0.4739  0.1422
 1248poe     o2 6332   5.779   0.625   3.374  0.0232  0.2573  0.3030
 1248poe    c23 6333   5.698   0.676   3.478 -0.6249  0.1609 -0.1528
 1248poe    c23 6334   5.577   0.583   3.499 -0.7168  0.2049 -0.4843
 1248poe     o2 6335   5.623   0.454   3.465 -0.2722  0.2328 -0.0012
 1248poe    c31 6336   5.538   0.350   3.507  0.0195  0.0958  0.2506
 1249poe    c31 6337   2.501   4.257   6.231 -0.1030 -0.1815  0.1023
 1249poe     o2 6338   2.576   4.277   6.349  0.2042  0.2674 -0.1631
 1249poe    c23 6339   2.487   4.258   6.456  0.4620 -0.2788 -0.0438
 1249poe    c23 6340   2.476   4.370   6.561  0.6717 -0.3483  0.0537
 1249poe     o2 6341   2.589   4.398   6.640  0.8195 -0.0055 -0.2794
 1249poe    c23 6342   2.607   4.289   6.727  0.0079 -0.0048 -0.1109
 1249poe    c23 6343   2.696   4.334   6.845 -0.2085  0.1119  0.0098
 1249poe     o2 6344   2.816   4.368   6.781 -0.1247 -0.3299 -0.0725
 1249poe    c23 6345   2.929   4.324   6.853  0.1860  0.2473 -0.2004
 1249poe    c23 6346   3.065   4.376   6.802 -0.0683  0.2248 -0.9020
 1249poe     o2 6347   3.044   4.504   6.747 -0.2369  0.3451 -0.5533
 1249poe    c31 6348   3.163   4.577   6.725  0.3008 -0.5320 -0.5844
 1250poe    c31 6349   4.411   2.912   5.292 -0.0577  0.2708 -0.6810
 1250poe     o2 6350   4.482   2.793   5.318 -0.2877  0.4470  0.8440
 1250poe    c23 6351   4.396   2.682   5.326 -0.2684  0.2884 -0.9038
 1250poe    c23 6352   4.476   2.560   5.278  0.1671  0.4189 -0.5118
 1250poe     o2 6353   4.612   2.595   5.291  0.1882  0.1892 -0.0901
 1250poe    c23 6354   4.697   2.489   5.254 -0.3129 -0.3679  0.3426
 1250poe    c23 6355   4.843   2.538   5.244 -0.4863  0.0341 -0.3390
 1250poe     o2 6356   4.867   2.638   5.149 -0.4742  0.0380 -0.3316
 1250poe    c23 6357   4.889   2.593   5.017 -0.8301  0.4785 -0.5461
 1250poe    c23 6358   4.975   2.691   4.935 -0.2498 -0.4056 -1.0111
 1250poe     o2 6359   4.950   2.829   4.951  0.4292 -0.3684 -0.1906
 1250poe    c31 6360   5.016   2.901   4.849  0.3993 -0.0076  0.0445
 1251poe    c31 6361   1.404   3.269   0.175  0.2399 -0.6367  0.1911
 1251poe     o2 6362   1.281   3.241   0.238 -0.1837  0.6361 -0.0312
 1251poe    c23 6363   1.168   3.226   0.154  0.1020  0.0790 -0.3184
 1251poe    c23 6364   1.073   3.135   0.235 -0.1587  0.8076  0.2002
 1251poe     o2 6365   1.063   3.189   0.364  0.0959  0.0427  0.5439
 1251poe    c23 6366   0.934   3.192   0.420 -0.2347 -0.4781 -0.1779
 1251poe    c23 6367   0.907   3.290   0.536  0.5926 -0.1440 -0.2608
 1251poe     o2 6368   0.958   3.420   0.513 -0.2458  0.2023 -0.2040
 1251poe    c23 6369   0.973   3.484   0.638  0.3103  0.2568 -0.2987
 1251poe    c23 6370   1.041   3.622   0.623  0.1461  0.3459 -0.2163
 1251poe     o2 6371   1.179   3.612   0.598  0.0983 -0.4722 -0.1964
 1251poe    c31 6372   1.222   3.746   0.585 -0.0322 -0.4170 -0.0570
 1252poe    c31 6373   2.047   1.079   3.232  0.6575  0.1470  0.3784
 1252poe     o2 6374   2.115   1.051   3.112 -0.2901 -0.5244 -0.0123
 1252poe    c23 6375   2.248   1.098   3.115 -0.5520  0.2441 -0.0992
 1252poe    c23 6376   2.310   1.036   2.988  0.3899 -0.0679  0.5042
 1252poe     o2 6377   2.237   1.070   2.872  0.3447 -0.0412  0.5404
 1252poe    c23 6378   2.299   1.045   2.748 -0.5555 -0.1042  0.1008
 1252poe    c23 6379   2.192   1.077   2.642 -0.4004 -0.1598 -0.0747
 1252poe     o2 6380   2.074   1.010   2.682 -0.2049 -0.4485  0.0161
 1252poe    c23 6381   1.959   1.091   2.669  0.2779  0.1321 -0.7492
 1252poe    c23 6382   1.858   1.036   2.772  0.6986  0.0165 -0.3933
 1252poe     o2 6383   1.898   1.026   2.907 -0.1104  0.6114 -0.1032
 1252poe    c31 6384   1.795   0.956   2.974  0.1912  0.1232 -0.1393
 1253poe    c31 6385   4.359   4.652   1.916 -0.2774  0.5016  0.9581
 1253poe     o2 6386   4.387   4.517   1.888  0.5796  0.7690  0.5080
 1253poe    c23 6387   4.475   4.494   1.780 -0.4236  0.3662 -0.2450
 1253poe    c23 6388   4.520   4.347   1.784 -0.5368  0.3388  0.0625
 1253poe     o2 6389   4.564   4.320   1.915  0.4102 -0.0098 -0.3158
 1253poe    c23 6390   4.600   4.184   1.917  0.6699  0.0617  0.0157
 1253poe    c23 6391   4.602   4.131   2.062  0.3901  0.5556  0.2058
 1253poe     o2 6392   4.496   4.192   2.131  0.1457  0.4342 -0.0571
 1253poe    c23 6393   4.505   4.164   2.269  0.3251 -0.1171 -0.1792
 1253poe    c23 6394   4.375   4.199   2.344  0.0016  0.2243 -0.8881
 1253poe     o2 6395   4.369   4.337   2.370  0.0617 -0.0200  0.5312
 1253poe    c31 6396   4.274   4.384   2.463 -0.6692  0.2148 -0.3246
 1254poe    c31 6397   6.269   6.309   1.546 -0.3589  0.2048  1.7398
 1254poe     o2 6398   6.178   6.412   1.512  0.2259  0.1619 -0.0732
 1254poe    c23 6399   6.220   6.535   1.565  0.0970 -0.0163  0.4482
 1254poe    c23 6400   6.133   6.656   1.525  0.0911 -0.0656  0.3101
 1254poe     o2 6401   6.132   6.691   1.389  0.1881 -0.1185  0.2954
 1254poe    c23 6402   6.030   6.787   1.369  0.2688 -0.1371 -0.2373
 1254poe    c23 6403   6.026   6.851   1.229  0.2711  0.0742 -0.1407
 1254poe     o2 6404   5.953   6.771   1.139 -0.2487  0.6787 -0.2596
 1254poe    c23 6405   5.976   6.811   1.006  1.2889 -0.0430 -0.2301
 1254poe    c23 6406   5.870   6.737   0.922  0.1051  0.6393  0.6311
 1254poe     o2 6407   5.832   6.625   0.999  0.4340  0.3666  0.3988
 1254poe    c31 6408   5.783   6.517   0.921  0.3669  1.0856 -0.5795
 1255poe    c31 6409   3.558   5.579   6.303  0.0650  0.1639  0.4971
 1255poe     o2 6410   3.449   5.653   6.353 -0.1182  0.0428  0.2783
 1255poe    c23 6411   3.383   5.581   6.454 -0.3011  0.1444  0.2306
 1255poe    c23 6412   3.241   5.633   6.485 -0.3337  0.1556  0.0621
 1255poe     o2 6413   3.241   5.763   6.538  0.1023  0.2283 -0.1149
 1255poe    c23 6414   3.107   5.799   6.566  0.0739 -0.3750  0.5162
 1255poe    c23 6415   3.095   5.939   6.629 -0.4199 -0.1370 -0.1065
 1255poe     o2 6416   3.153   6.030   6.538 -0.1033 -0.4615 -0.2317
 1255poe    c23 6417   3.227   6.127   6.609  0.3779 -0.7498 -0.3346
 1255poe    c23 6418   3.232   6.275   6.566  0.1834 -0.4855  0.5283
 1255poe     o2 6419   3.249   6.295   6.427  0.3954  0.3432  0.6702
 1255poe    c31 6420   3.371   6.358   6.395  0.1124  0.2835 -0.5791
 1256poe    c31 6421   2.859   1.848   0.972 -0.0529  0.5990 -0.1260
 1256poe     o2 6422   2.827   1.717   0.931 -0.0957  0.4494  0.3744
 1256poe    c23 6423   2.687   1.703   0.916 -0.0806 -0.1253  0.7368
 1256poe    c23 6424   2.672   1.563   0.853  0.1472  0.1779 -0.0087
 1256poe     o2 6425   2.736   1.478   0.946  0.5473 -0.2584 -0.6728
 1256poe    c23 6426   2.672   1.352   0.941  0.1636 -0.1028  0.1449
 1256poe    c23 6427   2.778   1.241   0.945 -0.1480 -0.4220 -0.4043
 1256poe     o2 6428   2.883   1.272   1.034  0.1159 -0.1959 -0.7899
 1256poe    c23 6429   2.907   1.161   1.117  0.1256 -0.2149 -0.8178
 1256poe    c23 6430   3.027   1.175   1.213 -0.6912  0.1829  0.1661
 1256poe     o2 6431   3.013   1.227   1.343 -0.7249 -0.0275  0.2468
 1256poe    c31 6432   3.109   1.196   1.442  0.0568 -0.2742 -0.5723
 1257poe    c31 6433   1.182   2.084   2.949  0.0486  0.0526 -0.2252
 1257poe     o2 6434   1.201   1.948   2.917 -0.2155 -0.2065  0.6992
 1257poe    c23 6435   1.337   1.912   2.909 -0.2482 -0.0368 -1.0139
 1257poe    c23 6436   1.370   1.789   2.822  0.3687 -0.4335 -0.2282
 1257poe     o2 6437   1.312   1.671   2.872  0.4502 -0.2718  0.2575
 1257poe    c23 6438   1.306   1.572   2.772  0.3252  0.2176 -0.2213
 1257poe    c23 6439   1.243   1.448   2.837  0.1997  0.6461  0.4869
 1257poe     o2 6440   1.121   1.479   2.900 -0.2931 -0.1496 -0.0522
 1257poe    c23 6441   1.062   1.355   2.934  0.1479 -0.2474  0.3582
 1257poe    c23 6442   0.909   1.357   2.941  0.1310  0.1402 -0.0922
 1257poe     o2 6443   0.876   1.481   3.000 -0.3221  0.0105 -0.0644
 1257poe    c31 6444   0.765   1.544   2.941 -0.4754 -0.2979 -0.1030
 1258poe    c31 6445   0.384   0.179   6.055 -0.0515  0.2281  0.5423
 1258poe     o2 6446   0.298   0.069   6.031  0.0036  0.2834  0.0882
 1258poe    c23 6447   0.364  -0.016   5.940 -0.0936  0.4925 -0.1783
 1258poe    c23 6448   0.294  -0.140   5.880  1.1284 -0.3098  0.0158
 1258poe     o2 6449   0.209  -0.206   5.972  0.4330  0.5361 -0.0034
 1258poe    c23 6450   0.134  -0.303   5.903  0.0109  0.3943  0.6481
 1258poe    c23 6451   0.015  -0.338   5.994 -0.1732 -0.6337  0.0311
 1258poe     o2 6452   0.075  -0.363   6.120  0.4398 -0.7167 -0.2766
 1258poe    c23 6453  -0.006  -0.385   6.232  0.5132 -0.5010 -0.1799
 1258poe    c23 6454   0.088  -0.405   6.352 -0.0264  0.5642  0.4359
 1258poe     o2 6455   0.193  -0.311   6.356  0.0314  0.5096  0.2067
 1258poe    c31 6456   0.235  -0.302   6.490  0.9143 -0.1060 -0.0227
 1259poe    c31 6457   2.607   4.717   0.385  0.1349 -0.2943 -0.3942
 1259poe     o2 6458   2.589   4.581   0.420 -0.0471 -0.1020  0.2685
 1259poe    c23 6459   2.694   4.524   0.494  0.3425  0.1053 -0.1244
 1259poe    c23 6460   2.779   4.422   0.416 -0.0773  0.1692 -0.6638
 1259poe     o2 6461   2.711   4.306   0.372 -0.4477  0.1215  0.0204
 1259poe    c23 6462   2.749   4.268   0.242 -0.2468  0.3489  0.0121
 1259poe    c23 6463   2.671   4.146   0.189  0.0019  0.1321  0.1398
 1259poe     o2 6464   2.532   4.167   0.201  0.0258  0.8057 -0.6505
 1259poe    c23 6465   2.450   4.066   0.147  0.3927  0.1139  0.0660
 1259poe    c23 6466   2.314   4.127   0.108  0.3160 -0.0238  0.1152
 1259poe     o2 6467   2.282   4.233   0.196  0.1583 -0.3782  0.4890
 1259poe    c31 6468   2.156   4.290   0.170  0.4552 -0.0824 -0.3362
 1260poe    c31 6469   5.070   4.846   4.449 -0.2714  0.2465 -0.0134
 1260poe     o2 6470   4.999   4.822   4.569 -0.0157 -0.5057 -0.0058
 1260poe    c23 6471   5.009   4.931   4.658 -0.6796 -0.3430 -0.1258
 1260poe    c23 6472   4.891   4.906   4.754 -0.5602 -0.2715  0.0415
 1260poe     o2 6473   4.880   4.768   4.781 -0.1768 -0.3796 -0.3432
 1260poe    c23 6474   4.768   4.757   4.866 -0.1513  0.0918 -0.2470
 1260poe    c23 6475   4.763   4.612   4.917  0.3513  0.1343 -0.0682
 1260poe     o2 6476   4.777   4.509   4.822 -0.5664  0.0668 -0.1362
 1260poe    c23 6477   4.743   4.382   4.872  0.1274  0.0079  0.1898
 1260poe    c23 6478   4.818   4.279   4.786  0.1452 -0.0883  0.3209
 1260poe     o2 6479   4.957   4.303   4.777  0.1455 -0.1944  0.0469
 1260poe    c31 6480   5.016   4.194   4.710 -0.5530 -0.4643 -0.1382
 1261poe    c31 6481   3.422   6.860   1.003  0.2958 -0.1837  0.6286
 1261poe     o2 6482   3.320   6.948   1.044  0.4604  0.0486  0.5415
 1261poe    c23 6483   3.312   7.059   0.957 -0.5021 -0.4110  0.0349
 1261poe    c23 6484   3.206   7.162   1.000 -0.2365 -0.3320  0.4978
 1261poe     o2 6485   3.244   7.245   1.108  0.0662  0.3936 -0.1551
 1261poe    c23 6486   3.158   7.353   1.134 -0.3872 -0.1183  0.5199
 1261poe    c23 6487   3.177   7.400   1.279  0.2149 -0.4287  0.5469
 1261poe     o2 6488   3.154   7.300   1.375 -0.2519 -0.1114  0.7760
 1261poe    c23 6489   3.227   7.324   1.494  0.5017  0.2248  0.2556
 1261poe    c23 6490   3.166   7.217   1.586  0.3191  0.1060 -0.0017
 1261poe     o2 6491   3.147   7.088   1.531 -0.1712  0.2002 -0.0593
 1261poe    c31 6492   3.107   7.004   1.636 -0.1456  0.5862  0.2623
 1262poe    c31 6493   1.491   0.406   3.385  0.1372  0.0918  0.5530
 1262poe     o2 6494   1.469   0.299   3.295  0.4306 -0.1100  0.7200
 1262poe    c23 6495   1.359   0.225   3.341 -0.2579  0.0435 -0.6365
 1262poe    c23 6496   1.374   0.073   3.321 -0.4089 -0.0632  0.0334
 1262poe     o2 6497   1.452   0.052   3.206 -0.6021  0.1645 -0.1390
 1262poe    c23 6498   1.559  -0.034   3.236 -0.1749  0.5227 -0.6023
 1262poe    c23 6499   1.681   0.013   3.157  0.2982  0.2167 -0.0644
 1262poe     o2 6500   1.682   0.154   3.156  0.6591  0.2160 -0.1517
 1262poe    c23 6501   1.770   0.195   3.053  0.7050  0.0968 -0.1604
 1262poe    c23 6502   1.728   0.343   3.036 -0.0274 -0.0864 -0.0098
 1262poe     o2 6503   1.588   0.351   3.043 -0.0442 -0.3230 -0.0393
 1262poe    c31 6504   1.527   0.465   2.984  0.5060  0.2324  0.4589
 1263poe    c31 6505   2.548   0.790   5.844 -0.0343  0.0115 -0.0754
 1263poe     o2 6506   2.548   0.879   5.734  0.1748 -0.0379 -0.1150
 1263poe    c23 6507   2.591   0.785   5.637  0.6317 -0.0390  0.0865
 1263poe    c23 6508   2.619   0.863   5.508 -0.2374 -0.1012 -0.1461
 1263poe     o2 6509   2.505   0.947   5.502 -0.7303 -0.7477  0.0865
 1263poe    c23 6510   2.513   1.041   5.398  0.0968 -0.3771  0.4794
 1263poe    c23 6511   2.568   1.174   5.454 -0.2989 -0.1203  0.2634
 1263poe     o2 6512   2.509   1.176   5.582 -0.3831 -0.2520  0.2263
 1263poe    c23 6513   2.567   1.273   5.666 -0.4920  0.1423 -0.1494
 1263poe    c23 6514   2.478   1.275   5.792 -0.9992  0.4248 -0.5066
 1263poe     o2 6515   2.432   1.144   5.817  0.5678 -0.0350  0.0956
 1263poe    c31 6516   2.415   1.109   5.953  0.0678  0.5392  0.1836
 1264poe    c31 6517   6.358   5.316   4.318  0.1221 -0.2094  0.1868
 1264poe     o2 6518   6.263   5.222   4.272 -0.6279  0.3106  0.6567
 1264poe    c23 6519   6.187   5.280   4.168 -0.5418 -0.4085  0.1854
 1264poe    c23 6520   6.090   5.164   4.139 -0.5465 -0.5240  0.6520
 1264poe     o2 6521   6.148   5.045   4.089 -0.5343 -0.3467  0.2391
 1264poe    c23 6522   6.165   5.065   3.951 -0.4922  0.0658  0.3029
 1264poe    c23 6523   6.169   4.929   3.880  0.5486  0.2792 -0.0780
 1264poe     o2 6524   6.268   4.854   3.947  0.3843  0.0676 -0.0705
 1264poe    c23 6525   6.240   4.717   3.925 -0.5184  0.2917 -0.3945
 1264poe    c23 6526   6.351   4.651   4.010 -0.2909  0.9835 -0.1474
 1264poe     o2 6527   6.324   4.699   4.140  0.4769  0.1740  0.3205
 1264poe    c31 6528   6.410   4.643   4.237  0.0615 -0.4072  0.3593
 1265poe    c31 6529   2.159   3.004   2.864 -0.5042  0.2470  0.1180
 1265poe     o2 6530   2.145   3.011   3.004  0.0946  0.3566  0.1759
 1265poe    c23 6531   2.038   2.930   3.047  0.3227 -0.1120 -0.1210
 1265poe    c23 6532   2.013   2.928   3.199  0.0503 -0.4664 -0.1704
 1265poe     o2 6533   2.105   2.849   3.271  0.4548 -0.0713 -0.2527
 1265poe    c23 6534   2.045   2.795   3.387  0.4228  0.0334 -0.2205
 1265poe    c23 6535   2.031   2.884   3.512 -0.1116 -0.5614  0.1458
 1265poe     o2 6536   2.151   2.950   3.543 -0.3288 -0.0220 -0.1472
 1265poe    c23 6537   2.153   3.023   3.664 -0.5058  0.1148 -0.2269
 1265poe    c23 6538   2.301   3.034   3.704 -0.6669  0.2428  0.3420
 1265poe     o2 6539   2.374   3.091   3.598 -0.4720  0.3868  0.5513
 1265poe    c31 6540   2.514   3.085   3.616 -0.4330 -0.3459  0.0335
 1266poe    c31 6541   5.069   0.587   4.519  0.0070  0.3589  0.0588
 1266poe     o2 6542   5.153   0.495   4.452 -0.0212  0.0593  0.4309
 1266poe    c23 6543   5.276   0.478   4.517  0.5672  0.1503 -0.6301
 1266poe    c23 6544   5.317   0.337   4.472  0.0229 -0.3939  0.5315
 1266poe     o2 6545   5.335   0.326   4.333 -0.1457  0.2965  0.4540
 1266poe    c23 6546   5.410   0.210   4.308 -0.4899  0.2097 -0.2145
 1266poe    c23 6547   5.427   0.172   4.160  0.3006 -0.6786  0.0904
 1266poe     o2 6548   5.303   0.132   4.104  0.2548  0.2041 -0.4587
 1266poe    c23 6549   5.311   0.149   3.964 -0.1701  0.3887 -0.4624
 1266poe    c23 6550   5.202   0.081   3.880  0.1705 -0.8804  0.0851
 1266poe     o2 6551   5.235  -0.052   3.847 -0.2602 -0.9313 -0.1453
 1266poe    c31 6552   5.138  -0.104   3.758 -0.0233 -0.6069 -0.5996
 1267poe    c31 6553   6.287   6.410   3.561 -0.2736 -0.1814  0.4202
 1267poe     o2 6554   6.348   6.518   3.495  0.3233 -0.7886 -0.0311
 1267poe    c23 6555   6.488   6.516   3.516  0.3758  0.9883 -0.0895
 1267poe    c23 6556   6.554   6.599   3.404  0.8452  0.1455 -0.4514
 1267poe     o2 6557   6.476   6.717   3.413  0.6372 -0.0119 -0.1871
 1267poe    c23 6558   6.540   6.816   3.336  0.5634  0.1575 -0.0324
 1267poe    c23 6559   6.463   6.949   3.340 -0.1541 -0.2580  0.2877
 1267poe     o2 6560   6.331   6.915   3.305 -0.0761 -0.3888  0.1195
 1267poe    c23 6561   6.241   7.021   3.327 -0.0945 -0.3877  0.0409
 1267poe    c23 6562   6.090   7.010   3.297 -0.3218  0.0081  0.9843
 1267poe     o2 6563   6.032   6.917   3.385 -0.0258 -0.6532  0.4877
 1267poe    c31 6564   5.897   6.951   3.406 -0.3926 -1.8606  0.1415
 1268poe    c31 6565   3.051   2.005   4.215 -0.1321 -0.0542  0.5529
 1268poe     o2 6566   3.161   2.050   4.290 -0.1178  0.3882  0.2683
 1268poe    c23 6567   3.120   2.113   4.409 -0.2415 -0.3956  0.6464
 1268poe    c23 6568   3.235   2.167   4.496 -0.1338 -0.0984  0.3235
 1268poe     o2 6569   3.349   2.151   4.414 -0.3373  0.4440 -0.0692
 1268poe    c23 6570   3.462   2.202   4.482 -0.1603 -0.0659  0.0235
 1268poe    c23 6571   3.589   2.161   4.406 -0.2299 -0.4544  0.1175
 1268poe     o2 6572   3.585   2.020   4.406 -0.0657 -0.4590  0.1316
 1268poe    c23 6573   3.715   1.968   4.392  0.2580  0.3770 -0.0102
 1268poe    c23 6574   3.717   1.814   4.404 -0.0032  0.3493 -0.3044
 1268poe     o2 6575   3.615   1.753   4.328 -0.5307  0.0366  0.6337
 1268poe    c31 6576   3.647   1.616   4.323 -0.0409  0.1738 -0.0354
 1269poe    c31 6577   1.347   5.593   2.799  0.1470  0.2229 -0.6378
 1269poe     o2 6578   1.382   5.728   2.822 -0.0805  0.2158 -0.2344
 1269poe    c23 6579   1.424   5.797   2.706  0.1020 -0.1155 -0.3692
 1269poe    c23 6580   1.537   5.890   2.757  0.4053 -0.6143 -0.1253
 1269poe     o2 6581   1.510   5.936   2.888  0.3971 -0.4633 -0.1797
 1269poe    c23 6582   1.618   6.011   2.937  0.0246  0.1328 -0.2683
 1269poe    c23 6583   1.547   6.113   3.028  0.0136 -0.0445 -0.0794
 1269poe     o2 6584   1.479   6.043   3.129  0.1206  1.0657  0.7760
 1269poe    c23 6585   1.341   6.073   3.131 -0.2134 -0.3345  0.1243
 1269poe    c23 6586   1.249   5.950   3.139 -0.3812 -0.1780  0.6595
 1269poe     o2 6587   1.252   5.853   3.037  0.2570  0.3357  0.1799
 1269poe    c31 6588   1.119   5.812   3.012  0.3672 -0.0325  0.1961
 1270poe    c31 6589   1.635   3.047   0.023 -0.0602 -0.1870 -0.0786
 1270poe     o2 6590   1.535   2.972   0.088  0.2868 -0.4227  0.1853
 1270poe    c23 6591   1.466   2.893  -0.005 -0.1767  0.0942  0.0893
 1270poe    c23 6592   1.357   2.828   0.082 -0.1457 -0.3301 -0.1858
 1270poe     o2 6593   1.412   2.774   0.200  0.1697 -0.0640 -0.2084
 1270poe    c23 6594   1.319   2.778   0.306  0.4706  0.0471  0.0533
 1270poe    c23 6595   1.364   2.691   0.424  0.5347  0.6044  0.4462
 1270poe     o2 6596   1.489   2.726   0.481  1.0184 -0.1487 -0.1250
 1270poe    c23 6597   1.487   2.745   0.620  0.2068  1.2158 -0.3118
 1270poe    c23 6598   1.619   2.817   0.652  0.5464  0.5483 -0.2112
 1270poe     o2 6599   1.719   2.762   0.569  0.4297 -0.3496  0.2311
 1270poe    c31 6600   1.849   2.791   0.615  0.3855  0.4817 -0.1512
 1271poe    c31 6601   2.893   2.104   5.667 -0.2516 -0.1824  0.0816
 1271poe     o2 6602   2.970   2.173   5.571 -0.5599 -0.0842 -0.0976
 1271poe    c23 6603   3.003   2.302   5.617  0.8061 -0.4341 -0.0503
 1271poe    c23 6604   3.064   2.393   5.509  0.1576 -0.1219 -0.1618
 1271poe     o2 6605   2.991   2.419   5.391  0.1424  0.0187 -0.1222
 1271poe    c23 6606   2.904   2.530   5.397  0.6083  0.3740  0.1250
 1271poe    c23 6607   2.820   2.533   5.268  0.0368 -0.6395  0.4606
 1271poe     o2 6608   2.793   2.401   5.225 -0.2146 -0.3612 -0.2370
 1271poe    c23 6609   2.689   2.382   5.132 -0.1356 -0.1945 -0.3595
 1271poe    c23 6610   2.738   2.319   5.000 -0.0538 -0.6467 -0.1131
 1271poe     o2 6611   2.831   2.218   5.032 -0.1453 -0.6764  0.0571
 1271poe    c31 6612   2.878   2.147   4.920 -0.1334 -0.4024 -0.1110
 1272poe    c31 6613   6.736   1.423   4.939 -0.8732  0.3353 -0.7056
 1272poe     o2 6614   6.636   1.340   4.993  0.1570 -0.7350 -0.4200
 1272poe    c23 6615   6.517   1.412   5.009  0.4824 -0.2846 -0.0133
 1272poe    c23 6616   6.417   1.313   5.073  0.2956 -0.2900 -0.3132
 1272poe     o2 6617   6.429   1.185   5.014  0.0063 -0.6429  0.3829
 1272poe    c23 6618   6.333   1.089   5.049 -0.4490 -0.3160  0.0417
 1272poe    c23 6619   6.364   0.984   4.941  0.4189  0.0500 -0.0690
 1272poe     o2 6620   6.499   0.943   4.950  0.5251  0.5512  0.7064
 1272poe    c23 6621   6.510   0.825   4.875  0.1258  0.6708  0.4533
 1272poe    c23 6622   6.643   0.749   4.898 -0.4329 -0.3598  0.3670
 1272poe     o2 6623   6.756   0.821   4.856 -0.4276 -0.7121 -0.2280
 1272poe    c31 6624   6.862   0.733   4.827 -0.2157 -0.3074 -0.7134
 1273poe    c31 6625   6.553   1.973   6.045  0.1441 -0.3878 -0.4592
 1273poe     o2 6626   6.624   2.087   6.091  0.1314 -0.6138  0.1312
 1273poe    c23 6627   6.758   2.086   6.049  0.3797 -0.3897  0.9047
 1273poe    c23 6628   6.834   2.169   6.154  0.8868  0.6399 -0.2518
 1273poe     o2 6629   6.748   2.279   6.176  0.1207  0.1439 -0.7389
 1273poe    c23 6630   6.791   2.345   6.292 -0.0957 -0.8473 -0.0778
 1273poe    c23 6631   6.689   2.455   6.329  0.4549 -0.4380  0.2433
 1273poe     o2 6632   6.573   2.380   6.353  0.3211 -0.2191  0.2815
 1273poe    c23 6633   6.481   2.468   6.413  0.0743 -0.3761  0.1386
 1273poe    c23 6634   6.344   2.406   6.443  0.2072 -0.6720  0.1417
 1273poe     o2 6635   6.282   2.363   6.324 -0.8858 -0.0003  0.4527
 1273poe    c31 6636   6.170   2.441   6.287 -0.5741  0.6259  0.7992
 1274poe    c31 6637   4.101   5.294   5.345  0.0953 -0.2496 -0.5001
 1274poe     o2 6638   3.981   5.225   5.321  0.0589 -0.2976 -0.1926
 1274poe    c23 6639   3.907   5.171   5.428  0.2658  0.2839  0.2407
 1274poe    c23 6640   3.813   5.054   5.396 -0.3212  0.8286 -0.0437
 1274poe     o2 6641   3.903   4.952   5.359 -0.3212  0.8746 -0.1712
 1274poe    c23 6642   3.833   4.831   5.344  0.3502  0.4792 -0.1239
 1274poe    c23 6643   3.933   4.728   5.287 -0.2827 -0.1927 -0.0368
 1274poe     o2 6644   4.057   4.730   5.353 -0.2503 -0.3700 -0.0927
 1274poe    c23 6645   4.126   4.615   5.310 -0.0637 -0.4385  0.3784
 1274poe    c23 6646   4.238   4.587   5.412  0.1655 -0.6700  0.0666
 1274poe     o2 6647   4.301   4.713   5.423 -0.1032 -0.5770  0.5755
 1274poe    c31 6648   4.435   4.701   5.466  0.3312  0.0424 -0.5581
 1275poe    c31 6649   6.034   6.075   6.498 -0.3478  0.4739 -0.6275
 1275poe     o2 6650   6.104   6.165   6.581 -0.0516  0.0371 -0.4031
 1275poe    c23 6651   6.207   6.238   6.518  0.1142 -0.1489 -0.3482
 1275poe    c23 6652   6.223   6.386   6.558 -0.1426 -0.2194  0.0185
 1275poe     o2 6653   6.141   6.478   6.488  0.5298  0.2155 -0.2027
 1275poe    c23 6654   6.161   6.605   6.546  0.3723  0.1437  0.0115
 1275poe    c23 6655   6.071   6.715   6.487 -0.0846 -0.0880  0.2703
 1275poe     o2 6656   6.076   6.721   6.346  0.5967 -0.2816  0.2786
 1275poe    c23 6657   6.157   6.826   6.300  0.5543 -0.3888 -0.0416
 1275poe    c23 6658   6.167   6.815   6.147  0.0222 -0.0351 -0.1038
 1275poe     o2 6659   6.038   6.805   6.091 -0.0079  0.3422 -0.1050
 1275poe    c31 6660   6.049   6.780   5.953  0.2055  0.7813 -0.1703
 1276poe    c31 6661   7.009   5.310   1.055  0.2681  0.4411  0.2975
 1276poe     o2 6662   7.046   5.228   1.164  0.1289 -0.0918 -0.0507
 1276poe    c23 6663   7.092   5.320   1.260 -0.5847 -0.2656  0.4624
 1276poe    c23 6664   7.134   5.231   1.379 -0.2714 -0.5310  0.1559
 1276poe     o2 6665   7.209   5.121   1.336 -0.4767 -0.5177 -0.2412
 1276poe    c23 6666   7.232   5.025   1.437  0.8082 -0.4421 -0.4407
 1276poe    c23 6667   7.208   4.881   1.388 -0.2179 -0.5317  0.2931
 1276poe     o2 6668   7.102   4.919   1.304 -0.0986 -0.3609  0.2208
 1276poe    c23 6669   7.027   4.821   1.236  0.3087 -0.2777 -0.3587
 1276poe    c23 6670   6.920   4.876   1.140  0.2326 -0.5401 -0.4245
 1276poe     o2 6671   6.960   4.990   1.068  0.0971 -0.0918  0.2010
 1276poe    c31 6672   6.938   4.971   0.930  0.4071  0.1709  0.1155
 1277poe    c31 6673   0.928   6.444   2.425 -0.7054  0.0029 -0.2884
 1277poe     o2 6674   1.018   6.550   2.447  0.1088 -0.8000  0.3571
 1277poe    c23 6675   1.019   6.578   2.585  0.1956  0.4555  0.1153
 1277poe    c23 6676   0.957   6.713   2.628  0.4764  0.5202  0.3222
 1277poe     o2 6677   1.036   6.795   2.546  0.1496  0.4723 -0.0442
 1277poe    c23 6678   1.026   6.934   2.567 -0.4742  0.3926  0.1895
 1277poe    c23 6679   1.116   7.008   2.467 -0.6398  0.4777  0.1025
 1277poe     o2 6680   1.098   6.974   2.331 -0.2250  0.0694  0.1467
 1277poe    c23 6681   1.208   7.007   2.249 -0.1639 -0.0093  0.1965
 1277poe    c23 6682   1.187   6.973   2.100 -0.1187 -0.4439  0.2892
 1277poe     o2 6683   1.185   6.832   2.096 -0.4602 -0.4478  0.4731
 1277poe    c31 6684   1.208   6.790   1.964  0.4019  0.2218  0.4017
 1278poe    c31 6685   3.015   4.119   1.077  0.9990 -0.2498  0.2312
 1278poe     o2 6686   3.045   4.117   0.939  0.0773  0.3086  0.0141
 1278poe    c23 6687   3.182   4.099   0.908  0.0135 -0.5476  0.1889
 1278poe    c23 6688   3.192   4.117   0.755 -0.2330  0.2680  0.2603
 1278poe     o2 6689   3.080   4.053   0.698  0.0191 -0.1859  0.2644
 1278poe    c23 6690   3.110   4.018   0.565  0.0669 -0.6154  0.3866
 1278poe    c23 6691   2.976   3.971   0.506 -0.2755  0.3708  0.3634
 1278poe     o2 6692   2.929   3.851   0.562 -0.0183 -0.1587 -0.5324
 1278poe    c23 6693   2.825   3.800   0.482 -0.3076 -0.2452 -0.1036
 1278poe    c23 6694   2.778   3.669   0.547  0.0773 -0.4934 -0.3185
 1278poe     o2 6695   2.781   3.691   0.686 -0.0403 -0.5358 -0.3085
 1278poe    c31 6696   2.698   3.598   0.752  0.3239 -0.0181  0.9275
 1279poe    c31 6697   5.990   5.580   5.698 -0.9594 -0.0679  0.1826
 1279poe     o2 6698   5.976   5.483   5.597  0.4328 -0.3679  0.2535
 1279poe    c23 6699   6.087   5.481   5.510  0.2667 -0.0516  0.0322
 1279poe    c23 6700   6.053   5.398   5.385 -0.6486  0.0418  0.2139
 1279poe     o2 6701   5.978   5.281   5.406  0.1754 -0.7284 -1.0575
 1279poe    c23 6702   6.050   5.173   5.462 -0.2254 -0.2946  0.3252
 1279poe    c23 6703   5.959   5.090   5.554 -0.3825 -0.4370  0.0441
 1279poe     o2 6704   5.891   5.188   5.629  0.2454  0.0354  0.0041
 1279poe    c23 6705   5.859   5.147   5.760  0.1551  0.1860  0.0300
 1279poe    c23 6706   5.768   5.249   5.830 -0.3855 -0.1012 -0.2513
 1279poe     o2 6707   5.761   5.358   5.741 -0.1017  0.0736 -0.0602
 1279poe    c31 6708   5.679   5.463   5.790  0.5846  0.8616 -0.5686
 1280poe    c31 6709   0.903   4.656   2.273  0.2633 -0.9287  0.6037
 1280poe     o2 6710   1.019   4.660   2.193 -0.3793  0.0378 -0.3009
 1280poe    c23 6711   1.008   4.550   2.106 -0.3332  0.0889 -0.3711
 1280poe    c23 6712   1.108   4.570   1.990 -0.1154  0.1030 -0.1819
 1280poe     o2 6713   1.242   4.571   2.033 -0.0500  0.1236 -0.3846
 1280poe    c23 6714   1.338   4.612   1.939  0.3676 -0.2039 -0.1027
 1280poe    c23 6715   1.476   4.630   2.004  0.3422  0.3423 -0.1985
 1280poe     o2 6716   1.465   4.729   2.104  0.3455 -0.0093  0.1539
 1280poe    c23 6717   1.595   4.768   2.142  0.1950  0.5776  0.0752
 1280poe    c23 6718   1.603   4.871   2.256  0.0389  0.1300  0.4905
 1280poe     o2 6719   1.565   4.798   2.371 -0.4116 -0.1355  0.1759
 1280poe    c31 6720   1.548   4.881   2.483 -0.1130 -0.0797  0.1803
 1281poe    c31 6721   6.108   1.980   5.510 -0.5500  0.2312  0.7491
 1281poe     o2 6722   6.195   1.904   5.592  0.1313  0.0522 -0.1253
 1281poe    c23 6723   6.120   1.850   5.698 -0.2676  0.1403 -0.3619
 1281poe    c23 6724   6.184   1.724   5.759 -0.0222  0.8360  0.8391
 1281poe     o2 6725   6.324   1.731   5.772  0.1034  0.4445 -0.2083
 1281poe    c23 6726   6.364   1.623   5.854  0.1852  0.4017 -0.3042
 1281poe    c23 6727   6.508   1.658   5.897  0.2106 -0.2567  0.1693
 1281poe     o2 6728   6.555   1.702   5.771  0.5755 -0.4828  0.2287
 1281poe    c23 6729   6.693   1.732   5.764  0.4974 -0.1170  0.2654
 1281poe    c23 6730   6.756   1.667   5.639  0.7287  0.4187  0.1023
 1281poe     o2 6731   6.704   1.745   5.533  0.3095 -0.5848 -0.4427
 1281poe    c31 6732   6.747   1.710   5.403  1.2501 -0.1942 -0.2495
 1282poe    c31 6733   2.221   1.017   3.877  0.1068 -0.2601 -0.6802
 1282poe     o2 6734   2.284   0.901   3.827 -0.0104 -0.5141 -0.2465
 1282poe    c23 6735   2.261   0.893   3.688 -0.2668  0.8220 -0.2981
 1282poe    c23 6736   2.361   0.802   3.615 -0.8680 -0.0203 -0.0883
 1282poe     o2 6737   2.327   0.666   3.631  0.3993 -0.3256  0.1856
 1282poe    c23 6738   2.379   0.580   3.532 -0.6113 -0.3500 -0.3411
 1282poe    c23 6739   2.372   0.438   3.591 -0.1047 -0.2006  0.0888
 1282poe     o2 6740   2.437   0.421   3.715  0.2891  0.2571 -0.0527
 1282poe    c23 6741   2.410   0.289   3.755 -0.0986  0.2223 -0.4268
 1282poe    c23 6742   2.395   0.304   3.907 -0.1731  0.3884 -0.4509
 1282poe     o2 6743   2.495   0.389   3.959  0.2750 -0.3191 -0.1450
 1282poe    c31 6744   2.499   0.368   4.099  0.1922  0.6859  0.0197
 1283poe    c31 6745   1.337   5.542   1.896 -0.3028  1.0132 -1.4004
 1283poe     o2 6746   1.337   5.623   2.011  0.4356 -0.3538 -0.4073
 1283poe    c23 6747   1.444   5.715   2.003  0.0110  0.1685 -0.1486
 1283poe    c23 6748   1.421   5.830   2.104 -0.8343 -0.6533  0.6202
 1283poe     o2 6749   1.295   5.889   2.085 -0.0459  0.7933 -0.3696
 1283poe    c23 6750   1.297   6.024   2.124 -0.1335  0.5285  0.5844
 1283poe    c23 6751   1.150   6.066   2.106 -0.3831 -0.6840 -0.3579
 1283poe     o2 6752   1.058   5.980   2.168 -0.8295 -0.8548 -1.2474
 1283poe    c23 6753   0.924   6.019   2.147 -0.7427  0.0468 -0.2125
 1283poe    c23 6754   0.839   5.935   2.244 -0.3755 -0.6193 -0.4659
 1283poe     o2 6755   0.900   5.810   2.217 -0.0792 -0.4914 -0.3969
 1283poe    c31 6756   0.801   5.710   2.231 -0.0921 -0.5283 -0.7468
 1284poe    c31 6757   4.252   2.074   0.644  0.2228  0.3475  0.8485
 1284poe     o2 6758   4.261   2.201   0.585  0.6588 -0.1337 -0.1476
 1284poe    c23 6759   4.371   2.220   0.498  0.2798 -0.3002 -0.6698
 1284poe    c23 6760   4.360   2.359   0.432  0.2833 -0.0424 -0.1354
 1284poe     o2 6761   4.305   2.448   0.526 -0.3136  0.0749 -0.5858
 1284poe    c23 6762   4.275   2.573   0.468 -0.5962  0.3400  0.1174
 1284poe    c23 6763   4.157   2.636   0.545 -0.6416  0.1747  0.1844
 1284poe     o2 6764   4.079   2.522   0.573 -0.5540  0.1300  0.2475
 1284poe    c23 6765   3.950   2.560   0.615 -0.5764  0.2232  0.0989
 1284poe    c23 6766   3.894   2.434   0.684 -0.3354  0.0329 -0.0534
 1284poe     o2 6767   3.985   2.331   0.717 -0.2639  0.1418  0.0929
 1284poe    c31 6768   3.926   2.222   0.785  0.2011 -0.1242  0.0731
 1285poe    c31 6769   0.517   5.225   5.787 -1.0420 -0.0698 -0.4621
 1285poe     o2 6770   0.583   5.314   5.700  0.5537 -0.2550  0.5223
 1285poe    c23 6771   0.610   5.243   5.582 -0.5158 -0.0062  0.1211
 1285poe    c23 6772   0.622   5.341   5.464  0.2400 -0.1800  0.0527
 1285poe     o2 6773   0.690   5.453   5.515  0.1509 -0.1646  0.1365
 1285poe    c23 6774   0.697   5.541   5.405 -0.4737  0.1560  0.3510
 1285poe    c23 6775   0.744   5.676   5.463  0.1681  0.2638 -0.4144
 1285poe     o2 6776   0.653   5.738   5.551  0.0943 -0.4427  0.0114
 1285poe    c23 6777   0.695   5.872   5.566 -0.1071 -0.4763  0.8918
 1285poe    c23 6778   0.647   5.919   5.705 -0.9414  0.4130  0.3083
 1285poe     o2 6779   0.699   5.861   5.822 -0.4889 -0.0593 -0.1258
 1285poe    c31 6780   0.658   5.929   5.939  0.2928 -0.1123  0.1891
 1286poe    c31 6781   2.310   5.378   3.155  0.0076 -0.5087 -0.3908
 1286poe     o2 6782   2.264   5.322   3.275 -0.0243  0.0722 -0.1279
 1286poe    c23 6783   2.360   5.229   3.319  0.1327 -0.0678 -0.7546
 1286poe    c23 6784   2.294   5.092   3.343 -0.6729  0.4774  0.1988
 1286poe     o2 6785   2.182   5.096   3.429 -0.2106 -0.2731  0.8477
 1286poe    c23 6786   2.129   4.968   3.455  0.0416 -0.6146 -0.2967
 1286poe    c23 6787   1.990   4.991   3.517  0.6598 -0.0769  0.9267
 1286poe     o2 6788   1.909   5.067   3.430  0.8534 -0.3200  0.5323
 1286poe    c23 6789   1.783   5.059   3.491  0.6120 -0.0716  0.0730
 1286poe    c23 6790   1.679   5.112   3.390  0.4434 -0.3654  0.0895
 1286poe     o2 6791   1.731   5.235   3.344 -0.3092 -0.1092 -0.0827
 1286poe    c31 6792   1.652   5.306   3.251  0.3632 -0.3620 -0.8555
 1287poe    c31 6793   1.122   0.726   4.273  0.0070  0.0339 -0.2236
 1287poe     o2 6794   1.070   0.833   4.350  0.0379  0.0690 -0.2513
 1287poe    c23 6795   1.133   0.840   4.476 -0.0089  0.3449 -0.2434
 1287poe    c23 6796   1.130   0.976   4.548  0.0385 -0.0706  0.5618
 1287poe     o2 6797   1.004   1.039   4.556 -0.0415 -0.1637  0.0893
 1287poe    c23 6798   1.012   1.129   4.665  0.0050 -0.0184 -0.0343
 1287poe    c23 6799   0.874   1.194   4.690  0.2488  0.5596 -0.1813
 1287poe     o2 6800   0.792   1.194   4.575 -0.1436 -0.3906  0.0881
 1287poe    c23 6801   0.662   1.245   4.591 -0.0808  0.0248 -0.6959
 1287poe    c23 6802   0.593   1.261   4.454 -0.1423 -0.0480 -0.6725
 1287poe     o2 6803   0.608   1.143   4.379 -0.3364 -0.6567  0.2271
 1287poe    c31 6804   0.511   1.149   4.277  0.3565  0.5618 -0.3822
 1288poe    c31 6805   5.200   4.894   3.319  0.6108 -0.9637 -0.6255
 1288poe     o2 6806   5.295   4.998   3.317 -0.1965 -0.1803  0.3229
 1288poe    c23 6807   5.383   4.968   3.423 -0.1070  0.6373  0.4851
 1288poe    c23 6808   5.505   5.063   3.421  0.4741 -0.1019  0.0890
 1288poe     o2 6809   5.608   5.029   3.331 -0.0859 -0.5050 -0.4082
 1288poe    c23 6810   5.683   5.147   3.313 -0.2048 -0.3920 -0.1685
 1288poe    c23 6811   5.780   5.146   3.194  0.1533 -0.5682  0.1205
 1288poe     o2 6812   5.698   5.131   3.080  0.0394 -0.7632  0.2287
 1288poe    c23 6813   5.756   5.171   2.958  0.5195 -0.9884  0.3814
 1288poe    c23 6814   5.666   5.144   2.835  0.4468 -0.4539  0.3154
 1288poe     o2 6815   5.624   5.011   2.856 -0.4650 -0.1390  0.5179
 1288poe    c31 6816   5.561   4.970   2.737  0.1450  0.7467 -0.1277
 1289poe    c31 6817   3.673   1.817   3.410 -0.2264 -0.6543  0.2822
 1289poe     o2 6818   3.801   1.849   3.459 -0.4980  0.6146  0.1841
 1289poe    c23 6819   3.819   1.773   3.576 -0.6425 -0.5424 -0.5358
 1289poe    c23 6820   3.958   1.813   3.629 -0.5651 -0.4984 -0.7713
 1289poe     o2 6821   3.953   1.953   3.647  0.0411 -0.5908  0.2138
 1289poe    c23 6822   4.041   1.988   3.752  0.8439  0.2504 -0.7136
 1289poe    c23 6823   4.056   2.140   3.769 -0.1076  0.2708  0.0519
 1289poe     o2 6824   4.062   2.189   3.637  0.3690 -0.2486 -0.1237
 1289poe    c23 6825   4.063   2.330   3.624 -0.1476 -0.2491 -0.2050
 1289poe    c23 6826   4.121   2.378   3.490 -0.2599 -0.0538 -0.1828
 1289poe     o2 6827   4.033   2.344   3.386 -0.4392  0.3662 -0.1734
 1289poe    c31 6828   4.024   2.448   3.291 -0.2955  0.0756 -0.5092
 1290poe    c31 6829   3.457   6.415   6.949  0.2679 -0.4918  0.7726
 1290poe     o2 6830   3.541   6.302   6.946  0.9765  0.0445 -0.5764
 1290poe    c23 6831   3.466   6.195   6.895  0.3483  0.0284  0.3505
 1290poe    c23 6832   3.536   6.060   6.867  0.0855 -0.0288 -0.0321
 1290poe     o2 6833   3.599   6.023   6.987  0.6976  0.1197 -0.3050
 1290poe    c23 6834   3.694   5.923   6.958  0.7441  0.1592 -0.2897
 1290poe    c23 6835   3.765   5.866   7.083  0.3804  0.1973 -0.0638
 1290poe     o2 6836   3.777   5.964   7.184 -0.3014  0.2701 -0.0463
 1290poe    c23 6837   3.829   5.896   7.296  0.2216  0.4288 -0.1883
 1290poe    c23 6838   3.842   5.998   7.410  0.0554  0.5171 -0.2481
 1290poe     o2 6839   3.724   6.077   7.412 -0.0842  0.3198 -0.6881
 1290poe    c31 6840   3.759   6.186   7.495  0.2276 -0.6056  0.4325
 1291poe    c31 6841   3.775   4.816   3.835 -0.5215  0.2138  0.6578
 1291poe     o2 6842   3.784   4.688   3.775  0.1025  0.2534  0.6535
 1291poe    c23 6843   3.919   4.651   3.787 -0.1163 -0.5093  0.7631
 1291poe    c23 6844   3.953   4.560   3.667 -0.2885  0.5718 -0.1152
 1291poe     o2 6845   3.838   4.480   3.659  0.1657 -0.1074  0.0537
 1291poe    c23 6846   3.859   4.368   3.575 -0.2817  0.4689 -0.8429
 1291poe    c23 6847   3.724   4.313   3.526 -0.2383 -0.5604  0.1587
 1291poe     o2 6848   3.615   4.299   3.615 -0.4156 -0.1988 -0.0026
 1291poe    c23 6849   3.497   4.245   3.558 -0.1933 -0.9027  0.1970
 1291poe    c23 6850   3.371   4.297   3.629 -0.1589 -0.0972 -0.3171
 1291poe     o2 6851   3.351   4.435   3.606 -0.7308 -0.2119 -0.5304
 1291poe    c31 6852   3.261   4.490   3.700 -0.2784  0.2103 -0.3410
 1292poe    c31 6853   6.751   2.088   4.186  0.6166 -0.0496 -0.1257
 1292poe     o2 6854   6.642   2.017   4.129 -0.0834  0.7237  0.2348
 1292poe    c23 6855   6.601   1.914   4.216  0.4093  0.0825 -0.2854
 1292poe    c23 6856   6.462   1.860   4.179  0.1869  0.2102  0.3528
 1292poe     o2 6857   6.460   1.810   4.048 -0.4438 -0.0584  0.4612
 1292poe    c23 6858   6.450   1.671   4.030 -0.0800 -0.0377  0.0828
 1292poe    c23 6859   6.506   1.642   3.889 -0.0020 -0.0459  0.1152
 1292poe     o2 6860   6.425   1.724   3.807  0.4313  0.2360 -0.0348
 1292poe    c23 6861   6.445   1.694   3.671  0.1553 -0.5938  0.1023
 1292poe    c23 6862   6.373   1.808   3.596  0.3406 -0.4236  0.1824
 1292poe     o2 6863   6.411   1.929   3.658  0.2210 -0.2284 -0.1235
 1292poe    c31 6864   6.459   2.023   3.565  0.0270 -0.3428 -0.3396
 1293poe    c31 6865   0.017   2.322   0.458  0.2502 -0.7292 -0.4923
 1293poe     o2 6866  -0.109   2.306   0.518  0.0926  0.5782 -0.4440
 1293poe    c23 6867  -0.111   2.194   0.604  0.3342  0.6379 -0.3616
 1293poe    c23 6868  -0.112   2.233   0.754 -0.2285  0.2678 -0.2695
 1293poe     o2 6869  -0.213   2.326   0.785 -0.6209 -0.2301 -0.0397
 1293poe    c23 6870  -0.205   2.402   0.903  0.5370  0.4728 -0.5571
 1293poe    c23 6871  -0.313   2.512   0.898  0.3118  0.2594 -0.4249
 1293poe     o2 6872  -0.317   2.567   0.769 -0.3826 -0.2068 -0.6034
 1293poe    c23 6873  -0.348   2.701   0.800  0.2359 -0.2484  0.2170
 1293poe    c23 6874  -0.452   2.733   0.690  0.1314  0.1775  0.4378
 1293poe     o2 6875  -0.559   2.642   0.678  0.2609  0.0562  0.2082
 1293poe    c31 6876  -0.657   2.699   0.594 -0.2671  0.2300  0.9403
 1294poe    c31 6877   3.534   5.272   3.881 -0.4274 -0.7236 -0.8397
 1294poe     o2 6878   3.448   5.372   3.831  0.1532  0.1593 -0.1090
 1294poe    c23 6879   3.312   5.344   3.806  0.0309  0.9840 -0.3999
 1294poe    c23 6880   3.248   5.475   3.756  0.0045  0.9745 -0.3910
 1294poe     o2 6881   3.264   5.581   3.848 -0.1193  0.2797  0.4476
 1294poe    c23 6882   3.212   5.702   3.798 -0.4422 -0.0418 -0.0065
 1294poe    c23 6883   3.187   5.810   3.905  0.2563 -0.0898  0.2142
 1294poe     o2 6884   3.096   5.775   4.007 -0.5882  0.4970 -0.3247
 1294poe    c23 6885   3.073   5.891   4.084 -0.5236  0.4034 -0.1643
 1294poe    c23 6886   3.000   5.854   4.215  0.2709  0.3720  0.2738
 1294poe     o2 6887   3.065   5.763   4.301  0.1458  0.1945  0.1809
 1294poe    c31 6888   3.015   5.778   4.432  0.2914 -0.0865  0.2696
 1295poe    c31 6889   6.081   6.303   5.712 -0.4148  0.1354  0.0281
 1295poe     o2 6890   6.063   6.255   5.581 -0.3011  0.3305 -0.0596
 1295poe    c23 6891   6.150   6.313   5.486 -0.4038 -0.0960 -0.4196
 1295poe    c23 6892   6.116   6.249   5.350  0.6403 -0.1163 -0.6790
 1295poe     o2 6893   5.977   6.265   5.332  0.6708  0.6963 -0.2505
 1295poe    c23 6894   5.932   6.202   5.214  0.6064 -0.1124  0.1938
 1295poe    c23 6895   5.780   6.195   5.195  0.6469  0.7091 -0.4811
 1295poe     o2 6896   5.731   6.127   5.308 -0.0636  0.3149 -1.0190
 1295poe    c23 6897   5.593   6.097   5.307 -0.0884  0.3284  0.2371
 1295poe    c23 6898   5.523   6.091   5.444 -0.1945 -0.1747  0.1606
 1295poe     o2 6899   5.548   6.210   5.514 -0.1523  0.0840 -0.2930
 1295poe    c31 6900   5.460   6.225   5.623  0.5421  0.0947  0.2776
 1296poe    c31 6901   2.176   0.550   0.465  0.1281 -0.5613  0.0084
 1296poe     o2 6902   2.161   0.449   0.368  0.0942 -0.5065 -0.0434
 1296poe    c23 6903   2.156   0.322   0.429 -0.1330 -0.3904  0.1811
 1296poe    c23 6904   2.120   0.223   0.317  0.3193 -0.2221 -0.1132
 1296poe     o2 6905   2.216   0.222   0.213 -0.1246  0.3094 -0.5366
 1296poe    c23 6906   2.178   0.121   0.122  0.3879 -0.1783 -0.2189
 1296poe    c23 6907   2.297   0.078   0.036  0.6661 -0.4919  0.3172
 1296poe     o2 6908   2.338   0.181  -0.051 -0.3914 -0.1719  0.1905
 1296poe    c23 6909   2.476   0.161  -0.069 -0.5325 -0.5591 -0.5251
 1296poe    c23 6910   2.533   0.265  -0.168 -0.2847 -0.0603  0.1296
 1296poe     o2 6911   2.486   0.238  -0.298 -1.0572 -0.2973  0.4481
 1296poe    c31 6912   2.567   0.303  -0.394  0.4469 -0.8200  1.3264
 1297poe    c31 6913   0.619   5.635   3.490 -0.3779  0.0105  0.6583
 1297poe     o2 6914   0.641   5.739   3.398 -0.2993 -0.7984 -0.2620
 1297poe    c23 6915   0.643   5.705   3.261 -0.2587 -0.3581 -0.3727
 1297poe    c23 6916   0.644   5.826   3.166  0.2821  0.3187  0.4685
 1297poe     o2 6917   0.757   5.908   3.178 -0.1489  0.9187  0.4772
 1297poe    c23 6918   0.744   6.035   3.117  0.5371  0.5306 -0.4957
 1297poe    c23 6919   0.860   6.135   3.137  0.5713  0.4275 -0.1713
 1297poe     o2 6920   0.869   6.174   3.272  0.1752 -0.4301  0.1118
 1297poe    c23 6921   0.960   6.281   3.282 -0.1667 -0.2031  0.7933
 1297poe    c23 6922   0.991   6.311   3.430 -0.2858  0.4630  0.6897
 1297poe     o2 6923   0.978   6.186   3.494 -0.2938 -0.2684 -0.7001
 1297poe    c31 6924   0.960   6.217   3.631 -0.0476 -0.1943 -0.6841
 1298poe    c31 6925   6.918   3.200   2.624  0.1052 -0.1295  0.7101
 1298poe     o2 6926   6.789   3.174   2.674 -0.0598 -0.5515  0.0777
 1298poe    c23 6927   6.717   3.089   2.587 -0.3841 -0.1874 -0.0144
 1298poe    c23 6928   6.567   3.111   2.615 -0.4503 -0.5842 -0.0379
 1298poe     o2 6929   6.545   3.250   2.604 -0.0890 -0.5693 -0.6094
 1298poe    c23 6930   6.408   3.283   2.595  0.0321  0.1306 -0.0314
 1298poe    c23 6931   6.400   3.419   2.524 -0.1962  0.2243  0.1738
 1298poe     o2 6932   6.489   3.513   2.581  0.3903 -0.2495  0.0495
 1298poe    c23 6933   6.478   3.646   2.535 -0.2557 -0.3309 -0.0425
 1298poe    c23 6934   6.579   3.702   2.434  0.0720 -0.4715  0.2063
 1298poe     o2 6935   6.712   3.703   2.483  0.1322  0.2367  0.0418
 1298poe    c31 6936   6.812   3.786   2.429  0.5152 -0.7853 -0.8614
 1299poe    c31 6937   2.647   1.607   6.735  0.5255  0.1942 -0.0696
 1299poe     o2 6938   2.524   1.552   6.779  0.2344  0.5586 -0.4180
 1299poe    c23 6939   2.510   1.414   6.802  0.1371  0.6665  0.1947
 1299poe    c23 6940   2.466   1.388   6.947 -0.3922 -0.0945 -0.0954
 1299poe     o2 6941   2.353   1.466   6.977 -0.4691 -0.1853 -0.1449
 1299poe    c23 6942   2.276   1.382   7.060 -0.4280  0.0634  0.1497
 1299poe    c23 6943   2.149   1.460   7.096 -0.3506  0.0805  0.3882
 1299poe     o2 6944   2.181   1.593   7.132  0.4621 -0.0269  0.0693
 1299poe    c23 6945   2.077   1.672   7.184  0.8043  0.2001  0.4138
 1299poe    c23 6946   2.113   1.821   7.188 -0.2162  0.4493  0.7605
 1299poe     o2 6947   2.150   1.847   7.054 -0.6725 -0.0666  0.5309
 1299poe    c31 6948   2.147   1.986   7.029  0.2346 -0.0593  0.4411
 1300poe    c31 6949   6.045   5.235   1.617  0.1728  0.0490 -0.2173
 1300poe     o2 6950   6.051   5.282   1.750  0.4237  0.3560 -0.3358
 1300poe    c23 6951   5.968   5.396   1.757 -0.0255  0.0113 -0.0238
 1300poe    c23 6952   6.031   5.502   1.849 -0.3008  0.0297  0.1433
 1300poe     o2 6953   6.049   5.420   1.962  0.1600  0.1825  0.1810
 1300poe    c23 6954   6.103   5.491   2.071  0.9723  0.0200 -0.1089
 1300poe    c23 6955   6.120   5.389   2.185  0.2309  0.0809  0.0610
 1300poe     o2 6956   6.229   5.302   2.163 -0.1066 -0.2474 -0.3107
 1300poe    c23 6957   6.282   5.265   2.288  0.2772  0.3146 -0.3035
 1300poe    c23 6958   6.417   5.191   2.274  0.2032  0.2550 -0.7031
 1300poe     o2 6959   6.400   5.068   2.208 -0.2846 -0.2484  0.3339
 1300poe    c31 6960   6.514   4.986   2.227 -0.0747 -0.0271  0.0436
 1301poe    c31 6961   2.866   4.747   4.848 -0.1792 -0.3785  0.2008
 1301poe     o2 6962   2.819   4.803   4.970 -0.6404  0.1391 -0.2067
 1301poe    c23 6963   2.908   4.906   5.005 -0.2594 -0.3140  0.1610
 1301poe    c23 6964   2.855   4.975   5.132  0.1952  0.0253  0.1672
 1301poe     o2 6965   2.884   4.906   5.251 -0.0973  0.2715  0.3810
 1301poe    c23 6966   2.830   4.971   5.364 -1.3787 -0.6704  0.3469
 1301poe    c23 6967   2.857   4.892   5.493  1.2255  0.0764  0.3159
 1301poe     o2 6968   2.838   4.755   5.465 -0.0242  0.2069  0.4791
 1301poe    c23 6969   2.929   4.678   5.541  0.6204  0.1634 -0.3265
 1301poe    c23 6970   2.906   4.530   5.504  0.3992  0.0760  0.1553
 1301poe     o2 6971   2.910   4.522   5.363 -0.6429 -0.0833  0.1241
 1301poe    c31 6972   2.903   4.383   5.338  0.4467 -0.2143  0.4698
 1302poe    c31 6973   4.541   2.843   0.783 -0.1346  0.0866 -0.9693
 1302poe     o2 6974   4.537   2.978   0.823  0.4816 -0.1733 -0.0078
 1302poe    c23 6975   4.619   2.984   0.938 -0.0971 -0.5587  0.4351
 1302poe    c23 6976   4.673   3.127   0.961 -0.0752 -0.5385  0.2599
 1302poe     o2 6977   4.569   3.206   1.015  0.3552  0.2065  0.0098
 1302poe    c23 6978   4.557   3.330   0.950  0.1274  0.2563  0.1481
 1302poe    c23 6979   4.433   3.409   0.996 -0.0091  0.0256  0.1748
 1302poe     o2 6980   4.328   3.407   0.901  0.1884  0.6107 -0.0629
 1302poe    c23 6981   4.217   3.479   0.948  0.2342  0.5044  0.2099
 1302poe    c23 6982   4.121   3.524   0.837 -0.0679  0.0247  0.2746
 1302poe     o2 6983   4.127   3.430   0.732 -0.4574 -0.4776  0.6934
 1302poe    c31 6984   4.023   3.438   0.637  0.1025  0.2262  0.1253
 1303poe    c31 6985   6.243   0.952   6.383  0.5575 -0.4161 -0.6235
 1303poe     o2 6986   6.233   0.849   6.479 -0.1563  0.0585 -0.1814
 1303poe    c23 6987   6.299   0.737   6.424 -0.0786  0.0569 -0.0854
 1303poe    c23 6988   6.241   0.603   6.473  0.4871 -0.0956  0.1741
 1303poe     o2 6989   6.235   0.582   6.613  0.1338 -0.3005  0.1273
 1303poe    c23 6990   6.259   0.449   6.652  0.4537 -0.4121 -0.4445
 1303poe    c23 6991   6.302   0.443   6.800  0.2621  0.2818 -0.3586
 1303poe     o2 6992   6.220   0.533   6.870  0.2720 -0.0377  0.0674
 1303poe    c23 6993   6.249   0.536   7.008 -0.3110 -0.3540  0.2014
 1303poe    c23 6994   6.139   0.631   7.059  0.1405  0.1349  0.2798
 1303poe     o2 6995   6.101   0.736   6.973 -0.1547 -0.1045  0.1136
 1303poe    c31 6996   6.009   0.827   7.029  0.2266  0.2612  0.1506
 1304poe    c31 6997   4.546   1.539   7.002 -0.2268 -0.2020 -0.6007
 1304poe     o2 6998   4.488   1.572   7.127  0.0407 -0.1157 -0.4976
 1304poe    c23 6999   4.396   1.679   7.120 -0.0766 -0.1570  0.2928
 1304poe    c23 7000   4.345   1.723   7.258 -0.2683  0.1656  0.1193
 1304poe     o2 7001   4.296   1.600   7.306  0.2683 -0.0638  0.0838
 1304poe    c23 7002   4.251   1.621   7.438 -0.3493  0.2692 -0.1778
 1304poe    c23 7003   4.229   1.485   7.506  0.1694  0.2808  0.0166
 1304poe     o2 7004   4.338   1.401   7.476  0.4133  0.6295 -0.0804
 1304poe    c23 7005   4.347   1.298   7.571 -0.2779  0.0487 -0.6261
 1304poe    c23 7006   4.445   1.180   7.548 -0.0911 -0.0935  0.8088
 1304poe     o2 7007   4.579   1.221   7.537 -0.1082 -0.2242  0.0957
 1304poe    c31 7008   4.666   1.129   7.601  0.7712  0.4230 -0.1490
 1305poe    c31 7009   2.003   4.897   1.988  0.0597 -0.1665  1.0003
 1305poe     o2 7010   2.033   4.765   1.948 -0.6652 -0.0790  0.1395
 1305poe    c23 7011   2.120   4.710   2.044  0.0753 -0.0005 -0.4729
 1305poe    c23 7012   2.122   4.557   2.024  0.5160 -0.0725  0.1058
 1305poe     o2 7013   2.145   4.519   1.890  0.1014  0.3430 -0.0872
 1305poe    c23 7014   2.129   4.379   1.889  0.6937  0.2680  0.2525
 1305poe    c23 7015   2.115   4.337   1.741  1.0741  1.2381 -0.0664
 1305poe     o2 7016   2.028   4.429   1.678  0.4067  0.3893 -0.3932
 1305poe    c23 7017   2.002   4.371   1.552 -0.2741  0.1829 -0.1624
 1305poe    c23 7018   1.879   4.419   1.473 -0.2293 -0.2499 -0.5017
 1305poe     o2 7019   1.905   4.540   1.403 -0.1969  0.0652  0.0494
 1305poe    c31 7020   1.785   4.587   1.347 -0.2656 -0.0614  0.0882
 1306poe    c31 7021   4.703   1.258   4.052  0.4557 -0.2618  0.2590
 1306poe     o2 7022   4.693   1.264   3.912  0.1103  0.1417  0.2989
 1306poe    c23 7023   4.824   1.250   3.862  0.0485 -0.2271  0.2407
 1306poe    c23 7024   4.823   1.264   3.709 -0.1104  0.4237  0.3024
 1306poe     o2 7025   4.766   1.388   3.671 -0.3695  0.3344  0.4028
 1306poe    c23 7026   4.706   1.383   3.544  0.1697  0.4376  0.1409
 1306poe    c23 7027   4.656   1.521   3.497 -0.2858  0.1022 -0.3784
 1306poe     o2 7028   4.576   1.565   3.604  0.1946  0.3018 -0.0997
 1306poe    c23 7029   4.519   1.692   3.581  0.1758  0.2587 -0.2895
 1306poe    c23 7030   4.479   1.753   3.717  0.0292  0.1989 -0.3060
 1306poe     o2 7031   4.595   1.736   3.796  0.1630 -0.0645 -0.5549
 1306poe    c31 7032   4.567   1.820   3.906 -0.2633  0.2748 -0.9158
 1307poe    c31 7033   6.930   4.655   0.578  0.2529  1.1684 -0.7279
 1307poe     o2 7034   6.920   4.548   0.488 -0.1669  0.3641  0.2485
 1307poe    c23 7035   7.010   4.551   0.379 -0.3467 -0.2878  0.0739
 1307poe    c23 7036   7.026   4.405   0.334 -0.1235 -0.2613  0.0707
 1307poe     o2 7037   6.910   4.333   0.300 -0.3762  0.0998  0.1759
 1307poe    c23 7038   6.938   4.232   0.206  0.1359  0.6729 -0.2986
 1307poe    c23 7039   6.811   4.145   0.196  0.0317  0.8258 -0.3171
 1307poe     o2 7040   6.767   4.105   0.324  0.3705  0.2988 -0.3608
 1307poe    c23 7041   6.660   4.015   0.310 -0.2647  1.0173 -0.2215
 1307poe    c23 7042   6.614   3.999   0.456  0.2872  0.2076 -0.1300
 1307poe     o2 7043   6.616   4.121   0.526  0.5075  0.1778 -0.0836
 1307poe    c31 7044   6.543   4.106   0.646  0.6413 -0.0122 -0.0252
 1308poe    c31 7045   5.589   0.583   2.704 -0.2656  0.2676 -0.6740
 1308poe     o2 7046   5.538   0.676   2.610 -1.1210  1.1505  0.6191
 1308poe    c23 7047   5.433   0.620   2.535  0.6159 -0.3807 -0.7842
 1308poe    c23 7048   5.368   0.732   2.450  0.1043  0.3696  0.5720
 1308poe     o2 7049   5.470   0.820   2.410 -0.1518  0.4795  0.1588
 1308poe    c23 7050   5.418   0.909   2.314 -0.4145  0.5697  0.3838
 1308poe    c23 7051   5.522   1.011   2.263 -0.4837  0.4616  0.0257
 1308poe     o2 7052   5.544   1.084   2.381  0.0214 -0.1940  0.3447
 1308poe    c23 7053   5.617   1.203   2.364 -0.2118 -0.0434  0.3852
 1308poe    c23 7054   5.605   1.286   2.493 -0.0819 -0.3145  0.5720
 1308poe     o2 7055   5.477   1.328   2.535 -0.2661  0.1263 -0.4018
 1308poe    c31 7056   5.485   1.420   2.641 -0.5880 -0.4018  0.0854
 1309poe    c31 7057   0.555   4.710   0.184  0.3413  0.2898  0.1696
 1309poe     o2 7058   0.600   4.740   0.315 -0.0637 -0.2422  0.4364
 1309poe    c23 7059   0.618   4.878   0.335 -0.3893 -0.1628  0.1841
 1309poe    c23 7060   0.648   4.892   0.485 -0.2341  0.7668  0.0728
 1309poe     o2 7061   0.746   4.806   0.539 -0.0740  0.5328 -0.5776
 1309poe    c23 7062   0.802   4.854   0.660 -0.2144 -0.4772 -0.1038
 1309poe    c23 7063   0.932   4.783   0.700  0.2538  0.2381 -0.3566
 1309poe     o2 7064   0.909   4.651   0.742  0.2238  0.4072  0.1674
 1309poe    c23 7065   1.026   4.582   0.779  0.3646  0.5304 -0.0466
 1309poe    c23 7066   1.027   4.434   0.736  0.3890  0.5622 -0.1539
 1309poe     o2 7067   0.999   4.433   0.598 -0.3425 -0.1810 -0.0117
 1309poe    c31 7068   1.014   4.306   0.539 -0.3233 -0.0893 -0.2045
 1310poe    c31 7069   3.179   3.356   2.983  0.7062  0.3300  0.3554
 1310poe     o2 7070   3.153   3.218   2.971 -0.2565  0.5091  0.3035
 1310poe    c23 7071   3.074   3.172   3.078 -0.4538  0.5638  0.1838
 1310poe    c23 7072   3.083   3.019   3.097  0.3677  0.5444 -0.3111
 1310poe     o2 7073   3.093   2.965   2.967 -0.5419  0.2650 -0.2734
 1310poe    c23 7074   3.110   2.825   2.966  0.6602  0.3999 -0.2106
 1310poe    c23 7075   3.103   2.784   2.817 -0.7138 -0.0750 -0.0249
 1310poe     o2 7076   3.195   2.861   2.745 -0.4581 -0.8352 -0.5215
 1310poe    c23 7077   3.190   2.829   2.607 -0.3705  0.2351 -0.7861
 1310poe    c23 7078   3.259   2.939   2.525  0.3760  0.4413  0.0899
 1310poe     o2 7079   3.378   2.986   2.584  0.4853  0.3478 -0.0548
 1310poe    c31 7080   3.428   3.110   2.539  0.1719  0.3750 -0.3330
 1311poe    c31 7081   3.480   6.185   3.654  0.2642  0.1689  0.5610
 1311poe     o2 7082   3.371   6.215   3.570  0.2191 -0.3518  0.4250
 1311poe    c23 7083   3.260   6.270   3.638  0.2673 -0.1935  0.3768
 1311poe    c23 7084   3.172   6.357   3.547  0.1931 -0.0793  0.5564
 1311poe     o2 7085   3.169   6.286   3.425 -0.1721  0.1711  0.4172
 1311poe    c23 7086   3.047   6.317   3.361  0.0401  0.1898  0.0189
 1311poe    c23 7087   3.085   6.311   3.211  0.6903  0.4505  0.1672
 1311poe     o2 7088   3.179   6.208   3.186  0.2630  0.1780 -0.3379
 1311poe    c23 7089   3.181   6.182   3.047  0.0816 -0.1465 -0.2806
 1311poe    c23 7090   3.294   6.095   2.990  0.5728  0.2009  0.1503
 1311poe     o2 7091   3.422   6.153   2.994  0.4386  0.5254 -0.2162
 1311poe    c31 7092   3.478   6.153   2.865 -0.4131  0.0260 -0.5895
 1312poe    c31 7093   2.302   5.159   2.623  0.5316 -0.2009 -0.3459
 1312poe     o2 7094   2.296   5.300   2.618 -0.8476 -0.2146  0.5115
 1312poe    c23 7095   2.300   5.341   2.752  0.3345  0.0821  0.3891
 1312poe    c23 7096   2.246   5.485   2.758  0.0491 -0.0084 -0.0259
 1312poe     o2 7097   2.133   5.495   2.674 -0.0409 -0.1282  0.0812
 1312poe    c23 7098   2.082   5.626   2.662  0.2635 -0.0710 -0.5875
 1312poe    c23 7099   2.031   5.652   2.519 -0.1945 -0.4231 -0.4887
 1312poe     o2 7100   2.130   5.591   2.439  0.5612 -0.2745  0.3294
 1312poe    c23 7101   2.074   5.566   2.313  0.5839  0.0152  0.2619
 1312poe    c23 7102   2.188   5.483   2.251  0.0256 -0.1719 -0.5421
 1312poe     o2 7103   2.197   5.372   2.337 -0.2058  0.2135 -0.0100
 1312poe    c31 7104   2.265   5.260   2.284 -0.1348  0.5645 -0.6686
 1313poe    c31 7105   0.227   2.824   6.547  0.1808  0.2778  0.2130
 1313poe     o2 7106   0.191   2.853   6.680 -0.2650 -0.3122  0.2266
 1313poe    c23 7107   0.246   2.759   6.769  0.2001  0.0110  0.2841
 1313poe    c23 7108   0.200   2.802   6.909 -0.6826 -0.3997  0.1277
 1313poe     o2 7109   0.160   2.936   6.924 -0.2949 -0.2638 -0.0408
 1313poe    c23 7110   0.104   2.969   7.049 -0.4325 -0.6522  0.0020
 1313poe    c23 7111   0.017   3.096   7.035  0.1695 -0.2364 -0.0267
 1313poe     o2 7112  -0.098   3.087   6.955  0.0637  0.0346  0.0958
 1313poe    c23 7113  -0.207   3.123   7.037 -0.2171 -0.8247  0.1048
 1313poe    c23 7114  -0.340   3.154   6.966  0.0003  0.0188  0.0591
 1313poe     o2 7115  -0.299   3.254   6.876  0.7521 -0.3351 -0.0000
 1313poe    c31 7116  -0.396   3.267   6.774 -0.1488  0.5041  0.9327
 1314poe    c31 7117   3.611   2.026   1.414 -0.0184 -0.2835  0.0654
 1314poe     o2 7118   3.665   2.121   1.503 -0.0042 -0.0761 -0.1658
 1314poe    c23 7119   3.567   2.161   1.596  0.2319  0.1317 -0.0055
 1314poe    c23 7120   3.651   2.216   1.714  0.4841 -0.2013 -0.0278
 1314poe     o2 7121   3.763   2.141   1.755  0.4944 -0.2696 -0.1769
 1314poe    c23 7122   3.740   2.007   1.793  0.2882 -0.1898 -0.0164
 1314poe    c23 7123   3.874   1.953   1.847  0.2702 -0.0764  0.1434
 1314poe     o2 7124   3.970   1.993   1.752 -0.2478  0.1517 -0.2896
 1314poe    c23 7125   4.099   1.990   1.809 -0.3916  0.1805  0.0373
 1314poe    c23 7126   4.195   2.024   1.694 -0.0487 -0.6203  0.0750
 1314poe     o2 7127   4.143   2.145   1.643  0.5803 -0.2437  0.3158
 1314poe    c31 7128   4.225   2.207   1.546 -1.1137  0.5808 -0.6289
 1315poe    c31 7129   1.480   3.561   5.426  0.4486  0.4066  0.2951
 1315poe     o2 7130   1.564   3.579   5.315 -0.4882  0.0040 -0.4908
 1315poe    c23 7131   1.622   3.708   5.313  0.0254 -0.2112  0.1811
 1315poe    c23 7132   1.731   3.707   5.205 -0.2512  0.5519 -0.1130
 1315poe     o2 7133   1.830   3.618   5.252 -0.4842  0.1166 -0.4474
 1315poe    c23 7134   1.958   3.645   5.200 -0.3925  0.0035 -0.2816
 1315poe    c23 7135   2.060   3.561   5.279 -0.5264  0.2726  0.1753
 1315poe     o2 7136   2.020   3.429   5.249  0.2084  0.0026  0.3511
 1315poe    c23 7137   2.120   3.352   5.188  0.3529  0.4053  0.0755
 1315poe    c23 7138   2.097   3.200   5.187  0.2373  0.4227  0.1289
 1315poe     o2 7139   1.971   3.176   5.130 -0.3256  0.1869  1.4321
 1315poe    c31 7140   1.940   3.039   5.109 -0.3096  0.4179 -0.2445
 1316poe    c31 7141   4.626   0.808   1.061 -0.7386  0.7013 -0.6595
 1316poe     o2 7142   4.578   0.897   1.159 -0.1147  0.0808  0.2341
 1316poe    c23 7143   4.473   0.836   1.231 -0.4635  0.4183  0.0197
 1316poe    c23 7144   4.405   0.913   1.345 -0.2201  0.0455  0.4178
 1316poe     o2 7145   4.484   0.922   1.462  0.6195  0.0142 -0.1326
 1316poe    c23 7146   4.419   1.002   1.560  0.8401  0.3090 -0.2252
 1316poe    c23 7147   4.494   1.053   1.684  0.5494  0.3220 -0.0559
 1316poe     o2 7148   4.581   1.161   1.663  0.1624  0.4193 -1.1710
 1316poe    c23 7149   4.691   1.149   1.749 -0.5199  0.3243 -0.3030
 1316poe    c23 7150   4.743   1.282   1.808 -0.1167 -0.1685  0.4772
 1316poe     o2 7151   4.790   1.369   1.707 -0.0596 -0.3331  0.3617
 1316poe    c31 7152   4.809   1.494   1.768 -0.3697 -0.0529 -0.1077
 1317poe    c31 7153   4.335   0.014   0.031  0.5055 -0.1559 -0.2477
 1317poe     o2 7154   4.380   0.001   0.164 -0.2680 -0.0990  0.0249
 1317poe    c23 7155   4.489   0.088   0.186 -0.1726 -0.2354  0.0941
 1317poe    c23 7156   4.528   0.077   0.335 -0.7531  0.4210  0.2992
 1317poe     o2 7157   4.508  -0.060   0.359 -0.2842  0.2684 -0.1446
 1317poe    c23 7158   4.535  -0.089   0.494 -0.6090  0.2869 -0.0734
 1317poe    c23 7159   4.512  -0.241   0.506 -0.9923  0.3565  0.0835
 1317poe     o2 7160   4.422  -0.294   0.411 -0.2329  0.0439 -0.4693
 1317poe    c23 7161   4.441  -0.428   0.370 -0.2723  0.0740 -0.5874
 1317poe    c23 7162   4.345  -0.438   0.250 -0.5724  0.4487 -0.3824
 1317poe     o2 7163   4.341  -0.323   0.169  0.3369  0.3228 -0.6188
 1317poe    c31 7164   4.277  -0.341   0.044 -0.0079 -0.0243 -0.3975
 1318poe    c31 7165   0.594   2.387   5.656  0.3197 -0.1085 -0.2203
 1318poe     o2 7166   0.455   2.397   5.677  0.4620 -0.2535  0.8590
 1318poe    c23 7167   0.400   2.297   5.594  0.2669  0.2895  0.3326
 1318poe    c23 7168   0.246   2.295   5.582  0.2531 -0.6379  0.5944
 1318poe     o2 7169   0.201   2.335   5.710  0.1446  0.0386  0.3501
 1318poe    c23 7170   0.067   2.379   5.708  0.4739  1.0472  0.1539
 1318poe    c23 7171   0.005   2.387   5.848  0.1041  0.0471  0.0560
 1318poe     o2 7172   0.065   2.473   5.943  0.2785 -0.2608  0.2237
 1318poe    c23 7173  -0.008   2.492   6.062 -0.1579  0.0305 -0.0876
 1318poe    c23 7174   0.070   2.578   6.163  0.2308 -0.1203 -0.2559
 1318poe     o2 7175   0.096   2.703   6.103  0.8245 -0.3435 -0.4701
 1318poe    c31 7176   0.182   2.786   6.177 -0.4955  0.1980  0.5029
 1319poe    c31 7177   2.770   1.846   0.535 -0.1784  0.3332 -0.0037
 1319poe     o2 7178   2.888   1.799   0.596  0.0569 -0.0678 -0.7578
 1319poe    c23 7179   2.880   1.659   0.611 -0.7071  0.0627  0.1423
 1319poe    c23 7180   3.000   1.576   0.661 -0.1330  0.7581 -0.0756
 1319poe     o2 7181   3.006   1.567   0.801 -0.1998 -1.0821 -0.1711
 1319poe    c23 7182   3.137   1.537   0.843  0.1418  1.2330  0.5643
 1319poe    c23 7183   3.151   1.558   0.995 -0.3849  1.2334  0.6152
 1319poe     o2 7184   3.049   1.513   1.081  0.1820 -0.0333  0.6456
 1319poe    c23 7185   3.059   1.564   1.212  0.6607  0.0151  0.5923
 1319poe    c23 7186   2.926   1.526   1.278  0.1330  0.0110 -0.4606
 1319poe     o2 7187   2.815   1.554   1.195  0.1009 -0.3727 -0.5502
 1319poe    c31 7188   2.698   1.559   1.274  0.1789 -0.6498 -0.4179
 1320poe    c31 7189   5.165   2.892   5.858 -0.5354  0.3419  0.7219
 1320poe     o2 7190   5.168   2.751   5.866 -0.9404  0.2773 -0.0889
 1320poe    c23 7191   5.297   2.700   5.892 -0.8981  0.5402  0.2275
 1320poe    c23 7192   5.286   2.594   6.003 -0.2459 -0.0862 -0.3032
 1320poe     o2 7193   5.213   2.486   5.948 -0.2453  0.2267 -0.9282
 1320poe    c23 7194   5.253   2.359   5.995 -0.1705  0.6024  0.0468
 1320poe    c23 7195   5.187   2.234   5.934  0.4195  0.1703  0.2943
 1320poe     o2 7196   5.058   2.276   5.897  0.3013  0.0443  0.5581
 1320poe    c23 7197   4.997   2.161   5.845  0.4162  0.3019 -0.1535
 1320poe    c23 7198   4.858   2.223   5.819  0.2487 -0.3349 -0.8281
 1320poe     o2 7199   4.874   2.346   5.751 -0.0242 -0.0495 -0.3799
 1320poe    c31 7200   4.776   2.365   5.651 -0.5048  0.3363  0.1564
 1321poe    c31 7201   5.053   5.323   3.152  0.0085 -0.4779 -0.2548
 1321poe     o2 7202   4.924   5.292   3.201 -0.2027  0.4785 -0.1804
 1321poe    c23 7203   4.913   5.174   3.277 -0.1467  0.4895 -0.1553
 1321poe    c23 7204   4.783   5.169   3.359  0.1369 -0.3744  0.2526
 1321poe     o2 7205   4.662   5.176   3.287  0.1836  0.0347  0.2150
 1321poe    c23 7206   4.561   5.229   3.370  0.2159  1.0065 -0.3510
 1321poe    c23 7207   4.431   5.243   3.289  0.0093 -0.2332 -0.2402
 1321poe     o2 7208   4.420   5.125   3.212  0.1460 -0.2178 -0.2832
 1321poe    c23 7209   4.302   5.125   3.134 -0.0355 -0.5849 -0.0133
 1321poe    c23 7210   4.300   4.989   3.062  0.0341 -0.4680 -0.2337
 1321poe     o2 7211   4.413   4.980   2.978  0.1616  0.5748 -0.1970
 1321poe    c31 7212   4.420   4.855   2.912 -0.3024  0.4859 -0.0813
 1322poe    c31 7213   5.583   3.154   5.501 -0.6275  0.8286 -0.0365
 1322poe     o2 7214   5.524   3.204   5.618 -0.0461  0.4692  0.4216
 1322poe    c23 7215   5.422   3.300   5.597 -0.1027  0.3382  0.0859
 1322poe    c23 7216   5.322   3.291   5.715 -0.5843 -0.0600 -0.3459
 1322poe     o2 7217   5.391   3.331   5.831 -0.5510 -0.1530 -0.3340
 1322poe    c23 7218   5.361   3.467   5.850 -0.1283 -0.1586  0.4420
 1322poe    c23 7219   5.417   3.514   5.985  0.2848  0.6271  0.0054
 1322poe     o2 7220   5.540   3.450   6.011  0.2370  0.3717 -0.3985
 1322poe    c23 7221   5.610   3.486   6.128  0.6495 -0.3638 -0.4169
 1322poe    c23 7222   5.714   3.384   6.178  0.3364 -0.1796  0.6182
 1322poe     o2 7223   5.640   3.266   6.151  0.6140 -0.0028 -1.0017
 1322poe    c31 7224   5.722   3.159   6.193 -0.1142 -0.1983 -0.0333
 1323poe    c31 7225   5.109   1.458   5.707  0.3281  0.4322 -0.2502
 1323poe     o2 7226   5.091   1.424   5.571 -0.0690  0.1405 -0.1259
 1323poe    c23 7227   5.122   1.294   5.527 -0.7039  0.0969 -0.4529
 1323poe    c23 7228   5.163   1.305   5.379  0.3798  0.6332 -0.1263
 1323poe     o2 7229   5.288   1.364   5.352  0.3584  0.4350 -0.6554
 1323poe    c23 7230   5.334   1.312   5.229  0.5817 -0.3882 -0.2331
 1323poe    c23 7231   5.473   1.350   5.175  0.6262  0.0141  0.1580
 1323poe     o2 7232   5.492   1.489   5.164  0.2075  0.0768  0.2062
 1323poe    c23 7233   5.622   1.522   5.120  0.3523  0.3037  0.7922
 1323poe    c23 7234   5.621   1.675   5.104  0.0316  0.1691 -0.5701
 1323poe     o2 7235   5.564   1.744   5.213  0.2954 -0.2972 -0.1349
 1323poe    c31 7236   5.626   1.864   5.254  0.0516 -0.1946 -0.0666
 1324poe    c31 7237   4.385   3.559   0.210  0.0871 -0.1287  0.1774
 1324poe     o2 7238   4.496   3.525   0.130 -0.2708 -0.4421 -0.1879
 1324poe    c23 7239   4.465   3.465   0.006 -0.1316 -0.0777 -0.4011
 1324poe    c23 7240   4.489   3.313   0.003  0.7837  0.0287  0.7770
 1324poe     o2 7241   4.630   3.299  -0.005  0.7608  0.0859  0.1801
 1324poe    c23 7242   4.656   3.165   0.029  0.3396  0.0741  0.4680
 1324poe    c23 7243   4.794   3.128  -0.028  0.1610  0.3670 -0.1655
 1324poe     o2 7244   4.908   3.151   0.053  0.2235 -0.2996 -0.0586
 1324poe    c23 7245   5.026   3.177  -0.020 -0.0286 -0.4040 -0.5113
 1324poe    c23 7246   5.137   3.222   0.077 -0.3819 -0.4263 -0.0936
 1324poe     o2 7247   5.090   3.327   0.160 -0.0081 -0.2180 -0.1433
 1324poe    c31 7248   5.168   3.405   0.248 -0.8445  0.8986 -0.3711
 1325poe    c31 7249   3.060   3.700   3.281  0.2276 -0.1974 -0.4055
 1325poe     o2 7250   2.969   3.634   3.196 -0.4291  0.2152 -0.0247
 1325poe    c23 7251   2.940   3.745   3.113 -0.4987  0.2242  0.0111
 1325poe    c23 7252   2.810   3.709   3.039 -0.4455  0.0025  0.0246
 1325poe     o2 7253   2.703   3.687   3.128  0.0953 -0.0271  0.6771
 1325poe    c23 7254   2.582   3.699   3.057  0.5367 -0.2131 -0.1136
 1325poe    c23 7255   2.487   3.617   3.146  0.1872  0.0387 -0.2512
 1325poe     o2 7256   2.520   3.656   3.277 -0.1421 -0.4448 -0.0238
 1325poe    c23 7257   2.444   3.586   3.374 -0.1975 -0.3438  0.0060
 1325poe    c23 7258   2.491   3.640   3.510  0.2285  0.4053 -0.4272
 1325poe     o2 7259   2.628   3.668   3.500  0.2007  0.6931 -0.0231
 1325poe    c31 7260   2.697   3.699   3.619  0.1914 -0.2890  0.2480
 1326poe    c31 7261   5.258   5.732   1.227 -0.5185  0.4116 -0.5785
 1326poe     o2 7262   5.379   5.799   1.250 -0.4805  0.2236 -0.2277
 1326poe    c23 7263   5.400   5.850   1.380  0.7569 -0.3965 -0.1716
 1326poe    c23 7264   5.523   5.940   1.405 -0.0482  0.6425  0.0817
 1326poe     o2 7265   5.538   6.020   1.289 -0.6736  0.3448 -0.2095
 1326poe    c23 7266   5.651   6.102   1.309  0.1179 -0.6100 -0.6701
 1326poe    c23 7267   5.669   6.188   1.182 -0.4461 -0.5154 -0.6885
 1326poe     o2 7268   5.684   6.108   1.067  0.1161 -0.2827 -0.7801
 1326poe    c23 7269   5.807   6.135   1.005  0.0845  0.7634 -0.4214
 1326poe    c23 7270   5.804   6.046   0.879  0.4380 -0.0482  0.1348
 1326poe     o2 7271   5.824   5.915   0.929  0.6031 -0.1272 -0.1415
 1326poe    c31 7272   5.796   5.821   0.828  0.1358 -0.3436  0.1895
 1327poe    c31 7273   2.458   0.400   4.604  0.5164 -0.0634  0.2411
 1327poe     o2 7274   2.430   0.399   4.742 -0.1320  0.3398  0.1152
 1327poe    c23 7275   2.296   0.363   4.765  0.0729 -0.3896  0.2117
 1327poe    c23 7276   2.255   0.389   4.911  0.3203  0.2928  0.1658
 1327poe     o2 7277   2.373   0.342   4.973  0.0710 -0.8965 -0.2354
 1327poe    c23 7278   2.371   0.348   5.113  0.0760  0.0470 -0.2718
 1327poe    c23 7279   2.502   0.278   5.155 -0.1436 -0.0535  0.2538
 1327poe     o2 7280   2.610   0.307   5.069 -0.3166 -0.6702 -0.1723
 1327poe    c23 7281   2.728   0.276   5.140 -0.1967 -0.0326 -0.0926
 1327poe    c23 7282   2.865   0.291   5.072 -0.0315 -0.0909  0.2260
 1327poe     o2 7283   2.874   0.183   4.982  0.4196  0.1861 -0.0673
 1327poe    c31 7284   2.976   0.202   4.886  0.6310 -0.4675  0.0186
 1328poe    c31 7285   1.380   3.915   2.536  0.2949 -0.4056  0.4597
 1328poe     o2 7286   1.256   3.917   2.470  0.6553 -0.3434 -0.2307
 1328poe    c23 7287   1.191   3.791   2.460 -0.0671  0.0087 -0.0603
 1328poe    c23 7288   1.040   3.821   2.451 -0.1482 -0.3715  0.0512
 1328poe     o2 7289   1.007   3.911   2.348 -0.6588 -0.6806 -0.0593
 1328poe    c23 7290   0.953   3.863   2.227  0.0340 -0.3280 -0.5190
 1328poe    c23 7291   0.971   3.979   2.128 -0.0393  0.2433  0.1322
 1328poe     o2 7292   0.922   4.103   2.174 -0.9054 -0.1266  0.2273
 1328poe    c23 7293   0.932   4.209   2.081  0.5040 -0.4096  0.0302
 1328poe    c23 7294   0.797   4.236   2.012  0.4204 -0.0605  0.3307
 1328poe     o2 7295   0.815   4.347   1.927  0.1774 -0.3723 -0.1308
 1328poe    c31 7296   0.695   4.376   1.859  0.3725  0.6376 -0.0570
 1329poe    c31 7297   0.520   1.306   0.101  0.0146 -0.3080  0.1712
 1329poe     o2 7298   0.652   1.272   0.066  0.2647  0.5707  0.2443
 1329poe    c23 7299   0.671   1.311  -0.068 -0.2738 -0.1021 -0.0290
 1329poe    c23 7300   0.820   1.302  -0.109 -0.2912 -0.2922 -0.0540
 1329poe     o2 7301   0.872   1.172  -0.128 -0.0296 -0.1416 -0.3766
 1329poe    c23 7302   1.004   1.151  -0.084  0.0453  0.4274 -0.3192
 1329poe    c23 7303   1.052   1.005  -0.095 -0.3266  0.2501  0.3415
 1329poe     o2 7304   0.966   0.923  -0.020  0.0285  0.0504  0.5310
 1329poe    c23 7305   1.023   0.805   0.033  0.2731  0.0539  0.2776
 1329poe    c23 7306   0.912   0.715   0.090  0.7232 -0.3444  0.5311
 1329poe     o2 7307   0.823   0.781   0.179  0.0049 -0.5605 -0.0151
 1329poe    c31 7308   0.768   0.680   0.261  0.2513 -0.3639  0.3968
 1330poe    c31 7309   2.865   1.482   2.837  0.0030 -0.1858  0.3112
 1330poe     o2 7310   2.817   1.358   2.790  0.0048  0.1038 -0.4792
 1330poe    c23 7311   2.844   1.344   2.653  0.0105  0.4298 -0.5124
 1330poe    c23 7312   2.853   1.195   2.614 -0.5594  0.2085  0.1802
 1330poe     o2 7313   2.759   1.118   2.685  0.0431 -0.0749  0.6829
 1330poe    c23 7314   2.764   0.984   2.644  0.0828  0.0645  0.2308
 1330poe    c23 7315   2.671   0.910   2.742 -0.2276  0.1318 -0.0137
 1330poe     o2 7316   2.707   0.953   2.871 -0.3407  0.4399 -0.0833
 1330poe    c23 7317   2.610   0.905   2.962  0.1091 -0.6231 -0.1563
 1330poe    c23 7318   2.643   0.898   3.112 -0.5202  0.5563  0.0490
 1330poe     o2 7319   2.724   0.788   3.147 -0.2197  0.6569 -0.3180
 1330poe    c31 7320   2.850   0.822   3.199 -0.1453  0.0170 -0.0659
 1331poe    c31 7321   6.084   0.416   0.352  0.3237  0.0270 -0.0082
 1331poe     o2 7322   6.171   0.451   0.458  0.2551  0.0269  0.0479
 1331poe    c23 7323   6.305   0.465   0.416  0.3225 -0.4367  0.1063
 1331poe    c23 7324   6.395   0.508   0.533  0.0848 -0.2097  0.2074
 1331poe     o2 7325   6.367   0.451   0.659 -0.4257 -0.1073  0.1410
 1331poe    c23 7326   6.465   0.496   0.750 -0.3166 -0.2577  0.0998
 1331poe    c23 7327   6.429   0.428   0.884  0.0658  0.3459  0.5119
 1331poe     o2 7328   6.292   0.453   0.909 -0.0428  0.2865  0.0012
 1331poe    c23 7329   6.250   0.341   0.985  0.4098  0.1474  0.0526
 1331poe    c23 7330   6.107   0.380   1.026  0.2926 -0.2763  0.0513
 1331poe     o2 7331   6.022   0.430   0.926  0.1682 -0.2773  0.1560
 1331poe    c31 7332   5.887   0.417   0.966 -0.0060 -0.1128 -0.3672
 1332poe    c31 7333   1.614   6.687   0.064 -0.2351  0.6770 -0.5214
 1332poe     o2 7334   1.668   6.740   0.182  0.0615 -0.2292 -0.2405
 1332poe    c23 7335   1.739   6.650   0.265  0.1125  0.1737  0.1610
 1332poe    c23 7336   1.805   6.724   0.382  0.5460  0.2289 -0.1138
 1332poe     o2 7337   1.881   6.834   0.338 -0.0330  0.4171 -0.6600
 1332poe    c23 7338   1.931   6.923   0.436 -0.2952 -0.2248  0.0624
 1332poe    c23 7339   1.842   7.042   0.475  0.0119 -0.0023  0.0843
 1332poe     o2 7340   1.820   7.133   0.369 -0.5182 -0.1539  0.0619
 1332poe    c23 7341   1.771   7.257   0.416  0.0527  0.0220  0.2038
 1332poe    c23 7342   1.703   7.339   0.305 -0.3069 -0.3579  0.1391
 1332poe     o2 7343   1.582   7.275   0.273 -0.5371 -0.1367  0.5606
 1332poe    c31 7344   1.504   7.380   0.220 -0.2986  0.0323  0.5463
 1333poe    c31 7345   4.073   7.025   4.467 -0.1527 -0.1515 -0.0330
 1333poe     o2 7346   4.170   7.100   4.535 -0.2832 -0.1074  0.1045
 1333poe    c23 7347   4.121   7.168   4.649  0.5595  0.9017 -0.1172
 1333poe    c23 7348   4.243   7.230   4.720  0.4388  0.2190  0.7012
 1333poe     o2 7349   4.316   7.286   4.614 -0.0902  0.5273  0.4976
 1333poe    c23 7350   4.417   7.370   4.667  0.4498 -0.0965  0.4661
 1333poe    c23 7351   4.520   7.424   4.567 -0.5619  0.0982 -0.4969
 1333poe     o2 7352   4.551   7.305   4.497 -0.7153 -0.1030 -0.2260
 1333poe    c23 7353   4.654   7.322   4.401 -0.2538 -0.3151  0.2237
 1333poe    c23 7354   4.687   7.197   4.319 -0.3956 -0.1284 -0.1212
 1333poe     o2 7355   4.791   7.209   4.225  0.4342 -0.5022  0.7331
 1333poe    c31 7356   4.794   7.082   4.162 -0.0151  0.0228 -0.3828
 1334poe    c31 7357   1.306   0.503   6.588  0.2718  0.7710  0.7710
 1334poe     o2 7358   1.394   0.565   6.498  0.0848 -0.8127 -0.5434
 1334poe    c23 7359   1.318   0.652   6.416  0.1652 -0.4258 -0.2094
 1334poe    c23 7360   1.399   0.732   6.312  0.2801 -0.1857  0.0640
 1334poe     o2 7361   1.478   0.647   6.232  0.2804  0.0018 -0.1338
 1334poe    c23 7362   1.561   0.717   6.142 -0.0329  0.0012 -0.4251
 1334poe    c23 7363   1.655   0.620   6.070  0.3065 -0.2472  0.3440
 1334poe     o2 7364   1.575   0.526   6.001  0.2423 -0.0173  0.1017
 1334poe    c23 7365   1.654   0.456   5.908  0.3116 -0.0548  0.1879
 1334poe    c23 7366   1.648   0.310   5.955 -0.0759  0.1692  0.8504
 1334poe     o2 7367   1.529   0.280   6.025 -0.2664  0.0589  0.4809
 1334poe    c31 7368   1.514   0.143   6.053  0.1405 -0.0430  0.2186
 1335poe    c31 7369   0.568   6.500   3.255 -0.2028 -0.2289  0.2489
 1335poe     o2 7370   0.448   6.518   3.182 -0.3291  0.4228  0.6071
 1335poe    c23 7371   0.369   6.403   3.205 -0.0811  0.2316  0.5071
 1335poe    c23 7372   0.253   6.402   3.104  0.1950 -0.1693  0.1901
 1335poe     o2 7373   0.189   6.526   3.126  0.0987 -0.1426 -0.2351
 1335poe    c23 7374   0.048   6.517   3.124  0.0739  0.1243  0.1771
 1335poe    c23 7375  -0.003   6.526   3.269  0.6929 -0.3115  0.4274
 1335poe     o2 7376   0.005   6.656   3.325 -0.3082 -0.1782  0.2700
 1335poe    c23 7377  -0.072   6.657   3.443 -0.7705  0.3272 -0.0311
 1335poe    c23 7378  -0.068   6.791   3.518  0.4287  0.3249 -0.0789
 1335poe     o2 7379  -0.131   6.890   3.441 -0.0148  0.1200  0.0187
 1335poe    c31 7380  -0.068   7.015   3.457 -0.0096  0.1030  0.1311
 1336poe    c31 7381   2.644   2.621   3.864  0.3429  0.0779 -0.1914
 1336poe     o2 7382   2.602   2.516   3.781 -0.3075  0.0157  0.2120
 1336poe    c23 7383   2.540   2.578   3.670  0.0573  0.1506  0.0823
 1336poe    c23 7384   2.501   2.474   3.563 -0.1610  0.1516  0.1594
 1336poe     o2 7385   2.428   2.362   3.607  0.1928  0.0077  0.3844
 1336poe    c23 7386   2.290   2.363   3.580  0.2434 -0.1298  0.1166
 1336poe    c23 7387   2.258   2.213   3.593 -0.0438 -0.1052 -0.2833
 1336poe     o2 7388   2.314   2.165   3.714 -0.0869 -0.0506 -0.2415
 1336poe    c23 7389   2.212   2.094   3.780 -0.5016  0.5595 -0.2142
 1336poe    c23 7390   2.258   2.006   3.898  0.4375  0.5193 -0.5975
 1336poe     o2 7391   2.307   2.086   4.002 -0.1516 -0.6230  0.5935
 1336poe    c31 7392   2.366   2.003   4.100  0.6318 -0.8403 -0.0602
 1337poe    c31 7393   5.842   5.522   6.691 -0.2240  0.3008  0.3252
 1337poe     o2 7394   5.911   5.643   6.714  0.0545  0.1862  0.1005
 1337poe    c23 7395   6.046   5.631   6.677 -0.0902  0.4115 -0.5094
 1337poe    c23 7396   6.121   5.740   6.757  0.2601 -0.2094  0.0184
 1337poe     o2 7397   6.098   5.727   6.895  0.1400  0.2573  0.0453
 1337poe    c23 7398   6.205   5.765   6.978  0.3514  0.1164 -0.1605
 1337poe    c23 7399   6.162   5.734   7.123 -0.1393  0.3070 -0.2647
 1337poe     o2 7400   6.034   5.787   7.147 -0.0691  0.3142  0.0939
 1337poe    c23 7401   5.990   5.737   7.272 -0.2451 -0.0539 -0.1136
 1337poe    c23 7402   5.847   5.791   7.289 -0.1152  0.0329  0.7346
 1337poe     o2 7403   5.779   5.768   7.168  0.7053 -0.6712  0.4011
 1337poe    c31 7404   5.651   5.823   7.187  0.6769 -0.8068  0.6057
 1338poe    c31 7405   6.279   1.117   2.961 -0.1370 -0.1471  0.7975
 1338poe     o2 7406   6.406   1.142   2.904 -0.3659 -0.1434  0.2851
 1338poe    c23 7407   6.510   1.133   2.998 -0.2150  0.0214  0.1339
 1338poe    c23 7408   6.641   1.167   2.924  0.0343 -0.6267  0.2666
 1338poe     o2 7409   6.649   1.088   2.807  0.1966  0.2602 -0.3323
 1338poe    c23 7410   6.770   1.109   2.738  0.3543 -0.3131 -0.2293
 1338poe    c23 7411   6.806   1.036   2.607  0.3956 -0.3475 -0.1991
 1338poe     o2 7412   6.691   1.042   2.526  0.4537  0.1718 -0.2447
 1338poe    c23 7413   6.685   0.966   2.408  0.1978 -0.0627 -0.0834
 1338poe    c23 7414   6.543   0.963   2.348  0.1592 -0.1814  0.0145
 1338poe     o2 7415   6.445   0.896   2.425  0.2851  0.0265  0.3576
 1338poe    c31 7416   6.322   0.925   2.362 -0.0228 -0.3542  0.7772
 1339poe    c31 7417   0.487   1.868   0.005 -0.8386 -0.1427  0.2242
 1339poe     o2 7418   0.396   1.933  -0.081 -0.0676  0.2217 -0.3357
 1339poe    c23 7419   0.393   1.857  -0.199 -0.3249 -0.2023 -0.0600
 1339poe    c23 7420   0.279   1.915  -0.286 -0.0919  0.5321  0.1185
 1339poe     o2 7421   0.161   1.945  -0.215  0.0500  0.5416  0.3512
 1339poe    c23 7422   0.065   1.986  -0.310 -0.2054 -0.3553  0.2093
 1339poe    c23 7423  -0.039   2.066  -0.229 -0.1108  0.0365 -0.0541
 1339poe     o2 7424   0.031   2.114  -0.116 -0.5758  0.7687 -0.0735
 1339poe    c23 7425  -0.034   2.203  -0.028 -0.7576  0.3123  0.2508
 1339poe    c23 7426   0.075   2.233   0.076 -0.4004 -0.2322  0.0370
 1339poe     o2 7427   0.153   2.116   0.092  0.0223  0.1196  0.5993
 1339poe    c31 7428   0.243   2.116   0.201 -0.1985 -0.1625  0.7848
 1340poe    c31 7429   2.637   4.191   3.058  0.2932 -0.0418  0.1285
 1340poe     o2 7430   2.583   4.290   3.142  0.0499  0.0359 -0.1181
 1340poe    c23 7431   2.462   4.238   3.193 -0.6572  1.1172 -0.6460
 1340poe    c23 7432   2.406   4.344   3.290 -0.8217 -0.0229  0.5342
 1340poe     o2 7433   2.383   4.469   3.228 -0.4055 -0.3129 -0.2198
 1340poe    c23 7434   2.319   4.566   3.308  0.2209 -0.0946  0.0269
 1340poe    c23 7435   2.259   4.682   3.226 -0.0190 -0.0246  0.2998
 1340poe     o2 7436   2.356   4.718   3.131 -0.1861 -0.2130  0.0584
 1340poe    c23 7437   2.298   4.797   3.028  0.3369  0.8134  0.5335
 1340poe    c23 7438   2.392   4.811   2.907  0.2815  0.1744  0.4103
 1340poe     o2 7439   2.448   4.687   2.872  0.2299  0.2679 -0.0106
 1340poe    c31 7440   2.534   4.700   2.761 -0.1206 -0.0572 -0.3219
 1341poe    c31 7441   6.247   4.282   0.471  1.0938 -0.7475  0.4944
 1341poe     o2 7442   6.168   4.182   0.410  0.2964  0.0846  0.1329
 1341poe    c23 7443   6.260   4.101   0.341  0.2349 -0.0888  0.2537
 1341poe    c23 7444   6.195   3.968   0.296  0.0496  0.0655  0.0625
 1341poe     o2 7445   6.156   3.888   0.405  0.1989 -0.2671 -0.1296
 1341poe    c23 7446   6.147   3.754   0.361 -0.2057 -0.1169 -0.5147
 1341poe    c23 7447   6.049   3.660   0.433 -0.2193  0.3151  0.0374
 1341poe     o2 7448   5.922   3.723   0.433 -0.2444  0.2651  0.0622
 1341poe    c23 7449   5.832   3.658   0.519 -0.0987 -0.6766 -0.4847
 1341poe    c23 7450   5.691   3.662   0.458 -0.2322  0.2235 -0.1288
 1341poe     o2 7451   5.679   3.566   0.355  0.5822  0.5031 -0.4842
 1341poe    c31 7452   5.601   3.612   0.248 -0.0413  0.0105 -0.2448
 1342poe    c31 7453   0.379   2.158   5.943  0.3893 -0.0867  0.5317
 1342poe     o2 7454   0.382   2.294   5.907  0.0736 -0.3170 -0.4028
 1342poe    c23 7455   0.451   2.354   6.015 -0.0831 -0.4424 -0.2316
 1342poe    c23 7456   0.402   2.495   6.052  0.6428 -0.2118 -0.1372
 1342poe     o2 7457   0.360   2.543   5.926 -0.8848  0.1517  0.4884
 1342poe    c23 7458   0.373   2.684   5.922 -0.4256  0.1031  0.1562
 1342poe    c23 7459   0.291   2.750   5.810  0.6610  0.2657 -0.5526
 1342poe     o2 7460   0.313   2.687   5.686 -0.0968 -0.1878 -0.4605
 1342poe    c23 7461   0.248   2.769   5.591  0.2872  0.2735 -0.3274
 1342poe    c23 7462   0.233   2.700   5.454 -0.1089 -0.1163 -0.0928
 1342poe     o2 7463   0.128   2.606   5.458  0.4139 -0.6884  0.2284
 1342poe    c31 7464   0.080   2.563   5.333 -0.0882  1.2703 -0.2742
 1343poe    c31 7465   4.204   0.893   0.839  0.2120  0.0588  0.2336
 1343poe     o2 7466   4.172   0.916   0.704 -0.1486  0.1072  0.3272
 1343poe    c23 7467   4.072   1.015   0.703 -0.4800 -0.2267  0.0141
 1343poe    c23 7468   4.013   1.069   0.572 -0.1276 -0.0785 -0.0827
 1343poe     o2 7469   3.930   0.965   0.525 -0.0021 -0.3952  0.3947
 1343poe    c23 7470   3.864   1.005   0.408 -1.1580 -0.6640  0.9419
 1343poe    c23 7471   3.812   0.879   0.335  0.1560 -0.5486 -0.2350
 1343poe     o2 7472   3.739   0.792   0.419  0.2567 -0.1246  0.2956
 1343poe    c23 7473   3.723   0.666   0.358 -0.2287  0.1593 -0.1695
 1343poe    c23 7474   3.691   0.571   0.474 -0.0403  0.1497 -0.1240
 1343poe     o2 7475   3.789   0.589   0.574 -0.3203 -0.4309  0.2634
 1343poe    c31 7476   3.788   0.488   0.672  0.2643  0.4867  1.2446
 1344poe    c31 7477   4.320   2.421   6.972 -0.1271  0.0576  0.6372
 1344poe     o2 7478   4.453   2.469   6.973 -0.0047 -0.2322 -0.4335
 1344poe    c23 7479   4.519   2.381   7.061 -0.5599 -0.4716 -0.2505
 1344poe    c23 7480   4.650   2.451   7.104 -0.6966 -0.1250 -0.3920
 1344poe     o2 7481   4.711   2.513   6.993 -0.3879  0.2660 -0.0083
 1344poe    c23 7482   4.819   2.595   7.030 -0.6324  0.4357  0.3388
 1344poe    c23 7483   4.881   2.641   6.896 -0.5548 -0.4831  0.0505
 1344poe     o2 7484   4.786   2.692   6.805  0.1072 -0.2407 -0.5065
 1344poe    c23 7485   4.816   2.814   6.741  0.2369  0.2076  0.4028
 1344poe    c23 7486   4.700   2.863   6.653 -0.2525 -0.7380  0.5126
 1344poe     o2 7487   4.584   2.910   6.718 -0.1557  0.4819 -0.1719
 1344poe    c31 7488   4.503   2.951   6.609  0.4273  0.1288 -0.7452
 1345poe    c31 7489   1.574   1.774   6.102  0.6545 -0.5665 -0.0408
 1345poe     o2 7490   1.581   1.790   6.242 -0.2990 -0.2307 -0.0237
 1345poe    c23 7491   1.460   1.769   6.310 -0.4135 -0.3073 -0.2479
 1345poe    c23 7492   1.473   1.807   6.459  0.2587 -0.0880 -0.3617
 1345poe     o2 7493   1.596   1.757   6.508  0.2963  0.2801 -0.0733
 1345poe    c23 7494   1.588   1.765   6.648 -0.1126 -0.4107 -0.0499
 1345poe    c23 7495   1.720   1.700   6.693 -0.0951  0.1131  0.6839
 1345poe     o2 7496   1.833   1.776   6.656  0.1355 -0.5968 -0.1107
 1345poe    c23 7497   1.953   1.704   6.677  0.1988 -0.2582  0.7527
 1345poe    c23 7498   2.072   1.780   6.616  0.3312 -0.7820  0.3465
 1345poe     o2 7499   2.066   1.746   6.479  0.3058  0.1463  0.1088
 1345poe    c31 7500   2.152   1.831   6.407  0.2455  0.8190  0.8073
 1346poe    c31 7501   5.547   5.526   3.575 -0.8069 -0.2712 -0.3695
 1346poe     o2 7502   5.471   5.415   3.535 -0.4781 -0.2931 -0.9442
 1346poe    c23 7503   5.335   5.452   3.537 -0.3326  0.2376 -0.7051
 1346poe    c23 7504   5.248   5.326   3.518  0.7378 -0.5156 -0.6950
 1346poe     o2 7505   5.212   5.252   3.632  0.1040  0.9016  0.0537
 1346poe    c23 7506   5.096   5.285   3.705  0.0609  0.6795  0.0884
 1346poe    c23 7507   5.072   5.168   3.802  0.0221  0.7118  0.1166
 1346poe     o2 7508   5.157   5.168   3.914  0.5840  0.2188 -0.3027
 1346poe    c23 7509   5.085   5.121   4.026 -0.1172  0.6108 -0.5841
 1346poe    c23 7510   5.182   5.093   4.142 -0.4330  0.5249 -0.3390
 1346poe     o2 7511   5.305   5.055   4.085 -0.1555  0.3814  0.3373
 1346poe    c31 7512   5.390   4.981   4.169 -0.4695  0.2951  0.5784
 1347poe    c31 7513   0.273   3.848   2.684 -0.4451 -0.4374 -0.1789
 1347poe     o2 7514   0.370   3.746   2.700  0.2566  0.2860  0.2483
 1347poe    c23 7515   0.469   3.796   2.788  0.5813  0.1269 -0.0247
 1347poe    c23 7516   0.554   3.684   2.850  0.0782 -0.1189  0.2322
 1347poe     o2 7517   0.627   3.613   2.752  0.3574  0.1269  0.2597
 1347poe    c23 7518   0.698   3.501   2.801  0.1275 -0.1272  0.0117
 1347poe    c23 7519   0.809   3.466   2.699  0.1820 -0.3659  0.1508
 1347poe     o2 7520   0.761   3.483   2.568  0.1406 -0.3205  0.1713
 1347poe    c23 7521   0.808   3.391   2.471 -0.2169  0.0203 -0.3277
 1347poe    c23 7522   0.768   3.455   2.336 -0.3044 -0.1421 -0.3788
 1347poe     o2 7523   0.650   3.531   2.344  0.0766  0.4058  0.1719
 1347poe    c31 7524   0.627   3.581   2.214 -0.2965 -0.7656 -0.2342
 1348poe    c31 7525   6.849   1.099   0.102 -0.2843  0.1729  0.1375
 1348poe     o2 7526   6.891   1.153   0.225  0.4003  0.0382 -0.0285
 1348poe    c23 7527   6.995   1.077   0.281 -0.2346 -0.5031  0.4318
 1348poe    c23 7528   7.127   1.151   0.252 -0.4411 -0.2950  0.0242
 1348poe     o2 7529   7.122   1.281   0.306 -0.0621 -0.4259  0.3717
 1348poe    c23 7530   7.235   1.353   0.262 -0.3459 -0.0730  0.2102
 1348poe    c23 7531   7.250   1.492   0.326 -0.3151  0.0558 -0.0742
 1348poe     o2 7532   7.119   1.544   0.333 -0.2473  0.2478 -0.2450
 1348poe    c23 7533   7.122   1.651   0.425  0.3565  0.4074 -0.4472
 1348poe    c23 7534   7.016   1.762   0.410 -0.8103 -0.5958  0.2014
 1348poe     o2 7535   7.026   1.819   0.281  0.1724 -0.2786  0.4048
 1348poe    c31 7536   6.948   1.936   0.271  0.5448 -0.0983 -0.3874
 1349poe    c31 7537   5.215   0.416   0.094  0.4498  0.8965 -0.2591
 1349poe     o2 7538   5.269   0.454   0.218  0.0949  0.1252  0.1437
 1349poe    c23 7539   5.304   0.591   0.225 -0.0517  0.1570  0.2554
 1349poe    c23 7540   5.348   0.624   0.369  0.5012  0.1093  0.1019
 1349poe     o2 7541   5.308   0.517   0.453 -0.3186  0.5997  0.3502
 1349poe    c23 7542   5.337   0.545   0.588  0.6620 -0.2680  0.3296
 1349poe    c23 7543   5.272   0.430   0.667  0.0907 -0.0560  0.1716
 1349poe     o2 7544   5.311   0.318   0.592 -0.3138  0.1114 -0.2898
 1349poe    c23 7545   5.251   0.198   0.634  0.4209 -0.4236 -0.7377
 1349poe    c23 7546   5.156   0.154   0.521 -0.0758  0.0055 -0.4913
 1349poe     o2 7547   5.213   0.202   0.401 -0.0556  0.1615 -0.4203
 1349poe    c31 7548   5.181   0.104   0.304 -0.2808 -0.0689 -0.1172
 1350poe    c31 7549   4.065   6.688   0.881 -0.1453  0.2803  0.2480
 1350poe     o2 7550   3.953   6.720   0.960  0.4366 -0.1704  1.2833
 1350poe    c23 7551   3.874   6.605   0.982 -0.4500  0.0700 -0.4780
 1350poe    c23 7552   3.751   6.637   1.068 -0.3600  0.3428 -0.4512
 1350poe     o2 7553   3.779   6.712   1.184  0.2609 -0.6169  0.0283
 1350poe    c23 7554   3.660   6.770   1.232  0.2203 -0.3033 -0.4517
 1350poe    c23 7555   3.676   6.829   1.374 -0.2786 -0.9421 -0.1283
 1350poe     o2 7556   3.800   6.896   1.371 -0.9401  0.2768 -0.8110
 1350poe    c23 7557   3.827   6.966   1.490  0.1600  0.4616 -1.1596
 1350poe    c23 7558   3.978   6.993   1.476  0.3810 -0.3418 -0.4570
 1350poe     o2 7559   4.040   6.874   1.433  0.4887 -0.2744 -0.4881
 1350poe    c31 7560   4.169   6.877   1.489  0.3573 -0.3973 -0.1766
 1351poe    c31 7561   3.471   0.074   0.324 -0.1105  0.6135  0.0171
 1351poe     o2 7562   3.490   0.025   0.193 -0.0968  0.9997 -0.1262
 1351poe    c23 7563   3.614   0.071   0.144  0.5897 -0.1683  0.4779
 1351poe    c23 7564   3.635   0.020   0.001  0.1485  0.7215  0.0848
 1351poe     o2 7565   3.504   0.024  -0.051  0.2410 -0.5069 -0.2870
 1351poe    c23 7566   3.496  -0.013  -0.187  0.1124 -0.1773 -0.3703
 1351poe    c23 7567   3.350  -0.029  -0.234 -0.1249  0.1027  0.2651
 1351poe     o2 7568   3.283  -0.116  -0.146  0.6048 -0.4800  0.2548
 1351poe    c23 7569   3.240  -0.223  -0.226  0.2220 -0.2190  0.1091
 1351poe    c23 7570   3.131  -0.307  -0.157 -0.6312  0.8028  0.0405
 1351poe     o2 7571   3.139  -0.351  -0.023 -0.2207  0.4711 -0.0901
 1351poe    c31 7572   3.098  -0.486  -0.008 -0.0555  0.4109 -0.1780
 1352poe    c31 7573   2.281   3.405   2.894  0.0513  0.2032  0.0506
 1352poe     o2 7574   2.171   3.422   2.981 -0.4440  0.1644 -0.5597
 1352poe    c23 7575   2.183   3.371   3.112 -0.2484 -0.0954 -0.6772
 1352poe    c23 7576   2.074   3.438   3.198  0.5794  0.5193 -0.0898
 1352poe     o2 7577   2.087   3.399   3.332 -0.3431  0.5784  0.0254
 1352poe    c23 7578   2.009   3.493   3.403 -0.5325  0.2622  0.2372
 1352poe    c23 7579   2.046   3.471   3.551 -0.1884 -1.0895 -0.0309
 1352poe     o2 7580   2.184   3.477   3.579 -0.2827 -0.8155  0.3920
 1352poe    c23 7581   2.207   3.453   3.717 -0.3418  0.2160  0.5886
 1352poe    c23 7582   2.347   3.395   3.744 -0.3361 -0.0910 -0.0757
 1352poe     o2 7583   2.369   3.363   3.879  0.0354  0.0475 -0.1032
 1352poe    c31 7584   2.508   3.348   3.901  0.1301  0.1613 -0.6066
 1353poe    c31 7585   0.668   2.599   2.351 -0.2593 -0.2135  0.3148
 1353poe     o2 7586   0.595   2.679   2.442 -0.5534 -0.2336  0.0959
 1353poe    c23 7587   0.509   2.590   2.510  0.3444 -0.3987  1.0232
 1353poe    c23 7588   0.412   2.682   2.587  0.2969  0.0113  0.4753
 1353poe     o2 7589   0.317   2.737   2.498  0.5329 -0.6655 -0.2130
 1353poe    c23 7590   0.221   2.789   2.587  0.6310 -0.3646 -0.2825
 1353poe    c23 7591   0.195   2.937   2.551  0.5408 -0.4481 -0.5567
 1353poe     o2 7592   0.188   2.964   2.412 -0.4539  0.9583 -0.2558
 1353poe    c23 7593   0.060   2.936   2.361 -0.1481 -0.2026 -0.4310
 1353poe    c23 7594   0.036   2.997   2.221 -0.1169  0.7896 -0.0100
 1353poe     o2 7595   0.148   2.944   2.154 -0.5958 -0.3130  0.0430
 1353poe    c31 7596   0.129   2.949   2.015 -0.5074  0.1069  0.0450
 1354poe    c31 7597   5.770   2.564   5.244 -0.0673  0.4183  0.2384
 1354poe     o2 7598   5.653   2.573   5.321 -0.2378  0.1608  0.0108
 1354poe    c23 7599   5.664   2.458   5.403  0.5138  0.3085  0.1224
 1354poe    c23 7600   5.555   2.479   5.511  0.7654  0.3239  0.3741
 1354poe     o2 7601   5.444   2.502   5.428  0.5675  0.1268  0.5862
 1354poe    c23 7602   5.338   2.548   5.509  0.4204  0.3750  0.2577
 1354poe    c23 7603   5.214   2.580   5.424  0.0372 -0.2002  0.5880
 1354poe     o2 7604   5.258   2.692   5.350 -0.7413 -0.4819 -0.3182
 1354poe    c23 7605   5.155   2.757   5.278 -0.2526  0.1264 -0.4822
 1354poe    c23 7606   5.185   2.907   5.264 -0.1552  0.1628  0.0901
 1354poe     o2 7607   5.183   2.971   5.390 -0.3635  0.3761 -0.0205
 1354poe    c31 7608   5.207   3.110   5.385  0.3078  0.2875  0.5816
 1355poe    c31 7609   1.935   4.546   0.993  0.7542  0.6118  0.0301
 1355poe     o2 7610   2.028   4.454   1.046  0.1865  0.2890  0.4707
 1355poe    c23 7611   2.100   4.524   1.144 -0.0688  0.0068  0.8641
 1355poe    c23 7612   2.214   4.431   1.189  0.2183 -0.2930 -0.4528
 1355poe     o2 7613   2.149   4.319   1.244 -0.2483 -0.1647 -0.7305
 1355poe    c23 7614   2.245   4.249   1.321 -0.4414 -0.0161 -0.3495
 1355poe    c23 7615   2.165   4.128   1.372  0.1355 -0.5694 -0.7234
 1355poe     o2 7616   2.094   4.084   1.259  0.0164 -0.5387 -0.6618
 1355poe    c23 7617   2.037   3.959   1.291  1.3112 -0.9533  0.0833
 1355poe    c23 7618   1.941   3.907   1.183 -0.0214  0.3425  0.6101
 1355poe     o2 7619   1.840   3.999   1.147  0.1217  0.0834 -0.4832
 1355poe    c31 7620   1.717   3.935   1.126  0.2063 -0.3930  0.4271
 1356poe    c31 7621   0.491   1.894   2.016 -0.3213 -0.4070 -0.4807
 1356poe     o2 7622   0.539   1.962   1.902  0.1109  0.1081  0.0039
 1356poe    c23 7623   0.517   1.891   1.782  0.2232 -0.4072  0.2847
 1356poe    c23 7624   0.580   1.959   1.659  0.0630  0.0745  0.4653
 1356poe     o2 7625   0.516   2.084   1.656 -0.4588 -0.1845  0.6045
 1356poe    c23 7626   0.553   2.169   1.550  0.6879 -0.4683  0.7657
 1356poe    c23 7627   0.686   2.247   1.549  0.2978  0.1921  0.1874
 1356poe     o2 7628   0.724   2.297   1.675 -0.4714 -0.0371  0.5136
 1356poe    c23 7629   0.848   2.363   1.676 -0.2036 -0.5135 -0.0806
 1356poe    c23 7630   0.913   2.340   1.814  0.0045  0.4122 -0.0153
 1356poe     o2 7631   0.818   2.360   1.916 -0.2915 -0.0281 -0.2035
 1356poe    c31 7632   0.871   2.298   2.031 -0.2200  0.0800 -0.1784
 1357poe    c31 7633   6.863   0.706   4.433  0.0701 -0.1043 -0.4257
 1357poe     o2 7634   6.937   0.816   4.385  0.3225 -0.0953 -0.0227
 1357poe    c23 7635   6.948   0.907   4.492  0.2650  0.4296 -0.4585
 1357poe    c23 7636   7.026   1.032   4.447  0.5533  0.4586  0.1227
 1357poe     o2 7637   6.943   1.080   4.344  0.0768  0.1776  0.3705
 1357poe    c23 7638   6.975   1.214   4.311  0.0577 -0.0293 -0.5081
 1357poe    c23 7639   6.922   1.236   4.168 -0.6675  0.2625 -0.2007
 1357poe     o2 7640   6.991   1.146   4.084  0.0017  0.7805 -0.2092
 1357poe    c23 7641   6.939   1.142   3.954  0.0910  0.8159 -0.2464
 1357poe    c23 7642   7.024   1.071   3.847 -0.6616 -0.2059 -0.1770
 1357poe     o2 7643   7.004   0.931   3.855  0.2072 -0.3095  0.2220
 1357poe    c31 7644   7.067   0.864   3.748 -0.5312 -0.8295  0.1105
 1358poe    c31 7645   2.021   0.832   1.840 -0.5345  0.2770  0.0677
 1358poe     o2 7646   1.972   0.719   1.770 -0.6649  0.4570 -0.1337
 1358poe    c23 7647   1.873   0.641   1.833 -0.1590 -0.2633 -0.2207
 1358poe    c23 7648   1.840   0.522   1.741 -0.2233 -0.1301 -0.3693
 1358poe     o2 7649   1.782   0.544   1.615 -0.4556  0.2324 -0.2020
 1358poe    c23 7650   1.711   0.433   1.564  0.1839 -0.2291 -0.0952
 1358poe    c23 7651   1.688   0.444   1.412  0.2487 -0.3391 -0.1132
 1358poe     o2 7652   1.816   0.477   1.362  0.3406  0.1104  0.4105
 1358poe    c23 7653   1.807   0.499   1.223 -0.0652 -0.1002  0.4007
 1358poe    c23 7654   1.954   0.489   1.178 -0.1993  0.8396 -0.2699
 1358poe     o2 7655   2.028   0.572   1.265  0.1980  0.8095 -0.5722
 1358poe    c31 7656   2.144   0.607   1.193  0.8998  0.3297  0.3074
 1359poe    c31 7657   6.279   5.671   4.125 -0.1841  0.0679 -0.2790
 1359poe     o2 7658   6.202   5.590   4.039 -0.1644 -0.3321  0.0722
 1359poe    c23 7659   6.094   5.662   3.983 -0.1058  0.3241  0.7840
 1359poe    c23 7660   5.971   5.580   3.937  0.8760 -0.4081 -0.5822
 1359poe     o2 7661   5.998   5.490   3.832  0.4067 -0.7407 -0.4171
 1359poe    c23 7662   5.899   5.392   3.811 -0.5477  0.1529 -0.1681
 1359poe    c23 7663   5.925   5.314   3.680  0.1091  0.3143 -0.1353
 1359poe     o2 7664   6.066   5.309   3.677  0.0998 -0.4402  0.4116
 1359poe    c23 7665   6.123   5.233   3.572  0.5391  0.4541 -0.0088
 1359poe    c23 7666   6.276   5.229   3.595  0.4368  0.0055  0.6210
 1359poe     o2 7667   6.316   5.364   3.603  0.1025  0.1642 -0.2601
 1359poe    c31 7668   6.438   5.385   3.537  0.2026 -0.3306 -0.2396
 1360poe    c31 7669   4.888   1.761   2.332  0.1634 -0.1483 -0.2415
 1360poe     o2 7670   4.892   1.866   2.239  0.3877  0.4562  0.4365
 1360poe    c23 7671   4.962   1.816   2.127 -0.0889  0.2949  0.2063
 1360poe    c23 7672   5.043   1.936   2.074  0.2313 -0.0213 -0.0214
 1360poe     o2 7673   4.974   2.053   2.039  0.1558 -0.1166 -0.1940
 1360poe    c23 7674   5.068   2.148   1.994 -0.3380  0.4085 -0.1326
 1360poe    c23 7675   4.999   2.261   1.915 -0.4298  0.4668  0.0308
 1360poe     o2 7676   4.885   2.303   1.987 -0.2593  0.3375  0.3738
 1360poe    c23 7677   4.799   2.371   1.899  0.2682 -0.2511 -0.6195
 1360poe    c23 7678   4.672   2.377   1.986 -0.1197  0.5575 -1.2331
 1360poe     o2 7679   4.640   2.244   2.021 -0.1952  0.8001 -0.3491
 1360poe    c31 7680   4.510   2.222   2.069 -0.0499  0.7449  0.0186
 1361poe    c31 7681   3.039   3.232   5.538 -0.0303 -0.4889  0.6968
 1361poe     o2 7682   2.950   3.327   5.484 -0.1071 -0.8453  0.1875
 1361poe    c23 7683   2.819   3.283   5.456 -0.3045 -0.4628  0.4958
 1361poe    c23 7684   2.733   3.379   5.372 -0.4766 -0.9195  0.1403
 1361poe     o2 7685   2.814   3.419   5.264 -0.1985 -0.1042  0.6307
 1361poe    c23 7686   2.744   3.485   5.161 -0.0313 -0.4071  0.3185
 1361poe    c23 7687   2.840   3.536   5.051 -0.1786 -0.6439  0.0791
 1361poe     o2 7688   2.762   3.592   4.948  0.2028 -0.1663  0.0489
 1361poe    c23 7689   2.713   3.725   4.944 -0.0511 -0.2671 -0.1752
 1361poe    c23 7690   2.817   3.838   4.957 -0.5225  0.0844  0.5652
 1361poe     o2 7691   2.876   3.846   4.829 -0.3754  0.6313  0.6655
 1361poe    c31 7692   3.001   3.911   4.838  0.2814 -0.5714  0.3885
 1362poe    c31 7693   5.197   4.965   1.740  0.2021 -0.1147 -0.0678
 1362poe     o2 7694   5.255   4.837   1.737  0.5064  0.0303 -0.3956
 1362poe    c23 7695   5.148   4.748   1.757  0.4260  0.2540  0.1954
 1362poe    c23 7696   5.195   4.602   1.772  0.0898  0.0885 -0.3410
 1362poe     o2 7697   5.217   4.558   1.904 -0.1777  0.2232 -0.2498
 1362poe    c23 7698   5.329   4.474   1.923 -0.2464  0.2187  0.1217
 1362poe    c23 7699   5.365   4.463   2.073 -0.1265  0.3749  0.1050
 1362poe     o2 7700   5.390   4.593   2.121 -0.0616  0.1347  0.7197
 1362poe    c23 7701   5.421   4.573   2.258 -0.2399 -0.3606  0.6920
 1362poe    c23 7702   5.388   4.691   2.351  0.0218  0.2220  0.0627
 1362poe     o2 7703   5.253   4.731   2.360 -0.1593 -0.3041 -0.2435
 1362poe    c31 7704   5.214   4.813   2.468 -0.1985  0.1784 -0.6193
 1363poe    c31 7705   3.571   2.231   2.764  0.1846 -0.0215 -0.1000
 1363poe     o2 7706   3.464   2.291   2.695  0.2480 -0.0417 -0.2154
 1363poe    c23 7707   3.516   2.390   2.609  0.2974  0.4078  0.3297
 1363poe    c23 7708   3.396   2.412   2.516  0.2839 -0.1257  0.2173
 1363poe     o2 7709   3.281   2.443   2.592  0.3199 -0.1324  0.2736
 1363poe    c23 7710   3.164   2.431   2.515  0.0625 -0.2295  0.6740
 1363poe    c23 7711   3.039   2.463   2.598 -0.2426  0.0791  0.1016
 1363poe     o2 7712   3.034   2.364   2.699  0.0900 -0.3621 -0.3131
 1363poe    c23 7713   2.924   2.380   2.785  0.3108 -0.7166  0.0391
 1363poe    c23 7714   2.918   2.273   2.896  0.3795 -0.5721  0.1819
 1363poe     o2 7715   3.004   2.300   3.004 -0.2696  1.0250  0.3267
 1363poe    c31 7716   2.961   2.219   3.111  0.0479 -0.1617 -0.4241
 1364poe    c31 7717   0.007   0.556   3.416 -0.2513  0.5509  0.2132
 1364poe     o2 7718   0.005   0.695   3.435  0.5890  0.6720 -0.5133
 1364poe    c23 7719  -0.128   0.724   3.399  0.2437 -0.0972  0.1035
 1364poe    c23 7720  -0.128   0.868   3.342 -0.0607 -0.2949 -0.4079
 1364poe     o2 7721  -0.004   0.871   3.275  0.3499 -0.0193  0.3477
 1364poe    c23 7722   0.017   1.003   3.229 -0.6073  0.2672  0.7074
 1364poe    c23 7723   0.136   1.049   3.315  0.0962  0.3427 -0.2883
 1364poe     o2 7724   0.240   0.954   3.323  0.0292  0.2924  0.0308
 1364poe    c23 7725   0.319   0.973   3.438  0.2241 -0.4542  0.0235
 1364poe    c23 7726   0.372   0.837   3.486 -0.1594 -0.4341  0.5145
 1364poe     o2 7727   0.264   0.747   3.497 -0.4570 -0.0440  0.7919
 1364poe    c31 7728   0.311   0.630   3.560 -0.2975 -0.2410  0.3087
 1365poe    c31 7729   6.102   4.776   2.607 -0.3769 -1.1013 -0.7767
 1365poe     o2 7730   6.225   4.716   2.574  0.2756 -0.0971 -0.2257
 1365poe    c23 7731   6.281   4.776   2.459 -0.0815  0.2625 -0.2122
 1365poe    c23 7732   6.250   4.676   2.346  0.3696 -0.4783  0.3094
 1365poe     o2 7733   6.326   4.558   2.352  0.1616 -0.6252  0.0393
 1365poe    c23 7734   6.332   4.512   2.218 -0.4550 -0.2373 -0.1255
 1365poe    c23 7735   6.435   4.398   2.215  0.0671  0.2190  0.2459
 1365poe     o2 7736   6.392   4.301   2.308 -0.1350 -0.4002 -0.4896
 1365poe    c23 7737   6.471   4.185   2.301  0.2274 -0.1387 -0.7590
 1365poe    c23 7738   6.424   4.108   2.425 -0.5427  0.3751 -0.7264
 1365poe     o2 7739   6.436   4.178   2.547  0.2481 -0.2091 -0.4587
 1365poe    c31 7740   6.345   4.136   2.646 -0.0172 -0.3990 -0.7830
 1366poe    c31 7741   5.834   6.486   3.269  0.0095  0.2037  0.6312
 1366poe     o2 7742   5.763   6.364   3.276  0.0248  0.1453 -0.1492
 1366poe    c23 7743   5.825   6.263   3.200  0.3021  0.1049  0.1283
 1366poe    c23 7744   5.736   6.137   3.202 -0.1513  0.4115 -0.4678
 1366poe     o2 7745   5.740   6.070   3.326 -1.0162  0.8554 -0.1903
 1366poe    c23 7746   5.664   5.951   3.327 -0.1136  0.2690 -0.1585
 1366poe    c23 7747   5.698   5.872   3.454  0.4287 -0.0674 -0.5090
 1366poe     o2 7748   5.653   5.955   3.559  0.2001 -0.5256 -0.2411
 1366poe    c23 7749   5.691   5.901   3.684  0.1264 -0.2458 -0.0976
 1366poe    c23 7750   5.717   6.012   3.788 -0.1767  0.0528 -0.3381
 1366poe     o2 7751   5.829   6.094   3.762  0.5588 -0.7311  0.3150
 1366poe    c31 7752   5.886   6.113   3.889  0.7460 -0.2711  0.1640
 1367poe    c31 7753   3.053   5.549   1.266  0.1580  0.1075 -0.2132
 1367poe     o2 7754   2.946   5.544   1.174 -0.2696 -0.2253  0.2923
 1367poe    c23 7755   2.832   5.483   1.229 -0.3353 -0.2249  0.1575
 1367poe    c23 7756   2.714   5.511   1.134 -0.0962 -0.2502 -0.1467
 1367poe     o2 7757   2.662   5.641   1.149 -0.1115 -0.2574 -0.1420
 1367poe    c23 7758   2.563   5.665   1.052 -0.0465  0.0054 -0.1466
 1367poe    c23 7759   2.463   5.780   1.073 -0.0321  0.0776 -0.4773
 1367poe     o2 7760   2.525   5.906   1.065  0.3786 -0.0592  0.4446
 1367poe    c23 7761   2.426   6.006   1.060  0.6184  0.1508 -0.2009
 1367poe    c23 7762   2.493   6.145   1.068  0.3908  0.2493  0.0176
 1367poe     o2 7763   2.577   6.140   1.181  0.3420  0.5416  0.0685
 1367poe    c31 7764   2.638   6.266   1.191  0.7743  0.3028  0.4586
 1368poe    c31 7765   6.453   5.043   4.592 -0.2611 -0.0491  0.3369
 1368poe     o2 7766   6.587   5.019   4.626 -0.1384 -0.3913 -0.3565
 1368poe    c23 7767   6.640   4.932   4.529  0.6118 -0.0499 -0.2660
 1368poe    c23 7768   6.646   4.795   4.600 -0.2328 -0.1678 -0.4087
 1368poe     o2 7769   6.727   4.822   4.712  0.0034 -0.0626 -0.6022
 1368poe    c23 7770   6.759   4.702   4.779 -0.6461  0.1516  0.1132
 1368poe    c23 7771   6.829   4.740   4.911  0.1530 -0.1924 -0.2064
 1368poe     o2 7772   6.939   4.826   4.896 -0.0557  0.0383 -0.4044
 1368poe    c23 7773   6.998   4.867   5.017 -0.4104  0.1038 -0.2530
 1368poe    c23 7774   7.111   4.967   4.985 -0.2046 -0.1160 -0.2182
 1368poe     o2 7775   7.084   5.094   4.929 -0.4241  0.4605  1.1451
 1368poe    c31 7776   7.201   5.170   4.913 -0.5874  0.3686 -0.7905
 1369poe    c31 7777   5.772   3.907   6.659  0.1723  0.7298 -0.6830
 1369poe     o2 7778   5.666   3.999   6.665 -0.1721  0.2861  0.1217
 1369poe    c23 7779   5.619   4.019   6.534 -0.0595  0.1450  0.0607
 1369poe    c23 7780   5.486   4.097   6.532  0.0348  0.3024 -1.0024
 1369poe     o2 7781   5.486   4.162   6.657 -0.0644 -0.7485 -0.4424
 1369poe    c23 7782   5.360   4.226   6.659  0.2911 -0.0522  0.1121
 1369poe    c23 7783   5.349   4.293   6.797  0.3319  0.2332 -0.0223
 1369poe     o2 7784   5.329   4.196   6.897  0.1433  0.1995 -0.0926
 1369poe    c23 7785   5.383   4.249   7.016  0.5882 -0.4295 -0.0079
 1369poe    c23 7786   5.341   4.157   7.132  0.7498  0.6915  0.9651
 1369poe     o2 7787   5.409   4.033   7.123 -0.7425 -0.0746 -0.1495
 1369poe    c31 7788   5.391   3.941   7.228 -1.3463  0.5076  0.2673
 1370poe    c31 7789   5.497   1.254   6.369  0.1374  0.4247  0.2207
 1370poe     o2 7790   5.389   1.209   6.449  0.1137 -0.0854 -0.0942
 1370poe    c23 7791   5.384   1.285   6.567 -0.2002 -0.0931 -0.1021
 1370poe    c23 7792   5.288   1.216   6.665  0.3728 -0.7448  0.0076
 1370poe     o2 7793   5.191   1.184   6.567  0.1364 -0.1724  0.0525
 1370poe    c23 7794   5.088   1.137   6.650 -0.1694  0.6225  0.1301
 1370poe    c23 7795   4.964   1.112   6.561 -0.1109 -0.3966  0.3171
 1370poe     o2 7796   5.023   1.036   6.458  0.1553 -0.3441  0.4275
 1370poe    c23 7797   4.940   0.929   6.418  0.2533 -0.1386 -0.3311
 1370poe    c23 7798   5.001   0.822   6.326  0.4272  0.0684 -0.4578
 1370poe     o2 7799   5.016   0.893   6.205  1.0326 -0.1745 -0.5288
 1370poe    c31 7800   4.986   0.803   6.102 -1.1089  0.0786 -0.1614
 1371poe    c31 7801   1.441   2.387   6.998 -0.0598  0.5060  0.2646
 1371poe     o2 7802   1.364   2.329   6.895  0.0808  0.6214  0.0948
 1371poe    c23 7803   1.447   2.243   6.819 -0.1852  0.6045 -0.1773
 1371poe    c23 7804   1.359   2.142   6.743  0.5715 -0.0927 -0.1362
 1371poe     o2 7805   1.263   2.189   6.651  0.6598 -0.0016 -0.1820
 1371poe    c23 7806   1.208   2.084   6.575  0.5887  0.1428 -0.3313
 1371poe    c23 7807   1.071   2.119   6.515  0.3411 -0.2140  0.0194
 1371poe     o2 7808   1.071   2.226   6.423 -0.2071 -0.1901  0.0442
 1371poe    c23 7809   1.073   2.201   6.285 -0.0277 -0.5882  0.1184
 1371poe    c23 7810   1.038   2.334   6.215 -0.1310 -0.2418  0.8230
 1371poe     o2 7811   1.109   2.443   6.270 -0.1476  0.1758  0.0307
 1371poe    c31 7812   1.026   2.556   6.272 -1.2483 -0.6081 -0.3323
 1372poe    c31 7813   6.030   3.993   0.747  0.2039 -0.1536 -0.4207
 1372poe     o2 7814   5.975   4.080   0.650  0.6786  0.4570 -0.1429
 1372poe    c23 7815   5.917   4.188   0.720 -0.5858 -0.2394 -0.0920
 1372poe    c23 7816   5.844   4.273   0.615 -0.2689 -0.0166 -0.1311
 1372poe     o2 7817   5.940   4.284   0.512 -0.3008 -0.3288 -0.1953
 1372poe    c23 7818   5.898   4.371   0.408  0.0414  0.0119 -0.0522
 1372poe    c23 7819   5.790   4.317   0.313  0.5228 -0.1786 -0.4961
 1372poe     o2 7820   5.837   4.223   0.219  1.3211  0.2105 -0.4896
 1372poe    c23 7821   5.731   4.181   0.136  0.3100 -0.3450  1.0373
 1372poe    c23 7822   5.773   4.047   0.072 -0.2114 -0.0368  0.0365
 1372poe     o2 7823   5.788   3.934   0.155 -0.0262  0.0354  0.1020
 1372poe    c31 7824   5.847   3.825   0.088  0.0392  0.2165 -0.1355
 1373poe    c31 7825   3.824   5.928   2.975 -0.0036 -0.6475  0.2454
 1373poe     o2 7826   3.866   5.904   3.108 -0.5569 -0.4496  0.4608
 1373poe    c23 7827   3.952   5.792   3.109  0.4048  0.2709 -0.0830
 1373poe    c23 7828   4.028   5.766   3.241 -0.3150 -0.1970  0.2441
 1373poe     o2 7829   3.956   5.734   3.358  0.0902  0.5298  0.7009
 1373poe    c23 7830   3.895   5.607   3.358 -0.0950  0.6182  0.5990
 1373poe    c23 7831   3.833   5.577   3.496  0.6001 -0.2285  0.7313
 1373poe     o2 7832   3.746   5.679   3.540  0.6287 -0.1736  0.6609
 1373poe    c23 7833   3.720   5.652   3.676 -0.1504  0.2619  0.6048
 1373poe    c23 7834   3.665   5.774   3.752 -0.5327  0.2091  0.4120
 1373poe     o2 7835   3.762   5.867   3.794 -0.1742  0.0222  0.0005
 1373poe    c31 7836   3.708   5.969   3.875 -0.3823  0.1566 -0.3079
 1374poe    c31 7837   3.931   4.524   2.661  0.9166  0.0745 -0.8571
 1374poe     o2 7838   3.850   4.604   2.578 -0.2991  0.2799  0.4895
 1374poe    c23 7839   3.726   4.539   2.557  0.2128 -0.5025 -0.1628
 1374poe    c23 7840   3.644   4.594   2.439  0.5776  0.1380 -0.1264
 1374poe     o2 7841   3.621   4.727   2.479  0.3277  0.2234 -0.5409
 1374poe    c23 7842   3.494   4.778   2.445  0.1475  0.3706  0.3200
 1374poe    c23 7843   3.477   4.921   2.499  0.7380  0.2946  0.7114
 1374poe     o2 7844   3.584   5.006   2.466  0.8853 -0.0011  0.4127
 1374poe    c23 7845   3.555   5.133   2.522 -0.1902  0.0761 -0.3041
 1374poe    c23 7846   3.646   5.246   2.471  0.2542  0.0281  0.3846
 1374poe     o2 7847   3.777   5.226   2.519  0.2502 -0.4208  0.2154
 1374poe    c31 7848   3.806   5.334   2.605 -0.3192  0.1765 -0.3348
 1375poe    c31 7849   1.463   4.213   6.715  0.3173 -0.7524 -0.2488
 1375poe     o2 7850   1.579   4.207   6.795  0.0694 -0.5400  0.1288
 1375poe    c23 7851   1.659   4.314   6.748  0.6502 -1.0286 -0.0066
 1375poe    c23 7852   1.748   4.370   6.860 -0.2020  0.2405  0.0498
 1375poe     o2 7853   1.681   4.389   6.983 -0.1424 -0.4987  0.2002
 1375poe    c23 7854   1.769   4.428   7.086 -0.1981 -0.4005  0.2108
 1375poe    c23 7855   1.669   4.495   7.182  0.0367 -0.4024  0.4578
 1375poe     o2 7856   1.597   4.399   7.256 -0.2107 -0.5442  0.0409
 1375poe    c23 7857   1.479   4.463   7.300 -0.1466 -0.0265 -0.5324
 1375poe    c23 7858   1.416   4.373   7.408 -0.2638  0.1473 -0.4562
 1375poe     o2 7859   1.422   4.239   7.366  0.4461 -0.1593  0.5608
 1375poe    c31 7860   1.376   4.165   7.477 -0.1975  0.3792  0.6618
 1376poe    c31 7861   3.728   0.843   5.896  0.2356  0.3886  0.2372
 1376poe     o2 7862   3.849   0.782   5.858  0.1339  0.5827 -0.4150
 1376poe    c23 7863   3.942   0.887   5.843 -0.0007  0.7201 -0.2898
 1376poe    c23 7864   4.076   0.811   5.846 -0.1811  0.4137  0.0642
 1376poe     o2 7865   4.057   0.712   5.748  0.5409  0.1583  0.1825
 1376poe    c23 7866   4.155   0.613   5.723  0.3387  0.2433 -1.0258
 1376poe    c23 7867   4.119   0.510   5.616 -0.3515 -0.3771 -0.2077
 1376poe     o2 7868   3.980   0.486   5.628 -0.4521  0.4168  0.2295
 1376poe    c23 7869   3.933   0.394   5.533 -0.3344  0.4435  0.1452
 1376poe    c23 7870   3.923   0.449   5.389  0.0780 -0.1630 -0.1208
 1376poe     o2 7871   3.828   0.551   5.369  0.0779 -0.1668 -0.1401
 1376poe    c31 7872   3.833   0.588   5.233 -0.1668 -0.5417 -0.2511
 1377poe    c31 7873   2.193   2.965   4.169 -0.0013 -0.3364  0.3565
 1377poe     o2 7874   2.235   3.098   4.187 -0.5598 -0.1316  0.1820
 1377poe    c23 7875   2.136   3.176   4.125 -0.5681  0.2443  0.6684
 1377poe    c23 7876   2.143   3.326   4.161  0.0277  0.3465  0.1300
 1377poe     o2 7877   2.105   3.344   4.295 -0.6223 -0.2565  0.0304
 1377poe    c23 7878   2.076   3.479   4.323 -0.2827  0.0192 -0.9470
 1377poe    c23 7879   2.011   3.487   4.462  0.1149 -0.8239 -0.7071
 1377poe     o2 7880   2.057   3.385   4.547  0.1455  0.0103  0.2927
 1377poe    c23 7881   1.983   3.385   4.667 -0.1517  0.3131  0.1096
 1377poe    c23 7882   2.014   3.248   4.730  0.3233  0.3343 -0.0758
 1377poe     o2 7883   2.033   3.146   4.635  1.0525  0.1206  0.2906
 1377poe    c31 7884   2.053   3.019   4.695 -0.2312 -0.3293 -0.1946
 1378poe    c31 7885   1.027   2.234   0.728 -0.2185  0.4248  0.4085
 1378poe     o2 7886   0.905   2.304   0.725 -0.2811  0.2818 -0.3768
 1378poe    c23 7887   0.913   2.411   0.816  0.0576  0.2499 -0.3669
 1378poe    c23 7888   0.774   2.477   0.808 -0.0900 -0.0928 -0.6193
 1378poe     o2 7889   0.701   2.362   0.848  0.1403 -0.1926 -0.4870
 1378poe    c23 7890   0.565   2.387   0.872  0.2770 -0.0551  0.1646
 1378poe    c23 7891   0.486   2.258   0.897  0.4647 -0.1831  0.0988
 1378poe     o2 7892   0.473   2.186   0.777 -0.0927 -0.2400  0.1877
 1378poe    c23 7893   0.365   2.095   0.772  0.0577 -0.4511  0.7072
 1378poe    c23 7894   0.400   1.979   0.677  0.1428 -0.0984  0.3066
 1378poe     o2 7895   0.521   1.913   0.709  0.4380  0.3111  0.0529
 1378poe    c31 7896   0.532   1.791   0.640  0.0492  0.2636  0.0716
 1379poe    c31 7897   1.952   0.924   0.907  0.1119  0.0607 -0.1398
 1379poe     o2 7898   1.993   1.059   0.898 -0.0955  0.1170 -0.2465
 1379poe    c23 7899   2.025   1.086   0.763  0.2779  0.1613 -0.1515
 1379poe    c23 7900   2.137   1.191   0.768  0.5001 -0.0955  0.3637
 1379poe     o2 7901   2.101   1.291   0.860 -0.2890  0.5584 -0.6342
 1379poe    c23 7902   2.184   1.404   0.847  0.3815  0.0678 -0.6306
 1379poe    c23 7903   2.113   1.524   0.912  0.8576 -0.3106  0.6178
 1379poe     o2 7904   2.080   1.489   1.045 -0.0230  0.0896  0.5070
 1379poe    c23 7905   1.985   1.580   1.095 -0.1790  0.3542 -0.2467
 1379poe    c23 7906   1.924   1.525   1.225 -0.2314  0.3108 -0.2899
 1379poe     o2 7907   1.827   1.426   1.195 -0.5083  0.5232 -0.1039
 1379poe    c31 7908   1.780   1.354   1.307  0.1345  0.0346 -0.1431
 1380poe    c31 7909   6.488   5.433   2.866 -0.1648 -1.0788  0.3342
 1380poe     o2 7910   6.578   5.419   2.974  0.3537 -1.0049 -0.0892
 1380poe    c23 7911   6.522   5.322   3.060  0.0247 -0.4861  0.2839
 1380poe    c23 7912   6.631   5.293   3.165 -0.2331 -0.1802  0.6388
 1380poe     o2 7913   6.674   5.421   3.203 -0.2152 -0.0682  0.2538
 1380poe    c23 7914   6.798   5.422   3.270  0.0538  0.0983 -0.2469
 1380poe    c23 7915   6.876   5.541   3.212  0.5734 -0.1980 -0.1636
 1380poe     o2 7916   6.854   5.532   3.073 -0.1241  0.1946 -0.0812
 1380poe    c23 7917   6.937   5.614   2.995 -0.5066  0.0317 -0.6649
 1380poe    c23 7918   6.859   5.728   2.928  0.3906  0.8832 -0.2946
 1380poe     o2 7919   6.730   5.670   2.929  0.5890  0.4504 -0.0646
 1380poe    c31 7920   6.632   5.762   2.888  0.2141 -0.0977 -0.4174
 1381poe    c31 7921   4.737   3.954   6.499  0.7026 -0.2143  0.3080
 1381poe     o2 7922   4.850   4.012   6.437 -0.2140  0.3958 -0.8288
 1381poe    c23 7923   4.938   3.916   6.385  0.2623  0.3066  0.1194
 1381poe    c23 7924   5.075   3.984   6.369  0.3684  0.0388 -0.1225
 1381poe     o2 7925   5.097   4.047   6.246  0.3962  0.4875  0.1117
 1381poe    c23 7926   5.229   4.098   6.245  0.3270  0.6721  0.3485
 1381poe    c23 7927   5.240   4.185   6.119 -0.4780 -0.3777 -0.4588
 1381poe     o2 7928   5.131   4.274   6.115 -0.0864  0.1591  0.5596
 1381poe    c23 7929   5.130   4.362   6.004 -0.6171 -0.0622  0.3841
 1381poe    c23 7930   4.990   4.422   5.979 -0.3761  0.2543 -0.2162
 1381poe     o2 7931   4.882   4.332   5.974 -0.3570  0.2431 -0.4270
 1381poe    c31 7932   4.762   4.406   5.966 -0.2816  0.3262 -0.8650
 1382poe    c31 7933   3.588   3.892   1.843 -0.0390 -0.2168 -0.0070
 1382poe     o2 7934   3.677   3.871   1.950 -0.4037 -0.1413  0.3134
 1382poe    c23 7935   3.772   3.771   1.921  0.2007  0.4655  0.1758
 1382poe    c23 7936   3.848   3.741   2.051  0.3438  0.3528  0.0658
 1382poe     o2 7937   3.768   3.762   2.165 -0.1326 -0.1717 -0.1714
 1382poe    c23 7938   3.837   3.723   2.281  0.3151 -0.4300 -0.5210
 1382poe    c23 7939   3.750   3.704   2.406  0.0729  0.1710 -0.5959
 1382poe     o2 7940   3.651   3.805   2.419  0.2720  0.2536  0.3215
 1382poe    c23 7941   3.585   3.806   2.544 -0.2913  0.2455  0.0237
 1382poe    c23 7942   3.454   3.725   2.537  0.5410 -1.1242 -0.3238
 1382poe     o2 7943   3.359   3.760   2.438 -0.0979 -0.1361  0.6139
 1382poe    c31 7944   3.284   3.645   2.406 -0.3859  0.1555  0.2252
 1383poe    c31 7945   6.264   4.679   5.735  0.1891 -0.2239 -0.3970
 1383poe     o2 7946   6.394   4.661   5.685  0.5162  0.2237  0.2712
 1383poe    c23 7947   6.399   4.520   5.688  0.2806  0.1923 -0.6150
 1383poe    c23 7948   6.479   4.462   5.570  0.1582 -0.1413 -0.5352
 1383poe     o2 7949   6.610   4.502   5.604 -0.0227 -0.2343  0.3007
 1383poe    c23 7950   6.697   4.491   5.493  0.0791 -0.4562  0.4002
 1383poe    c23 7951   6.841   4.538   5.517  0.1889 -0.2857 -0.5229
 1383poe     o2 7952   6.823   4.676   5.542  0.5279 -0.2109 -0.6827
 1383poe    c23 7953   6.931   4.763   5.519  0.4217  0.0063 -0.3599
 1383poe    c23 7954   6.887   4.886   5.438  0.3021  0.2732  0.1001
 1383poe     o2 7955   6.777   4.936   5.510 -0.1375  0.0127 -0.3828
 1383poe    c31 7956   6.733   5.060   5.460 -0.2278  0.0308 -0.2602
 1384poe    c31 7957   5.116   2.327   0.794  0.4460 -1.5410 -0.2211
 1384poe     o2 7958   5.253   2.347   0.770  0.2753  0.4778  0.2927
 1384poe    c23 7959   5.293   2.478   0.734 -0.0823  0.4521 -0.2226
 1384poe    c23 7960   5.388   2.541   0.838 -0.3251  0.1884  0.1623
 1384poe     o2 7961   5.501   2.457   0.847 -0.0626  0.5488  0.2579
 1384poe    c23 7962   5.615   2.536   0.871 -0.0064  0.4981  0.1573
 1384poe    c23 7963   5.740   2.466   0.814 -0.1989  0.2637  0.0249
 1384poe     o2 7964   5.722   2.336   0.868 -0.3838  0.2021 -0.1830
 1384poe    c23 7965   5.845   2.302   0.927 -0.4680  0.3435  0.0717
 1384poe    c23 7966   5.847   2.149   0.916  0.3923  0.3543 -0.0386
 1384poe     o2 7967   5.712   2.115   0.943  0.6422 -0.0421  0.7401
 1384poe    c31 7968   5.696   1.975   0.950  0.3132 -0.0656 -0.3731
 1385poe    c31 7969   4.037   3.385   6.006  0.1563 -0.2244 -0.1761
 1385poe     o2 7970   4.110   3.484   6.076  0.0144 -0.1243 -0.1671
 1385poe    c23 7971   4.026   3.566   6.154  0.1508  0.1010 -0.2571
 1385poe    c23 7972   4.087   3.687   6.227 -0.2211  0.2987 -0.2704
 1385poe     o2 7973   4.201   3.710   6.146 -0.2696  0.1802 -0.3723
 1385poe    c23 7974   4.292   3.792   6.214 -0.2323  0.1817 -0.4236
 1385poe    c23 7975   4.368   3.873   6.107 -0.0377  0.2575 -0.2308
 1385poe     o2 7976   4.428   3.809   5.997 -0.2570  0.0736 -0.2461
 1385poe    c23 7977   4.398   3.883   5.880 -0.6353 -0.5559 -0.5481
 1385poe    c23 7978   4.502   3.860   5.769 -0.0890  0.7180 -0.3219
 1385poe     o2 7979   4.514   3.958   5.668  0.1857  0.6877 -0.3171
 1385poe    c31 7980   4.635   3.932   5.599 -0.1428  0.0938 -0.6796
 1386poe    c31 7981   0.754   0.871   2.303 -0.3660 -0.1334  0.1448
 1386poe     o2 7982   0.854   0.778   2.338 -0.1775  0.1275  0.3123
 1386poe    c23 7983   0.812   0.687   2.438 -0.4046 -0.3341 -0.1973
 1386poe    c23 7984   0.857   0.545   2.398  0.8205 -0.0919  0.2720
 1386poe     o2 7985   0.979   0.573   2.334  0.6603  0.3592  0.1619
 1386poe    c23 7986   0.985   0.530   2.200  0.1922 -0.4458  0.3934
 1386poe    c23 7987   1.117   0.583   2.141 -0.3062 -0.3751 -0.6794
 1386poe     o2 7988   1.110   0.724   2.143 -0.1195 -0.3747  0.1724
 1386poe    c23 7989   1.184   0.789   2.043  0.4863 -0.5191  0.5192
 1386poe    c23 7990   1.132   0.932   2.016  0.3146 -0.7275 -0.2906
 1386poe     o2 7991   1.151   1.030   2.116 -0.1011 -0.4678 -0.4645
 1386poe    c31 7992   1.144   1.166   2.080 -0.5269 -0.3992 -0.1301
 1387poe    c31 7993   1.767   4.879   0.369  0.1647  0.5533  0.2303
 1387poe     o2 7994   1.727   5.008   0.329 -0.2253  0.2552 -0.3402
 1387poe    c23 7995   1.706   5.034   0.192 -0.2896  0.4467 -0.2940
 1387poe    c23 7996   1.740   5.182   0.166  0.5099  0.3671  0.2772
 1387poe     o2 7997   1.675   5.253   0.269 -0.6314  0.4072 -0.4608
 1387poe    c23 7998   1.699   5.392   0.280  0.4742  0.2153 -0.3239
 1387poe    c23 7999   1.777   5.406   0.412 -0.4395  0.3657  0.2141
 1387poe     o2 8000   1.718   5.320   0.507 -0.2315  0.1892  0.1855
 1387poe    c23 8001   1.776   5.303   0.634 -0.5361  0.2202  0.3283
 1387poe    c23 8002   1.701   5.192   0.710  0.4088 -0.4378  0.3153
 1387poe     o2 8003   1.672   5.084   0.624  0.2772 -0.4906  0.4257
 1387poe    c31 8004   1.594   4.988   0.693 -0.4350 -0.1771  0.0649
 1388poe    c31 8005   4.270   2.543   3.009  0.1466 -0.0520 -1.1231
 1388poe     o2 8006   4.205   2.666   2.986  0.4725  0.2732 -0.3277
 1388poe    c23 8007   4.234   2.755   3.092 -0.5576 -0.1217  0.2994
 1388poe    c23 8008   4.117   2.843   3.140 -0.5082  0.3879 -0.5001
 1388poe     o2 8009   4.073   2.928   3.036 -0.0707  0.8759 -0.2946
 1388poe    c23 8010   3.958   3.003   3.066 -0.9654 -0.7937  0.5994
 1388poe    c23 8011   3.861   3.001   2.946  0.0924 -0.3998 -0.2728
 1388poe     o2 8012   3.936   3.060   2.842 -0.1521  0.2999 -0.0571
 1388poe    c23 8013   3.855   3.113   2.739 -0.1542 -0.2668 -0.3489
 1388poe    c23 8014   3.946   3.147   2.619 -0.1313  0.1672 -0.2091
 1388poe     o2 8015   4.040   3.042   2.632 -0.3807  0.0249  0.5095
 1388poe    c31 8016   4.088   2.990   2.510  0.0858  0.3972  0.5295
 1389poe    c31 8017   5.160   3.338   4.249  0.6442  0.1038 -0.1164
 1389poe     o2 8018   5.276   3.415   4.270  0.5070  0.2783  0.0069
 1389poe    c23 8019   5.269   3.468   4.400  0.1167  0.9227 -0.2737
 1389poe    c23 8020   5.386   3.561   4.436  0.7065  0.4133 -0.8756
 1389poe     o2 8021   5.511   3.496   4.443  0.2592 -0.4157 -0.4159
 1389poe    c23 8022   5.608   3.583   4.498 -0.3355 -0.3331  0.5107
 1389poe    c23 8023   5.711   3.492   4.568 -0.0472 -0.2510  0.1948
 1389poe     o2 8024   5.722   3.373   4.494  0.3303  0.1902 -0.4647
 1389poe    c23 8025   5.846   3.310   4.514 -0.1807 -0.6265  0.2101
 1389poe    c23 8026   5.844   3.192   4.416  0.0072 -0.7089  0.3045
 1389poe     o2 8027   5.743   3.099   4.450 -0.1772 -0.5870  0.0955
 1389poe    c31 8028   5.766   2.968   4.404  0.4614 -0.3209 -0.3689
 1390poe    c31 8029   1.408   1.343   6.612 -0.9240 -0.0826 -0.0254
 1390poe     o2 8030   1.371   1.324   6.747  0.4602 -0.0066  0.3776
 1390poe    c23 8031   1.360   1.455   6.798  0.4880 -0.0032  0.3753
 1390poe    c23 8032   1.335   1.445   6.949 -0.1703 -0.0002  0.2690
 1390poe     o2 8033   1.416   1.340   6.996  0.1630  0.1610  0.0552
 1390poe    c23 8034   1.381   1.307   7.129 -0.0726  0.0087 -0.0436
 1390poe    c23 8035   1.441   1.174   7.175 -0.1644 -0.0921 -0.2150
 1390poe     o2 8036   1.414   1.072   7.081 -0.5771  0.1314 -0.3389
 1390poe    c23 8037   1.467   0.950   7.127 -0.7029  0.1517 -0.1386
 1390poe    c23 8038   1.419   0.818   7.062  0.9070 -0.8006  0.5500
 1390poe     o2 8039   1.460   0.818   6.927 -0.4119 -0.0118  0.1358
 1390poe    c31 8040   1.469   0.700   6.851  0.3794 -0.2356  0.5707
 1391poe    c31 8041   6.611   0.149   2.575  0.7400 -0.4956 -0.3497
 1391poe     o2 8042   6.729   0.225   2.564  0.0088  0.6996 -0.0369
 1391poe    c23 8043   6.795   0.220   2.439 -0.5964 -0.1924 -0.3256
 1391poe    c23 8044   6.938   0.254   2.483 -0.7363  0.0469 -0.0503
 1391poe     o2 8045   6.957   0.165   2.591 -0.2131 -0.3270 -0.4397
 1391poe    c23 8046   7.093   0.161   2.628 -0.4362  0.1569  0.4679
 1391poe    c23 8047   7.121   0.087   2.761  0.4314 -0.2168  0.0794
 1391poe     o2 8048   7.055   0.163   2.859 -0.4293  0.0322 -0.6797
 1391poe    c23 8049   7.103   0.135   2.989 -0.3039  0.3048 -0.6662
 1391poe    c23 8050   7.054   0.010   3.065  0.0634  0.3372 -0.3736
 1391poe     o2 8051   6.914  -0.002   3.072  0.0630  0.3749 -0.3119
 1391poe    c31 8052   6.884  -0.134   3.109  0.1243  0.2865 -0.5769
 1392poe    c31 8053   5.799   1.298   2.052  0.0866  0.0445 -0.2328
 1392poe     o2 8054   5.906   1.265   2.138  0.1951 -0.1903 -0.4557
 1392poe    c23 8055   5.989   1.366   2.190  0.7287 -0.8672  0.0209
 1392poe    c23 8056   6.087   1.448   2.105  0.0025 -0.0399 -0.0267
 1392poe     o2 8057   6.202   1.378   2.061  0.2275  0.3849 -0.1263
 1392poe    c23 8058   6.192   1.298   1.946 -0.0345  0.5851 -0.2440
 1392poe    c23 8059   6.327   1.251   1.889  0.0994  0.3728  0.2446
 1392poe     o2 8060   6.387   1.363   1.828  0.1760 -0.0471 -0.4577
 1392poe    c23 8061   6.516   1.337   1.777  0.2696 -0.5045  0.0027
 1392poe    c23 8062   6.580   1.467   1.723 -0.1183 -0.2742  0.0924
 1392poe     o2 8063   6.573   1.546   1.839 -0.1575 -0.8170  0.4629
 1392poe    c31 8064   6.679   1.634   1.868 -0.2734 -0.6624  0.4127
 1393poe    c31 8065   1.124   6.902   5.176 -0.2903  0.6299 -0.9047
 1393poe     o2 8066   1.043   6.975   5.265  0.2739  0.0907  0.0635
 1393poe    c23 8067   0.912   6.923   5.270  0.3068  0.0325  0.3558
 1393poe    c23 8068   0.878   6.792   5.343  0.0296  0.0367  0.2391
 1393poe     o2 8069   0.752   6.733   5.322 -0.0647  0.4198 -0.2598
 1393poe    c23 8070   0.745   6.602   5.373 -0.4442  0.8453  0.8045
 1393poe    c23 8071   0.652   6.508   5.295  0.1311  0.7676  0.1956
 1393poe     o2 8072   0.515   6.541   5.288 -0.0690 -0.1241 -0.2979
 1393poe    c23 8073   0.475   6.650   5.208  0.4573 -0.0165 -0.4186
 1393poe    c23 8074   0.417   6.604   5.073 -0.1731  0.4852 -0.3237
 1393poe     o2 8075   0.296   6.533   5.086  0.2510 -0.0940  0.5576
 1393poe    c31 8076   0.268   6.466   4.966 -0.6853 -0.1290  0.7839
 1394poe    c31 8077   4.880   3.263   4.999  1.1500  0.1654 -0.1512
 1394poe     o2 8078   4.907   3.322   5.124  0.2270  0.3809 -0.0421
 1394poe    c23 8079   4.803   3.284   5.211 -0.3707  0.2913 -0.7862
 1394poe    c23 8080   4.819   3.347   5.351  0.4023 -0.1384 -0.6740
 1394poe     o2 8081   4.868   3.478   5.331 -0.2054  0.2712  0.4405
 1394poe    c23 8082   4.842   3.567   5.437  0.2867  0.7846  0.1377
 1394poe    c23 8083   4.893   3.711   5.421  0.8841  0.6045  0.3907
 1394poe     o2 8084   4.842   3.752   5.297 -0.5246  0.0889  0.7828
 1394poe    c23 8085   4.825   3.891   5.301  0.9558  0.3118  0.0702
 1394poe    c23 8086   4.772   3.943   5.167 -0.2141  0.3367  0.5318
 1394poe     o2 8087   4.709   3.836   5.099  0.7653 -0.0032  0.1449
 1394poe    c31 8088   4.653   3.897   4.985  0.5935  0.0675  0.2667
 1395poe    c31 8089   0.872   3.915   5.059 -0.2028  0.1202  0.3462
 1395poe     o2 8090   0.753   3.968   5.006  0.0784  0.2783 -0.1296
 1395poe    c23 8091   0.666   3.992   5.113  0.3842 -0.5979  0.3251
 1395poe    c23 8092   0.558   4.079   5.046  0.8926 -0.2657 -0.0647
 1395poe     o2 8093   0.520   4.004   4.933  0.8419 -0.2869 -0.0329
 1395poe    c23 8094   0.442   4.076   4.840  0.2004 -0.1637  0.5875
 1395poe    c23 8095   0.453   3.995   4.709 -0.1853  0.1253  0.3735
 1395poe     o2 8096   0.592   3.975   4.698 -0.1610  0.5172 -0.0850
 1395poe    c23 8097   0.645   3.888   4.600  0.2193  0.1048  0.4745
 1395poe    c23 8098   0.799   3.890   4.595  0.2074  0.6118  0.2676
 1395poe     o2 8099   0.839   3.872   4.729 -0.5552 -0.8449  0.3175
 1395poe    c31 8100   0.975   3.833   4.732 -0.2463  0.2089  0.2982
 1396poe    c31 8101   5.351   5.506   3.946 -0.0012  0.2812  0.3380
 1396poe     o2 8102   5.481   5.502   3.892 -0.2352  0.0011 -0.2107
 1396poe    c23 8103   5.578   5.540   3.987 -0.0506  0.0658 -0.4229
 1396poe    c23 8104   5.619   5.419   4.073 -0.8147  0.3118  0.3046
 1396poe     o2 8105   5.636   5.300   3.999 -0.5266  0.3923  0.2423
 1396poe    c23 8106   5.695   5.192   4.068 -0.9141 -0.0183 -0.0674
 1396poe    c23 8107   5.711   5.051   4.009  0.3635  0.0624  0.0685
 1396poe     o2 8108   5.813   5.026   3.914 -0.3677 -0.1354 -0.6819
 1396poe    c23 8109   5.778   4.914   3.836 -0.6444 -0.3816 -0.2116
 1396poe    c23 8110   5.809   4.939   3.687 -0.1552 -0.1613 -0.0763
 1396poe     o2 8111   5.943   4.964   3.653 -0.2603  0.4503 -0.0587
 1396poe    c31 8112   5.957   4.913   3.522 -0.1993 -0.0195  0.1267
 1397poe    c31 8113   6.328   2.532   3.486  0.2821  0.3728 -0.2164
 1397poe     o2 8114   6.426   2.500   3.390  0.5115  0.5105 -0.0274
 1397poe    c23 8115   6.555   2.465   3.438  0.2681 -0.4133 -0.0387
 1397poe    c23 8116   6.629   2.453   3.304  0.1819  0.1722 -0.1424
 1397poe     o2 8117   6.619   2.565   3.219 -0.0536  0.0756 -0.2433
 1397poe    c23 8118   6.717   2.663   3.248  0.0886 -0.0256 -0.3806
 1397poe    c23 8119   6.695   2.770   3.140 -0.6452  0.2474  0.0354
 1397poe     o2 8120   6.653   2.709   3.021 -0.5340  0.2471 -0.0035
 1397poe    c23 8121   6.617   2.806   2.925  0.1078  0.5645  0.0736
 1397poe    c23 8122   6.615   2.746   2.784 -0.4909  0.0163  0.3109
 1397poe     o2 8123   6.494   2.673   2.779 -0.2277 -0.3810 -0.3205
 1397poe    c31 8124   6.492   2.595   2.661  0.3098  0.3410 -0.8174
 1398poe    c31 8125   2.608   2.113   0.786  0.3246  0.3531  0.0103
 1398poe     o2 8126   2.733   2.177   0.797  0.4228  0.2735 -0.5766
 1398poe    c23 8127   2.798   2.210   0.677  0.5535 -0.1228 -0.6160
 1398poe    c23 8128   2.924   2.279   0.733  0.3550 -0.0517 -0.2527
 1398poe     o2 8129   2.916   2.399   0.806  0.1853  0.0347 -0.4125
 1398poe    c23 8130   3.051   2.428   0.836  0.1935 -0.4733  0.0544
 1398poe    c23 8131   3.044   2.552   0.928  0.2769 -0.0029 -0.5726
 1398poe     o2 8132   2.953   2.528   1.033  0.9033  0.2243  0.0260
 1398poe    c23 8133   2.960   2.627   1.133  0.3560 -0.1623  0.4512
 1398poe    c23 8134   2.858   2.609   1.247  0.1806  0.2061  0.3561
 1398poe     o2 8135   2.726   2.632   1.203  0.2596  0.2210  0.1233
 1398poe    c31 8136   2.647   2.692   1.304 -0.3480 -0.7434  0.2319
 1399poe    c31 8137   4.521   5.827   4.897 -0.1186 -0.0559  0.7699
 1399poe     o2 8138   4.480   5.953   4.946  0.2324  0.3847 -0.0584
 1399poe    c23 8139   4.583   6.017   5.018  0.5380  0.3497 -0.4634
 1399poe    c23 8140   4.519   6.109   5.123 -0.2949 -0.6587 -0.0684
 1399poe     o2 8141   4.445   6.208   5.056  0.1921 -0.4910 -0.3611
 1399poe    c23 8142   4.398   6.306   5.146  0.4163 -0.3953 -0.3470
 1399poe    c23 8143   4.320   6.410   5.065 -0.2544 -0.3993  0.2813
 1399poe     o2 8144   4.221   6.333   5.001 -0.3397  0.4520 -0.6486
 1399poe    c23 8145   4.102   6.398   4.961 -0.3529  0.5865 -0.3936
 1399poe    c23 8146   4.006   6.284   4.922  0.2851 -0.0437 -0.1620
 1399poe     o2 8147   4.092   6.198   4.852  0.3344 -0.0886 -0.0461
 1399poe    c31 8148   4.012   6.103   4.785  0.4304 -0.2262  0.0340
 1400poe    c31 8149   2.037   5.232   5.763 -0.7129 -0.9223 -0.1232
 1400poe     o2 8150   2.032   5.348   5.682  0.5632 -0.6300  0.1960
 1400poe    c23 8151   2.125   5.436   5.740 -0.0451  0.1785 -0.0411
 1400poe    c23 8152   2.150   5.553   5.643 -0.1021  0.4939  0.3187
 1400poe     o2 8153   2.032   5.629   5.634 -0.1897  0.3676  0.4028
 1400poe    c23 8154   2.061   5.758   5.586  0.5217 -0.1595 -0.6225
 1400poe    c23 8155   1.949   5.862   5.566  0.2183 -0.2426  0.5659
 1400poe     o2 8156   1.855   5.828   5.665 -0.0445 -0.2222  0.3246
 1400poe    c23 8157   1.733   5.898   5.663  0.4278  0.6045  0.0545
 1400poe    c23 8158   1.690   5.895   5.810  0.0695 -0.0518 -0.0568
 1400poe     o2 8159   1.717   5.769   5.866  0.0625  0.0567  0.1945
 1400poe    c31 8160   1.661   5.755   5.995  0.1843  0.0450  0.2466
 1401poe    c31 8161   2.740   6.534   3.504 -0.4155 -0.1387  0.5293
 1401poe     o2 8162   2.617   6.533   3.434 -0.0878 -0.0377 -0.0569
 1401poe    c23 8163   2.583   6.620   3.329  0.5482  0.4920  0.1636
 1401poe    c23 8164   2.439   6.673   3.322  0.3099 -0.1552  0.0933
 1401poe     o2 8165   2.356   6.564   3.287  0.0950  0.0753 -0.1258
 1401poe    c23 8166   2.222   6.597   3.313  0.0620 -0.1704  0.0211
 1401poe    c23 8167   2.109   6.494   3.329  0.0413 -0.1574 -0.0420
 1401poe     o2 8168   2.139   6.405   3.434 -0.0523  0.3954  0.4620
 1401poe    c23 8169   2.035   6.310   3.445  0.3455 -0.1624 -0.4436
 1401poe    c23 8170   2.053   6.231   3.576 -0.1075 -0.2555 -0.4370
 1401poe     o2 8171   2.189   6.213   3.608 -0.3422 -0.7716  0.3146
 1401poe    c31 8172   2.224   6.134   3.719 -0.4185  0.2997  1.1141
 1402poe    c31 8173   0.095   4.856   1.939  0.6938 -0.5898  0.2649
 1402poe     o2 8174   0.109   4.995   1.962 -0.2478 -0.4841  0.2216
 1402poe    c23 8175   0.240   5.025   2.003 -0.2665 -0.2384  0.1004
 1402poe    c23 8176   0.281   5.172   1.981 -0.1627 -0.2703  0.0826
 1402poe     o2 8177   0.169   5.248   2.020 -0.0880 -0.0931 -0.0471
 1402poe    c23 8178   0.183   5.333   2.132 -0.1337  0.0917 -0.1798
 1402poe    c23 8179   0.074   5.436   2.100 -0.1540  0.1676  0.1297
 1402poe     o2 8180  -0.054   5.381   2.078 -0.0079 -0.3056  0.4562
 1402poe    c23 8181  -0.153   5.469   2.030  0.0280 -0.4070  0.1952
 1402poe    c23 8182  -0.285   5.393   2.007  0.2769 -0.7626 -0.0645
 1402poe     o2 8183  -0.303   5.330   1.882  0.0379 -0.1353 -0.3475
 1402poe    c31 8184  -0.427   5.263   1.890  0.2554 -0.4643  0.4251
 1403poe    c31 8185   4.636   4.731   0.048 -0.2269 -0.1339 -0.6762
 1403poe     o2 8186   4.540   4.629   0.035 -0.0940 -0.2902 -0.4387
 1403poe    c23 8187   4.421   4.688   0.083  0.2286  0.1245 -0.1470
 1403poe    c23 8188   4.331   4.568   0.115 -0.8603  0.7932 -0.6467
 1403poe     o2 8189   4.311   4.478   0.008  0.5574 -0.4245  0.0727
 1403poe    c23 8190   4.224   4.379   0.057 -0.7818  0.4995 -0.3823
 1403poe    c23 8191   4.205   4.259  -0.037 -0.3837  0.3804 -0.3142
 1403poe     o2 8192   4.326   4.187  -0.033 -0.7551 -0.2317  0.4192
 1403poe    c23 8193   4.317   4.059  -0.091  0.2398 -0.0498 -0.1608
 1403poe    c23 8194   4.454   3.988  -0.094  0.0276 -0.4635 -0.1090
 1403poe     o2 8195   4.540   4.090  -0.140 -0.4845 -0.0268 -0.1132
 1403poe    c31 8196   4.648   4.045  -0.219 -0.4774  0.4462 -0.3757
 1404poe    c31 8197   2.265   5.404   4.237  0.4193 -0.6180 -0.4348
 1404poe     o2 8198   2.228   5.399   4.101 -0.0940  0.0951 -0.3281
 1404poe    c23 8199   2.329   5.328   4.033 -0.3473 -1.0520  0.4625
 1404poe    c23 8200   2.295   5.338   3.883  0.3554 -0.0696  0.3598
 1404poe     o2 8201   2.155   5.323   3.872  0.3307  0.2715  0.1885
 1404poe    c23 8202   2.130   5.362   3.739 -0.2220  0.2754  0.2920
 1404poe    c23 8203   1.991   5.302   3.710  0.0672  0.0054 -0.5888
 1404poe     o2 8204   1.912   5.379   3.798 -0.1417  0.0622 -0.8249
 1404poe    c23 8205   1.776   5.368   3.763 -0.1566  0.3206 -0.8492
 1404poe    c23 8206   1.701   5.482   3.836  0.2491 -0.0083  0.0928
 1404poe     o2 8207   1.725   5.468   3.974 -0.1887 -0.3801  0.1350
 1404poe    c31 8208   1.686   5.585   4.042 -0.3687 -0.2982 -0.1073
 1405poe    c31 8209   3.112   3.020   0.877 -0.4991 -0.3843 -0.3763
 1405poe     o2 8210   3.148   2.920   0.970 -0.6335  0.2110  0.3271
 1405poe    c23 8211   3.210   2.974   1.084 -0.6837  0.0213  0.4430
 1405poe    c23 8212   3.267   2.867   1.180  0.5922  0.5123  0.2437
 1405poe     o2 8213   3.333   2.759   1.118 -0.7171 -0.0079 -0.2873
 1405poe    c23 8214   3.375   2.654   1.201  0.6109  0.3181 -0.5074
 1405poe    c23 8215   3.497   2.585   1.138  0.2628 -0.1845 -0.6450
 1405poe     o2 8216   3.470   2.584   1.000 -0.0832  0.2720 -0.5857
 1405poe    c23 8217   3.532   2.469   0.945 -0.3838 -0.5680  0.7868
 1405poe    c23 8218   3.471   2.463   0.803  0.4597 -0.1762  0.4042
 1405poe     o2 8219   3.466   2.591   0.743  0.3813 -0.5578 -0.4120
 1405poe    c31 8220   3.457   2.584   0.603 -0.8049 -0.4323 -0.3535
 1406poe    c31 8221   5.500   0.343   0.990  0.1480 -0.1387  0.1397
 1406poe     o2 8222   5.418   0.231   1.012 -0.0718 -0.0301 -0.1231
 1406poe    c23 8223   5.479   0.116   0.959 -0.0535 -0.1014  0.0529
 1406poe    c23 8224   5.361   0.020   0.936 -0.4934  0.4611 -0.0626
 1406poe     o2 8225   5.246   0.051   1.012 -0.3125  0.0835  0.3715
 1406poe    c23 8226   5.137  -0.039   1.020  0.1237 -0.5571 -0.6404
 1406poe    c23 8227   5.036  -0.019   1.134  0.4315  0.3311 -0.5146
 1406poe     o2 8228   4.976   0.108   1.149  0.6457  0.3788 -0.0425
 1406poe    c23 8229   4.863   0.100   1.233  0.3467  0.7217 -0.4114
 1406poe    c23 8230   4.800   0.239   1.257  0.1812  0.5824 -0.0321
 1406poe     o2 8231   4.895   0.304   1.338  0.5700 -0.2859  0.2217
 1406poe    c31 8232   4.847   0.430   1.380 -0.1532 -0.4420 -0.1179
 1407poe    c31 8233   3.441   3.201   3.406 -0.0762 -0.1257  0.0606
 1407poe     o2 8234   3.552   3.240   3.483  0.0172 -0.1188 -0.0792
 1407poe    c23 8235   3.604   3.115   3.523 -0.0118 -0.0388  0.2127
 1407poe    c23 8236   3.753   3.078   3.528 -0.1842 -0.7041  0.4904
 1407poe     o2 8237   3.813   3.148   3.634  0.1382 -0.3158  0.0583
 1407poe    c23 8238   3.953   3.157   3.625  0.0916  0.4849  0.0585
 1407poe    c23 8239   4.044   3.034   3.643  0.3203  0.6796  0.2399
 1407poe     o2 8240   4.019   2.966   3.764 -0.2792  0.5940  0.0709
 1407poe    c23 8241   4.115   2.867   3.792 -0.3232  0.5504  0.0691
 1407poe    c23 8242   4.105   2.836   3.942  0.1698  0.1269  0.0176
 1407poe     o2 8243   4.168   2.722   3.998 -0.0412  0.0849  0.1737
 1407poe    c31 8244   4.080   2.611   4.002  0.1734 -0.0882  0.0839
 1408poe    c31 8245   5.887   3.837   5.182  0.0184 -0.2510 -0.3669
 1408poe     o2 8246   5.820   3.800   5.300  0.5605 -0.1406 -0.0175
 1408poe    c23 8247   5.731   3.898   5.349 -0.1679 -0.6033 -0.4029
 1408poe    c23 8248   5.627   3.838   5.446 -0.0020  0.0092  0.1618
 1408poe     o2 8249   5.701   3.779   5.550 -0.2121  0.1267  0.3777
 1408poe    c23 8250   5.619   3.705   5.638 -0.3444  0.1526  0.2752
 1408poe    c23 8251   5.712   3.624   5.730  0.1323 -0.2394 -0.5392
 1408poe     o2 8252   5.805   3.552   5.651 -0.1892 -0.3484 -0.8197
 1408poe    c23 8253   5.891   3.472   5.729  0.6503  0.8442 -0.4833
 1408poe    c23 8254   5.958   3.374   5.630 -0.7569 -0.1345 -0.5045
 1408poe     o2 8255   6.016   3.458   5.533 -0.3697  0.3001  0.0941
 1408poe    c31 8256   6.115   3.383   5.467 -0.8689 -0.1573 -0.1397
 1409poe    c31 8257   6.799   3.426   1.299  0.0661 -0.0304  0.1424
 1409poe     o2 8258   6.773   3.430   1.160  0.4333  0.2500  0.0812
 1409poe    c23 8259   6.833   3.547   1.109  0.4167  0.3518  0.2922
 1409poe    c23 8260   6.873   3.524   0.962  0.2830  0.5144  0.2301
 1409poe     o2 8261   6.754   3.469   0.910  0.5033 -0.3948  0.6676
 1409poe    c23 8262   6.778   3.437   0.775 -0.7835 -0.2948  0.3973
 1409poe    c23 8263   6.654   3.386   0.699 -0.5219 -0.0466 -0.2053
 1409poe     o2 8264   6.577   3.305   0.785  0.8267 -0.6430  0.4909
 1409poe    c23 8265   6.481   3.225   0.719 -0.3213  0.3516  0.9026
 1409poe    c23 8266   6.397   3.142   0.817 -0.1580 -0.4625  0.3650
 1409poe     o2 8267   6.477   3.067   0.906  0.9048  0.0763 -0.1243
 1409poe    c31 8268   6.401   2.972   0.977  0.4816  0.7571  0.3510
 1410poe    c31 8269   4.783   6.103   4.352  0.3889 -0.2831  0.0072
 1410poe     o2 8270   4.880   6.019   4.294 -0.0156 -0.3944 -0.5197
 1410poe    c23 8271   4.872   5.890   4.350  0.1467 -0.1227  0.1399
 1410poe    c23 8272   4.963   5.791   4.276  0.3018 -0.1190  0.3254
 1410poe     o2 8273   5.075   5.863   4.228 -0.2331  0.2858 -0.3243
 1410poe    c23 8274   5.192   5.786   4.239 -0.4624 -0.0611 -0.2805
 1410poe    c23 8275   5.312   5.850   4.166 -0.2104 -0.0637  0.1332
 1410poe     o2 8276   5.341   5.965   4.242  0.1139 -0.4136  0.5445
 1410poe    c23 8277   5.456   6.030   4.193 -0.4604  0.0796 -0.1752
 1410poe    c23 8278   5.476   6.171   4.252 -0.5873 -0.1963  0.5356
 1410poe     o2 8279   5.380   6.269   4.220  0.3263  0.3534 -0.5746
 1410poe    c31 8280   5.418   6.401   4.254 -0.0082  0.1886  0.4987
 1411poe    c31 8281   3.942   2.311   2.905 -0.1572 -0.2676 -0.0188
 1411poe     o2 8282   3.984   2.181   2.869 -0.1624 -0.3676  0.3366
 1411poe    c23 8283   3.908   2.082   2.935 -0.6518 -0.1657  0.0806
 1411poe    c23 8284   3.952   1.946   2.877 -0.0962  0.1540 -0.2610
 1411poe     o2 8285   3.944   1.960   2.737  0.1883 -0.0423 -0.2968
 1411poe    c23 8286   4.062   1.891   2.701  0.2726 -0.1233  0.1372
 1411poe    c23 8287   4.069   1.876   2.548 -0.0779  0.6682  0.0373
 1411poe     o2 8288   3.940   1.848   2.498  0.1658  0.0732 -0.2679
 1411poe    c23 8289   3.951   1.896   2.366  0.0769 -0.0779 -0.3302
 1411poe    c23 8290   3.814   1.893   2.296 -0.0872 -0.1760 -0.0060
 1411poe     o2 8291   3.738   1.972   2.384  0.0480 -0.3309  0.2518
 1411poe    c31 8292   3.604   1.989   2.341  0.1108 -0.5560 -0.0369
 1412poe    c31 8293   1.669   1.070   3.302  0.1416 -0.5480  0.1180
 1412poe     o2 8294   1.554   1.066   3.383  0.2192 -0.2586  0.2434
 1412poe    c23 8295   1.501   0.938   3.360  0.4621 -0.1668 -0.8719
 1412poe    c23 8296   1.415   0.905   3.483  0.5710  0.6143 -0.5850
 1412poe     o2 8297   1.315   1.002   3.504  0.2986  0.2702 -0.2826
 1412poe    c23 8298   1.256   1.012   3.632  0.3887 -0.1366 -0.2088
 1412poe    c23 8299   1.168   1.138   3.631  0.2029 -0.2536  0.5935
 1412poe     o2 8300   1.230   1.236   3.551 -0.8836 -0.5285 -0.6381
 1412poe    c23 8301   1.177   1.367   3.560 -0.2907 -0.2989 -0.3775
 1412poe    c23 8302   1.275   1.485   3.559  0.2011 -0.6999 -0.2890
 1412poe     o2 8303   1.323   1.487   3.426 -0.6027  0.3570 -0.5786
 1412poe    c31 8304   1.409   1.599   3.420 -0.0775 -0.0486 -0.6698
 1413poe    c31 8305   6.024   1.280   0.392  0.0550  0.1808  0.0851
 1413poe     o2 8306   6.101   1.165   0.421 -0.0900  0.0233 -0.1588
 1413poe    c23 8307   6.138   1.089   0.308 -0.4180 -0.5840  0.1350
 1413poe    c23 8308   6.249   0.993   0.354  0.0391 -0.2219 -0.2024
 1413poe     o2 8309   6.217   0.971   0.489  0.0879  0.2815 -0.1073
 1413poe    c23 8310   6.284   0.852   0.525 -0.3151 -0.0422 -0.4109
 1413poe    c23 8311   6.366   0.871   0.655 -0.2067 -0.5663 -0.4018
 1413poe     o2 8312   6.274   0.862   0.762  0.1313  0.2496 -0.0385
 1413poe    c23 8313   6.314   0.923   0.883 -0.5924  0.4632  0.0974
 1413poe    c23 8314   6.204   0.921   0.990 -0.4793  0.1784  0.2077
 1413poe     o2 8315   6.198   0.792   1.047  0.6238  0.2045  0.4135
 1413poe    c31 8316   6.081   0.776   1.124  0.0976 -0.6400 -0.5307
 1414poe    c31 8317   0.094   2.169   3.855  0.5787  0.1222  0.0228
 1414poe     o2 8318   0.044   2.044   3.815  0.3212  0.4562 -0.7098
 1414poe    c23 8319  -0.096   2.037   3.834  0.5041 -0.1059  0.5123
 1414poe    c23 8320  -0.139   1.889   3.824  0.8514 -0.1681 -0.1729
 1414poe     o2 8321  -0.051   1.831   3.917 -0.1344 -0.1431  0.8034
 1414poe    c23 8322  -0.085   1.707   3.975  0.3967 -0.3623  0.6562
 1414poe    c23 8323  -0.033   1.594   3.885 -0.0438 -0.3688  0.4055
 1414poe     o2 8324   0.108   1.601   3.889 -0.0561  0.3039 -0.1857
 1414poe    c23 8325   0.174   1.495   3.824 -0.1371  0.3954 -0.4195
 1414poe    c23 8326   0.316   1.552   3.803 -0.0603  0.4897  0.3368
 1414poe     o2 8327   0.319   1.645   3.697 -0.2783 -0.0496 -0.1471
 1414poe    c31 8328   0.366   1.590   3.576  0.0778 -0.6961  0.2787
 1415poe    c31 8329   0.188   5.933   2.088 -0.1394  0.3206 -0.8488
 1415poe     o2 8330   0.212   5.906   2.225 -0.5375 -0.2506 -0.8880
 1415poe    c23 8331   0.349   5.927   2.247 -0.6949 -0.5052  0.3947
 1415poe    c23 8332   0.388   5.856   2.379  0.7138  0.1417  0.3475
 1415poe     o2 8333   0.373   5.716   2.384 -0.5408  0.2453 -0.0769
 1415poe    c23 8334   0.487   5.647   2.429 -0.5670  0.1631 -0.1364
 1415poe    c23 8335   0.457   5.518   2.507  0.3984  0.2394  0.3813
 1415poe     o2 8336   0.415   5.538   2.640  0.2034  0.0006  0.3557
 1415poe    c23 8337   0.364   5.419   2.697 -0.1393 -0.0519 -0.0510
 1415poe    c23 8338   0.338   5.422   2.849  0.5087  0.5173  0.0559
 1415poe     o2 8339   0.300   5.554   2.882  0.0075  0.3407  0.2023
 1415poe    c31 8340   0.244   5.563   3.011 -0.3079 -0.1834  0.1061
 1416poe    c31 8341   4.333   1.254   3.514 -0.4647  0.1702 -0.3234
 1416poe     o2 8342   4.215   1.319   3.554 -0.3907 -0.0430  0.2437
 1416poe    c23 8343   4.233   1.428   3.642 -0.0957 -0.4009  0.6341
 1416poe    c23 8344   4.095   1.470   3.698 -0.2670  0.5116 -0.4288
 1416poe     o2 8345   4.038   1.360   3.766  0.4687 -0.0499 -0.7055
 1416poe    c23 8346   3.910   1.386   3.819  0.4422 -0.1772 -0.7079
 1416poe    c23 8347   3.817   1.266   3.792 -0.3868  0.4118 -0.5106
 1416poe     o2 8348   3.809   1.241   3.654  0.3546 -0.3685 -0.4248
 1416poe    c23 8349   3.690   1.182   3.606  0.1158 -0.1739 -0.0747
 1416poe    c23 8350   3.627   1.060   3.677 -0.7916  0.3250 -0.0199
 1416poe     o2 8351   3.697   0.942   3.645 -0.7251  0.2788  0.2906
 1416poe    c31 8352   3.631   0.833   3.704  0.1302 -0.2561  0.2782
 1417poe    c31 8353   1.598   4.771   4.078 -0.1296 -0.0048 -0.1540
 1417poe     o2 8354   1.674   4.807   4.192 -0.1170 -0.5438  0.0084
 1417poe    c23 8355   1.698   4.945   4.207 -0.1147 -0.5410 -0.0170
 1417poe    c23 8356   1.844   4.996   4.213 -0.1053 -0.5770  0.0595
 1417poe     o2 8357   1.896   4.973   4.342 -0.1403  0.1041  0.1980
 1417poe    c23 8358   2.035   4.994   4.333 -0.1974  0.2203 -0.4210
 1417poe    c23 8359   2.086   5.027   4.474  0.0051 -0.3526 -0.3565
 1417poe     o2 8360   2.029   4.924   4.551 -0.1118  0.0871  0.1541
 1417poe    c23 8361   2.052   4.946   4.688  0.2552  0.4172  0.0427
 1417poe    c23 8362   1.989   4.829   4.766 -0.0725  0.7830  0.3391
 1417poe     o2 8363   1.867   4.791   4.706  0.0640 -0.0935  0.6036
 1417poe    c31 8364   1.807   4.679   4.768  0.1757 -0.0067  0.8688
 1418poe    c31 8365   2.007   3.838   6.989 -0.5150  0.1243  0.6556
 1418poe     o2 8366   2.044   3.702   6.995  0.1867  0.2720 -0.1497
 1418poe    c23 8367   1.950   3.631   7.071  0.2212  0.3491 -0.0353
 1418poe    c23 8368   1.867   3.529   6.991  0.0523 -0.0740  0.6689
 1418poe     o2 8369   1.940   3.415   6.951 -0.0397  0.1691 -0.2121
 1418poe    c23 8370   1.840   3.323   6.912 -0.2571  0.0534  0.6047
 1418poe    c23 8371   1.894   3.187   6.866  0.0801  0.1082  0.8315
 1418poe     o2 8372   2.016   3.215   6.802 -0.0290 -0.1929  0.4845
 1418poe    c23 8373   2.092   3.104   6.760 -0.1635 -0.0707 -0.0857
 1418poe    c23 8374   2.213   3.172   6.692 -0.4967  0.5631 -0.0511
 1418poe     o2 8375   2.260   3.276   6.775  0.2422  0.1257  0.0845
 1418poe    c31 8376   2.400   3.285   6.785  0.2168  0.5530  0.0765
 1419poe    c31 8377   1.096   4.607   3.891 -0.0120  0.1879  0.7611
 1419poe     o2 8378   1.117   4.747   3.888  0.0539  0.1595 -0.5420
 1419poe    c23 8379   1.248   4.786   3.856 -0.0758  0.4072 -0.7771
 1419poe    c23 8380   1.261   4.935   3.894 -0.5578  0.3434 -0.3407
 1419poe     o2 8381   1.132   4.989   3.899 -0.6613  0.0166  0.6448
 1419poe    c23 8382   1.124   5.130   3.893  0.0085  0.0240 -0.1008
 1419poe    c23 8383   0.995   5.188   3.954  0.0859  0.5769 -0.4507
 1419poe     o2 8384   0.895   5.099   3.908  0.3639  0.1199 -0.1783
 1419poe    c23 8385   0.770   5.164   3.911  0.3090 -0.0092  0.4330
 1419poe    c23 8386   0.660   5.065   3.953 -0.0745  0.2106 -0.0448
 1419poe     o2 8387   0.648   4.968   3.852  0.0240  0.5861 -0.4210
 1419poe    c31 8388   0.526   4.898   3.866  0.3043  0.2484  0.3897
 1420poe    c31 8389   3.099   0.151   4.157 -0.2395 -0.3662  0.0890
 1420poe     o2 8390   3.111   0.067   4.044  0.3844 -0.2366  0.0537
 1420poe    c23 8391   2.982   0.013   4.027  0.2375  0.1415 -0.0383
 1420poe    c23 8392   2.957  -0.042   3.885 -0.2611 -0.1349  0.1550
 1420poe     o2 8393   3.026  -0.165   3.881 -0.0874 -0.0270 -0.2061
 1420poe    c23 8394   3.039  -0.219   3.752  0.1602 -0.0105 -0.1889
 1420poe    c23 8395   3.118  -0.350   3.741  0.3695  0.0998  0.0059
 1420poe     o2 8396   3.236  -0.338   3.817 -0.3292 -0.4670  1.2166
 1420poe    c23 8397   3.326  -0.436   3.771 -0.4144 -0.2280  0.5414
 1420poe    c23 8398   3.460  -0.390   3.831 -0.4003 -0.1205  0.4289
 1420poe     o2 8399   3.449  -0.323   3.954  0.2983  0.2639  0.2920
 1420poe    c31 8400   3.570  -0.300   4.022  0.6128  0.7170 -0.4201
 1421poe    c31 8401   3.418   3.825   6.790  0.5043 -0.3094  0.1413
 1421poe     o2 8402   3.327   3.741   6.722  0.0585  0.0912  0.2352
 1421poe    c23 8403   3.403   3.674   6.624 -0.3272 -0.1883  0.1248
 1421poe    c23 8404   3.317   3.599   6.521 -0.2396  0.0570 -0.1262
 1421poe     o2 8405   3.193   3.577   6.584 -0.2220  0.0232 -0.1035
 1421poe    c23 8406   3.093   3.527   6.499 -0.1306 -0.3251 -0.0097
 1421poe    c23 8407   2.975   3.472   6.582 -0.4601  0.0923 -0.1957
 1421poe     o2 8408   2.956   3.579   6.671 -0.1172  0.5932 -0.7149
 1421poe    c23 8409   2.820   3.591   6.706  0.0107 -0.0280  0.0058
 1421poe    c23 8410   2.750   3.699   6.623 -0.1274 -0.0541  0.0868
 1421poe     o2 8411   2.834   3.812   6.608  0.0155 -0.1869 -0.1213
 1421poe    c31 8412   2.769   3.919   6.544 -0.2388  0.2263  0.8069
 1422poe    c31 8413   4.335   6.033   0.432 -0.0184  0.1270  0.5951
 1422poe     o2 8414   4.401   6.126   0.515  0.3573  0.2556  0.1569
 1422poe    c23 8415   4.309   6.209   0.582 -0.1389  0.3686 -0.6530
 1422poe    c23 8416   4.388   6.297   0.681  0.1220 -0.6079  0.0244
 1422poe     o2 8417   4.523   6.319   0.645 -0.0136  0.5967  0.2116
 1422poe    c23 8418   4.612   6.366   0.744  0.3314  0.1161  0.1339
 1422poe    c23 8419   4.740   6.402   0.668  0.3315 -0.5892 -0.2081
 1422poe     o2 8420   4.782   6.309   0.570 -0.2768 -0.6481 -0.4175
 1422poe    c23 8421   4.920   6.314   0.543 -0.1824 -0.1726  0.1201
 1422poe    c23 8422   4.954   6.212   0.433 -0.3554  0.2779 -0.3551
 1422poe     o2 8423   4.877   6.245   0.319 -0.2480 -0.1454 -0.5553
 1422poe    c31 8424   4.885   6.140   0.225 -0.2761 -0.4534 -0.2160
 1423poe    c31 8425   0.644   2.877   0.948 -0.8993 -0.0628  0.2978
 1423poe     o2 8426   0.629   2.855   0.810 -0.7730  0.9127  0.1219
 1423poe    c23 8427   0.691   2.955   0.732  0.3803  0.0364 -0.1207
 1423poe    c23 8428   0.613   2.981   0.602 -0.1001 -0.3138  0.0923
 1423poe     o2 8429   0.474   2.966   0.618 -0.0548 -0.6681  0.1673
 1423poe    c23 8430   0.405   2.968   0.495 -0.0799  0.1352  0.1891
 1423poe    c23 8431   0.263   2.912   0.511 -0.0144 -0.1496 -0.2062
 1423poe     o2 8432   0.281   2.792   0.583 -0.5064 -0.0286  0.1223
 1423poe    c23 8433   0.192   2.687   0.555 -0.0273 -0.4712  0.2532
 1423poe    c23 8434   0.137   2.626   0.686 -0.5765  0.1053  0.2950
 1423poe     o2 8435   0.231   2.529   0.726 -0.0098  0.5520  0.0554
 1423poe    c31 8436   0.177   2.465   0.840  0.1450 -0.0349 -0.1956
 1424poe    c31 8437   3.492   6.465   0.943 -0.3325  0.2311 -0.1648
 1424poe     o2 8438   3.353   6.483   0.957 -0.4317 -0.3907 -0.3154
 1424poe    c23 8439   3.285   6.374   1.015  0.0371 -0.0748  0.8765
 1424poe    c23 8440   3.134   6.399   1.024 -0.0662 -0.2323 -0.2344
 1424poe     o2 8441   3.084   6.414   0.893 -0.1706 -0.2213 -0.1936
 1424poe    c23 8442   2.944   6.434   0.892 -0.1610 -0.1454 -0.0718
 1424poe    c23 8443   2.922   6.586   0.902 -0.4844 -0.1537 -0.6377
 1424poe     o2 8444   2.986   6.647   0.793  0.4382 -0.5348 -0.3162
 1424poe    c23 8445   2.891   6.721   0.719  0.0674 -0.5276  0.1633
 1424poe    c23 8446   2.965   6.821   0.629 -0.6192 -0.3648 -0.2263
 1424poe     o2 8447   3.071   6.742   0.579 -0.4668 -0.0085 -0.4698
 1424poe    c31 8448   3.177   6.799   0.505 -0.0170  0.0043  0.1816
 1425poe    c31 8449   1.816   4.882   1.033  0.1357  0.0144  0.3348
 1425poe     o2 8450   1.952   4.868   1.069  0.1771  0.1664  0.2417
 1425poe    c23 8451   1.970   4.889   1.208 -0.0082  0.0778  0.2800
 1425poe    c23 8452   2.042   5.018   1.251 -0.3051  0.2147  0.3681
 1425poe     o2 8453   2.172   5.043   1.202 -0.0669 -0.4138  0.6609
 1425poe    c23 8454   2.232   5.152   1.268 -0.2490  0.0466  0.0824
 1425poe    c23 8455   2.382   5.163   1.236 -0.2329  0.3102  0.2494
 1425poe     o2 8456   2.444   5.044   1.279 -0.2424  0.0744 -0.3817
 1425poe    c23 8457   2.584   5.045   1.294 -0.2556  0.0427 -0.2607
 1425poe    c23 8458   2.617   4.911   1.362  0.4176  0.2421 -0.1853
 1425poe     o2 8459   2.549   4.812   1.288  0.0540 -0.1880  0.7095
 1425poe    c31 8460   2.621   4.693   1.308  0.9574  0.2635  0.2369
 1426poe    c31 8461   0.740   3.698   6.440 -1.0882  0.1242 -0.1983
 1426poe     o2 8462   0.782   3.564   6.425  0.1032  0.4603  0.0468
 1426poe    c23 8463   0.827   3.530   6.296 -0.6189 -0.5695  0.0549
 1426poe    c23 8464   0.891   3.393   6.269 -0.3723 -0.3396 -0.5621
 1426poe     o2 8465   1.021   3.385   6.321 -0.6367 -0.0897  0.1473
 1426poe    c23 8466   1.096   3.272   6.284  0.5827  0.6352  0.3371
 1426poe    c23 8467   1.244   3.311   6.262  0.5331  0.3388 -0.6032
 1426poe     o2 8468   1.239   3.376   6.137  0.0783  0.4440 -0.5338
 1426poe    c23 8469   1.315   3.495   6.146  0.6983  0.0238 -0.1178
 1426poe    c23 8470   1.323   3.553   6.003  0.3788 -0.2933 -0.2673
 1426poe     o2 8471   1.334   3.449   5.909 -0.1169 -0.5004 -0.1005
 1426poe    c31 8472   1.360   3.510   5.785 -0.5988  0.3829  0.2201
 1427poe    c31 8473   5.629   4.644   5.545 -0.4043  0.4356  0.3960
 1427poe     o2 8474   5.566   4.522   5.578 -0.2776  0.1877 -0.2494
 1427poe    c23 8475   5.524   4.523   5.713 -0.0273 -0.0893 -0.1675
 1427poe    c23 8476   5.446   4.392   5.729 -0.4921  0.2340  0.2282
 1427poe     o2 8477   5.372   4.371   5.611 -0.1435 -0.1917  0.0821
 1427poe    c23 8478   5.309   4.246   5.626  0.5916 -0.5797 -0.0160
 1427poe    c23 8479   5.207   4.223   5.513  0.0961  0.3691  0.2238
 1427poe     o2 8480   5.266   4.229   5.385  0.2318  0.6935  0.3007
 1427poe    c23 8481   5.171   4.231   5.281  0.5005  0.7687  0.0567
 1427poe    c23 8482   5.215   4.238   5.133 -0.0433  0.5351 -0.1202
 1427poe     o2 8483   5.293   4.136   5.075  0.0136  0.6783 -0.2939
 1427poe    c31 8484   5.339   4.190   4.953  0.0135  0.4649 -0.3889
 1428poe    c31 8485   5.012   5.077   5.653 -0.7040  0.1573  0.0874
 1428poe     o2 8486   4.970   5.201   5.601 -0.7534 -0.0788 -0.4497
 1428poe    c23 8487   5.027   5.232   5.476 -0.1990  0.6347 -0.0312
 1428poe    c23 8488   4.954   5.172   5.354 -0.0696  0.3895  0.0112
 1428poe     o2 8489   4.824   5.227   5.347 -0.2659 -0.1039 -0.2315
 1428poe    c23 8490   4.755   5.141   5.259 -0.4581 -0.1618 -0.0265
 1428poe    c23 8491   4.613   5.141   5.318 -0.4891 -0.8941 -0.0949
 1428poe     o2 8492   4.573   5.276   5.328  0.6327 -0.5456 -0.1646
 1428poe    c23 8493   4.455   5.288   5.404  0.4293 -0.0436 -0.5570
 1428poe    c23 8494   4.453   5.439   5.434 -0.4538 -0.1842  0.1191
 1428poe     o2 8495   4.562   5.478   5.513 -0.4124 -0.1139  0.0267
 1428poe    c31 8496   4.533   5.610   5.554 -0.7482 -0.1942  0.0488
 1429poe    c31 8497   3.733   0.074   2.228  0.2587  0.4018 -0.3818
 1429poe     o2 8498   3.755   0.115   2.361  0.2459 -0.2017 -0.1924
 1429poe    c23 8499   3.635   0.146   2.428  0.0750  0.1123 -0.6450
 1429poe    c23 8500   3.661   0.131   2.579  0.0932 -0.4974 -0.7070
 1429poe     o2 8501   3.701   0.001   2.616  0.4831 -0.1420  0.1580
 1429poe    c23 8502   3.680  -0.031   2.751  0.4059  0.2947  0.2512
 1429poe    c23 8503   3.736  -0.170   2.789  0.1910  0.1158 -0.0812
 1429poe     o2 8504   3.867  -0.164   2.737 -0.0664 -0.1047 -0.7605
 1429poe    c23 8505   3.939  -0.284   2.752 -0.2954 -0.1015  0.4477
 1429poe    c23 8506   4.062  -0.288   2.659 -0.3619 -0.2813  0.3688
 1429poe     o2 8507   4.012  -0.283   2.527  0.4624  1.0880  0.0966
 1429poe    c31 8508   4.117  -0.279   2.433 -0.0846  0.2645 -0.5594
 1430poe    c31 8509   1.070   2.526   2.423  0.1697  0.2175  0.0744
 1430poe     o2 8510   1.183   2.571   2.495  0.1422 -0.2285  0.4010
 1430poe    c23 8511   1.256   2.672   2.429 -0.2302  0.0085  0.3453
 1430poe    c23 8512   1.407   2.657   2.455 -0.0985  0.1380 -0.3217
 1430poe     o2 8513   1.449   2.671   2.589 -0.5804 -0.1161 -0.1431
 1430poe    c23 8514   1.582   2.713   2.608 -0.4891 -0.3254 -0.3043
 1430poe    c23 8515   1.610   2.726   2.759 -0.5678 -0.0265 -0.3144
 1430poe     o2 8516   1.588   2.611   2.837  0.0428  0.3850  0.4774
 1430poe    c23 8517   1.631   2.646   2.967  0.6990  0.3507  0.2761
 1430poe    c23 8518   1.597   2.534   3.067  0.6530  0.0734 -0.0493
 1430poe     o2 8519   1.460   2.509   3.087  0.6954 -0.3065 -0.2180
 1430poe    c31 8520   1.416   2.401   3.167 -0.2303  0.1867 -0.0484
 1431poe    c31 8521   4.400   5.426   4.605 -0.0186 -0.2615 -0.8392
 1431poe     o2 8522   4.283   5.419   4.683  0.2478  0.0311 -0.4108
 1431poe    c23 8523   4.284   5.527   4.774  0.0931  0.3639 -0.8023
 1431poe    c23 8524   4.146   5.583   4.814  0.1512  0.0327 -0.1303
 1431poe     o2 8525   4.080   5.472   4.871  0.0343  0.2632  0.1894
 1431poe    c23 8526   3.978   5.504   4.963  0.2544  0.6072  0.3149
 1431poe    c23 8527   3.925   5.376   5.029 -0.7566  0.8214 -0.0592
 1431poe     o2 8528   3.858   5.312   4.923 -0.1943 -0.1644  0.1621
 1431poe    c23 8529   3.785   5.198   4.963 -0.7471 -0.0695 -0.5452
 1431poe    c23 8530   3.869   5.070   4.949 -0.2410  0.1756  0.1874
 1431poe     o2 8531   3.883   5.026   4.816 -0.0104  0.4119  0.1312
 1431poe    c31 8532   3.915   4.891   4.838  0.1149  0.3291 -0.5219
 1432poe    c31 8533   3.417   6.131   5.897  1.2737 -0.2216  0.1760
 1432poe     o2 8534   3.342   6.236   5.955  0.1953 -0.6368 -0.4410
 1432poe    c23 8535   3.232   6.192   6.030  0.3046 -0.1220  0.0284
 1432poe    c23 8536   3.142   6.316   6.050  0.2951 -0.0254 -0.5736
 1432poe     o2 8537   3.237   6.413   6.087  0.4474 -0.3837  0.0048
 1432poe    c23 8538   3.169   6.534   6.116  0.4109 -0.2354 -0.6933
 1432poe    c23 8539   3.276   6.640   6.148  0.1258 -0.0301 -0.4144
 1432poe     o2 8540   3.397   6.598   6.089  0.0703 -0.0657 -0.5033
 1432poe    c23 8541   3.499   6.695   6.094  0.0178 -0.0538  0.6222
 1432poe    c23 8542   3.638   6.659   6.038 -0.0291  0.0794  0.4217
 1432poe     o2 8543   3.704   6.555   6.107 -0.1630 -0.3619 -0.1062
 1432poe    c31 8544   3.835   6.550   6.056 -0.2635 -0.1927 -0.3886
 1433poe    c31 8545   0.653   7.031   2.126 -0.6021  0.9526  0.1512
 1433poe     o2 8546   0.596   7.034   1.997 -0.3774 -0.3225  0.0096
 1433poe    c23 8547   0.637   6.930   1.912  0.4179  0.2501 -0.3152
 1433poe    c23 8548   0.562   6.937   1.778  0.1884  0.1611 -0.1910
 1433poe     o2 8549   0.423   6.956   1.797  0.2239 -0.4538  0.7278
 1433poe    c23 8550   0.352   6.846   1.746  0.1705  0.0721 -0.3641
 1433poe    c23 8551   0.205   6.840   1.792  0.2295  0.0289 -0.1767
 1433poe     o2 8552   0.196   6.851   1.932  0.0363 -0.2271 -0.1694
 1433poe    c23 8553   0.072   6.913   1.958 -0.0748 -0.4853 -0.0783
 1433poe    c23 8554   0.021   6.914   2.104 -0.2083 -0.1552 -0.1263
 1433poe     o2 8555   0.131   6.923   2.192 -0.0810 -0.7329 -0.2202
 1433poe    c31 8556   0.118   6.928   2.332  0.6747  0.1453 -0.1653
 1434poe    c31 8557   1.164   1.257   5.988 -0.0887 -0.9704  0.2820
 1434poe     o2 8558   1.073   1.364   6.001  0.1668 -0.6472 -0.5592
 1434poe    c23 8559   1.153   1.478   5.979 -0.0794 -0.3301  0.1602
 1434poe    c23 8560   1.111   1.594   6.071  0.6038  0.1146 -0.0831
 1434poe     o2 8561   0.980   1.638   6.041  0.7647  0.6732  0.0199
 1434poe    c23 8562   0.939   1.753   6.112 -0.1001  0.4522 -0.1059
 1434poe    c23 8563   0.795   1.774   6.064 -0.2108 -0.1694 -0.0560
 1434poe     o2 8564   0.719   1.657   6.045 -0.1911 -0.2092  0.1108
 1434poe    c23 8565   0.584   1.685   6.013 -0.1918  0.0774  0.3635
 1434poe    c23 8566   0.534   1.563   5.934 -0.4813  0.4247  0.0034
 1434poe     o2 8567   0.637   1.517   5.850 -0.2538 -0.3977  0.7110
 1434poe    c31 8568   0.592   1.440   5.740 -0.0607  0.2841  0.1449
 1435poe    c31 8569   6.424   3.418   1.415 -0.6253  0.5788 -0.1441
 1435poe     o2 8570   6.427   3.362   1.544  0.1440  0.3737 -0.2497
 1435poe    c23 8571   6.455   3.466   1.635  0.3859  0.1989 -0.1194
 1435poe    c23 8572   6.469   3.435   1.785  1.2605  1.0953 -0.0020
 1435poe     o2 8573   6.565   3.335   1.807  0.1722  0.0243 -0.0127
 1435poe    c23 8574   6.702   3.367   1.795  0.1301  0.2804  0.1920
 1435poe    c23 8575   6.787   3.241   1.821 -0.1384  0.0833  0.1161
 1435poe     o2 8576   6.721   3.128   1.769  0.0799  0.0304 -0.0468
 1435poe    c23 8577   6.790   3.012   1.809  0.2376  0.3579  0.6597
 1435poe    c23 8578   6.714   2.895   1.744  0.3197  0.6999 -0.0621
 1435poe     o2 8579   6.580   2.915   1.785  0.4879  0.2849  0.7147
 1435poe    c31 8580   6.497   2.816   1.730  0.0762  0.6748  0.6314
 1436poe    c31 8581   6.497   5.730   6.036 -0.3583  0.0187 -0.1722
 1436poe     o2 8582   6.534   5.859   5.993 -0.4128  0.1452  0.1573
 1436poe    c23 8583   6.631   5.849   5.892 -0.0470  0.8089  0.4366
 1436poe    c23 8584   6.718   5.976   5.890  0.4060  0.4972  0.2930
 1436poe     o2 8585   6.638   6.092   5.894  0.3568  0.4660  0.2018
 1436poe    c23 8586   6.719   6.203   5.864  0.1587  0.5011 -0.2120
 1436poe    c23 8587   6.670   6.309   5.964  0.1527 -0.1737  0.5134
 1436poe     o2 8588   6.529   6.318   5.966  0.1051 -0.4683 -0.5120
 1436poe    c23 8589   6.497   6.407   6.071  0.5561  0.0762 -0.8255
 1436poe    c23 8590   6.345   6.431   6.084  0.4749 -0.4335 -0.7781
 1436poe     o2 8591   6.251   6.326   6.085 -0.0140 -0.0010  0.1960
 1436poe    c31 8592   6.126   6.359   6.141 -0.0322 -0.1697  0.2538
 1437poe    c31 8593   4.729   5.485   1.655  0.3030 -0.3099  0.6053
 1437poe     o2 8594   4.595   5.504   1.616  0.4088 -0.1308  0.3302
 1437poe    c23 8595   4.520   5.562   1.720  0.0513  0.0690 -0.0362
 1437poe    c23 8596   4.458   5.700   1.688 -0.2456 -0.0985 -0.1890
 1437poe     o2 8597   4.352   5.668   1.601 -0.0732 -1.4930  0.0791
 1437poe    c23 8598   4.315   5.788   1.537 -0.1140 -1.2968  0.4623
 1437poe    c23 8599   4.192   5.762   1.448  0.1487  1.1225 -0.6942
 1437poe     o2 8600   4.226   5.661   1.356 -0.7798 -0.0819  0.2495
 1437poe    c23 8601   4.134   5.673   1.250 -0.3179 -0.1133 -0.1569
 1437poe    c23 8602   4.169   5.566   1.145  0.1110  0.0049 -0.1381
 1437poe     o2 8603   4.250   5.462   1.195  0.0595  0.0164 -0.0290
 1437poe    c31 8604   4.289   5.363   1.102  0.2111 -0.1246  0.1848
 1438poe    c31 8605   5.975   2.719   3.618 -0.4052  0.2097  0.0034
 1438poe     o2 8606   5.839   2.698   3.651 -0.2423 -0.6523  0.1680
 1438poe    c23 8607   5.756   2.703   3.537 -0.1153  0.6363  0.1080
 1438poe    c23 8608   5.608   2.709   3.579 -0.1674  0.6382 -0.0749
 1438poe     o2 8609   5.604   2.648   3.706  0.4490  0.0762 -0.3213
 1438poe    c23 8610   5.475   2.628   3.761  0.6955 -0.1436  0.1859
 1438poe    c23 8611   5.457   2.551   3.893 -0.5776 -0.1178  0.0380
 1438poe     o2 8612   5.563   2.603   3.971 -0.0150 -0.6263 -0.3734
 1438poe    c23 8613   5.551   2.551   4.101 -0.4184  0.0347 -0.1417
 1438poe    c23 8614   5.690   2.535   4.165 -0.0895  0.1672 -0.8110
 1438poe     o2 8615   5.753   2.660   4.186  0.2835 -0.0521 -0.6156
 1438poe    c31 8616   5.890   2.637   4.209  0.1755 -0.3223 -0.2159
 1439poe    c31 8617   3.328   0.689   1.080  0.5031  0.3327  0.0126
 1439poe     o2 8618   3.301   0.683   0.942  0.2588  0.9240  0.0305
 1439poe    c23 8619   3.428   0.670   0.881  0.0622  0.1707 -0.2318
 1439poe    c23 8620   3.425   0.658   0.728 -0.4360  0.1275 -0.2203
 1439poe     o2 8621   3.323   0.753   0.707 -0.2417  0.3917  0.0284
 1439poe    c23 8622   3.260   0.738   0.582 -0.2788 -0.7928  0.1763
 1439poe    c23 8623   3.145   0.839   0.568  0.4819  0.1098  0.3470
 1439poe     o2 8624   3.068   0.815   0.684 -0.7061  0.3191 -0.3777
 1439poe    c23 8625   2.937   0.852   0.647 -0.5789  1.2193  0.0511
 1439poe    c23 8626   2.824   0.804   0.741  0.3992 -0.1097  0.5830
 1439poe     o2 8627   2.827   0.872   0.865  0.3232 -0.0873  0.5722
 1439poe    c31 8628   2.725   0.841   0.958  0.2641 -0.2466  0.4545
 1440poe    c31 8629   1.012   1.499   3.926 -0.2071  0.3615 -0.4242
 1440poe     o2 8630   1.012   1.617   4.004 -0.2794 -0.1243  0.3164
 1440poe    c23 8631   1.110   1.699   3.944 -0.0726 -0.3594  0.3272
 1440poe    c23 8632   1.144   1.798   4.057 -0.5370 -0.1439  0.2821
 1440poe     o2 8633   1.026   1.835   4.124 -0.6066 -0.0370  0.1009
 1440poe    c23 8634   1.060   1.875   4.255 -0.3977 -0.7550  0.2729
 1440poe    c23 8635   0.932   1.924   4.325 -0.3490 -0.0957 -0.0859
 1440poe     o2 8636   0.850   1.810   4.312  0.0514 -0.3494 -0.3864
 1440poe    c23 8637   0.715   1.843   4.288  0.0048  0.0659  0.4288
 1440poe    c23 8638   0.649   1.719   4.225 -0.3845  0.8650 -0.7646
 1440poe     o2 8639   0.736   1.667   4.126 -0.0687  0.6116 -0.3553
 1440poe    c31 8640   0.670   1.583   4.034 -0.0097  0.3895 -0.1976
 1441poe    c31 8641   0.060   3.943   6.587  0.1381 -0.0210  0.0363
 1441poe     o2 8642  -0.057   3.929   6.665 -0.1594  0.6779 -0.2759
 1441poe    c23 8643  -0.161   3.862   6.597  0.2072  0.0264 -0.2048
 1441poe    c23 8644  -0.277   3.828   6.692 -0.0473 -0.0242 -0.5315
 1441poe     o2 8645  -0.250   3.762   6.814 -0.2259  0.4267 -0.2491
 1441poe    c23 8646  -0.304   3.828   6.927 -0.0873 -0.1352  0.1524
 1441poe    c23 8647  -0.321   3.725   7.039 -0.0027 -0.1011  0.1971
 1441poe     o2 8648  -0.192   3.671   7.056  0.0256 -0.2030 -0.3424
 1441poe    c23 8649  -0.186   3.559   7.142 -0.1981  0.4146  0.4857
 1441poe    c23 8650  -0.043   3.507   7.167 -0.1758  0.2415 -0.0026
 1441poe     o2 8651   0.008   3.524   7.036  0.0971 -0.5259 -0.0011
 1441poe    c31 8652   0.138   3.469   7.046  0.4612  0.3920  0.4370
 1442poe    c31 8653   6.172   1.806   2.775  0.6944 -0.0991  0.2282
 1442poe     o2 8654   6.190   1.866   2.649  0.4775  0.3316  0.3997
 1442poe    c23 8655   6.255   1.988   2.671  0.0055  0.5632  0.5296
 1442poe    c23 8656   6.269   2.045   2.528  0.0117 -0.0395  0.2884
 1442poe     o2 8657   6.143   2.031   2.467  0.2988 -0.1380 -0.2919
 1442poe    c23 8658   6.142   2.075   2.334 -0.2824 -0.1942 -0.3115
 1442poe    c23 8659   6.007   2.039   2.269 -0.4732 -0.0952  0.0312
 1442poe     o2 8660   5.978   1.902   2.250  0.4486 -0.3359  0.3045
 1442poe    c23 8661   5.843   1.882   2.215  0.2670  0.1434  0.7212
 1442poe    c23 8662   5.800   1.735   2.226 -0.2490  0.1986 -0.3859
 1442poe     o2 8663   5.825   1.687   2.357 -0.6301 -0.1416 -0.4329
 1442poe    c31 8664   5.723   1.603   2.404  0.2213 -0.5348  0.7521
 1443poe    c31 8665   0.632   0.131   1.509  0.1451 -0.3314 -0.3364
 1443poe     o2 8666   0.704   0.233   1.574 -0.5701 -0.0648  0.0442
 1443poe    c23 8667   0.810   0.176   1.647 -0.4518  0.2968  0.1576
 1443poe    c23 8668   0.914   0.290   1.655  0.1085 -0.1845 -0.1219
 1443poe     o2 8669   0.850   0.406   1.703 -0.1032 -0.4451  0.2356
 1443poe    c23 8670   0.933   0.507   1.756  0.0627  0.0792 -0.9990
 1443poe    c23 8671   0.828   0.615   1.786 -0.6873 -0.9640  0.1957
 1443poe     o2 8672   0.752   0.649   1.672  0.2311  0.3352 -0.0559
 1443poe    c23 8673   0.716   0.783   1.652  0.5804  0.3221 -0.7765
 1443poe    c23 8674   0.585   0.786   1.571  0.2464 -0.3190 -0.2667
 1443poe     o2 8675   0.483   0.729   1.649 -0.1404  0.2564 -0.3460
 1443poe    c31 8676   0.348   0.768   1.637 -0.6986 -1.2717  0.5835
 1444poe    c31 8677   6.879   4.355   6.694 -0.2241 -0.0062  0.1141
 1444poe     o2 8678   6.971   4.417   6.608 -0.2208 -0.0563  0.0819
 1444poe    c23 8679   6.995   4.542   6.670  0.4839 -0.0130 -0.2629
 1444poe    c23 8680   7.100   4.624   6.593  0.0464 -0.1686 -1.0360
 1444poe     o2 8681   7.224   4.560   6.574  0.1267 -0.5301  0.5759
 1444poe    c23 8682   7.347   4.629   6.577 -0.2252  0.1599 -0.2642
 1444poe    c23 8683   7.412   4.584   6.445  0.2734 -0.1748  0.0892
 1444poe     o2 8684   7.432   4.444   6.453 -0.5222 -0.2979  0.0802
 1444poe    c23 8685   7.555   4.388   6.412 -0.0376  0.3109  0.6679
 1444poe    c23 8686   7.587   4.269   6.503  0.1954 -0.5120 -0.4745
 1444poe     o2 8687   7.502   4.158   6.484 -0.0142 -0.3333 -0.5855
 1444poe    c31 8688   7.545   4.052   6.567  0.2142  0.4232  0.2769
 1445poe    c31 8689   5.985   2.235   5.254  0.1394  0.0157 -0.4421
 1445poe     o2 8690   5.936   2.212   5.124  0.1664  0.4938 -0.5358
 1445poe    c23 8691   5.799   2.185   5.145  0.0783  1.0002 -0.4418
 1445poe    c23 8692   5.719   2.145   5.019 -0.0046 -0.3434  0.0223
 1445poe     o2 8693   5.770   2.025   4.966  1.2244  0.2703 -0.2278
 1445poe    c23 8694   5.709   1.994   4.843  0.0165  1.3044  0.0939
 1445poe    c23 8695   5.740   1.847   4.813 -0.5605  1.1679  0.1602
 1445poe     o2 8696   5.880   1.839   4.824 -0.6442 -0.6880  0.2584
 1445poe    c23 8697   5.939   1.722   4.770 -0.4857 -0.2142 -0.6116
 1445poe    c23 8698   6.089   1.699   4.794 -0.6087 -0.7646 -0.3629
 1445poe     o2 8699   6.099   1.696   4.935  0.3449 -0.0705 -0.4000
 1445poe    c31 8700   6.217   1.631   4.977 -0.0615 -0.4692  0.1396
 1446poe    c31 8701   3.278   6.741   4.726  0.3351  0.1861 -0.1591
 1446poe     o2 8702   3.182   6.789   4.818  0.6424  0.1005  0.2084
 1446poe    c23 8703   3.201   6.914   4.879 -0.3300  0.5179 -0.3242
 1446poe    c23 8704   3.201   6.922   5.033  0.2100 -0.2322 -0.2816
 1446poe     o2 8705   3.084   6.868   5.091  0.3912 -0.0160  0.2864
 1446poe    c23 8706   3.053   6.922   5.218 -0.1527 -0.8349  0.5121
 1446poe    c23 8707   2.902   6.913   5.245 -0.4670  0.2639 -0.7185
 1446poe     o2 8708   2.871   6.780   5.211 -0.2590  0.0060  0.0628
 1446poe    c23 8709   2.762   6.731   5.286 -0.4734  0.2709 -0.0761
 1446poe    c23 8710   2.755   6.581   5.253 -0.3542  0.1445  0.4778
 1446poe     o2 8711   2.724   6.567   5.116  0.2157 -0.0655  0.3651
 1446poe    c31 8712   2.668   6.440   5.093  0.1435 -0.0104  0.2378
 1447poe    c31 8713   6.893   0.580   5.348 -0.6619  0.1414  0.4474
 1447poe     o2 8714   6.802   0.511   5.431  0.0783 -0.9753  0.3502
 1447poe    c23 8715   6.737   0.580   5.536 -0.0057 -0.2566 -0.1641
 1447poe    c23 8716   6.615   0.498   5.583  0.0132  0.0770  0.4701
 1447poe     o2 8717   6.641   0.376   5.647  0.7198 -0.1599 -0.2647
 1447poe    c23 8718   6.645   0.399   5.786  1.4941  0.0726 -0.3177
 1447poe    c23 8719   6.659   0.267   5.863 -0.8016 -0.3918 -0.6067
 1447poe     o2 8720   6.790   0.224   5.832 -0.3704  0.0481  0.5655
 1447poe    c23 8721   6.815   0.101   5.897 -0.0412 -0.3897 -0.3692
 1447poe    c23 8722   6.958   0.058   5.859  0.3278  0.4481  0.0375
 1447poe     o2 8723   6.952   0.043   5.719  0.3084 -0.9249  0.1726
 1447poe    c31 8724   7.066  -0.020   5.665  0.1928 -0.8000 -0.2173
 1448poe    c31 8725   3.495   6.562   2.815  0.6871  0.2083  0.1343
 1448poe     o2 8726   3.402   6.664   2.846  0.2810 -0.2305  0.3687
 1448poe    c23 8727   3.394   6.780   2.767 -0.4756 -0.0598  0.6900
 1448poe    c23 8728   3.322   6.753   2.634 -0.0043  0.5446  0.2999
 1448poe     o2 8729   3.187   6.715   2.654  0.1718  0.1681  0.8115
 1448poe    c23 8730   3.131   6.681   2.529 -0.0451 -0.6291  1.1173
 1448poe    c23 8731   3.019   6.578   2.548 -0.7472 -0.1447 -0.2584
 1448poe     o2 8732   2.928   6.617   2.649 -0.7897  0.7356 -0.6278
 1448poe    c23 8733   2.823   6.526   2.672 -0.3932  0.3300 -0.4020
 1448poe    c23 8734   2.753   6.582   2.797  0.5035 -0.2126  0.3574
 1448poe     o2 8735   2.860   6.629   2.876  0.6085  0.3637 -0.1235
 1448poe    c31 8736   2.819   6.641   3.010  0.1582  0.0700 -0.2321
 1449poe    c31 8737   3.229   1.356   6.142 -0.2857 -0.2930  0.6897
 1449poe     o2 8738   3.361   1.342   6.094 -0.5713 -0.0651 -0.1768
 1449poe    c23 8739   3.356   1.324   5.955  0.8412 -0.1369 -0.2288
 1449poe    c23 8740   3.501   1.339   5.905  0.6113  1.2606 -0.5144
 1449poe     o2 8741   3.591   1.323   6.012 -0.3819  0.3546  0.2000
 1449poe    c23 8742   3.725   1.290   5.984 -0.4564  0.2289 -0.0091
 1449poe    c23 8743   3.798   1.321   6.115 -0.4563 -0.0090  0.0484
 1449poe     o2 8744   3.767   1.455   6.145 -0.0150  0.0180  0.4036
 1449poe    c23 8745   3.866   1.529   6.213  0.2130  0.0864  0.0030
 1449poe    c23 8746   3.810   1.666   6.256  0.0688  0.0030  0.0845
 1449poe     o2 8747   3.699   1.643   6.340 -0.1476 -0.0855 -0.2256
 1449poe    c31 8748   3.693   1.752   6.429 -0.3767 -0.5581  0.3403
 1450poe    c31 8749   5.521   4.956   5.284  0.1566  0.0155  0.0915
 1450poe     o2 8750   5.601   4.919   5.174 -0.0699  0.5068 -0.2434
 1450poe    c23 8751   5.613   4.779   5.165 -0.1406  0.4639  0.2556
 1450poe    c23 8752   5.738   4.742   5.083 -0.4221 -0.5690  0.2748
 1450poe     o2 8753   5.739   4.840   4.982  0.1747 -0.4514  0.3953
 1450poe    c23 8754   5.850   4.799   4.904  0.3855  0.6266  0.1090
 1450poe    c23 8755   5.896   4.909   4.807  0.1318  0.4493 -0.2171
 1450poe     o2 8756   5.932   5.030   4.871  0.1381  0.3754 -0.0802
 1450poe    c23 8757   5.931   5.144   4.789  0.8267  0.1231 -0.4458
 1450poe    c23 8758   5.965   5.280   4.853  0.3982  0.2123 -0.4114
 1450poe     o2 8759   5.863   5.331   4.937  0.5350 -0.1921  0.0047
 1450poe    c31 8760   5.900   5.452   5.000 -0.3616  0.1269 -0.0721
 1451poe    c31 8761   2.640   0.279   5.699  0.1578 -0.0360 -0.2152
 1451poe     o2 8762   2.642   0.138   5.712  0.1662 -0.0094  0.0815
 1451poe    c23 8763   2.537   0.084   5.636  0.2893 -0.1926  0.0437
 1451poe    c23 8764   2.547  -0.068   5.612  0.6174 -0.0226 -0.9588
 1451poe     o2 8765   2.592  -0.141   5.725 -0.5180  0.1412 -0.3932
 1451poe    c23 8766   2.531  -0.140   5.852  0.4439 -0.6220  0.0820
 1451poe    c23 8767   2.633  -0.149   5.966  0.0187 -0.2503  0.4965
 1451poe     o2 8768   2.710  -0.035   5.936 -0.2894 -0.1250  0.1818
 1451poe    c23 8769   2.803  -0.021   6.041  0.2894  0.0846 -0.3465
 1451poe    c23 8770   2.842   0.127   6.049 -0.0722  0.1678 -0.0616
 1451poe     o2 8771   2.864   0.158   5.913  0.0443  0.0927 -0.0609
 1451poe    c31 8772   2.949   0.269   5.896 -0.0132  0.0924 -0.3572
 1452poe    c31 8773   2.507   6.499   6.643 -0.4358 -0.3405 -0.3681
 1452poe     o2 8774   2.522   6.448   6.774 -0.0953  0.4117 -0.1116
 1452poe    c23 8775   2.658   6.433   6.807 -0.3729 -0.5054  0.6428
 1452poe    c23 8776   2.667   6.378   6.951  0.0056 -0.4603  0.6365
 1452poe     o2 8777   2.583   6.453   7.035 -0.3179 -0.3780  0.2436
 1452poe    c23 8778   2.578   6.396   7.164  1.0965 -0.1672  0.4092
 1452poe    c23 8779   2.526   6.490   7.275  0.1869  0.2832 -0.3824
 1452poe     o2 8780   2.397   6.535   7.240 -0.0235  0.0093  0.0262
 1452poe    c23 8781   2.347   6.638   7.323  0.0583  0.1827 -0.1377
 1452poe    c23 8782   2.219   6.705   7.271 -0.0830 -0.1362 -0.2064
 1452poe     o2 8783   2.240   6.767   7.147  0.3794 -0.3370 -0.2299
 1452poe    c31 8784   2.116   6.809   7.094  0.6120 -0.1633 -0.6497
 1453poe    c31 8785   2.306   1.608   5.877  0.6170 -0.1407  0.2442
 1453poe     o2 8786   2.325   1.680   5.757  1.1590 -0.6373  0.0295
 1453poe    c23 8787   2.312   1.609   5.636  1.5053 -0.0993 -0.3289
 1453poe    c23 8788   2.281   1.707   5.521  0.7886  0.1659  0.0806
 1453poe     o2 8789   2.148   1.750   5.534  0.7713  0.2504 -0.3833
 1453poe    c23 8790   2.116   1.809   5.410 -0.0951  0.2388 -0.1754
 1453poe    c23 8791   1.969   1.853   5.412  0.0675  0.8140 -0.5430
 1453poe     o2 8792   1.959   1.915   5.538  0.5950  0.2034 -0.1933
 1453poe    c23 8793   1.842   1.994   5.546  0.2624 -0.3728  0.7098
 1453poe    c23 8794   1.841   2.061   5.685 -0.3358  0.0429  0.5104
 1453poe     o2 8795   1.863   1.953   5.773  0.2117  0.3760  0.7861
 1453poe    c31 8796   1.845   1.992   5.908 -0.2482  0.6562  0.6451
 1454poe    c31 8797   5.589   0.391   5.261 -0.4293 -0.8812  0.7866
 1454poe     o2 8798   5.461   0.389   5.318 -0.6672  0.3305  0.3155
 1454poe    c23 8799   5.409   0.519   5.336  0.4976  0.7541  0.6940
 1454poe    c23 8800   5.311   0.528   5.455 -0.2811  0.1233  0.1117
 1454poe     o2 8801   5.211   0.430   5.461 -0.4586  0.2938 -0.0571
 1454poe    c23 8802   5.145   0.436   5.585 -0.1559  0.5220  0.0921
 1454poe    c23 8803   5.037   0.326   5.583 -0.0674  0.4496 -0.7056
 1454poe     o2 8804   5.097   0.201   5.559 -0.1042  0.4078 -0.5784
 1454poe    c23 8805   5.012   0.089   5.576  0.6185  0.0018  0.4398
 1454poe    c23 8806   5.018   0.025   5.436 -0.0154  0.3597  0.2480
 1454poe     o2 8807   5.155   0.030   5.403 -0.1631  0.3346 -0.3872
 1454poe    c31 8808   5.205  -0.102   5.397 -0.0009  0.3070  1.0567
 1455poe    c31 8809   3.317   4.637   6.389 -0.3815 -0.6806 -0.1823
 1455poe     o2 8810   3.450   4.628   6.344 -0.2198 -0.2794  0.2067
 1455poe    c23 8811   3.501   4.498   6.366  0.1513 -0.1231  0.2669
 1455poe    c23 8812   3.643   4.494   6.306  0.1258 -0.4163  0.2246
 1455poe     o2 8813   3.732   4.587   6.364  0.0916  0.2680 -0.7947
 1455poe    c23 8814   3.817   4.663   6.281 -0.0287  0.7113 -0.5176
 1455poe    c23 8815   3.844   4.797   6.351  0.3790  0.4690 -0.2035
 1455poe     o2 8816   3.909   4.786   6.475 -1.0542  0.4141  0.5650
 1455poe    c23 8817   4.012   4.875   6.511 -0.4396 -0.2021  0.3669
 1455poe    c23 8818   4.089   4.806   6.625 -0.1793 -0.0104  0.3075
 1455poe     o2 8819   4.005   4.749   6.723 -0.4567 -0.9510 -0.4625
 1455poe    c31 8820   4.080   4.647   6.784 -0.0958 -0.3044  0.1934
 1456poe    c31 8821   4.277   1.735   2.038 -0.2438 -0.0822  1.2649
 1456poe     o2 8822   4.390   1.681   2.102  0.1688 -0.3957  0.2955
 1456poe    c23 8823   4.481   1.630   2.007  0.0503  0.4472 -0.2763
 1456poe    c23 8824   4.590   1.540   2.067 -0.8159 -0.0954  0.5076
 1456poe     o2 8825   4.535   1.479   2.182 -0.4667 -0.0221  0.7165
 1456poe    c23 8826   4.602   1.367   2.235  0.0286  0.1975  0.5584
 1456poe    c23 8827   4.502   1.294   2.327  0.0854 -0.0663  0.4118
 1456poe     o2 8828   4.466   1.396   2.417 -0.0894 -0.0145  0.2829
 1456poe    c23 8829   4.442   1.357   2.551  0.7418  0.2645  0.5142
 1456poe    c23 8830   4.437   1.489   2.631 -0.2985  0.2612  0.4620
 1456poe     o2 8831   4.559   1.550   2.595 -0.0431 -0.2025  0.5275
 1456poe    c31 8832   4.634   1.604   2.702  0.3760  0.0059  0.1268
 1457poe    c31 8833   3.682   1.080   4.992 -0.5287  0.4284 -0.1336
 1457poe     o2 8834   3.570   1.092   4.907 -0.4499 -0.3189 -0.3435
 1457poe    c23 8835   3.547   1.219   4.850  0.2382 -0.0354  0.0017
 1457poe    c23 8836   3.397   1.226   4.817  0.2849  0.0541 -0.1956
 1457poe     o2 8837   3.317   1.210   4.932  0.0561  0.4802 -0.2958
 1457poe    c23 8838   3.187   1.254   4.899 -0.3612 -0.4338  0.0964
 1457poe    c23 8839   3.100   1.237   5.026 -0.6765 -0.0772 -0.0696
 1457poe     o2 8840   3.089   1.100   5.056  0.0875 -0.1471 -0.0830
 1457poe    c23 8841   3.013   1.088   5.174 -0.3215 -0.0148 -0.3279
 1457poe    c23 8842   3.034   0.938   5.201  0.4673  0.0797 -0.3753
 1457poe     o2 8843   3.002   0.874   5.079  0.1157  0.1739 -0.3341
 1457poe    c31 8844   2.866   0.842   5.064  0.1996 -0.0977 -0.5122
 1458poe    c31 8845   0.805   6.037   6.277 -0.1497  0.0813  0.1742
 1458poe     o2 8846   0.930   5.988   6.235 -0.1393 -0.1307  0.4499
 1458poe    c23 8847   1.006   6.071   6.150  0.2631 -0.1033  0.8285
 1458poe    c23 8848   1.155   6.032   6.151  0.2950 -0.0526 -0.2585
 1458poe     o2 8849   1.155   5.892   6.172  0.4681 -0.0759 -0.4184
 1458poe    c23 8850   1.285   5.847   6.201  0.6478  0.3631 -0.5311
 1458poe    c23 8851   1.271   5.694   6.214  0.6308  0.4663  0.8267
 1458poe     o2 8852   1.148   5.669   6.279 -0.2025  0.0184 -0.8677
 1458poe    c23 8853   1.134   5.529   6.284  0.0726  0.0224  0.1225
 1458poe    c23 8854   0.991   5.479   6.312  0.0364  0.1287  0.1279
 1458poe     o2 8855   0.904   5.516   6.208 -0.2226 -0.3953  0.1547
 1458poe    c31 8856   0.829   5.403   6.170 -0.5645 -0.0930 -0.0803
 1459poe    c31 8857   2.765   3.079   2.415  0.6248  0.1702  1.0319
 1459poe     o2 8858   2.796   2.997   2.304 -0.3452  0.0131  0.8724
 1459poe    c23 8859   2.883   3.059   2.213 -0.2488 -0.2899  0.7558
 1459poe    c23 8860   2.865   3.002   2.071 -0.7141  0.3672  0.5402
 1459poe     o2 8861   2.846   2.865   2.101  0.0925  0.2224  0.4288
 1459poe    c23 8862   2.876   2.779   1.994  0.3244  0.7754  0.0412
 1459poe    c23 8863   2.884   2.641   2.063 -0.2354  0.5704 -0.2948
 1459poe     o2 8864   2.772   2.634   2.148 -0.4248  0.4225 -0.5533
 1459poe    c23 8865   2.780   2.497   2.180 -0.7542  0.4321 -0.4255
 1459poe    c23 8866   2.680   2.441   2.283 -0.1027 -0.0855 -0.0677
 1459poe     o2 8867   2.695   2.503   2.409 -0.1614 -0.3519  0.0696
 1459poe    c31 8868   2.629   2.426   2.508 -0.6885  0.2895  0.2292
 1460poe    c31 8869   5.410   6.364   3.111  0.2271 -0.1681  0.0979
 1460poe     o2 8870   5.361   6.275   3.208  0.0790 -0.0133  0.1656
 1460poe    c23 8871   5.250   6.200   3.163  0.2876 -0.1167 -0.1841
 1460poe    c23 8872   5.264   6.067   3.239 -0.0274 -0.1817 -0.2402
 1460poe     o2 8873   5.220   6.057   3.373 -0.2835 -0.0261 -0.3135
 1460poe    c23 8874   5.267   5.933   3.421 -0.0672  0.4913  0.8456
 1460poe    c23 8875   5.236   5.912   3.570 -0.8605  0.3821  0.6712
 1460poe     o2 8876   5.264   6.037   3.629  0.2924  0.5462 -0.1829
 1460poe    c23 8877   5.218   6.040   3.763 -0.5933 -0.3112 -0.4486
 1460poe    c23 8878   5.257   6.174   3.829  0.2339 -0.6611 -0.2128
 1460poe     o2 8879   5.243   6.273   3.730  0.1745 -0.3473  0.1083
 1460poe    c31 8880   5.283   6.400   3.776  0.0107 -0.3471  0.2477
 1461poe    c31 8881   4.463   4.869   3.537 -0.0485 -0.4009 -0.2336
 1461poe     o2 8882   4.431   4.742   3.589 -0.1403 -0.5909 -0.7523
 1461poe    c23 8883   4.531   4.649   3.557 -0.3528 -0.7490 -0.9659
 1461poe    c23 8884   4.488   4.513   3.616  0.5251 -0.5673  0.1202
 1461poe     o2 8885   4.473   4.521   3.756  0.0407 -0.2946  0.0567
 1461poe    c23 8886   4.432   4.400   3.817 -0.5786 -0.2608 -0.2830
 1461poe    c23 8887   4.484   4.413   3.962  0.4079  0.4204 -0.6851
 1461poe     o2 8888   4.399   4.510   4.017  0.3504 -0.1013  0.1604
 1461poe    c23 8889   4.397   4.516   4.158  0.3447 -0.4069  0.1738
 1461poe    c23 8890   4.321   4.646   4.192  0.2998 -0.1656 -0.8219
 1461poe     o2 8891   4.352   4.757   4.111 -0.5532  0.2405 -0.6028
 1461poe    c31 8892   4.332   4.881   4.173 -0.0222 -0.1934  0.4477
 1462poe    c31 8893   1.966   6.882   2.098  0.6247  0.5119  0.2111
 1462poe     o2 8894   1.899   6.968   2.186  0.6044  0.9167 -0.1968
 1462poe    c23 8895   1.789   7.029   2.123 -0.3450 -0.5433  0.0012
 1462poe    c23 8896   1.756   7.170   2.177  0.5343 -0.2689 -0.1585
 1462poe     o2 8897   1.703   7.145   2.305 -0.3543 -0.0108 -0.4694
 1462poe    c23 8898   1.631   7.251   2.363  0.6502  0.7331 -0.5584
 1462poe    c23 8899   1.680   7.287   2.505  0.2675 -0.3836 -0.1296
 1462poe     o2 8900   1.816   7.323   2.506 -0.0513  0.8893 -0.3142
 1462poe    c23 8901   1.860   7.370   2.632  0.0045 -0.1091  0.0523
 1462poe    c23 8902   2.012   7.394   2.626 -0.0743  0.3124 -0.4275
 1462poe     o2 8903   2.069   7.270   2.591 -0.1471  0.0107  0.4871
 1462poe    c31 8904   2.204   7.268   2.631  0.0120 -0.4327 -0.0400
 1463poe    c31 8905   1.399   5.678   0.852 -0.2299  0.9492 -0.5569
 1463poe     o2 8906   1.411   5.753   0.971 -0.4787  0.4612 -0.2184
 1463poe    c23 8907   1.290   5.770   1.042 -0.0420  0.9487  0.4127
 1463poe    c23 8908   1.318   5.808   1.189 -0.3146 -0.3642  0.8187
 1463poe     o2 8909   1.376   5.935   1.209 -0.5873 -0.0957 -0.0401
 1463poe    c23 8910   1.393   5.964   1.346  0.3925  0.2684 -0.2301
 1463poe    c23 8911   1.409   6.117   1.356 -0.3277  0.3717 -0.5785
 1463poe     o2 8912   1.504   6.162   1.262 -0.0803  0.0506 -0.4849
 1463poe    c23 8913   1.486   6.299   1.232 -0.5537  0.0616 -0.1637
 1463poe    c23 8914   1.576   6.342   1.114  0.2260 -0.5611  0.1903
 1463poe     o2 8915   1.562   6.258   1.001 -0.5143 -0.3241  0.0992
 1463poe    c31 8916   1.653   6.294   0.900 -0.4251  0.4723  0.4519
 1464poe    c31 8917   3.749   2.977   0.037  0.3182  0.2185 -0.4103
 1464poe     o2 8918   3.816   3.093   0.082  0.5233 -0.0148 -0.1122
 1464poe    c23 8919   3.890   3.155  -0.021  0.0180  0.0226 -0.4575
 1464poe    c23 8920   3.974   3.259   0.056 -0.4770 -0.0200  0.1516
 1464poe     o2 8921   3.892   3.325   0.150 -0.3291  0.5590 -0.1230
 1464poe    c23 8922   3.958   3.414   0.236  0.1543 -0.2030  0.3021
 1464poe    c23 8923   3.853   3.503   0.304  0.4218 -0.0372  0.5049
 1464poe     o2 8924   3.747   3.418   0.341  0.4096 -0.2177  0.0639
 1464poe    c23 8925   3.636   3.504   0.355  0.1781 -0.4682 -0.2359
 1464poe    c23 8926   3.514   3.431   0.415 -0.3255  0.3611 -0.2429
 1464poe     o2 8927   3.443   3.370   0.310 -0.0640 -0.6922  0.1828
 1464poe    c31 8928   3.325   3.314   0.364 -0.3509 -0.2633  0.0076
 1465poe    c31 8929   5.211   2.955   3.085  1.0806 -0.5288  0.5035
 1465poe     o2 8930   5.310   3.030   3.152  0.3808  0.6113  0.2972
 1465poe    c23 8931   5.300   2.988   3.286 -0.0283  0.5601  0.2522
 1465poe    c23 8932   5.391   3.071   3.378  0.5052  0.2615 -0.0023
 1465poe     o2 8933   5.524   3.064   3.333  0.4263 -0.5846 -0.1213
 1465poe    c23 8934   5.616   3.157   3.387 -0.1085  0.0464 -0.2855
 1465poe    c23 8935   5.733   3.180   3.289  0.2950  0.4296  0.2836
 1465poe     o2 8936   5.679   3.237   3.171 -0.2183 -0.6052  0.0098
 1465poe    c23 8937   5.777   3.294   3.087 -0.5336  0.0322  0.0689
 1465poe    c23 8938   5.725   3.418   3.012 -0.1952  0.0247 -0.1776
 1465poe     o2 8939   5.612   3.361   2.949  0.1776 -0.0542 -0.7767
 1465poe    c31 8940   5.546   3.452   2.864  0.1687  0.1873 -0.5091
 1466poe    c31 8941   1.841   3.820   4.297  0.1891  0.4879 -1.2407
 1466poe     o2 8942   1.979   3.803   4.323 -0.1314 -0.0053  0.2331
 1466poe    c23 8943   2.064   3.887   4.248 -0.2394 -0.0721  0.0354
 1466poe    c23 8944   2.216   3.889   4.274 -0.2479  0.4226  0.0506
 1466poe     o2 8945   2.254   3.925   4.405  0.4499 -0.3055  0.0528
 1466poe    c23 8946   2.395   3.918   4.412  0.4333 -0.7049  0.0569
 1466poe    c23 8947   2.450   3.929   4.555  0.7123 -0.1368 -0.0891
 1466poe     o2 8948   2.430   4.046   4.631 -0.4511 -0.5487  0.2536
 1466poe    c23 8949   2.499   4.042   4.753  0.3332 -0.1918 -0.1721
 1466poe    c23 8950   2.557   4.178   4.796 -0.1832 -0.1727  0.4878
 1466poe     o2 8951   2.474   4.272   4.859 -0.2524  0.0418  0.0790
 1466poe    c31 8952   2.537   4.344   4.963 -0.4179 -0.1952  0.3448
 1467poe    c31 8953   5.452   4.747   6.638  0.4937 -0.7689  0.1228
 1467poe     o2 8954   5.502   4.724   6.508  0.4678 -0.0700 -0.0143
 1467poe    c23 8955   5.418   4.625   6.453  0.0408  0.4973 -0.4000
 1467poe    c23 8956   5.516   4.555   6.356 -0.0473  0.1240 -0.2245
 1467poe     o2 8957   5.582   4.648   6.273  0.4634 -0.1281 -0.1036
 1467poe    c23 8958   5.672   4.590   6.182  0.7615  0.0285  0.0917
 1467poe    c23 8959   5.742   4.709   6.112  0.5872  0.1825  0.1783
 1467poe     o2 8960   5.784   4.799   6.213  0.2740  0.2126  0.2828
 1467poe    c23 8961   5.856   4.902   6.149  0.2722  0.0055 -0.0578
 1467poe    c23 8962   5.863   5.043   6.210  0.1034  0.2504 -0.5984
 1467poe     o2 8963   5.894   5.054   6.347 -0.5297 -0.1698 -0.4208
 1467poe    c31 8964   5.894   5.191   6.379 -0.2903 -0.1853 -0.3528
 1468poe    c31 8965   1.893   6.577   4.468  0.3938  0.6432  0.5103
 1468poe     o2 8966   1.880   6.516   4.595  0.2613 -0.2189  0.0911
 1468poe    c23 8967   1.964   6.403   4.599 -0.0025 -0.4056  0.3255
 1468poe    c23 8968   1.972   6.373   4.750  0.9442  0.3868  0.4428
 1468poe     o2 8969   1.959   6.492   4.823  0.2513  0.2957  0.4827
 1468poe    c23 8970   1.967   6.443   4.955  0.2394  0.0834  0.4047
 1468poe    c23 8971   1.953   6.563   5.051  0.3180  0.0715  0.4311
 1468poe     o2 8972   1.823   6.615   5.040  0.3801  0.0827 -0.3427
 1468poe    c23 8973   1.814   6.751   5.079  0.4941 -0.0365  0.1045
 1468poe    c23 8974   1.674   6.774   5.139  0.4438  0.5302 -0.2326
 1468poe     o2 8975   1.578   6.738   5.042  0.2975  0.4281 -0.0489
 1468poe    c31 8976   1.446   6.737   5.092  0.1751  0.2445 -0.3729
 1469poe    c31 8977   3.740   4.224   5.435 -0.1978 -0.3282  0.7141
 1469poe     o2 8978   3.758   4.094   5.384  0.1915 -0.1105  0.2959
 1469poe    c23 8979   3.662   4.083   5.281 -0.1237  0.1435  0.5611
 1469poe    c23 8980   3.695   3.975   5.176  0.0254  0.3027  0.4435
 1469poe     o2 8981   3.822   3.997   5.119  0.0043 -0.4373  0.0962
 1469poe    c23 8982   3.827   3.918   5.003  0.0523 -0.4476  0.1057
 1469poe    c23 8983   3.964   3.920   4.934 -0.2465  0.2061 -0.4814
 1469poe     o2 8984   4.058   3.887   5.034  0.0440  0.5388 -0.6403
 1469poe    c23 8985   4.192   3.874   4.992  0.0865 -0.3697 -0.2412
 1469poe    c23 8986   4.293   3.893   5.107 -0.0414  0.0384 -0.1966
 1469poe     o2 8987   4.243   3.983   5.204  0.2307  0.2224 -0.2249
 1469poe    c31 8988   4.316   3.993   5.324  0.2120 -0.8241 -0.1132
 1470poe    c31 8989   5.511   2.145   2.385  0.3201 -0.3925 -0.1342
 1470poe     o2 8990   5.440   2.198   2.495  0.3829  0.6169 -0.5728
 1470poe    c23 8991   5.331   2.273   2.447 -0.4120 -0.3620 -0.3257
 1470poe    c23 8992   5.314   2.419   2.494 -0.6082 -0.4927  0.0145
 1470poe     o2 8993   5.309   2.433   2.634  0.0215  0.1881 -0.0294
 1470poe    c23 8994   5.198   2.499   2.689 -0.3232 -0.4824  0.0849
 1470poe    c23 8995   5.245   2.599   2.796 -0.5247 -0.5791  0.2658
 1470poe     o2 8996   5.341   2.544   2.883 -0.3381 -0.1443  0.3392
 1470poe    c23 8997   5.389   2.626   2.987 -0.2358  0.3164 -0.0699
 1470poe    c23 8998   5.495   2.533   3.048  0.3406  0.7896 -0.3368
 1470poe     o2 8999   5.587   2.502   2.945  0.0081  0.1544 -0.4523
 1470poe    c31 9000   5.669   2.394   2.985 -0.2914  0.0893 -0.0082
 1471poe    c31 9001   3.622   5.180   0.347  0.3746  0.6117 -0.6191
 1471poe     o2 9002   3.590   5.065   0.272  0.3519  0.1365  0.1082
 1471poe    c23 9003   3.543   5.091   0.142 -0.3649  0.4722  0.4280
 1471poe    c23 9004   3.494   4.964   0.070  0.4338  0.2770  0.2199
 1471poe     o2 9005   3.588   4.862   0.093  0.0752 -0.1770 -0.2997
 1471poe    c23 9006   3.556   4.740   0.030  0.0259 -0.0653 -0.4920
 1471poe    c23 9007   3.686   4.657   0.037  0.4258  0.5757 -0.3053
 1471poe     o2 9008   3.715   4.647   0.174 -0.5227  0.1027 -0.1294
 1471poe    c23 9009   3.821   4.557   0.198 -0.4044  0.4269  0.5962
 1471poe    c23 9010   3.847   4.538   0.349  0.6715 -0.2566  0.3307
 1471poe     o2 9011   3.917   4.646   0.406  0.2269  0.1263  0.1481
 1471poe    c31 9012   3.931   4.637   0.546  0.3224  0.0504  0.1337
 1472poe    c31 9013   1.318   6.106   6.694 -0.4319 -0.2611  0.0233
 1472poe     o2 9014   1.243   6.226   6.699 -0.2761 -0.1830  0.5522
 1472poe    c23 9015   1.108   6.192   6.675 -0.1562 -0.0902 -0.3136
 1472poe    c23 9016   1.033   6.326   6.668  0.4567  0.2763  0.0655
 1472poe     o2 9017   1.101   6.427   6.740  0.3486  0.2510  0.2032
 1472poe    c23 9018   1.032   6.550   6.734  0.2581  0.2094  0.3857
 1472poe    c23 9019   1.097   6.659   6.821 -0.2865  0.4879  0.4513
 1472poe     o2 9020   1.234   6.662   6.784 -0.3974 -0.4946 -0.0829
 1472poe    c23 9021   1.287   6.793   6.782 -0.3233 -0.5176  0.2462
 1472poe    c23 9022   1.435   6.776   6.741 -0.2346 -0.0858  0.3875
 1472poe     o2 9023   1.470   6.702   6.626 -0.8427  0.0382  0.1162
 1472poe    c31 9024   1.583   6.764   6.569 -0.7717  0.0182  0.2337
 1473poe    c31 9025   0.939   6.516   0.765 -0.0565  0.1845  0.7978
 1473poe     o2 9026   0.957   6.420   0.663  0.1050  0.6144  0.4160
 1473poe    c23 9027   1.090   6.432   0.619 -0.0858  0.0310 -0.3489
 1473poe    c23 9028   1.168   6.300   0.634 -0.5968 -0.2997 -0.5962
 1473poe     o2 9029   1.060   6.217   0.598 -0.7226 -0.5023  0.2435
 1473poe    c23 9030   1.116   6.090   0.572  0.1505  0.0416 -0.5720
 1473poe    c23 9031   1.014   5.975   0.568 -0.3560  0.4887 -0.4919
 1473poe     o2 9032   0.920   5.983   0.674 -0.1098 -0.2936 -0.2126
 1473poe    c23 9033   0.828   5.878   0.656 -0.6841  0.3011 -0.7741
 1473poe    c23 9034   0.702   5.880   0.744 -0.5060 -0.0208 -0.5080
 1473poe     o2 9035   0.642   6.008   0.751 -0.4805 -0.0148 -0.3984
 1473poe    c31 9036   0.520   6.008   0.821 -0.1543 -0.3312  0.1826
 1474poe    c31 9037   0.681   0.653   3.439  0.5995  0.1285 -0.2397
 1474poe     o2 9038   0.723   0.555   3.531 -0.2161  0.0713  0.0754
 1474poe    c23 9039   0.835   0.598   3.604  0.2036  0.4642 -0.7966
 1474poe    c23 9040   0.889   0.523   3.727 -0.0736  0.9307 -0.3923
 1474poe     o2 9041   0.816   0.542   3.846  0.3188  0.3207 -0.0510
 1474poe    c23 9042   0.881   0.477   3.953 -0.5748  0.0987  0.3661
 1474poe    c23 9043   0.859   0.550   4.087 -0.2001 -0.0098  0.4867
 1474poe     o2 9044   0.721   0.571   4.105 -0.2638 -0.3733  0.4355
 1474poe    c23 9045   0.686   0.645   4.220 -0.4131  0.4346 -0.1196
 1474poe    c23 9046   0.536   0.677   4.204 -0.5332  0.1322  0.3650
 1474poe     o2 9047   0.520   0.723   4.072 -0.2583  0.0917  0.3177
 1474poe    c31 9048   0.393   0.782   4.058 -0.4065 -0.4286 -0.5653
 1475poe    c31 9049   1.608   1.819   2.377 -0.0154 -0.1182 -0.4847
 1475poe     o2 9050   1.680   1.698   2.376  0.3863  0.1221 -0.5231
 1475poe    c23 9051   1.771   1.695   2.268  0.6693  0.2321 -0.2894
 1475poe    c23 9052   1.879   1.591   2.303  0.4240  0.2799  0.6313
 1475poe     o2 9053   1.818   1.466   2.322  0.5309  0.1872  0.3671
 1475poe    c23 9054   1.909   1.361   2.345 -0.0782 -0.4345 -0.0133
 1475poe    c23 9055   1.823   1.234   2.332 -0.2885 -0.2681 -0.2698
 1475poe     o2 9056   1.716   1.224   2.424  0.0216  0.4514  0.1787
 1475poe    c23 9057   1.624   1.124   2.388  0.3805  0.2341 -0.1377
 1475poe    c23 9058   1.497   1.138   2.473 -0.0164 -0.2861 -0.6364
 1475poe     o2 9059   1.418   1.250   2.439 -0.1087 -0.2470 -0.2933
 1475poe    c31 9060   1.298   1.233   2.511 -0.0088  0.8320  0.1515
 1476poe    c31 9061   0.562   2.643   3.737 -0.0053  0.5676 -1.1464
 1476poe     o2 9062   0.685   2.574   3.742 -0.4207 -0.1344 -0.0926
 1476poe    c23 9063   0.787   2.636   3.666  0.0269 -0.0672  0.5574
 1476poe    c23 9064   0.841   2.521   3.579 -0.0147  0.3738 -0.0548
 1476poe     o2 9065   0.870   2.423   3.675  0.2439  0.7513  0.2540
 1476poe    c23 9066   0.951   2.325   3.613 -0.6726 -0.1178  0.3994
 1476poe    c23 9067   0.987   2.212   3.711 -0.2024 -0.3380 -0.0215
 1476poe     o2 9068   0.870   2.182   3.784 -0.2725 -0.1141 -0.0430
 1476poe    c23 9069   0.903   2.088   3.884 -0.4680  0.1782  0.3009
 1476poe    c23 9070   0.799   1.976   3.891  0.3834 -0.6236  0.2914
 1476poe     o2 9071   0.666   2.012   3.924  0.3005 -0.5254 -0.1456
 1476poe    c31 9072   0.575   1.916   3.876  0.1731 -0.4544 -0.0461
 1477poe    c31 9073   0.495   5.310   0.130 -0.2012 -0.0433  0.2445
 1477poe     o2 9074   0.448   5.317  -0.002 -0.3551  0.3239  0.3184
 1477poe    c23 9075   0.329   5.393  -0.013 -0.1840  0.5184 -0.2142
 1477poe    c23 9076   0.287   5.386  -0.161  0.1144  0.5557 -0.3014
 1477poe     o2 9077   0.403   5.410  -0.238  0.5741 -0.5035  0.0281
 1477poe    c23 9078   0.385   5.401  -0.377 -0.1398  0.0916  0.0748
 1477poe    c23 9079   0.527   5.396  -0.436 -0.2050  0.9462 -0.1745
 1477poe     o2 9080   0.583   5.282  -0.374  0.2906  1.2163 -0.1199
 1477poe    c23 9081   0.683   5.231  -0.459  0.0447  0.2356  0.1691
 1477poe    c23 9082   0.772   5.120  -0.399 -0.3428 -0.1529  0.0291
 1477poe     o2 9083   0.816   5.136  -0.266 -0.6051 -0.3354  0.1402
 1477poe    c31 9084   0.885   5.018  -0.232 -0.0080 -0.0260  0.0197
 1478poe    c31 9085   4.055   3.774   3.716  0.2281 -0.2532  0.3029
 1478poe     o2 9086   4.149   3.791   3.821  0.4904 -0.0174  0.0309
 1478poe    c23 9087   4.143   3.927   3.858 -0.3567  0.0169 -0.1953
 1478poe    c23 9088   4.280   3.933   3.928 -0.0499 -0.5249 -0.7340
 1478poe     o2 9089   4.317   3.807   3.980 -0.9738 -0.3436  0.4188
 1478poe    c23 9090   4.435   3.807   4.057 -0.6568 -0.6577 -0.0615
 1478poe    c23 9091   4.464   3.673   4.127 -0.1743 -0.1541  0.7163
 1478poe     o2 9092   4.452   3.571   4.030 -0.4900  0.0924  0.4963
 1478poe    c23 9093   4.469   3.439   4.077  0.0325  0.0255  0.1131
 1478poe    c23 9094   4.487   3.339   3.961  0.1398  0.1491  0.0234
 1478poe     o2 9095   4.378   3.341   3.872  0.2884 -0.1631 -0.1682
 1478poe    c31 9096   4.361   3.219   3.804  0.4534  0.0810 -0.6527
 1479poe    c31 9097   4.210   5.750   3.804 -0.0283  0.3423 -0.2259
 1479poe     o2 9098   4.277   5.865   3.757  1.0434 -0.3219 -0.3652
 1479poe    c23 9099   4.266   5.891   3.619  0.3343 -0.6861 -0.3826
 1479poe    c23 9100   4.354   6.013   3.587 -0.0936 -0.0800  0.6965
 1479poe     o2 9101   4.329   6.105   3.691 -0.3963  0.0244  0.5305
 1479poe    c23 9102   4.391   6.226   3.655 -0.4306 -0.1220 -0.0430
 1479poe    c23 9103   4.316   6.323   3.749  0.3149  0.3612  0.0630
 1479poe     o2 9104   4.299   6.261   3.874 -0.1458 -0.1116 -0.2343
 1479poe    c23 9105   4.175   6.300   3.929  0.0678 -0.2095  0.3216
 1479poe    c23 9106   4.118   6.180   4.005  0.8261 -0.7641  0.0324
 1479poe     o2 9107   4.117   6.061   3.928 -0.4007 -0.4789 -0.4237
 1479poe    c31 9108   4.054   5.964   4.009  0.1602 -0.4601  0.0431
 1480poe    c31 9109   3.741   4.723   2.154 -0.3650  0.4149  0.3989
 1480poe     o2 9110   3.856   4.752   2.230  0.2199  0.7144 -0.5889
 1480poe    c23 9111   3.942   4.640   2.228 -0.2944  0.2933  0.3407
 1480poe    c23 9112   4.087   4.691   2.241 -0.2953  0.5361 -0.5311
 1480poe     o2 9113   4.083   4.757   2.365  0.6672 -0.9213  0.3088
 1480poe    c23 9114   4.208   4.794   2.420  0.3474  0.5957  0.0580
 1480poe    c23 9115   4.180   4.902   2.526  0.0317  0.3512  0.2278
 1480poe     o2 9116   4.081   4.862   2.617 -0.0139 -0.3813 -0.1365
 1480poe    c23 9117   4.058   4.972   2.703 -0.1489 -0.6177  0.1320
 1480poe    c23 9118   3.940   4.956   2.801 -0.2947  0.4382  0.1317
 1480poe     o2 9119   3.833   4.903   2.726 -0.1264  0.5668 -0.2037
 1480poe    c31 9120   3.713   4.896   2.799 -0.1093 -0.2987 -0.2424
 1481poe    c31 9121   6.625   6.575   0.367  0.2968  0.2462 -0.5413
 1481poe     o2 9122   6.493   6.579   0.416  0.2209  0.3345 -0.7502
 1481poe    c23 9123   6.428   6.463   0.369 -0.4313  0.5426 -0.3850
 1481poe    c23 9124   6.297   6.450   0.449 -0.2754  0.1773 -0.1826
 1481poe     o2 9125   6.251   6.583   0.460 -0.0784  0.2069  0.3131
 1481poe    c23 9126   6.126   6.577   0.524 -0.3272 -0.1716 -0.2028
 1481poe    c23 9127   6.083   6.718   0.568  0.2868 -0.1206  0.2361
 1481poe     o2 9128   6.192   6.787   0.625  0.2428  0.1230  0.0288
 1481poe    c23 9129   6.168   6.923   0.656  0.1818  0.2416 -0.5275
 1481poe    c23 9130   6.299   6.989   0.703  0.0454 -0.0845  0.3297
 1481poe     o2 9131   6.385   7.015   0.595 -0.0839 -0.0103  0.2443
 1481poe    c31 9132   6.510   7.072   0.626 -0.0329  0.2592 -0.4358
 1482poe    c31 9133   2.166   5.004   5.471  0.4431  0.5762  0.4896
 1482poe     o2 9134   2.164   5.084   5.354 -0.4925 -0.0876  0.0360
 1482poe    c23 9135   2.296   5.131   5.338 -0.5065  0.1214  0.5042
 1482poe    c23 9136   2.273   5.248   5.241  0.4420  0.2025  0.3640
 1482poe     o2 9137   2.145   5.304   5.263  0.3256  0.0107  0.1748
 1482poe    c23 9138   2.133   5.432   5.206 -0.0742 -0.3291 -0.5225
 1482poe    c23 9139   1.999   5.487   5.258  0.1434  0.0627 -0.3730
 1482poe     o2 9140   1.922   5.374   5.291  0.2057  0.1041 -0.0832
 1482poe    c23 9141   1.826   5.405   5.389  0.2804 -0.5673  0.2123
 1482poe    c23 9142   1.751   5.274   5.419 -0.2391 -0.4120 -0.3919
 1482poe     o2 9143   1.849   5.176   5.443 -0.3604 -0.3308  0.4880
 1482poe    c31 9144   1.802   5.053   5.492 -0.9376  0.0888  0.9952
 1483poe    c31 9145   6.296   3.057   5.653 -0.3677 -0.1896 -0.0245
 1483poe     o2 9146   6.392   3.001   5.566  0.0581 -0.1147  0.3922
 1483poe    c23 9147   6.324   2.912   5.481  0.0704  0.5915 -0.3658
 1483poe    c23 9148   6.428   2.836   5.397 -0.2032  0.1304 -0.2919
 1483poe     o2 9149   6.547   2.816   5.471 -0.3005 -0.4764 -0.2952
 1483poe    c23 9150   6.634   2.729   5.403 -0.0880 -0.3945 -0.1266
 1483poe    c23 9151   6.753   2.692   5.495 -0.2219  0.2703  0.3208
 1483poe     o2 9152   6.814   2.815   5.525  0.0055  0.2534 -0.0623
 1483poe    c23 9153   6.915   2.800   5.621 -0.3515  0.3353  0.3312
 1483poe    c23 9154   6.975   2.942   5.625  0.0024  0.1914  0.2322
 1483poe     o2 9155   6.911   3.030   5.715  0.1935 -0.4010  0.9537
 1483poe    c31 9156   6.993   3.141   5.743 -0.2937  0.3671 -0.5476
 1484poe    c31 9157   5.021   6.924   4.959 -0.6266 -0.5659  0.3678
 1484poe     o2 9158   5.139   6.861   5.001 -0.4021  0.2435  0.9725
 1484poe    c23 9159   5.246   6.952   5.023 -0.0170  0.0705 -0.1412
 1484poe    c23 9160   5.369   6.891   4.953 -0.2684 -0.0117 -0.5163
 1484poe     o2 9161   5.393   6.753   4.965  0.3876  0.1066 -0.4223
 1484poe    c23 9162   5.498   6.730   5.056 -0.3018 -0.1870  0.3168
 1484poe    c23 9163   5.531   6.580   5.045 -0.3961 -0.1930  0.1193
 1484poe     o2 9164   5.410   6.507   5.044 -0.5455  0.0474  0.4550
 1484poe    c23 9165   5.428   6.373   5.085  0.2005  0.1825  0.5818
 1484poe    c23 9166   5.290   6.307   5.066  0.2606  0.3851 -0.6567
 1484poe     o2 9167   5.198   6.335   5.169  0.1311 -0.0135 -0.6642
 1484poe    c31 9168   5.084   6.252   5.179  0.2518 -0.0457  0.6032
 1485poe    c31 9169   2.989   5.367   5.792  0.4209  0.4716 -0.0124
 1485poe     o2 9170   3.002   5.232   5.831  0.3225  0.3236 -0.4896
 1485poe    c23 9171   2.887   5.151   5.820  0.3936  0.1640 -0.0561
 1485poe    c23 9172   2.887   5.066   5.949  0.0940 -0.4062 -0.4304
 1485poe     o2 9173   3.017   5.013   5.966  0.0868 -0.2563  0.1037
 1485poe    c23 9174   3.024   4.951   6.092  0.0059 -0.0477  0.2125
 1485poe    c23 9175   3.160   4.882   6.113  0.0850  0.0742  0.1053
 1485poe     o2 9176   3.265   4.950   6.050  0.0139  0.0853 -0.0007
 1485poe    c23 9177   3.390   4.901   6.093 -0.1632  0.2232  0.6868
 1485poe    c23 9178   3.499   5.004   6.055  0.1709 -0.2061  0.4761
 1485poe     o2 9179   3.484   5.131   6.115 -0.5999  0.0023 -0.1423
 1485poe    c31 9180   3.601   5.208   6.103 -0.0488 -0.6511  0.8366
 1486poe    c31 9181   3.550   4.523   4.757 -0.1997  0.0859  0.3316
 1486poe     o2 9182   3.470   4.635   4.789 -0.4365  0.1611 -0.5030
 1486poe    c23 9183   3.540   4.715   4.881 -0.1343  0.0241 -0.6111
 1486poe    c23 9184   3.444   4.817   4.947  0.0930 -0.1823  0.0429
 1486poe     o2 9185   3.386   4.909   4.858  0.3487  0.1970  0.2653
 1486poe    c23 9186   3.285   4.989   4.916 -0.0427 -0.0884 -0.0157
 1486poe    c23 9187   3.215   5.083   4.816  0.7022 -0.1772 -0.6302
 1486poe     o2 9188   3.132   5.029   4.716 -0.0170 -0.4112  0.0872
 1486poe    c23 9189   3.050   5.114   4.639 -0.1625 -0.3424  0.3158
 1486poe    c23 9190   2.910   5.165   4.678 -0.0854  0.2555 -0.1572
 1486poe     o2 9191   2.900   5.270   4.771 -0.1030 -0.3842  0.5739
 1486poe    c31 9192   2.769   5.321   4.784  0.2040  0.3918  0.6487
 1487poe    c31 9193   1.165   4.627   2.688  0.2683  0.5647 -0.1197
 1487poe     o2 9194   1.237   4.729   2.752  0.3120  0.1354  0.5309
 1487poe    c23 9195   1.355   4.671   2.803  0.1329 -0.1785  0.5869
 1487poe    c23 9196   1.445   4.779   2.866  0.0204  0.2539  0.0146
 1487poe     o2 9197   1.385   4.842   2.977 -0.4278 -0.3628  0.1315
 1487poe    c23 9198   1.468   4.938   3.040 -0.1226 -0.1531 -0.5778
 1487poe    c23 9199   1.439   5.082   2.994  0.2588 -0.0250 -0.4148
 1487poe     o2 9200   1.308   5.132   3.007  0.2531 -0.0774 -0.2682
 1487poe    c23 9201   1.294   5.261   2.951 -0.1864 -0.1808 -0.3976
 1487poe    c23 9202   1.148   5.308   2.958 -0.0994  0.0521 -0.1355
 1487poe     o2 9203   1.063   5.200   2.927 -0.0659  0.0386 -0.1787
 1487poe    c31 9204   0.934   5.252   2.902 -0.1153  0.1272  0.2547
 1488poe    c31 9205   5.155   0.263   3.495 -0.1268 -0.0884 -0.2456
 1488poe     o2 9206   5.138   0.290   3.358 -0.2502 -0.1407 -0.2407
 1488poe    c23 9207   5.188   0.171   3.300 -0.0540 -0.2391  0.1251
 1488poe    c23 9208   5.256   0.189   3.163  0.2013  0.2520  0.3135
 1488poe     o2 9209   5.160   0.219   3.065  0.1739 -0.4272  0.1281
 1488poe    c23 9210   5.235   0.244   2.948 -0.4698  0.0332 -0.1961
 1488poe    c23 9211   5.191   0.367   2.867  0.4854  0.3687 -0.2158
 1488poe     o2 9212   5.266   0.480   2.906  0.6770  0.0058  0.4715
 1488poe    c23 9213   5.239   0.530   3.035  0.1148 -0.2416  0.4539
 1488poe    c23 9214   5.294   0.667   3.079  0.0968  0.0226 -0.3430
 1488poe     o2 9215   5.434   0.669   3.097  0.0578 -0.4873  0.0203
 1488poe    c31 9216   5.485   0.793   3.055  0.3604 -0.6619 -0.1277
 1489poe    c31 9217   6.769   3.128   6.275 -0.2772 -0.1709  0.1608
 1489poe     o2 9218   6.755   3.037   6.168 -0.3483  0.0487 -0.0190
 1489poe    c23 9219   6.853   2.936   6.175 -0.2985  0.0828 -0.2391
 1489poe    c23 9220   6.847   2.844   6.052  0.5356  0.2811 -0.4357
 1489poe     o2 9221   6.720   2.791   6.020  0.6410 -0.5856  0.5035
 1489poe    c23 9222   6.723   2.687   5.925  0.1579 -0.3128  0.1835
 1489poe    c23 9223   6.588   2.620   5.955 -0.0882  0.2783  0.4109
 1489poe     o2 9224   6.475   2.703   5.941 -0.1862  0.1022  0.1341
 1489poe    c23 9225   6.356   2.628   5.948  0.0613 -0.2683  0.3960
 1489poe    c23 9226   6.242   2.731   5.946  0.5646  0.2896 -0.7698
 1489poe     o2 9227   6.239   2.826   6.050  0.4053 -0.1276 -0.3853
 1489poe    c31 9228   6.150   2.934   6.032  0.2937 -0.1596 -0.0342
 1490poe    c31 9229   3.330   4.061   2.814  0.0419  0.0246  0.4522
 1490poe     o2 9230   3.202   4.014   2.780  0.1074 -0.2474  0.5770
 1490poe    c23 9231   3.213   3.963   2.649 -0.7952  0.4934  0.2013
 1490poe    c23 9232   3.144   4.050   2.542  0.1582  0.5955 -0.3393
 1490poe     o2 9233   3.008   4.078   2.568  0.0267 -0.1001 -0.2551
 1490poe    c23 9234   2.926   4.101   2.456 -0.2382 -0.2699 -0.0962
 1490poe    c23 9235   2.789   4.139   2.517 -0.2736  0.0216 -0.3540
 1490poe     o2 9236   2.815   4.244   2.607 -0.4591  0.1474 -0.4491
 1490poe    c23 9237   2.705   4.320   2.651 -0.7385 -0.2753 -0.4135
 1490poe    c23 9238   2.771   4.438   2.725 -0.3648 -0.5893 -0.2444
 1490poe     o2 9239   2.875   4.375   2.796 -0.0607  0.0292 -0.1404
 1490poe    c31 9240   2.902   4.451   2.912  0.7261 -0.2125 -0.1631
 1491poe    c31 9241   3.801   3.419   3.296 -0.1124 -0.9303  0.2555
 1491poe     o2 9242   3.775   3.428   3.434 -0.8603 -0.6113  0.1006
 1491poe    c23 9243   3.846   3.530   3.502 -0.4940 -0.3284 -0.6906
 1491poe    c23 9244   3.793   3.505   3.645 -0.3377 -0.4284 -0.6500
 1491poe     o2 9245   3.658   3.470   3.667 -0.4294  0.1818 -0.2226
 1491poe    c23 9246   3.618   3.484   3.801 -0.2188 -0.2244 -0.1183
 1491poe    c23 9247   3.479   3.422   3.826 -0.3920  0.0777 -0.3351
 1491poe     o2 9248   3.481   3.288   3.782  0.3292 -0.0898  0.1876
 1491poe    c23 9249   3.350   3.237   3.799  0.0848  0.2807 -0.5296
 1491poe    c23 9250   3.312   3.095   3.754 -0.2099  0.1052  0.2509
 1491poe     o2 9251   3.381   2.996   3.826 -0.1137 -0.2854 -0.3743
 1491poe    c31 9252   3.368   2.869   3.766 -0.0493 -0.4799  0.0188
 1492poe    c31 9253   5.961   1.949   3.287 -0.1523 -0.0365 -1.1207
 1492poe     o2 9254   5.878   1.851   3.346  0.7400 -0.0347  0.1776
 1492poe    c23 9255   5.749   1.857   3.291  1.0071 -0.1730 -0.4738
 1492poe    c23 9256   5.659   1.746   3.350  0.2913  0.3491 -0.5671
 1492poe     o2 9257   5.688   1.612   3.317 -0.1942  0.1458 -0.1867
 1492poe    c23 9258   5.638   1.514   3.404 -0.4227 -0.1603 -0.6565
 1492poe    c23 9259   5.684   1.372   3.368 -0.5201 -0.3095 -0.2008
 1492poe     o2 9260   5.825   1.374   3.360 -0.4690 -0.0008  0.6110
 1492poe    c23 9261   5.880   1.254   3.310  0.1189  0.5842 -0.1724
 1492poe    c23 9262   6.033   1.259   3.299  0.1749 -0.4907  0.0624
 1492poe     o2 9263   6.068   1.393   3.275  0.2264 -0.4711  0.2415
 1492poe    c31 9264   6.209   1.393   3.265  0.2500  0.6259  0.4440
 1493poe    c31 9265   6.318   4.663   6.097  1.0734  0.3858  0.4951
 1493poe     o2 9266   6.416   4.571   6.139  0.5358 -0.0715  0.7553
 1493poe    c23 9267   6.524   4.551   6.050  0.2025 -0.0245  0.3370
 1493poe    c23 9268   6.606   4.425   6.082 -0.1063 -0.3691 -0.2184
 1493poe     o2 9269   6.604   4.386   6.217 -0.4699  0.5362  0.0419
 1493poe    c23 9270   6.700   4.454   6.294  0.0097 -0.2701  0.1659
 1493poe    c23 9271   6.641   4.457   6.436  0.0656  0.2585  0.1804
 1493poe     o2 9272   6.509   4.502   6.413  0.3055  0.8445 -0.0745
 1493poe    c23 9273   6.440   4.522   6.534 -0.0842  0.0246 -0.1579
 1493poe    c23 9274   6.315   4.598   6.485 -0.4621 -0.6072 -0.1922
 1493poe     o2 9275   6.247   4.518   6.391  0.1687 -0.3773 -0.8522
 1493poe    c31 9276   6.111   4.508   6.425  0.1131  0.0486 -0.9429
 1494poe    c31 9277   1.034   5.144   5.167 -0.2957  0.3577 -0.1752
 1494poe     o2 9278   1.128   5.141   5.271 -0.4885  0.1074 -0.0082
 1494poe    c23 9279   1.251   5.187   5.219 -0.0963 -0.0469  0.7578
 1494poe    c23 9280   1.359   5.170   5.327  0.1179  0.0064  0.5498
 1494poe     o2 9281   1.332   5.043   5.381  0.3605 -0.4954 -0.4644
 1494poe    c23 9282   1.377   5.016   5.512  0.0366 -0.0468 -0.2571
 1494poe    c23 9283   1.315   4.879   5.546 -0.2336  0.2100  0.3096
 1494poe     o2 9284   1.175   4.880   5.528 -0.1988  0.0677  0.0202
 1494poe    c23 9285   1.109   4.759   5.561  0.8587 -0.4512  0.2771
 1494poe    c23 9286   1.062   4.738   5.707 -0.5885 -0.6913 -0.2094
 1494poe     o2 9287   0.971   4.841   5.739  0.4962  0.4408 -0.6598
 1494poe    c31 9288   0.905   4.816   5.861  0.4210  0.6592 -0.6560
 1495poe    c31 9289   4.094   3.370   2.999 -0.3396  0.3037 -0.0402
 1495poe     o2 9290   4.138   3.498   2.960 -0.0033  0.1355 -0.2249
 1495poe    c23 9291   4.276   3.477   2.943  0.0325 -0.1914  0.4573
 1495poe    c23 9292   4.337   3.617   2.924 -0.4766 -0.0660 -0.2968
 1495poe     o2 9293   4.250   3.710   2.985 -0.2027 -0.1156  0.1741
 1495poe    c23 9294   4.287   3.844   2.962 -0.2228 -0.1450 -0.0376
 1495poe    c23 9295   4.194   3.944   3.035  0.1480  0.4995 -0.4395
 1495poe     o2 9296   4.056   3.923   3.022  0.0931  0.7161 -0.2198
 1495poe    c23 9297   3.991   4.024   3.095  0.1246  0.5460  0.0423
 1495poe    c23 9298   3.848   3.984   3.136  0.2796 -0.5810 -0.4931
 1495poe     o2 9299   3.863   3.878   3.228  0.4805 -0.0307  0.1129
 1495poe    c31 9300   3.753   3.861   3.314  0.5798 -0.2893  0.1890
 1496poe    c31 9301   2.859   2.665   6.321 -0.3149  0.6464 -0.4843
 1496poe     o2 9302   2.814   2.540   6.274  0.0698  0.4433 -0.3211
 1496poe    c23 9303   2.674   2.545   6.258  0.0553  0.4660 -0.1873
 1496poe    c23 9304   2.626   2.407   6.304 -0.2542  0.7581  0.3812
 1496poe     o2 9305   2.706   2.302   6.253 -0.1749  0.4379  1.1462
 1496poe    c23 9306   2.648   2.176   6.226  0.3166  0.3013  0.7029
 1496poe    c23 9307   2.777   2.093   6.223  0.5596  0.6582  1.0753
 1496poe     o2 9308   2.882   2.138   6.141  0.0648 -0.1353 -0.0158
 1496poe    c23 9309   2.999   2.060   6.152 -0.0150 -0.3572 -0.6810
 1496poe    c23 9310   3.136   2.129   6.140 -0.1598 -0.0189 -0.3807
 1496poe     o2 9311   3.142   2.199   6.018 -0.0466 -0.1787 -0.4664
 1496poe    c31 9312   3.276   2.222   5.980 -0.0161  0.1969 -0.1442
 1497poe    c31 9313   1.490   2.703   4.155 -0.1376  0.9900 -0.3937
 1497poe     o2 9314   1.426   2.717   4.279 -0.1242  0.0119 -0.2681
 1497poe    c23 9315   1.481   2.837   4.330  0.2189 -0.0781 -0.4203
 1497poe    c23 9316   1.375   2.897   4.424 -0.1528 -0.6422 -0.4706
 1497poe     o2 9317   1.316   2.802   4.510 -0.3246  0.0442  0.1876
 1497poe    c23 9318   1.210   2.859   4.584 -0.5669 -0.0304 -0.0992
 1497poe    c23 9319   1.149   2.748   4.671  0.5829 -0.5368  0.0785
 1497poe     o2 9320   1.140   2.626   4.602 -0.0343 -0.3787 -0.1256
 1497poe    c23 9321   1.032   2.551   4.654 -0.4973  0.1281 -0.3430
 1497poe    c23 9322   1.003   2.421   4.575  0.3665 -0.2006 -0.1388
 1497poe     o2 9323   0.986   2.452   4.438 -0.0586 -0.5563 -0.1661
 1497poe    c31 9324   0.920   2.350   4.366 -0.7814 -0.1266 -0.1258
 1498poe    c31 9325   1.985   2.097   4.675  0.1789  0.0196 -0.0106
 1498poe     o2 9326   1.942   2.228   4.703 -0.1158 -0.2122  0.6575
 1498poe    c23 9327   1.801   2.234   4.703 -0.1424 -0.6492 -0.1959
 1498poe    c23 9328   1.760   2.381   4.682  0.6244 -0.2913  0.7461
 1498poe     o2 9329   1.854   2.442   4.597 -0.0775 -0.1365  0.0677
 1498poe    c23 9330   1.822   2.424   4.461  0.3718 -0.2255 -0.0295
 1498poe    c23 9331   1.961   2.436   4.395  0.2142 -0.3429 -0.3864
 1498poe     o2 9332   2.037   2.339   4.463 -0.2230 -0.4455 -0.0327
 1498poe    c23 9333   2.169   2.333   4.412 -0.2335 -0.4273 -0.0622
 1498poe    c23 9334   2.240   2.225   4.496  0.5731  0.0117 -0.1674
 1498poe     o2 9335   2.243   2.252   4.634 -0.1171 -0.6051 -0.0234
 1498poe    c31 9336   2.349   2.185   4.698  0.0752 -0.4039 -0.1299
 1499poe    c31 9337   2.298   3.480   0.727  1.0892  0.0565  0.0151
 1499poe     o2 9338   2.289   3.351   0.783  0.0714 -0.0226 -0.3127
 1499poe    c23 9339   2.158   3.300   0.791  0.1063 -0.1373 -0.4844
 1499poe    c23 9340   2.169   3.169   0.871  0.5594  0.1865 -0.0064
 1499poe     o2 9341   2.266   3.105   0.791  0.0314  0.0756 -0.5694
 1499poe    c23 9342   2.318   2.999   0.868 -0.8621 -0.0856 -0.1724
 1499poe    c23 9343   2.399   2.921   0.764  0.1399  0.1430  0.4184
 1499poe     o2 9344   2.498   3.004   0.707 -0.1677  0.3256  0.1485
 1499poe    c23 9345   2.523   2.961   0.575  0.1575 -0.3456  0.4258
 1499poe    c23 9346   2.672   2.985   0.545  0.1689 -0.6652  0.2237
 1499poe     o2 9347   2.700   3.123   0.540  0.0943 -0.6630 -0.2440
 1499poe    c31 9348   2.819   3.163   0.476  0.2410  0.1785  0.5366
 1500poe    c31 9349   5.995   6.126   2.576 -0.1388  0.0452  0.6761
 1500poe     o2 9350   6.039   6.238   2.649 -0.1691  0.1658  0.5075
 1500poe    c23 9351   6.133   6.185   2.739 -0.2492 -0.1540  0.4038
 1500poe    c23 9352   6.244   6.290   2.759 -0.2447  0.0571 -0.6634
 1500poe     o2 9353   6.303   6.330   2.638  0.3786  0.3221 -0.2771
 1500poe    c23 9354   6.390   6.439   2.658  0.6221  0.0596  0.1023
 1500poe    c23 9355   6.388   6.527   2.532 -0.0369  0.2559  0.2469
 1500poe     o2 9356   6.265   6.591   2.504 -0.0044  0.1567 -0.1391
 1500poe    c23 9357   6.284   6.663   2.385  0.3172  0.5389  0.1373
 1500poe    c23 9358   6.206   6.794   2.406 -0.4111  0.0682  0.4121
 1500poe     o2 9359   6.080   6.751   2.453 -0.3249  0.1156  0.6868
 1500poe    c31 9360   5.977   6.834   2.406 -0.7868 -0.7259  0.2047
 1501poe    c31 9361   1.134   2.208   5.516  0.3797 -0.0458 -0.1476
 1501poe     o2 9362   1.064   2.315   5.457  0.3950 -0.2957 -0.6256
 1501poe    c23 9363   0.938   2.261   5.423  0.2152 -0.3408  0.0859
 1501poe    c23 9364   0.847   2.381   5.389 -0.0964 -0.7134 -0.4032
 1501poe     o2 9365   0.925   2.463   5.304 -0.6210  0.7626  0.5020
 1501poe    c23 9366   0.858   2.571   5.244 -0.2887  0.4579 -0.4351
 1501poe    c23 9367   0.973   2.624   5.156  0.1599 -0.0390 -0.1538
 1501poe     o2 9368   1.092   2.633   5.230  0.3117  0.0976 -0.4125
 1501poe    c23 9369   1.207   2.702   5.187  0.0888  0.6186 -0.1890
 1501poe    c23 9370   1.281   2.654   5.061 -0.2611 -0.2835 -0.0621
 1501poe     o2 9371   1.326   2.521   5.072  0.0386 -0.1465  0.4030
 1501poe    c31 9372   1.372   2.492   4.942 -0.3831  0.1723  0.1815
 1502poe    c31 9373   0.602   2.299   3.381 -0.1818 -0.1289 -0.3249
 1502poe     o2 9374   0.492   2.372   3.331 -0.1397  0.3881  0.3342
 1502poe    c23 9375   0.426   2.300   3.230 -0.0159  0.2115  0.3776
 1502poe    c23 9376   0.330   2.395   3.155  0.4047  0.4035  0.0767
 1502poe     o2 9377   0.250   2.463   3.250  0.0878 -0.2159  0.2537
 1502poe    c23 9378   0.128   2.516   3.203  0.1840  0.1962  0.4684
 1502poe    c23 9379   0.045   2.526   3.333 -0.5079 -0.1390  0.0583
 1502poe     o2 9380   0.139   2.572   3.427 -0.1613 -0.2171 -0.2461
 1502poe    c23 9381   0.076   2.629   3.540 -0.0074  0.2725 -0.4024
 1502poe    c23 9382   0.163   2.719   3.629 -0.1101 -0.3383  0.3325
 1502poe     o2 9383   0.168   2.858   3.601  0.0657 -0.2465  0.8085
 1502poe    c31 9384   0.266   2.906   3.690  0.1051 -0.3694  0.8323
 1503poe    c31 9385   4.277   2.608   4.387  1.0740  0.5980 -0.2087
 1503poe     o2 9386   4.161   2.689   4.380  0.7529  0.1644  0.0287
 1503poe    c23 9387   4.152   2.780   4.487 -0.6652 -0.3326  0.3497
 1503poe    c23 9388   4.051   2.896   4.472 -0.2147 -0.0281 -0.3653
 1503poe     o2 9389   3.920   2.866   4.514 -0.1911 -0.0090 -0.2785
 1503poe    c23 9390   3.833   2.793   4.431 -0.4425  0.1075 -0.1188
 1503poe    c23 9391   3.684   2.825   4.451 -0.5489 -0.4210 -0.0387
 1503poe     o2 9392   3.642   2.936   4.375 -0.3606 -0.1110  0.3082
 1503poe    c23 9393   3.519   2.980   4.427 -0.2744  0.2850  0.1809
 1503poe    c23 9394   3.447   3.102   4.367  0.2287  0.3298 -0.3326
 1503poe     o2 9395   3.387   3.087   4.240  0.1702  0.0420 -0.2695
 1503poe    c31 9396   3.345   3.212   4.191 -0.3284 -0.0346 -0.0409
 1504poe    c31 9397   2.162   4.411   3.870 -0.0240 -0.3504  0.0534
 1504poe     o2 9398   2.030   4.365   3.851  0.0152 -0.1054 -0.8512
 1504poe    c23 9399   1.946   4.478   3.839 -0.0590 -0.0546  0.0917
 1504poe    c23 9400   1.805   4.432   3.879 -0.1664 -0.2651 -0.5252
 1504poe     o2 9401   1.784   4.318   3.798 -0.2565 -0.8182  0.2604
 1504poe    c23 9402   1.644   4.307   3.803 -0.3418 -0.0026 -0.0809
 1504poe    c23 9403   1.611   4.157   3.811 -0.6010  0.0177 -0.7063
 1504poe     o2 9404   1.672   4.091   3.703  0.3161 -0.2642 -0.0331
 1504poe    c23 9405   1.660   3.951   3.722 -0.1548 -0.2819 -0.4258
 1504poe    c23 9406   1.737   3.874   3.614 -0.0248 -0.6912 -0.0420
 1504poe     o2 9407   1.873   3.913   3.613 -0.3286  0.3859 -0.0326
 1504poe    c31 9408   1.939   3.822   3.698 -0.2252  0.4285 -0.0681
 1505poe    c31 9409   1.087   3.514   1.353  0.1731 -0.0175 -0.2254
 1505poe     o2 9410   1.168   3.622   1.315 -0.0692  0.0199 -0.6330
 1505poe    c23 9411   1.089   3.739   1.306 -0.3568 -0.1349 -0.1617
 1505poe    c23 9412   1.172   3.867   1.284  0.4345 -0.7897 -1.1176
 1505poe     o2 9413   1.278   3.868   1.377 -0.5152  0.4178 -0.0009
 1505poe    c23 9414   1.364   3.978   1.362 -0.1736  0.2066  0.3807
 1505poe    c23 9415   1.463   3.979   1.480 -0.0361  0.4198  0.2637
 1505poe     o2 9416   1.541   3.863   1.489  0.0436  0.5274  0.9825
 1505poe    c23 9417   1.600   3.874   1.617  0.6035  0.0254  0.7767
 1505poe    c23 9418   1.685   3.753   1.659  0.4799 -0.4798 -0.3866
 1505poe     o2 9419   1.597   3.644   1.676  0.0760 -0.1031 -0.0062
 1505poe    c31 9420   1.664   3.521   1.654 -0.5927 -0.4947  0.1203
 1506poe    c31 9421   2.987   5.496   6.283 -0.4500 -1.1070 -0.8657
 1506poe     o2 9422   2.861   5.559   6.293 -0.0321 -0.4193  0.3809
 1506poe    c23 9423   2.764   5.468   6.244 -0.1254 -0.0933 -0.0527
 1506poe    c23 9424   2.632   5.505   6.315 -0.0894  0.4952 -0.2864
 1506poe     o2 9425   2.617   5.637   6.269  0.0197  0.2359 -1.0851
 1506poe    c23 9426   2.508   5.704   6.328  0.4279 -0.4415  0.4917
 1506poe    c23 9427   2.500   5.833   6.246 -0.0250 -0.7169  0.0945
 1506poe     o2 9428   2.632   5.880   6.225 -0.2718 -0.2152 -0.3750
 1506poe    c23 9429   2.622   6.016   6.187 -0.2143 -0.0690  0.1226
 1506poe    c23 9430   2.755   6.093   6.197 -0.1845 -0.0692 -0.2674
 1506poe     o2 9431   2.802   6.075   6.329 -0.3658 -0.2816 -0.2311
 1506poe    c31 9432   2.846   6.197   6.383  0.3392 -0.5842 -0.1099
 1507poe    c31 9433   0.335   6.189   2.622 -0.2442  0.9049 -0.1109
 1507poe     o2 9434   0.383   6.193   2.489 -0.2775  0.0269 -0.1535
 1507poe    c23 9435   0.521   6.166   2.494 -0.0869  0.8946 -0.5637
 1507poe    c23 9436   0.585   6.224   2.366  0.5131 -0.0491 -0.7009
 1507poe     o2 9437   0.526   6.164   2.253 -0.5804 -0.0782 -0.1296
 1507poe    c23 9438   0.596   6.194   2.135  0.7152 -1.1587  0.3326
 1507poe    c23 9439   0.557   6.108   2.013  0.4113 -0.0135 -0.3931
 1507poe     o2 9440   0.595   5.973   2.017 -0.4174 -0.2373  0.3674
 1507poe    c23 9441   0.514   5.899   1.929 -0.1676  0.4020 -0.4121
 1507poe    c23 9442   0.576   5.855   1.795  0.3934  0.3452 -0.1339
 1507poe     o2 9443   0.654   5.739   1.813 -0.8839 -0.5955 -0.5019
 1507poe    c31 9444   0.684   5.690   1.685  0.4120  1.0738 -0.8711
 1508poe    c31 9445   6.115   2.433   4.002 -0.3667 -0.2587 -0.4170
 1508poe     o2 9446   6.088   2.384   3.872  0.1343  0.3479 -0.7601
 1508poe    c23 9447   6.212   2.328   3.836  0.1550 -0.3780  0.3713
 1508poe    c23 9448   6.196   2.236   3.713  0.6667 -0.3654  0.2910
 1508poe     o2 9449   6.127   2.116   3.740 -0.0429  0.0250  0.2303
 1508poe    c23 9450   6.056   2.073   3.625  0.2064 -0.5424  0.2869
 1508poe    c23 9451   5.962   1.963   3.679 -0.2846 -0.0097  0.5321
 1508poe     o2 9452   6.040   1.848   3.705  0.0392 -0.0380 -0.5098
 1508poe    c23 9453   5.957   1.745   3.755 -0.1872  0.1472 -0.5035
 1508poe    c23 9454   6.036   1.626   3.812 -0.2553  0.1926 -0.3141
 1508poe     o2 9455   6.096   1.546   3.713 -0.7437 -0.0950 -0.3799
 1508poe    c31 9456   6.099   1.411   3.753 -0.7115 -0.2396 -0.8547
 1509poe    c31 9457   6.426   3.314   3.438  0.0524 -0.1578  0.6941
 1509poe     o2 9458   6.306   3.381   3.470  0.0695  0.1943  0.0430
 1509poe    c23 9459   6.316   3.519   3.444  0.2781  0.2245  0.2715
 1509poe    c23 9460   6.209   3.600   3.521 -0.1352  0.1178 -0.1832
 1509poe     o2 9461   6.085   3.545   3.481  0.0412 -0.0817 -0.4623
 1509poe    c23 9462   5.985   3.616   3.550 -0.1376 -0.4550 -0.3352
 1509poe    c23 9463   5.843   3.566   3.518 -0.3710 -0.1193  0.1629
 1509poe     o2 9464   5.815   3.437   3.568 -0.1092 -0.2900 -0.1277
 1509poe    c23 9465   5.770   3.445   3.702  0.3332  0.7360 -0.0311
 1509poe    c23 9466   5.724   3.310   3.760  0.0184  0.7120 -0.3337
 1509poe     o2 9467   5.836   3.225   3.752 -0.4227  0.1191 -0.2475
 1509poe    c31 9468   5.817   3.105   3.823  0.3335  0.3086  0.2958
 1510poe    c31 9469   3.801   0.461   1.934 -0.3976  0.0667  0.3798
 1510poe     o2 9470   3.882   0.351   1.898 -0.4806  0.2175 -0.2784
 1510poe    c23 9471   3.813   0.240   1.845 -0.1248  0.1798 -0.6751
 1510poe    c23 9472   3.914   0.126   1.827 -0.2434 -0.0951  0.3451
 1510poe     o2 9473   3.981   0.097   1.948  1.2539 -0.1443 -0.4680
 1510poe    c23 9474   4.010  -0.041   1.954 -0.6928 -0.5798 -0.2250
 1510poe    c23 9475   4.043  -0.062   2.103 -0.5103  0.2351 -0.1463
 1510poe     o2 9476   4.117   0.051   2.144 -0.2957  0.1437 -0.2752
 1510poe    c23 9477   4.203   0.028   2.253 -0.1960 -0.8365 -0.5493
 1510poe    c23 9478   4.239   0.164   2.317  0.3996 -1.1940 -0.1140
 1510poe     o2 9479   4.291   0.256   2.223  0.2249 -0.3092  0.6417
 1510poe    c31 9480   4.283   0.384   2.280 -0.1871  0.1686 -0.4678
 1511poe    c31 9481   4.657   3.493   1.504  0.2875  0.7186 -0.1528
 1511poe     o2 9482   4.603   3.473   1.632  0.8505 -0.3320 -0.0673
 1511poe    c23 9483   4.488   3.391   1.639  0.2514  0.5463  0.5567
 1511poe    c23 9484   4.470   3.376   1.791 -0.6801  0.6163  0.4589
 1511poe     o2 9485   4.474   3.504   1.848  0.2345  0.8713 -0.1630
 1511poe    c23 9486   4.451   3.489   1.987  0.3884 -0.1148 -0.2374
 1511poe    c23 9487   4.492   3.622   2.054  0.3634 -0.3283  0.2021
 1511poe     o2 9488   4.619   3.662   2.008 -0.0892  0.2880 -0.5386
 1511poe    c23 9489   4.675   3.768   2.082 -0.0559  0.4000 -0.7226
 1511poe    c23 9490   4.816   3.803   2.032  0.4475  0.4709  0.7058
 1511poe     o2 9491   4.895   3.688   2.013 -0.3651 -0.0723  0.5448
 1511poe    c31 9492   4.922   3.616   2.132 -0.2480  0.7013  0.9985
 1512poe    c31 9493   2.865   1.719   2.263  0.3858  0.1374 -0.3572
 1512poe     o2 9494   2.747   1.754   2.195  0.2173  0.1956 -0.0349
 1512poe    c23 9495   2.779   1.778   2.060 -0.1746  0.0353 -0.1584
 1512poe    c23 9496   2.647   1.819   1.993  0.0663  0.3678 -0.4375
 1512poe     o2 9497   2.564   1.710   2.026  0.1996  0.3441 -0.1826
 1512poe    c23 9498   2.445   1.729   1.954 -0.2580  0.0265  0.4724
 1512poe    c23 9499   2.354   1.636   2.036  0.1148 -0.1998  0.6318
 1512poe     o2 9500   2.370   1.646   2.176 -0.1809 -0.4767  0.6886
 1512poe    c23 9501   2.304   1.750   2.245  0.5076  0.3383  0.1408
 1512poe    c23 9502   2.392   1.810   2.357 -0.3664 -0.0994  1.0720
 1512poe     o2 9503   2.529   1.821   2.325 -0.6477  0.4435 -0.0069
 1512poe    c31 9504   2.583   1.910   2.421  0.4302 -0.2825  0.0745
 1513poe    c31 9505   5.187   0.485   1.959 -0.3678 -0.0213 -0.1102
 1513poe     o2 9506   5.068   0.416   1.986 -0.2154 -0.0955  0.3697
 1513poe    c23 9507   5.017   0.495   2.091 -0.1490 -0.1244  0.4233
 1513poe    c23 9508   4.903   0.411   2.152  0.0049 -0.4126  0.3184
 1513poe     o2 9509   4.821   0.355   2.052  0.5949 -0.5030 -0.1199
 1513poe    c23 9510   4.745   0.260   2.123  0.1340 -0.3892 -0.4514
 1513poe    c23 9511   4.682   0.166   2.018 -0.2896 -0.1637 -0.4006
 1513poe     o2 9512   4.805   0.124   1.963 -0.1112 -0.2839  0.0773
 1513poe    c23 9513   4.783   0.036   1.855 -0.4127  0.2535 -0.3096
 1513poe    c23 9514   4.929   0.012   1.809 -0.0757  0.5976  0.5627
 1513poe     o2 9515   4.983   0.139   1.780  0.1004  0.3272 -0.2995
 1513poe    c31 9516   5.085   0.119   1.685  0.4123  0.6184 -0.0268
 1514poe    c31 9517   3.921   0.565   4.501 -0.0940 -0.1162 -0.1484
 1514poe     o2 9518   3.796   0.539   4.561 -0.0898  0.9565  0.3652
 1514poe    c23 9519   3.706   0.547   4.452  0.3402 -0.2728 -0.0970
 1514poe    c23 9520   3.583   0.638   4.471  0.9310  0.4026  0.5776
 1514poe     o2 9521   3.496   0.585   4.568  0.2630 -0.1103 -0.2798
 1514poe    c23 9522   3.414   0.474   4.541 -0.1020  0.2035 -0.4612
 1514poe    c23 9523   3.285   0.504   4.619  0.0661  0.2056 -0.1851
 1514poe     o2 9524   3.312   0.530   4.755 -0.8444 -0.0671  0.0559
 1514poe    c23 9525   3.193   0.555   4.826 -0.6155  0.9161  0.1097
 1514poe    c23 9526   3.209   0.549   4.979 -0.5283  0.9800  0.1034
 1514poe     o2 9527   3.309   0.636   5.026  0.3909 -0.2275  0.4313
 1514poe    c31 9528   3.329   0.622   5.165  0.5561  0.0027  0.4322
 1515poe    c31 9529   0.429   3.641   5.928 -0.4042  0.3544 -0.2112
 1515poe     o2 9530   0.433   3.512   5.871  0.1244  0.4121 -0.3093
 1515poe    c23 9531   0.564   3.498   5.821  0.1897  0.1971 -0.0803
 1515poe    c23 9532   0.608   3.358   5.773  0.6119  0.3816 -0.2318
 1515poe     o2 9533   0.557   3.306   5.653  0.6036  0.0166 -0.0695
 1515poe    c23 9534   0.648   3.326   5.547  0.2910 -0.3130 -0.4025
 1515poe    c23 9535   0.578   3.350   5.412 -0.0455 -0.2579 -0.2189
 1515poe     o2 9536   0.470   3.265   5.382  0.1198 -0.3206 -0.6428
 1515poe    c23 9537   0.484   3.139   5.322  0.8176 -0.6483  0.1929
 1515poe    c23 9538   0.465   3.136   5.169 -0.3077  0.0711  0.3083
 1515poe     o2 9539   0.337   3.166   5.119 -0.2735 -0.2832  0.0090
 1515poe    c31 9540   0.343   3.145   4.979  0.1948  1.0853 -0.1900
 1516poe    c31 9541   6.175   5.857   0.684  0.1742 -0.1322 -0.0826
 1516poe     o2 9542   6.298   5.886   0.620 -0.0195 -0.4272 -0.5925
 1516poe    c23 9543   6.394   5.795   0.669 -0.0728 -0.4602 -0.5484
 1516poe    c23 9544   6.533   5.830   0.610 -0.0294  0.4631  0.0743
 1516poe     o2 9545   6.539   5.816   0.470  0.4777  0.1897  0.1202
 1516poe    c23 9546   6.634   5.721   0.428  0.2280  0.0308 -0.0886
 1516poe    c23 9547   6.627   5.707   0.275 -0.3455 -0.1410 -0.0490
 1516poe     o2 9548   6.600   5.840   0.236  0.0590 -0.3182 -0.9755
 1516poe    c23 9549   6.524   5.843   0.118 -0.8397 -0.0477 -0.4003
 1516poe    c23 9550   6.511   5.990   0.074 -1.2410  0.1819  0.4581
 1516poe     o2 9551   6.489   6.062   0.192  0.1715  0.1762  0.7379
 1516poe    c31 9552   6.430   6.174   0.130 -0.4561 -0.3434  0.3946
 1517poe    c31 9553   6.162   4.940   1.312 -0.3552 -0.8969  0.1439
 1517poe     o2 9554   6.030   4.989   1.308  0.0199  0.2024  0.6469
 1517poe    c23 9555   5.936   4.890   1.274  0.4356 -0.1363  0.4763
 1517poe    c23 9556   5.801   4.948   1.229  0.6938  0.2207  0.1613
 1517poe     o2 9557   5.799   5.015   1.105 -0.4562 -0.2730 -0.1073
 1517poe    c23 9558   5.669   5.060   1.077 -0.4504  0.0420  0.3646
 1517poe    c23 9559   5.671   5.166   0.966  0.0403 -0.0698  0.2635
 1517poe     o2 9560   5.781   5.252   0.985  0.5085 -0.4974 -0.4428
 1517poe    c23 9561   5.807   5.343   0.880 -0.6209  0.7479  0.3187
 1517poe    c23 9562   5.916   5.435   0.939  0.0318  0.1057  0.1378
 1517poe     o2 9563   6.040   5.368   0.935  0.0054  0.0407  0.3529
 1517poe    c31 9564   6.144   5.456   0.971  0.3714  0.0623 -0.7249
 1518poe    c31 9565   4.937   2.712   0.542 -0.1904 -0.1848 -0.2017
 1518poe     o2 9566   4.979   2.845   0.526 -0.6396 -0.0645 -0.3633
 1518poe    c23 9567   5.118   2.838   0.544 -0.7493  0.0602  0.6061
 1518poe    c23 9568   5.165   2.976   0.595 -0.6319  0.0469  0.5359
 1518poe     o2 9569   5.081   3.075   0.541 -0.6646 -0.1569  0.2112
 1518poe    c23 9570   5.037   3.156   0.648  0.3563  0.2380  0.3394
 1518poe    c23 9571   4.900   3.217   0.613  0.1770 -0.4090 -0.0868
 1518poe     o2 9572   4.834   3.121   0.532 -0.3145 -0.6397  0.5824
 1518poe    c23 9573   4.702   3.152   0.493 -0.3122 -0.0868  1.0014
 1518poe    c23 9574   4.643   3.015   0.459 -0.3497  0.3112 -0.5805
 1518poe     o2 9575   4.742   2.940   0.391 -0.2400 -0.1608  0.0935
 1518poe    c31 9576   4.671   2.829   0.341  0.0052  0.0303 -0.6938
 1519poe    c31 9577   6.361   4.117   6.487  0.5001 -0.4398  0.3197
 1519poe     o2 9578   6.451   4.150   6.384  0.0696  0.3057  0.1684
 1519poe    c23 9579   6.565   4.066   6.382  0.3302  0.6686 -0.3067
 1519poe    c23 9580   6.625   4.054   6.240  0.1873  0.6046 -0.3616
 1519poe     o2 9581   6.522   4.010   6.154  0.0111  0.3039 -0.0003
 1519poe    c23 9582   6.550   4.015   6.016 -0.0893 -0.6160 -0.0584
 1519poe    c23 9583   6.430   4.016   5.920 -0.0513 -0.3257 -0.1032
 1519poe     o2 9584   6.344   3.904   5.920 -0.0175 -0.3512 -0.2565
 1519poe    c23 9585   6.220   3.938   5.862 -0.4399 -0.4508  0.5744
 1519poe    c23 9586   6.117   3.826   5.837 -0.8599  0.1676 -0.4836
 1519poe     o2 9587   6.141   3.735   5.732  0.2722  0.4074 -0.4492
 1519poe    c31 9588   6.251   3.647   5.735  0.0379  0.1216 -0.0210
 1520poe    c31 9589   1.183   6.893   4.659 -0.2619  0.1049 -0.2922
 1520poe     o2 9590   1.200   6.890   4.519  0.4964 -0.3376 -0.1951
 1520poe    c23 9591   1.094   6.953   4.450  0.4678  0.0320  0.1775
 1520poe    c23 9592   1.012   6.848   4.372  0.2661  0.3422 -0.0267
 1520poe     o2 9593   1.114   6.788   4.296  0.0296 -0.2267  0.1038
 1520poe    c23 9594   1.102   6.802   4.156  0.0608  0.2901  0.1532
 1520poe    c23 9595   1.232   6.762   4.085 -0.3899 -0.5334 -0.2123
 1520poe     o2 9596   1.311   6.813   4.189 -0.4125 -0.2389 -0.3387
 1520poe    c23 9597   1.443   6.814   4.140 -0.2411  0.4116  0.1158
 1520poe    c23 9598   1.523   6.875   4.257  0.1878 -0.8286  0.4880
 1520poe     o2 9599   1.460   6.854   4.381  0.3400  0.2883  0.7601
 1520poe    c31 9600   1.542   6.893   4.489  0.2677  0.1714  0.8584
 1521poe    c31 9601   6.734   6.379   5.079 -0.1310 -0.3040  0.1709
 1521poe     o2 9602   6.602   6.342   5.045 -0.1281  0.1505 -0.3530
 1521poe    c23 9603   6.582   6.353   4.906 -0.2921  0.4319 -0.3059
 1521poe    c23 9604   6.435   6.317   4.874 -0.0396 -1.0903  0.2197
 1521poe     o2 9605   6.353   6.392   4.961  0.0912 -0.1953 -0.4271
 1521poe    c23 9606   6.218   6.353   4.955 -0.1431  0.4544  0.5315
 1521poe    c23 9607   6.128   6.473   4.994 -0.4453  0.1982  0.6312
 1521poe     o2 9608   6.146   6.522   5.125 -0.2188  0.2244  0.5911
 1521poe    c23 9609   6.124   6.661   5.132  0.0458  0.3010 -0.0242
 1521poe    c23 9610   6.153   6.709   5.275  0.2436 -0.4297  0.1878
 1521poe     o2 9611   6.287   6.677   5.306  0.6298  0.5024 -0.4459
 1521poe    c31 9612   6.309   6.739   5.431  0.2603  0.0073 -0.1325
 1522poe    c31 9613   3.931   4.633   1.142 -0.0739 -0.5863  0.3613
 1522poe     o2 9614   3.935   4.507   1.080 -0.5489 -0.1213 -0.6449
 1522poe    c23 9615   3.848   4.435   1.164  0.4808 -0.1688  0.4145
 1522poe    c23 9616   3.854   4.289   1.115  0.7237 -0.0507  0.0851
 1522poe     o2 9617   3.976   4.220   1.100  0.5998 -0.1741 -0.3549
 1522poe    c23 9618   3.948   4.101   1.028 -0.1277 -0.2601  0.0594
 1522poe    c23 9619   4.068   4.006   1.040 -0.2217 -0.3923 -0.0473
 1522poe     o2 9620   4.177   4.065   0.972 -0.3409 -0.1425 -0.0215
 1522poe    c23 9621   4.300   3.998   0.981 -0.0568  0.3172 -0.4166
 1522poe    c23 9622   4.410   4.098   0.943 -0.4973  0.7927 -0.4473
 1522poe     o2 9623   4.366   4.212   1.013 -0.2259  0.3661  0.4205
 1522poe    c31 9624   4.472   4.304   1.013  0.4538 -0.3997  0.5132
 1523poe    c31 9625   5.083   2.078   2.676 -0.2161  0.5707 -0.0484
 1523poe     o2 9626   5.062   1.940   2.700  0.8930  0.3716 -0.1917
 1523poe    c23 9627   5.177   1.883   2.759  0.2990 -0.0225  0.6043
 1523poe    c23 9628   5.164   1.737   2.804  0.1179 -0.1113  0.2706
 1523poe     o2 9629   5.090   1.734   2.924 -0.4839  0.3014 -0.0863
 1523poe    c23 9630   5.163   1.760   3.042 -0.9087  0.0194  0.2415
 1523poe    c23 9631   5.078   1.748   3.170  0.1515  0.0222  0.9624
 1523poe     o2 9632   4.962   1.823   3.141  0.1291 -0.1806  0.5169
 1523poe    c23 9633   4.895   1.846   3.263  0.1314  0.4052  0.4077
 1523poe    c23 9634   4.795   1.960   3.236 -0.0173  0.1744 -0.0130
 1523poe     o2 9635   4.737   1.943   3.108 -0.1286 -0.6642  0.1391
 1523poe    c31 9636   4.624   2.026   3.098 -0.0830 -0.5908  0.2291
 1524poe    c31 9637   5.169   6.086   2.041 -0.3539 -0.5079  0.2182
 1524poe     o2 9638   5.039   6.138   2.027 -0.0694  0.1159 -0.1468
 1524poe    c23 9639   4.974   6.069   1.923  0.4987  0.2455 -0.5892
 1524poe    c23 9640   4.853   6.158   1.891  0.4892  0.3747 -0.1981
 1524poe     o2 9641   4.815   6.236   2.002 -0.6356 -0.0644 -0.2606
 1524poe    c23 9642   4.693   6.305   1.985 -0.7650 -0.2055  0.0936
 1524poe    c23 9643   4.639   6.334   2.127 -0.4356 -0.0027  0.1787
 1524poe     o2 9644   4.720   6.419   2.205 -0.0272 -0.4544  0.2551
 1524poe    c23 9645   4.683   6.555   2.187 -0.1437 -0.4342  0.6430
 1524poe    c23 9646   4.780   6.643   2.267  0.5492 -0.6388  0.0406
 1524poe     o2 9647   4.916   6.643   2.228  0.4321 -0.1193 -0.3769
 1524poe    c31 9648   4.975   6.712   2.336 -0.5406 -1.1838  0.8673
 1525poe    c31 9649   4.681   1.270   5.765 -0.3560 -0.0039 -0.4352
 1525poe     o2 9650   4.605   1.369   5.701 -0.7175  0.3012  0.4432
 1525poe    c23 9651   4.687   1.447   5.617 -0.2244 -0.1824  0.4660
 1525poe    c23 9652   4.607   1.568   5.562 -0.4434 -0.5643 -0.0688
 1525poe     o2 9653   4.542   1.616   5.677  0.4597  0.2887  0.1062
 1525poe    c23 9654   4.471   1.734   5.649 -0.1824 -0.1287 -0.0485
 1525poe    c23 9655   4.337   1.755   5.723 -0.3734  0.6205 -0.5891
 1525poe     o2 9656   4.238   1.659   5.694  0.3505 -0.2421 -0.2870
 1525poe    c23 9657   4.140   1.643   5.794 -0.0220  0.3751 -0.5450
 1525poe    c23 9658   4.026   1.561   5.733  0.2232 -0.2136 -0.2180
 1525poe     o2 9659   4.066   1.432   5.691  0.2874 -0.3044  0.1223
 1525poe    c31 9660   3.955   1.365   5.636  0.4299 -0.0860 -0.4305
 1526poe    c31 9661   3.259   6.970   4.440  0.0396 -0.4160 -0.0146
 1526poe     o2 9662   3.183   6.853   4.418  0.1626 -0.4658 -0.1720
 1526poe    c23 9663   3.047   6.888   4.412  0.2494 -0.1648 -0.4193
 1526poe    c23 9664   2.953   6.848   4.527  0.9058 -0.2756  0.0872
 1526poe     o2 9665   2.907   6.715   4.531  0.2622 -0.0533  0.2303
 1526poe    c23 9666   3.005   6.623   4.571  0.3461 -0.1372 -0.1610
 1526poe    c23 9667   2.935   6.499   4.630  0.7953 -0.4271 -0.2319
 1526poe     o2 9668   2.823   6.468   4.551  0.2775  0.4559  0.1352
 1526poe    c23 9669   2.731   6.392   4.626  0.5677 -0.5669 -0.5233
 1526poe    c23 9670   2.595   6.399   4.553  0.1231 -0.4070  0.3104
 1526poe     o2 9671   2.616   6.480   4.439 -0.3159 -0.6267  0.0717
 1526poe    c31 9672   2.516   6.445   4.345 -0.7456  0.5674  0.0741
 1527poe    c31 9673   1.902   6.741   5.506 -0.0621 -0.3861  0.1732
 1527poe     o2 9674   2.037   6.704   5.528  0.0851  0.0833  0.0625
 1527poe    c23 9675   2.123   6.813   5.502 -0.1936  0.1579 -0.5874
 1527poe    c23 9676   2.269   6.765   5.494 -0.3006 -0.2447 -0.1850
 1527poe     o2 9677   2.321   6.734   5.622 -0.6993 -0.1323  0.0051
 1527poe    c23 9678   2.425   6.639   5.623 -0.5353  0.0463  0.0996
 1527poe    c23 9679   2.403   6.506   5.547  0.1645  0.5398 -0.9858
 1527poe     o2 9680   2.268   6.472   5.564  0.5314 -0.1478  0.8023
 1527poe    c23 9681   2.256   6.346   5.502 -0.1247  0.3336 -0.0850
 1527poe    c23 9682   2.112   6.291   5.503 -0.1364  0.3572 -0.3543
 1527poe     o2 9683   2.022   6.392   5.462 -0.2513  0.7032  0.7207
 1527poe    c31 9684   1.904   6.326   5.421  0.5443 -0.3638  0.0983
 1528poe    c31 9685   2.317   5.448   4.870  0.1673  0.2923  0.2656
 1528poe     o2 9686   2.363   5.524   4.760 -0.5881  0.1994 -0.1183
 1528poe    c23 9687   2.487   5.580   4.794 -1.1133  0.9767  0.5395
 1528poe    c23 9688   2.545   5.666   4.680 -0.6569  0.3624  0.3024
 1528poe     o2 9689   2.448   5.753   4.626 -0.9672 -0.5245 -0.5804
 1528poe    c23 9690   2.495   5.816   4.509 -0.4753 -0.4026 -0.3193
 1528poe    c23 9691   2.379   5.892   4.442 -0.2122  0.6663  0.4084
 1528poe     o2 9692   2.258   5.834   4.488 -0.1682  0.2602  0.0274
 1528poe    c23 9693   2.139   5.909   4.491 -0.2579  0.0939  0.5948
 1528poe    c23 9694   2.039   5.828   4.576 -0.4049 -0.4685 -0.1060
 1528poe     o2 9695   2.099   5.777   4.693 -0.2331  0.6280  0.2907
 1528poe    c31 9696   2.009   5.713   4.780  0.6024 -0.1565  0.5910
 1529poe    c31 9697   5.241   5.270   2.698 -0.0689  0.1630  0.6821
 1529poe     o2 9698   5.192   5.350   2.593  0.6651 -0.5198 -0.1938
 1529poe    c23 9699   5.274   5.465   2.583 -0.5579  0.4214  0.3366
 1529poe    c23 9700   5.187   5.561   2.500 -0.3935 -0.0991 -0.4466
 1529poe     o2 9701   5.139   5.491   2.387  0.1203 -0.1316 -0.6488
 1529poe    c23 9702   5.011   5.529   2.340  0.3114  0.6265 -0.5611
 1529poe    c23 9703   4.967   5.426   2.234 -0.4011  0.0705  0.2689
 1529poe     o2 9704   5.004   5.296   2.274 -0.0519  0.1522  0.2103
 1529poe    c23 9705   4.957   5.211   2.172  0.4567  0.5037 -0.3241
 1529poe    c23 9706   5.066   5.149   2.082 -0.0269 -0.0068 -0.5654
 1529poe     o2 9707   5.167   5.098   2.166 -0.3284  0.3153  0.0015
 1529poe    c31 9708   5.224   4.977   2.120 -0.5312  0.3592 -0.3690
 1530poe    c31 9709   1.110   5.927   4.512 -0.6399  0.0917  0.1388
 1530poe     o2 9710   1.128   5.803   4.446 -0.0358  0.0157  0.4420
 1530poe    c23 9711   1.259   5.778   4.402 -0.3278 -0.2566 -0.2786
 1530poe    c23 9712   1.359   5.766   4.519 -0.7479  0.4072  0.1510
 1530poe     o2 9713   1.309   5.670   4.609 -0.0961 -0.1284 -0.0550
 1530poe    c23 9714   1.403   5.634   4.708 -0.4583 -0.5670  0.1317
 1530poe    c23 9715   1.337   5.532   4.803  0.1920 -0.6511  0.4973
 1530poe     o2 9716   1.278   5.430   4.726  0.1636 -0.2538 -0.0183
 1530poe    c23 9717   1.182   5.359   4.802 -0.3113  0.0816 -0.3035
 1530poe    c23 9718   1.144   5.239   4.712 -0.1798  0.2194 -0.5454
 1530poe     o2 9719   1.082   5.303   4.604  0.2396  0.2488 -0.7701
 1530poe    c31 9720   0.993   5.220   4.532 -0.0587 -0.0245 -0.0939
 1531poe    c31 9721   3.537   3.634   1.468 -0.2108 -0.6548 -0.1295
 1531poe     o2 9722   3.603   3.742   1.406  0.1202 -0.4562  0.5494
 1531poe    c23 9723   3.508   3.840   1.372  0.0095 -0.7227  0.0702
 1531poe    c23 9724   3.593   3.967   1.353 -0.7323 -0.1841  0.2805
 1531poe     o2 9725   3.692   3.960   1.454  0.2482 -0.4596 -0.6771
 1531poe    c23 9726   3.764   4.081   1.455 -0.3497 -0.1065  0.1630
 1531poe    c23 9727   3.854   4.099   1.579 -0.5944 -0.0195  0.3295
 1531poe     o2 9728   3.952   3.998   1.583 -0.4965  0.0654  0.0696
 1531poe    c23 9729   4.062   4.049   1.657 -0.4964 -0.2350  0.2767
 1531poe    c23 9730   4.158   3.929   1.666  0.0177  0.1630  0.1049
 1531poe     o2 9731   4.077   3.825   1.714  0.0302 -0.1034 -0.4439
 1531poe    c31 9732   4.164   3.723   1.758 -0.3408 -0.2559 -0.0551
 1532poe    c31 9733   1.014   7.017   5.762  0.0871  0.0310 -0.1604
 1532poe     o2 9734   1.085   6.901   5.797 -0.0972 -0.0252  0.0323
 1532poe    c23 9735   1.088   6.808   5.690 -0.1043  0.1536 -0.1249
 1532poe    c23 9736   1.199   6.705   5.717 -0.0287  0.0599 -0.7851
 1532poe     o2 9737   1.159   6.666   5.846  0.6058  0.5921 -0.4214
 1532poe    c23 9738   1.261   6.595   5.913  0.1612  0.5574  0.2250
 1532poe    c23 9739   1.206   6.565   6.054  0.4926  0.5848  0.3607
 1532poe     o2 9740   1.155   6.691   6.092  0.4100  0.7067 -0.1503
 1532poe    c23 9741   1.154   6.706   6.232  0.2369 -0.8135  0.0323
 1532poe    c23 9742   1.275   6.786   6.285 -0.1621  0.1621 -0.4916
 1532poe     o2 9743   1.296   6.923   6.262  0.2286  0.1966  0.0445
 1532poe    c31 9744   1.385   6.982   6.354 -0.1882 -0.3954  0.8403
 1533poe    c31 9745   5.566   5.749   6.202 -0.4679 -0.2625 -0.5619
 1533poe     o2 9746   5.510   5.790   6.079 -0.8364  0.1845 -0.2514
 1533poe    c23 9747   5.607   5.846   5.993 -0.3852  0.1166  0.2097
 1533poe    c23 9748   5.547   5.876   5.855  0.4598  0.7329 -0.0347
 1533poe     o2 9749   5.528   5.757   5.782 -0.5725  0.6085  0.4108
 1533poe    c23 9750   5.447   5.763   5.667  0.4871 -0.3791 -0.4004
 1533poe    c23 9751   5.296   5.735   5.679  0.5005 -0.0271  0.6743
 1533poe     o2 9752   5.221   5.824   5.757 -0.5544  0.1505 -0.5056
 1533poe    c23 9753   5.216   5.961   5.721  0.4097  0.3517  0.0794
 1533poe    c23 9754   5.086   6.042   5.742 -0.1480 -0.1802 -1.2115
 1533poe     o2 9755   5.105   6.175   5.698 -0.3054  0.0815 -0.4963
 1533poe    c31 9756   4.978   6.235   5.683 -0.0030  0.7810 -0.2619
 1534poe    c31 9757   4.653   1.385   6.348  0.6275  0.5788  0.8255
 1534poe     o2 9758   4.778   1.450   6.332  0.4893  0.7720  0.5341
 1534poe    c23 9759   4.821   1.422   6.201 -0.3098  0.2281  0.3817
 1534poe    c23 9760   4.963   1.476   6.177 -0.2595  0.3001  0.8396
 1534poe     o2 9761   4.969   1.617   6.181 -0.0083  0.3405 -0.5853
 1534poe    c23 9762   5.096   1.658   6.133 -0.0304  0.1484 -0.8121
 1534poe    c23 9763   5.117   1.809   6.154 -0.3950  0.0570  0.2644
 1534poe     o2 9764   5.053   1.850   6.273 -0.4630 -0.0764  0.2730
 1534poe    c23 9765   5.062   1.979   6.329 -0.8736  0.1278 -0.1239
 1534poe    c23 9766   4.991   1.990   6.465 -0.2094 -1.0364  0.3325
 1534poe     o2 9767   4.862   1.959   6.416 -0.2544 -0.4041  0.0447
 1534poe    c31 9768   4.771   2.015   6.507  0.0837 -0.3595  0.3593
 1535poe    c31 9769   2.599   5.033   4.476  0.1848  0.1969  0.0025
 1535poe     o2 9770   2.589   4.893   4.475 -0.0336  0.1971  1.0440
 1535poe    c23 9771   2.486   4.859   4.565 -0.7266  0.5779  0.4081
 1535poe    c23 9772   2.478   4.708   4.596 -0.1425  0.4724  0.0607
 1535poe     o2 9773   2.453   4.646   4.472 -0.3101  0.0716  0.2905
 1535poe    c23 9774   2.453   4.509   4.505 -0.6726  0.1361  0.5585
 1535poe    c23 9775   2.408   4.427   4.383 -0.2226  0.6707  0.0242
 1535poe     o2 9776   2.481   4.469   4.270 -0.2768  0.1566 -0.2067
 1535poe    c23 9777   2.442   4.404   4.152  0.2755 -0.5035 -0.0333
 1535poe    c23 9778   2.567   4.388   4.064  0.0420  0.3797 -0.5391
 1535poe     o2 9779   2.650   4.501   4.083  0.1731  0.1792  0.1095
 1535poe    c31 9780   2.738   4.490   3.973  0.0996 -0.4603  0.1098
 1536poe    c31 9781   4.613   2.934   3.550  0.3413 -0.3498  0.9628
 1536poe     o2 9782   4.547   2.910   3.673 -0.8202 -0.1893  0.3837
 1536poe    c23 9783   4.595   2.790   3.729  0.0290  0.1412  0.3741
 1536poe    c23 9784   4.526   2.757   3.862  0.3466 -0.2501  0.4418
 1536poe     o2 9785   4.549   2.838   3.975 -0.0129  0.5225 -0.0328
 1536poe    c23 9786   4.456   2.810   4.078 -0.1135  0.4231 -0.1511
 1536poe    c23 9787   4.461   2.929   4.176 -0.1687  0.1950  0.1283
 1536poe     o2 9788   4.590   2.984   4.178 -0.2671  0.4376 -0.1656
 1536poe    c23 9789   4.610   3.057   4.297 -0.0043  0.7047 -0.3722
 1536poe    c23 9790   4.755   3.109   4.283  0.1700  0.3125 -0.0375
 1536poe     o2 9791   4.780   3.126   4.146  0.0289 -0.0168 -0.1038
 1536poe    c31 9792   4.841   3.252   4.129 -0.8636  0.4175 -0.1137
 1537poe    c31 9793   5.428   2.893   6.292  0.2170  0.3521  0.4401
 1537poe     o2 9794   5.378   3.021   6.324 -0.2990  0.3383 -0.3067
 1537poe    c23 9795   5.425   3.072   6.446  0.3274  0.2556 -0.5117
 1537poe    c23 9796   5.344   3.196   6.486  0.1471 -0.0250  0.0027
 1537poe     o2 9797   5.211   3.162   6.521  0.2907  0.1410  0.7379
 1537poe    c23 9798   5.152   3.257   6.606 -0.3804  0.5211 -0.1319
 1537poe    c23 9799   5.014   3.217   6.662 -0.1887  0.1879  0.1062
 1537poe     o2 9800   4.955   3.141   6.559  0.1909 -0.0709  0.0754
 1537poe    c23 9801   4.824   3.169   6.515  0.2238 -0.1612 -0.0792
 1537poe    c23 9802   4.819   3.259   6.390 -0.0686 -0.1539 -0.0641
 1537poe     o2 9803   4.839   3.393   6.428  0.3522 -0.1481 -0.2919
 1537poe    c31 9804   4.849   3.487   6.323 -0.4081  0.0958 -0.1595
 1538poe    c31 9805   4.761   6.621   5.998 -0.8035  0.1032  0.0956
 1538poe     o2 9806   4.851   6.721   5.958 -0.5999 -0.0950  0.0570
 1538poe    c23 9807   4.780   6.839   5.929  0.0029  0.3731  0.4742
 1538poe    c23 9808   4.891   6.946   5.934  0.0351  0.3234  0.8444
 1538poe     o2 9809   5.002   6.900   5.861 -0.2435  0.9504  0.0078
 1538poe    c23 9810   5.109   6.990   5.879  0.6609 -0.1116  0.0432
 1538poe    c23 9811   5.233   6.938   5.804  0.8651  0.3313  0.0671
 1538poe     o2 9812   5.233   6.797   5.807  0.0672  0.3262 -0.0799
 1538poe    c23 9813   5.352   6.738   5.761 -0.1968 -0.0044 -0.3484
 1538poe    c23 9814   5.322   6.621   5.666  0.3006 -0.5483  0.1618
 1538poe     o2 9815   5.254   6.666   5.551  0.2151  0.0901  0.4585
 1538poe    c31 9816   5.257   6.557   5.461  0.2133  0.6458 -0.2226
 1539poe    c31 9817   0.547   3.101   1.261  0.7375  0.0996 -0.1646
 1539poe     o2 9818   0.559   3.143   1.395  0.0385  0.2112 -0.1363
 1539poe    c23 9819   0.429   3.154   1.448 -0.0940 -0.7023 -0.2604
 1539poe    c23 9820   0.449   3.253   1.564  0.5100 -0.0688 -0.9012
 1539poe     o2 9821   0.548   3.200   1.650 -0.2490  0.1515  0.1287
 1539poe    c23 9822   0.567   3.279   1.765 -0.0740 -0.0037  0.2055
 1539poe    c23 9823   0.692   3.364   1.733 -0.3607  0.1783 -0.4489
 1539poe     o2 9824   0.777   3.266   1.678  0.1527  0.4188 -0.0873
 1539poe    c23 9825   0.883   3.232   1.765 -0.1321 -0.1936  0.0274
 1539poe    c23 9826   1.023   3.245   1.700 -0.1060 -0.0203  0.1184
 1539poe     o2 9827   1.052   3.170   1.584 -0.0448  0.4723 -0.1902
 1539poe    c31 9828   1.115   3.054   1.634  0.0432  0.7110  0.2569
 1540poe    c31 9829   7.024   2.628   4.448  0.2144 -0.4156 -0.4216
 1540poe     o2 9830   7.099   2.646   4.565 -0.2000  0.3683 -0.2700
 1540poe    c23 9831   7.017   2.652   4.680 -0.1113 -0.3531 -0.1656
 1540poe    c23 9832   7.098   2.647   4.811 -0.6734  0.0570  0.2006
 1540poe     o2 9833   7.204   2.737   4.786 -0.2956 -0.3612  0.2873
 1540poe    c23 9834   7.318   2.691   4.856 -0.1640 -0.2413  0.1518
 1540poe    c23 9835   7.432   2.790   4.822 -0.1191 -0.4920 -0.4547
 1540poe     o2 9836   7.438   2.811   4.683  0.3093  0.8087 -0.2510
 1540poe    c23 9837   7.561   2.868   4.646  0.6376  0.1966 -0.1117
 1540poe    c23 9838   7.545   3.000   4.569  0.2899  0.5314  0.5243
 1540poe     o2 9839   7.484   2.974   4.444 -0.6296  0.4805  0.9731
 1540poe    c31 9840   7.495   3.092   4.366  0.1395 -0.2306 -0.0272
 1541poe    c31 9841   4.517   3.479   6.016  0.3208  0.1028  0.1515
 1541poe     o2 9842   4.392   3.492   5.951  0.5316  0.1186 -0.2572
 1541poe    c23 9843   4.417   3.494   5.813  0.5714 -0.3106 -0.2571
 1541poe    c23 9844   4.280   3.527   5.751  0.4428  0.0664  0.2246
 1541poe     o2 9845   4.216   3.621   5.834  0.4312 -0.0272  0.3227
 1541poe    c23 9846   4.114   3.672   5.752  0.3373  0.5474  0.7906
 1541poe    c23 9847   4.036   3.780   5.830 -0.2361  0.7681 -0.0676
 1541poe     o2 9848   3.920   3.752   5.906 -0.4484  0.5177 -0.4780
 1541poe    c23 9849   3.825   3.679   5.831  0.2885 -0.5701 -0.3722
 1541poe    c23 9850   3.686   3.667   5.895  0.5843 -0.5861  0.2716
 1541poe     o2 9851   3.689   3.591   6.014  0.0812 -0.5224  0.3277
 1541poe    c31 9852   3.565   3.532   6.046  0.0251 -0.3987  0.3353
 1542poe    c31 9853   4.643   6.421   6.573 -0.0155  0.6926  0.4483
 1542poe     o2 9854   4.510   6.424   6.525 -0.0231 -0.0404  0.4059
 1542poe    c23 9855   4.496   6.481   6.397  0.1410 -0.5305  0.1684
 1542poe    c23 9856   4.361   6.444   6.333  0.2202 -0.3744 -0.0917
 1542poe     o2 9857   4.245   6.477   6.406  0.0411  0.5514 -0.7712
 1542poe    c23 9858   4.138   6.404   6.350  0.2679 -0.2102 -0.2330
 1542poe    c23 9859   4.099   6.292   6.448 -0.0875  0.0275 -0.1017
 1542poe     o2 9860   4.057   6.341   6.573  0.1269 -0.9434  0.3615
 1542poe    c23 9861   4.009   6.241   6.660  0.1254 -0.8086  0.5160
 1542poe    c23 9862   3.929   6.297   6.780 -0.1912  0.0142 -0.0697
 1542poe     o2 9863   4.010   6.402   6.826 -0.1308 -0.2873  0.5169
 1542poe    c31 9864   3.946   6.487   6.919  0.0930  0.3999  0.0485
 1543poe    c31 9865   5.623   0.380   5.757 -0.2059 -0.2577  0.1041
 1543poe     o2 9866   5.727   0.439   5.832  0.0889 -0.0843 -0.4404
 1543poe    c23 9867   5.855   0.458   5.777  0.2240  0.0855 -0.0702
 1543poe    c23 9868   5.949   0.460   5.899 -0.0839  0.1368  0.1654
 1543poe     o2 9869   5.913   0.565   5.986 -0.3651 -0.0123  0.2291
 1543poe    c23 9870   5.997   0.591   6.096  0.1907 -0.1186 -0.1672
 1543poe    c23 9871   5.949   0.711   6.180  0.0103  0.2118 -0.7302
 1543poe     o2 9872   5.810   0.685   6.187  0.1481 -0.3909 -0.1079
 1543poe    c23 9873   5.749   0.797   6.247 -0.0034 -0.4005 -0.2437
 1543poe    c23 9874   5.611   0.767   6.308 -0.0206 -0.1975 -0.1823
 1543poe     o2 9875   5.518   0.700   6.226 -0.3718 -0.0372  0.0852
 1543poe    c31 9876   5.386   0.699   6.277 -0.4842  0.5523 -0.1946
 1544poe    c31 9877   0.230   2.403   2.813  0.4943 -0.4712 -0.3680
 1544poe     o2 9878   0.280   2.276   2.846  0.3674 -0.4155  0.0359
 1544poe    c23 9879   0.179   2.182   2.875  0.1632 -0.0358  0.5801
 1544poe    c23 9880   0.105   2.114   2.758  0.4987  0.1899  0.2330
 1544poe     o2 9881   0.034   1.999   2.798  0.7222 -0.0761 -0.1379
 1544poe    c23 9882   0.016   1.909   2.691 -0.8551  0.6062 -0.4740
 1544poe    c23 9883  -0.131   1.863   2.683 -0.6074 -0.2782 -0.0755
 1544poe     o2 9884  -0.179   1.782   2.788 -0.3628 -0.1524  0.1332
 1544poe    c23 9885  -0.304   1.726   2.754 -0.5247  0.4708 -0.3151
 1544poe    c23 9886  -0.323   1.603   2.844  0.4513  0.0549 -0.6566
 1544poe     o2 9887  -0.293   1.659   2.970 -0.3329  0.0312 -0.4487
 1544poe    c31 9888  -0.335   1.568   3.070 -0.3842  0.9007  0.3324
 1545poe    c31 9889   1.101   6.972   1.168  0.5576 -0.4098 -0.2170
 1545poe     o2 9890   1.001   6.922   1.254  0.7119  0.2400  0.3507
 1545poe    c23 9891   1.042   6.819   1.340  0.1382  0.3749  0.7944
 1545poe    c23 9892   0.925   6.755   1.416 -0.6792  0.7145 -0.1586
 1545poe     o2 9893   0.816   6.723   1.332 -0.3128 -0.1624 -0.3134
 1545poe    c23 9894   0.693   6.766   1.387  0.0353 -0.4192  0.6889
 1545poe    c23 9895   0.577   6.699   1.312  0.2859 -0.3609  0.2432
 1545poe     o2 9896   0.575   6.715   1.172  0.2620 -0.0537  0.2782
 1545poe    c23 9897   0.476   6.625   1.128  0.2167  0.2501 -0.2418
 1545poe    c23 9898   0.531   6.487   1.087  0.1238  0.1921 -0.1701
 1545poe     o2 9899   0.601   6.492   0.965  0.0904  0.0024 -0.1972
 1545poe    c31 9900   0.517   6.486   0.853  0.4352 -0.3136 -0.4424
 1546poe    c31 9901   4.140   5.907   6.287 -0.7826 -0.2106  0.4825
 1546poe     o2 9902   4.147   5.808   6.186 -0.3099 -0.2972  0.5948
 1546poe    c23 9903   4.274   5.754   6.159 -0.1718  0.0307  0.5800
 1546poe    c23 9904   4.271   5.602   6.133 -0.2345  0.1662 -0.2275
 1546poe     o2 9905   4.205   5.540   6.026 -0.2916 -0.1317 -0.0219
 1546poe    c23 9906   4.196   5.402   6.055 -0.3919 -0.1181  0.0126
 1546poe    c23 9907   4.122   5.330   5.941 -0.0769  0.2425 -0.4249
 1546poe     o2 9908   4.002   5.403   5.928  0.2899  0.8045 -0.6613
 1546poe    c23 9909   3.943   5.382   5.801 -0.0847 -0.1046 -0.3426
 1546poe    c23 9910   3.817   5.472   5.798 -0.4653 -0.6141  0.0751
 1546poe     o2 9911   3.843   5.609   5.817 -0.1816 -0.6273 -0.1886
 1546poe    c31 9912   3.729   5.690   5.795 -0.2317 -0.7568 -0.4073
 1547poe    c31 9913   0.603   6.910   0.152  0.4123  0.2513  0.8832
 1547poe     o2 9914   0.499   7.003   0.170 -0.0413 -0.1308  0.2777
 1547poe    c23 9915   0.412   6.985   0.060  0.1460  0.6414  0.0010
 1547poe    c23 9916   0.269   7.028   0.095  0.1966  0.3395  0.5818
 1547poe     o2 9917   0.251   7.167   0.113  0.2736  0.3566  0.5261
 1547poe    c23 9918   0.117   7.210   0.121  0.1964  0.2270 -0.0080
 1547poe    c23 9919   0.105   7.347   0.052 -0.7346  0.3372  0.3519
 1547poe     o2 9920   0.055   7.335  -0.080  0.1589 -0.2761  0.0609
 1547poe    c23 9921  -0.012   7.452  -0.120  0.3562 -0.1627  0.0585
 1547poe    c23 9922  -0.024   7.461  -0.273  0.6714 -0.4499  0.0158
 1547poe     o2 9923   0.089   7.518  -0.335  0.3509  0.2476  0.0650
 1547poe    c31 9924   0.061   7.520  -0.473 -0.1950  0.3254  0.1771
 1548poe    c31 9925   6.454   5.051   2.716 -0.3816 -0.2969 -0.2487
 1548poe     o2 9926   6.520   4.942   2.777 -0.2980  0.3310  0.7943
 1548poe    c23 9927   6.642   4.985   2.834  0.4001 -0.2595 -0.2287
 1548poe    c23 9928   6.692   4.866   2.918 -0.0066 -0.5179 -0.3471
 1548poe     o2 9929   6.597   4.808   3.004  0.0134  0.3380  0.2637
 1548poe    c23 9930   6.624   4.846   3.137  0.4628 -0.1411  0.3087
 1548poe    c23 9931   6.518   4.776   3.223  0.1532 -0.0600 -0.0059
 1548poe     o2 9932   6.521   4.641   3.183 -0.1925 -0.0468 -0.0756
 1548poe    c23 9933   6.406   4.568   3.220 -0.0229  0.1288  0.8021
 1548poe    c23 9934   6.404   4.431   3.151  0.1526  0.5098  0.0359
 1548poe     o2 9935   6.417   4.447   3.011 -0.0280 -0.1350 -0.0560
 1548poe    c31 9936   6.298   4.415   2.944 -0.0950 -0.0856  0.0394
 1549poe    c31 9937   5.925   1.177   6.013  0.5296  0.5101  0.3248
 1549poe     o2 9938   5.862   1.242   5.905  0.3545 -0.3261 -0.0892
 1549poe    c23 9939   5.880   1.185   5.778  0.2136  0.3534 -0.4210
 1549poe    c23 9940   5.806   1.269   5.672 -0.7044  0.1955  0.0828
 1549poe     o2 9941   5.686   1.305   5.736 -0.6683  0.1224  0.1925
 1549poe    c23 9942   5.606   1.392   5.658  0.4340  0.5315 -0.4975
 1549poe    c23 9943   5.616   1.527   5.730  0.0396  0.3899 -0.1749
 1549poe     o2 9944   5.593   1.490   5.864 -0.3606  0.3963 -0.2424
 1549poe    c23 9945   5.637   1.593   5.950 -0.4272 -0.0159  0.2896
 1549poe    c23 9946   5.685   1.540   6.087 -0.5118 -0.4758  0.1412
 1549poe     o2 9947   5.775   1.431   6.085 -0.2558 -0.2596 -0.1112
 1549poe    c31 9948   5.796   1.419   6.224  0.4772  0.2000 -0.1749
 1550poe    c31 9949   4.815   4.333   3.679 -0.4373  0.2555 -0.1416
 1550poe     o2 9950   4.931   4.254   3.697 -0.3440  0.3523 -0.3148
 1550poe    c23 9951   5.006   4.294   3.809 -0.2612  0.0520 -0.2626
 1550poe    c23 9952   5.159   4.278   3.794 -0.3391 -0.5482 -0.4256
 1550poe     o2 9953   5.193   4.141   3.797 -0.2625 -0.5222 -0.0560
 1550poe    c23 9954   5.333   4.135   3.778 -0.1667 -0.1330  0.4918
 1550poe    c23 9955   5.379   4.037   3.669 -0.9271 -0.1239  0.1537
 1550poe     o2 9956   5.334   3.911   3.715 -0.0038 -0.4655  0.1545
 1550poe    c23 9957   5.394   3.804   3.647 -0.4328 -0.1743 -0.7028
 1550poe    c23 9958   5.377   3.682   3.739  0.2107  0.1195 -0.1900
 1550poe     o2 9959   5.250   3.621   3.731  0.2442  0.0215  0.0086
 1550poe    c31 9960   5.247   3.527   3.627 -0.4476 -0.7544  0.7166
 1551poe    c31 9961   4.044   5.574   2.301  0.3792 -0.4694  0.6408
 1551poe     o2 9962   4.050   5.434   2.307 -0.1440 -0.5052  0.4186
 1551poe    c23 9963   4.179   5.397   2.263 -0.2859  0.1729 -0.6116
 1551poe    c23 9964   4.202   5.251   2.219  0.1160  0.1627 -0.3727
 1551poe     o2 9965   4.151   5.225   2.090 -0.5813 -0.1669 -0.0320
 1551poe    c23 9966   4.187   5.101   2.033 -0.6284 -0.4733  0.5958
 1551poe    c23 9967   4.119   5.065   1.899  0.1613 -0.8505  0.2901
 1551poe     o2 9968   3.983   5.047   1.931  0.2146 -1.2251  0.3045
 1551poe    c23 9969   3.905   5.032   1.815  0.1362  0.5042  0.1195
 1551poe    c23 9970   3.760   5.025   1.867  0.2797 -0.2358  0.4174
 1551poe     o2 9971   3.751   5.109   1.980 -0.6112  0.2490 -0.0100
 1551poe    c31 9972   3.629   5.088   2.048 -0.5190 -0.6942 -0.1210
 1552poe    c31 9973   2.910   3.810   4.117 -0.6027  0.1537  1.0562
 1552poe     o2 9974   2.881   3.672   4.119 -1.1527  0.2269 -0.4172
 1552poe    c23 9975   2.956   3.605   4.020  0.0370  0.4827  0.2946
 1552poe    c23 9976   2.943   3.452   4.018  0.9428  0.4066 -0.1315
 1552poe     o2 9977   2.982   3.393   4.140 -0.2513 -0.5936 -0.2149
 1552poe    c23 9978   2.892   3.285   4.144 -0.4093 -0.4475  0.1489
 1552poe    c23 9979   2.871   3.229   4.286 -0.0032  0.4988  0.5879
 1552poe     o2 9980   2.980   3.151   4.331 -0.0672  0.0485 -0.0357
 1552poe    c23 9981   2.936   3.101   4.455  0.0674  0.2066  0.0753
 1552poe    c23 9982   3.038   2.997   4.506  0.1024  0.1888 -0.0316
 1552poe     o2 9983   3.057   2.874   4.440  0.5165 -0.1098  0.6320
 1552poe    c31 9984   3.069   2.766   4.529 -0.3741 -0.3191  0.5114
 1553poe    c31 9985   0.610   3.168   2.611  0.1629 -0.2536  0.3218
 1553poe     o2 9986   0.722   3.115   2.677  0.0456  0.1164  0.8206
 1553poe    c23 9987   0.709   2.975   2.667 -0.0431  0.1681  0.1837
 1553poe    c23 9988   0.796   2.900   2.564  0.3213  0.2452  0.4339
 1553poe     o2 9989   0.932   2.903   2.599  0.3296  0.4468  0.3847
 1553poe    c23 9990   0.978   2.818   2.701  0.2576 -0.1685 -0.0943
 1553poe    c23 9991   1.128   2.848   2.712  0.2581  0.0983 -0.7883
 1553poe     o2 9992   1.152   2.987   2.706 -0.4566  0.2350 -0.5382
 1553poe    c23 9993   1.267   3.016   2.783 -0.3993 -0.5869 -0.3021
 1553poe    c23 9994   1.309   3.160   2.750  0.0663 -0.5631  0.3723
 1553poe     o2 9995   1.190   3.236   2.758  0.2359 -0.2861  0.3063
 1553poe    c31 9996   1.209   3.375   2.762 -0.5712 -0.1631  0.1025
 1554poe    c31 9997   2.987   2.592   6.699 -0.8262 -0.3300 -0.2214
 1554poe     o2 9998   2.926   2.650   6.812  0.1205 -0.1123  0.1871
 1554poe    c23 9999   2.834   2.555   6.860 -0.1505  0.0283 -0.0517
 1554poe    c2310000   2.725   2.651   6.911  0.0941  0.3359 -0.1036
 1554poe     o210001   2.786   2.747   6.995  0.4363 -0.1927  0.2581
 1554poe    c2310002   2.701   2.788   7.099 -0.3753 -0.3318 -0.3418
 1554poe    c2310003   2.768   2.891   7.192  0.0000 -0.1285 -0.8341
 1554poe     o210004   2.815   2.998   7.112  0.4901  0.2255 -0.0825
 1554poe    c2310005   2.916   3.073   7.175  0.0937  0.7154 -0.0287
 1554poe    c2310006   2.992   3.173   7.085  0.0553  0.4706 -0.3345
 1554poe     o210007   3.082   3.114   6.994 -0.1461 -0.2408 -0.0863
 1554poe    c3110008   3.143   3.212   6.912  0.0153 -0.3043 -0.0426
 1555poe    c3110009   4.734   0.485   2.929 -0.3246  0.4672 -0.5039
 1555poe     o210010   4.619   0.543   2.870 -0.6287  0.4346  0.0446
 1555poe    c2310011   4.514   0.450   2.860 -0.1055 -0.2178  0.5704
 1555poe    c2310012   4.377   0.515   2.886 -0.2721 -0.4687  0.3288
 1555poe     o210013   4.367   0.638   2.819 -0.3787 -0.1689  0.8879
 1555poe    c2310014   4.255   0.712   2.862 -0.3078  0.4223  0.0869
 1555poe    c2310015   4.235   0.825   2.760 -0.4121 -0.3563 -0.7663
 1555poe     o210016   4.365   0.879   2.749 -0.3904 -0.3248 -0.3700
 1555poe    c2310017   4.403   0.917   2.618 -0.2992  0.2013 -0.1939
 1555poe    c2310018   4.472   0.802   2.543 -0.2366 -0.0185  0.2006
 1555poe     o210019   4.547   0.719   2.629 -0.4738 -0.2416  0.1963
 1555poe    c3110020   4.626   0.636   2.548 -0.3014  0.0814  0.0293
 1556poe    c3110021   4.813   2.684   4.481  0.4796 -0.1919 -0.2808
 1556poe     o210022   4.814   2.580   4.575 -0.2504 -0.1174 -0.1899
 1556poe    c2310023   4.940   2.519   4.560 -0.0074  0.1676  0.6502
 1556poe    c2310024   4.955   2.418   4.676  0.4076  0.0282  0.4775
 1556poe     o210025   4.861   2.315   4.659 -0.0965  0.4828  0.4667
 1556poe    c2310026   4.902   2.207   4.741 -0.0886  0.1943  0.0865
 1556poe    c2310027   4.805   2.210   4.861 -0.2140 -0.4266  0.0001
 1556poe     o210028   4.676   2.176   4.816 -0.3407  0.3126 -0.2086
 1556poe    c2310029   4.574   2.181   4.913 -0.4253  0.4019 -0.3019
 1556poe    c2310030   4.443   2.166   4.834 -0.6631  0.0379  0.1549
 1556poe     o210031   4.439   2.263   4.731  0.2883 -0.0082  0.0651
 1556poe    c3110032   4.306   2.303   4.707  0.4252  0.5530  0.2426
 1557poe    c3110033   4.946   5.563   1.036 -0.0767  0.0265  0.4201
 1557poe     o210034   4.854   5.514   0.941  0.1757 -0.7340  0.5641
 1557poe    c2310035   4.715   5.525   0.961  0.1388 -0.1332  0.0099
 1557poe    c2310036   4.617   5.465   0.858 -0.2202 -0.1604  0.3649
 1557poe     o210037   4.590   5.327   0.863  0.3989 -0.3093 -0.2887
 1557poe    c2310038   4.527   5.281   0.745 -0.3006 -0.5067  0.1580
 1557poe    c2310039   4.536   5.128   0.750  0.7791 -0.4435  0.2939
 1557poe     o210040   4.457   5.064   0.847 -0.9760  0.4427 -0.5137
 1557poe    c2310041   4.449   4.925   0.822 -0.4011  0.2701  0.2365
 1557poe    c2310042   4.345   4.857   0.912 -0.5875 -0.0481 -0.2216
 1557poe     o210043   4.397   4.806   1.032  0.0051 -0.2662 -0.5670
 1557poe    c3110044   4.341   4.683   1.070  0.1788 -0.1479  0.0879
 1558poe    c3110045   4.121   1.099   3.167  0.0079 -0.2402  0.8600
 1558poe     o210046   4.037   1.212   3.167  0.1109 -0.1404 -0.6243
 1558poe    c2310047   4.059   1.305   3.063 -0.9915  0.6013 -0.2187
 1558poe    c2310048   3.974   1.432   3.079 -0.4950  0.8342  0.6585
 1558poe     o210049   3.858   1.393   3.150  0.0740 -0.1545  1.0602
 1558poe    c2310050   3.767   1.499   3.167 -0.3591 -0.2259 -0.6165
 1558poe    c2310051   3.629   1.432   3.185 -0.2240 -0.4073 -0.2365
 1558poe     o210052   3.620   1.343   3.294 -0.3702  0.2464  0.2961
 1558poe    c2310053   3.487   1.299   3.306 -0.0013 -0.8912  0.3208
 1558poe    c2310054   3.454   1.171   3.227 -1.2031 -0.7086  0.4971
 1558poe     o210055   3.519   1.057   3.281  0.0531 -0.4242 -0.3650
 1558poe    c3110056   3.488   0.946   3.200 -0.2935  0.0085 -0.8403
 1559poe    c3110057   2.605   2.971   4.260 -0.4719  0.4704  0.4896
 1559poe     o210058   2.652   2.847   4.309 -0.0526  0.2811 -0.3756
 1559poe    c2310059   2.551   2.777   4.378  0.9404 -0.6045  0.2226
 1559poe    c2310060   2.591   2.662   4.472 -0.1988 -0.5217  0.8313
 1559poe     o210061   2.647   2.553   4.402 -0.2447 -0.0854  0.0987
 1559poe    c2310062   2.767   2.511   4.462 -0.0547 -0.3217 -0.4526
 1559poe    c2310063   2.819   2.407   4.360  0.2406 -0.3041 -0.3225
 1559poe     o210064   2.903   2.476   4.271 -0.0890 -0.0289 -0.4247
 1559poe    c2310065   2.939   2.378   4.176  0.6889 -0.3109  0.1441
 1559poe    c2310066   2.989   2.443   4.045  0.4307 -0.1161  0.1406
 1559poe     o210067   3.103   2.525   4.052  0.4007 -0.0685  0.0728
 1559poe    c3110068   3.147   2.550   3.921 -0.0583  0.6524  0.0494
 1560poe    c3110069   3.504   5.203   2.927  0.2153  0.2687 -0.0514
 1560poe     o210070   3.478   5.211   3.065 -0.6568  0.2722 -0.2148
 1560poe    c2310071   3.595   5.190   3.141 -0.2845 -0.0012 -0.8590
 1560poe    c2310072   3.572   5.231   3.288  0.0755 -0.9073 -0.5386
 1560poe     o210073   3.499   5.141   3.367 -0.0226 -0.3762 -0.0193
 1560poe    c2310074   3.507   5.176   3.504 -0.4069  0.0880 -0.1128
 1560poe    c2310075   3.473   5.046   3.580  0.0608 -0.0354 -0.1093
 1560poe     o210076   3.365   4.996   3.503  0.2515 -0.4663 -0.0960
 1560poe    c2310077   3.320   4.872   3.552  0.2460 -0.5140 -0.2226
 1560poe    c2310078   3.217   4.831   3.445 -0.0814  0.2656 -0.2082
 1560poe     o210079   3.265   4.853   3.314 -0.2447 -0.1196 -0.3331
 1560poe    c3110080   3.183   4.782   3.224 -0.3781  0.2646 -0.5180
 1561poe    c3110081   1.275   2.492   3.510  0.5983 -0.7580  0.2472
 1561poe     o210082   1.289   2.452   3.644 -0.4347 -0.1433  0.5496
 1561poe    c2310083   1.320   2.561   3.728  0.4875  0.6197 -0.7504
 1561poe    c2310084   1.309   2.534   3.879 -0.0659 -0.2091 -0.9291
 1561poe     o210085   1.388   2.429   3.931 -0.5743 -0.0735  0.1381
 1561poe    c2310086   1.344   2.391   4.060  0.0115  0.5239  0.5198
 1561poe    c2310087   1.435   2.278   4.111  0.5102  0.6373 -0.1090
 1561poe     o210088   1.502   2.222   4.000  0.0111  0.4034 -0.2935
 1561poe    c2310089   1.577   2.106   4.027 -0.2134  0.1522 -0.7451
 1561poe    c2310090   1.667   2.096   3.902  0.3834 -0.2808 -0.2882
 1561poe     o210091   1.596   2.090   3.780 -0.2061 -0.3747  0.0532
 1561poe    c3110092   1.688   2.069   3.675  0.1347  0.0249  0.2686
 1562poe    c3110093   4.700   6.752   6.391 -0.1302  0.2020  0.1031
 1562poe     o210094   4.743   6.868   6.460 -0.0880 -0.1250  0.6255
 1562poe    c2310095   4.638   6.942   6.520 -0.0569 -0.1526  0.7145
 1562poe    c2310096   4.719   7.050   6.594 -0.6288  0.7671  0.0133
 1562poe     o210097   4.820   7.100   6.510 -0.1807  0.3893  0.3236
 1562poe    c2310098   4.896   7.201   6.572  0.1370  0.3831 -0.0492
 1562poe    c2310099   5.002   7.257   6.476  0.5923  0.4957  0.5122
 1562poe     o210100   5.092   7.152   6.448  0.0222  0.0022  0.5309
 1562poe    c2310101   5.226   7.190   6.429  0.0360 -0.3083 -0.0266
 1562poe    c2310102   5.304   7.068   6.376 -0.5398 -0.7350  0.1073
 1562poe     o210103   5.232   7.010   6.269 -0.1703 -0.4568 -0.2931
 1562poe    c3110104   5.319   6.932   6.190  0.2365 -0.5496  0.2458
 1563poe    c3110105   1.024   6.209   0.119  0.7099 -0.6682  0.4854
 1563poe     o210106   1.131   6.300   0.104 -0.1737  0.3422  0.1816
 1563poe    c2310107   1.157   6.381   0.217 -0.3495 -0.0560  0.5094
 1563poe    c2310108   1.074   6.508   0.244 -0.4428 -0.0968  0.4183
 1563poe     o210109   0.952   6.466   0.299 -0.5107 -0.1483  0.2290
 1563poe    c2310110   0.859   6.571   0.312 -0.0799  0.2730 -0.1012
 1563poe    c2310111   0.745   6.556   0.414  0.1841 -0.2101  0.1254
 1563poe     o210112   0.668   6.442   0.381 -0.3535  0.3065 -0.4304
 1563poe    c2310113   0.532   6.450   0.415 -0.0720  0.3389  0.7248
 1563poe    c2310114   0.463   6.328   0.350  0.2161  0.3455  0.4072
 1563poe     o210115   0.483   6.212   0.428  0.0326 -0.1566 -0.2810
 1563poe    c3110116   0.478   6.099   0.344 -0.3449 -0.4268  0.1047
 1564poe    c3110117   3.868   0.881   6.378  0.1042  0.2770 -0.1795
 1564poe     o210118   3.942   0.764   6.350 -0.1360  0.1202 -0.1588
 1564poe    c2310119   3.999   0.771   6.222 -0.5655 -0.1323 -0.3700
 1564poe    c2310120   4.086   0.646   6.199  0.3471  0.4127  0.0178
 1564poe     o210121   4.012   0.540   6.256  0.4156  0.0824 -0.4947
 1564poe    c2310122   4.070   0.424   6.202  0.7137 -0.1037  0.2050
 1564poe    c2310123   3.997   0.293   6.239  0.1757  0.1968  0.2193
 1564poe     o210124   4.011   0.275   6.378 -0.5338  0.3572  0.3132
 1564poe    c2310125   3.933   0.164   6.417 -0.2404  0.1628  0.3511
 1564poe    c2310126   3.911   0.169   6.569 -0.1650  0.2280  0.3596
 1564poe     o210127   3.825   0.277   6.600 -0.4279  0.0975  0.0850
 1564poe    c3110128   3.764   0.249   6.724  0.0262  0.9040  0.4933
 1565poe    c3110129   0.679   5.665   1.159 -0.2831  0.0608 -0.5811
 1565poe     o210130   0.643   5.560   1.073  0.3227 -0.7611  0.1501
 1565poe    c2310131   0.508   5.569   1.032  0.3443  0.1668  0.2559
 1565poe    c2310132   0.427   5.440   1.056 -0.3198  0.4391 -0.5083
 1565poe     o210133   0.521   5.336   1.048 -0.0839  0.5744  0.3833
 1565poe    c2310134   0.476   5.233   1.133  0.1565  0.3097  0.1933
 1565poe    c2310135   0.595   5.142   1.170 -0.0376 -0.1786 -0.3652
 1565poe     o210136   0.686   5.245   1.201 -0.3689 -0.1462  0.5241
 1565poe    c2310137   0.799   5.191   1.266 -0.1442  0.1873  0.4185
 1565poe    c2310138   0.883   5.319   1.276 -0.3127  0.2986  0.4174
 1565poe     o210139   0.869   5.406   1.167  0.0956  0.2087  0.2904
 1565poe    c3110140   0.970   5.504   1.161 -0.2453  0.5489  0.0625
 1566poe    c3110141   4.780   0.303   6.953 -0.0266  1.1682 -0.9087
 1566poe     o210142   4.714   0.401   7.029 -0.5079  0.1658 -0.0200
 1566poe    c2310143   4.821   0.457   7.101 -0.8215  0.1533  0.4653
 1566poe    c2310144   4.770   0.520   7.232 -0.0611  0.5327  0.5892
 1566poe     o210145   4.701   0.643   7.230 -0.5815  0.2474  0.5117
 1566poe    c2310146   4.775   0.726   7.317 -0.1073  0.4429 -0.0703
 1566poe    c2310147   4.701   0.861   7.327  0.3393  0.7388 -0.6969
 1566poe     o210148   4.615   0.885   7.218 -0.7020 -0.0925 -0.0716
 1566poe    c2310149   4.598   1.023   7.196  0.0829 -0.0836 -0.6534
 1566poe    c2310150   4.511   1.058   7.073 -0.3106 -0.1012 -0.3804
 1566poe     o210151   4.580   1.065   6.951 -0.3413 -0.2675 -0.4078
 1566poe    c3110152   4.497   1.131   6.858 -0.6927 -0.1052  0.0166
 1567poe    c3110153   5.613   5.342   0.236 -0.0774 -0.1337 -0.6228
 1567poe     o210154   5.483   5.386   0.266 -0.1647 -0.5646 -0.3669
 1567poe    c2310155   5.426   5.445   0.151  0.0780 -0.4890 -0.4491
 1567poe    c2310156   5.291   5.516   0.170  0.2355 -0.2451 -0.2431
 1567poe     o210157   5.212   5.443   0.262  0.4790 -0.9007 -0.5513
 1567poe    c2310158   5.077   5.483   0.264  0.8774  0.4523  0.5375
 1567poe    c2310159   4.999   5.385   0.354  0.1834  0.3226 -0.1925
 1567poe     o210160   5.044   5.384   0.488  0.4263 -0.1230 -0.2742
 1567poe    c2310161   4.959   5.321   0.581  0.5409  0.1870  0.0433
 1567poe    c2310162   5.055   5.258   0.683  0.2708 -0.2704  0.0190
 1567poe     o210163   5.134   5.145   0.656 -0.0394 -0.5606  0.3135
 1567poe    c3110164   5.197   5.104   0.776  0.0948 -0.1751  0.3752
 1568poe    c3110165   2.032   3.967   3.338  0.1375  0.4782 -0.0394
 1568poe     o210166   1.903   3.970   3.282 -0.0037 -0.6715  0.2048
 1568poe    c2310167   1.868   3.847   3.223  0.0220 -0.2309 -0.7493
 1568poe    c2310168   1.744   3.879   3.137 -0.4356 -0.2843 -0.1203
 1568poe     o210169   1.683   3.984   3.208  0.0427  0.7746 -1.2303
 1568poe    c2310170   1.543   3.982   3.194 -0.1536  0.1018  0.5720
 1568poe    c2310171   1.474   4.115   3.229 -0.1420  0.2071  0.1935
 1568poe     o210172   1.541   4.225   3.172  0.1188 -0.1304 -0.1617
 1568poe    c2310173   1.440   4.313   3.126  0.2427  0.3922  0.5475
 1568poe    c2310174   1.505   4.449   3.092  0.1384  0.2920 -0.0675
 1568poe     o210175   1.610   4.419   3.004  0.4950  0.0789  0.4203
 1568poe    c3110176   1.703   4.525   2.994 -0.3383  0.7741 -0.1676
 1569poe    c3110177   2.792   0.328   0.963  0.4251 -0.4308 -0.9690
 1569poe     o210178   2.719   0.214   1.003  0.1891  0.1869  0.4400
 1569poe    c2310179   2.777   0.099   0.945  0.0728 -0.1004  0.8917
 1569poe    c2310180   2.674  -0.009   0.982  0.3953 -0.5957  0.3574
 1569poe     o210181   2.654  -0.038   1.119 -0.6660  0.1306  0.3641
 1569poe    c2310182   2.533  -0.111   1.119 -0.6016  0.0195  0.0410
 1569poe    c2310183   2.515  -0.179   1.257  0.6129 -0.3553  0.0260
 1569poe     o210184   2.529  -0.081   1.357  0.1441 -0.4464  0.1804
 1569poe    c2310185   2.479  -0.128   1.480 -0.5614 -0.4324 -0.0955
 1569poe    c2310186   2.478  -0.028   1.597  0.0394 -0.1587 -0.3229
 1569poe     o210187   2.593   0.053   1.582 -0.3908  0.5324  0.0953
 1569poe    c3110188   2.673   0.060   1.698  0.3567  0.2185 -0.3963
 1570poe    c3110189   2.276   6.704   4.155 -0.6786 -0.6203  0.4366
 1570poe     o210190   2.217   6.803   4.237 -0.0836  0.2225 -0.1334
 1570poe    c2310191   2.269   6.803   4.368 -0.3854 -0.3688 -0.0104
 1570poe    c2310192   2.235   6.930   4.447 -0.3210 -0.1182 -0.3827
 1570poe     o210193   2.096   6.952   4.429 -0.4371 -0.0574  0.5434
 1570poe    c2310194   2.065   7.084   4.466 -0.0660  0.0842  0.3593
 1570poe    c2310195   1.929   7.127   4.408  0.2704 -0.3423 -0.7661
 1570poe     o210196   1.905   7.110   4.270 -0.1813 -0.2593 -0.7001
 1570poe    c2310197   1.783   7.163   4.221 -0.0792  0.2601 -0.4034
 1570poe    c2310198   1.760   7.133   4.072 -0.2697 -0.0032 -0.3227
 1570poe     o210199   1.764   6.996   4.040  0.5992 -0.0174 -0.1781
 1570poe    c3110200   1.713   6.989   3.909  0.0337 -0.4973  0.0611
 1571poe    c3110201   5.243   1.028   1.173  0.4049  0.0625  1.1735
 1571poe     o210202   5.383   1.018   1.181  0.5556  0.3019 -0.8091
 1571poe    c2310203   5.418   0.883   1.160  0.1991  0.1258 -0.2703
 1571poe    c2310204   5.567   0.867   1.195  0.1675 -0.2114 -0.2876
 1571poe     o210205   5.590   0.925   1.321 -0.5156 -0.6043  0.0288
 1571poe    c2310206   5.719   0.904   1.374 -0.5191  0.5814  0.5376
 1571poe    c2310207   5.748   0.967   1.511  0.1667  0.8419  0.2816
 1571poe     o210208   5.710   1.100   1.489 -0.6626  0.5025 -0.3940
 1571poe    c2310209   5.743   1.189   1.593 -1.0024 -0.0902  0.2296
 1571poe    c2310210   5.659   1.318   1.607 -0.4394  0.2771  0.2735
 1571poe     o210211   5.521   1.293   1.620 -0.2739 -0.3106  0.9729
 1571poe    c3110212   5.464   1.421   1.605  0.4664 -0.1000 -0.0978
 1572poe    c3110213   3.500   1.883   0.454 -0.0848  0.3441 -0.3334
 1572poe     o210214   3.407   1.799   0.389 -0.1065  0.1050  0.0079
 1572poe    c2310215   3.422   1.660   0.408  0.3835  0.0387 -0.8708
 1572poe    c2310216   3.320   1.573   0.333 -0.0285  0.6607 -1.0341
 1572poe     o210217   3.187   1.613   0.358  0.0286 -0.0329  0.4452
 1572poe    c2310218   3.098   1.600   0.249  0.3865 -0.4736  0.2019
 1572poe    c2310219   3.123   1.703   0.138 -0.2153 -0.4148  0.1170
 1572poe     o210220   3.147   1.828   0.200 -1.2442 -0.2886  0.2743
 1572poe    c2310221   3.171   1.928   0.103  0.1474 -0.4307  0.4581
 1572poe    c2310222   3.152   2.059   0.182 -0.7470 -0.1793 -0.1678
 1572poe     o210223   3.221   2.035   0.302 -0.5276  0.0623 -0.2455
 1572poe    c3110224   3.273   2.155   0.354 -0.5223 -0.0861  0.1003
 1573poe    c3110225   6.158   1.965   1.296 -0.4020  0.0978 -0.1391
 1573poe     o210226   6.035   1.900   1.273 -0.5400  0.0136  0.8158
 1573poe    c2310227   6.031   1.768   1.225 -0.1748  0.3239 -0.0734
 1573poe    c2310228   5.886   1.717   1.231 -0.3653  0.8326 -0.2927
 1573poe     o210229   5.829   1.765   1.350  0.2811 -0.6841  0.6555
 1573poe    c2310230   5.689   1.749   1.340  0.2502  0.1829 -0.4050
 1573poe    c2310231   5.616   1.794   1.467  0.2124  0.1411 -0.4115
 1573poe     o210232   5.634   1.930   1.501 -0.1697  0.0122  0.3212
 1573poe    c2310233   5.539   1.972   1.596 -0.5253 -0.7139  0.2939
 1573poe    c2310234   5.482   2.112   1.564  0.1527 -0.4577  0.2015
 1573poe     o210235   5.412   2.121   1.442  0.5584  0.1524  0.0113
 1573poe    c3110236   5.312   2.220   1.434 -0.3539 -0.7457  0.2000
 1574poe    c3110237   5.958   2.112   0.301 -0.4038  0.1302  1.0055
 1574poe     o210238   5.972   1.994   0.376 -0.1104 -0.2890  0.2995
 1574poe    c2310239   5.864   1.904   0.376 -0.0925 -0.3132 -0.1927
 1574poe    c2310240   5.938   1.778   0.422  0.7430  0.2343 -0.0155
 1574poe     o210241   6.014   1.805   0.538 -0.2749 -0.3929  0.8245
 1574poe    c2310242   6.120   1.715   0.558  0.3211  0.0473 -0.2589
 1574poe    c2310243   6.202   1.788   0.666 -1.0559  0.1954  0.7034
 1574poe     o210244   6.227   1.925   0.650  0.2918 -0.1145  0.0717
 1574poe    c2310245   6.307   1.977   0.754 -0.2841  0.2354  0.3435
 1574poe    c2310246   6.331   2.129   0.742 -0.0212  0.1209 -0.6344
 1574poe     o210247   6.216   2.206   0.767 -0.1520 -0.4158  0.4818
 1574poe    c3110248   6.237   2.315   0.854  0.2355 -0.2936  0.2381
 1575poe    c3110249   0.323   5.655   4.966 -0.0287  0.5733  0.0894
 1575poe     o210250   0.317   5.790   4.925  0.6973  0.5043 -0.2567
 1575poe    c2310251   0.252   5.794   4.801 -0.2511  0.3509  0.2266
 1575poe    c2310252   0.216   5.938   4.758 -0.0616  0.2805 -0.1701
 1575poe     o210253   0.330   6.018   4.781 -0.2033  0.2333  0.7295
 1575poe    c2310254   0.311   6.141   4.714 -0.3674 -0.2483 -0.1277
 1575poe    c2310255   0.449   6.205   4.692 -0.4475  0.1372  0.4716
 1575poe     o210256   0.498   6.246   4.818 -0.5996 -0.0728  0.5990
 1575poe    c2310257   0.626   6.304   4.810 -0.3291 -0.7450 -0.1186
 1575poe    c2310258   0.688   6.353   4.942 -1.0181  0.3568 -0.1862
 1575poe     o210259   0.699   6.249   5.037  0.5383  0.1815 -0.5309
 1575poe    c3110260   0.816   6.170   5.026  0.5923  0.2700 -0.5912
 1576poe    c3110261   2.351   4.259   2.171 -0.1360  0.3139 -0.7595
 1576poe     o210262   2.420   4.240   2.049  0.4015  0.2595 -0.4522
 1576poe    c2310263   2.557   4.219   2.075  0.2153 -0.0771  0.3186
 1576poe    c2310264   2.652   4.241   1.956  0.0587  0.5697  0.3068
 1576poe     o210265   2.652   4.157   1.842 -0.5820  0.0836  0.6623
 1576poe    c2310266   2.735   4.044   1.846 -0.0705  0.3921 -0.6928
 1576poe    c2310267   2.706   3.950   1.728 -0.8048  0.1039 -0.2909
 1576poe     o210268   2.723   4.016   1.604  0.4140  0.2825 -0.0313
 1576poe    c2310269   2.645   3.961   1.501  0.0698  0.5008  0.1125
 1576poe    c2310270   2.662   4.031   1.365  0.8257 -0.3297 -0.2315
 1576poe     o210271   2.692   4.165   1.397  0.2269 -0.2375 -0.0374
 1576poe    c3110272   2.704   4.241   1.279 -0.1321 -0.5141 -0.2545
 1577poe    c3110273   7.026   5.918   6.938 -0.1585 -0.2770  0.3337
 1577poe     o210274   7.098   6.027   6.883 -0.2875 -0.1937  0.3295
 1577poe    c2310275   7.008   6.135   6.875  0.1716  0.1827  0.2313
 1577poe    c2310276   7.086   6.268   6.868  0.1027  0.2318  0.3850
 1577poe     o210277   7.175   6.227   6.766 -0.1515 -0.6522  0.5078
 1577poe    c2310278   7.279   6.321   6.755 -0.6102 -0.1919  0.0192
 1577poe    c2310279   7.402   6.269   6.679 -0.7040  0.2305 -0.4262
 1577poe     o210280   7.420   6.153   6.757  0.0536  0.1270 -0.7468
 1577poe    c2310281   7.515   6.066   6.699  0.3919 -0.2424  0.3510
 1577poe    c2310282   7.474   5.926   6.749 -0.3416 -0.3553 -0.5561
 1577poe     o210283   7.335   5.920   6.769 -0.2564 -0.3856  0.0306
 1577poe    c3110284   7.279   5.797   6.728 -0.3742 -0.4028  0.2398
 1578poe    c3110285   2.044   6.547   1.870 -0.1293 -0.1111  0.2176
 1578poe     o210286   1.922   6.617   1.876 -0.0800 -0.0054 -0.0179
 1578poe    c2310287   1.812   6.540   1.920  0.2369 -0.1205  0.5835
 1578poe    c2310288   1.685   6.622   1.888  0.6080  0.0309 -0.5436
 1578poe     o210289   1.674   6.677   1.759 -0.5846 -0.3828 -0.6239
 1578poe    c2310290   1.536   6.676   1.729 -0.6192  0.0930 -0.4791
 1578poe    c2310291   1.517   6.701   1.579 -0.2899 -0.2487 -0.5781
 1578poe     o210292   1.587   6.819   1.545 -0.2775 -0.0212  0.2332
 1578poe    c2310293   1.561   6.861   1.413  0.4698 -0.5470 -0.0883
 1578poe    c2310294   1.687   6.845   1.326  0.0835 -0.5043 -0.6594
 1578poe     o210295   1.806   6.903   1.375 -0.2882  0.0243 -0.3757
 1578poe    c3110296   1.899   6.813   1.320  0.1430  0.0454  0.3044
 1579poe    c3110297   6.815   6.467   1.360 -0.5979  0.0596  0.0769
 1579poe     o210298   6.886   6.537   1.261 -0.0490  0.2879  0.6219
 1579poe    c2310299   6.846   6.673   1.267  0.0121  0.3302  0.1392
 1579poe    c2310300   6.963   6.743   1.195  0.1111 -0.1075 -0.1312
 1579poe     o210301   7.002   6.697   1.067 -0.9875  0.1560 -0.5725
 1579poe    c2310302   7.052   6.798   0.983 -0.3437  0.0473 -0.3217
 1579poe    c2310303   7.165   6.728   0.903 -0.0227  0.3172 -0.1082
 1579poe     o210304   7.121   6.597   0.876 -0.2558  0.5448 -0.8454
 1579poe    c2310305   7.194   6.532   0.774  0.5707  0.5437 -0.2584
 1579poe    c2310306   7.162   6.381   0.771  0.5804  0.5330  0.0689
 1579poe     o210307   7.026   6.380   0.808  0.3346  0.4851 -0.8110
 1579poe    c3110308   6.961   6.274   0.742 -0.5770  0.5808 -0.0828
 1580poe    c3110309   2.268   3.907   5.699  0.2172  0.3229  0.1699
 1580poe     o210310   2.314   3.868   5.826 -0.1790  0.2451  0.2906
 1580poe    c2310311   2.398   3.960   5.892  0.2939  0.3252 -0.4124
 1580poe    c2310312   2.307   4.054   5.973  0.3039 -0.3272  0.3748
 1580poe     o210313   2.233   3.990   6.074 -0.6808  0.1821 -0.0002
 1580poe    c2310314   2.110   4.053   6.099 -0.7830  0.0781 -0.2438
 1580poe    c2310315   2.039   3.968   6.206  0.0496 -0.2662  0.0355
 1580poe     o210316   2.073   3.835   6.172  0.0565 -0.2208 -0.1360
 1580poe    c2310317   2.048   3.737   6.271  0.1195 -0.2170 -0.1165
 1580poe    c2310318   2.083   3.591   6.235 -0.0926 -0.1869 -0.4503
 1580poe     o210319   2.221   3.568   6.251 -0.1538 -0.2115  0.0618
 1580poe    c3110320   2.264   3.434   6.248 -0.0559 -0.1979  0.7190
 1581poe    c3110321   0.555   0.260   4.198  0.8114 -0.4157  0.4122
 1581poe     o210322   0.524   0.128   4.237 -0.1811 -0.4467 -0.4443
 1581poe    c2310323   0.395   0.125   4.296  0.0906  0.0847  0.1929
 1581poe    c2310324   0.342  -0.020   4.285 -0.1014  0.1468  0.2993
 1581poe     o210325   0.355  -0.089   4.163 -0.1378 -0.3502  0.5771
 1581poe    c2310326   0.273  -0.203   4.147 -0.2653 -0.1481 -0.2542
 1581poe    c2310327   0.322  -0.316   4.055  0.0168  0.1064 -0.4185
 1581poe     o210328   0.439  -0.382   4.098 -0.0773  0.0042 -0.3188
 1581poe    c2310329   0.423  -0.487   4.191  0.1043 -0.1771 -0.4889
 1581poe    c2310330   0.550  -0.568   4.159  0.3260 -0.0639  0.0807
 1581poe     o210331   0.656  -0.475   4.151  0.1731  0.1268  0.2559
 1581poe    c3110332   0.772  -0.556   4.150  0.0720 -0.0234  0.5258
 1582poe    c3110333   2.263   4.599   0.701  0.0635  0.3535 -0.0752
 1582poe     o210334   2.231   4.691   0.598  0.4096  0.1623 -0.3572
 1582poe    c2310335   2.249   4.625   0.475 -0.7431 -0.7237 -0.0793
 1582poe    c2310336   2.156   4.683   0.367 -0.2861 -0.4123 -0.3132
 1582poe     o210337   2.166   4.823   0.382  0.3771 -0.4718 -0.2064
 1582poe    c2310338   2.128   4.876   0.257 -0.5426 -0.1636  0.1992
 1582poe    c2310339   2.122   5.029   0.266  0.2115 -0.1015 -0.3044
 1582poe     o210340   2.025   5.061   0.363  0.5644  0.1100 -0.0197
 1582poe    c2310341   2.065   5.142   0.472  0.3603 -0.2575  0.3303
 1582poe    c2310342   2.039   5.080   0.610  0.1085 -0.0760  0.3659
 1582poe     o210343   2.127   4.979   0.654  0.2223 -0.3210 -0.4183
 1582poe    c3110344   2.144   4.997   0.793  0.0058 -0.0156 -0.4335
 1583poe    c3110345   0.022   1.502   5.136 -0.4586 -0.5118 -0.3032
 1583poe     o210346   0.119   1.445   5.221 -0.2611 -0.0320 -0.1980
 1583poe    c2310347   0.052   1.438   5.345  0.2956  0.6393  0.1483
 1583poe    c2310348   0.151   1.397   5.456 -0.2389 -0.8256  0.1139
 1583poe     o210349   0.245   1.302   5.412 -0.0552 -0.5612 -0.0682
 1583poe    c2310350   0.247   1.208   5.517  0.0722  0.1448  0.5767
 1583poe    c2310351   0.373   1.124   5.486 -0.1121  0.1493 -0.2195
 1583poe     o210352   0.380   1.106   5.347 -0.7323 -0.4823 -0.1749
 1583poe    c2310353   0.495   1.028   5.318 -0.0913  0.5142 -0.3820
 1583poe    c2310354   0.512   0.986   5.171  0.4426 -0.4265 -0.0574
 1583poe     o210355   0.517   1.091   5.078  0.0819 -0.3151  0.0492
 1583poe    c3110356   0.564   1.051   4.951 -0.3872  0.1917 -0.2903
 1584poe    c3110357   5.249   1.855   0.795  0.1234  0.2425  0.0392
 1584poe     o210358   5.124   1.856   0.861  0.0763  0.0744 -0.0455
 1584poe    c2310359   5.152   1.917   0.986 -0.2410  0.3417 -0.1047
 1584poe    c2310360   5.010   1.947   1.036 -0.3173 -0.0946 -0.0499
 1584poe     o210361   4.921   1.850   0.987 -0.0141 -0.2876 -0.2177
 1584poe    c2310362   4.791   1.886   1.029 -0.0354  0.4540 -0.9122
 1584poe    c2310363   4.684   1.802   0.956 -0.6423  0.4001  0.0305
 1584poe     o210364   4.719   1.805   0.820 -0.7171 -0.9981 -0.0407
 1584poe    c2310365   4.613   1.766   0.736 -0.6891  0.4679 -0.8019
 1584poe    c2310366   4.626   1.758   0.583  0.9702  0.3195 -0.6641
 1584poe     o210367   4.720   1.661   0.542  0.3433 -0.7528  0.3737
 1584poe    c3110368   4.758   1.666   0.406 -0.2257  0.0292  0.2355
 1585poe    c3110369   2.015   5.386   1.681  0.0702 -0.0328 -0.0253
 1585poe     o210370   1.898   5.460   1.652  0.2922  0.3767  0.1087
 1585poe    c2310371   1.816   5.470   1.766  0.1134  0.3390 -0.0170
 1585poe    c2310372   1.705   5.569   1.728  0.0298  0.2239 -0.0745
 1585poe     o210373   1.763   5.683   1.669 -0.3630  0.4279 -0.0736
 1585poe    c2310374   1.671   5.787   1.644 -0.4175  0.3211 -0.3150
 1585poe    c2310375   1.747   5.895   1.566  0.0065  0.1598 -0.1264
 1585poe     o210376   1.845   5.831   1.486  0.2537  0.2269  0.1222
 1585poe    c2310377   1.900   5.919   1.391  0.5406 -0.0087  0.0706
 1585poe    c2310378   1.990   5.853   1.285  0.5250  0.2119 -0.0807
 1585poe     o210379   2.110   5.797   1.334  0.0577 -0.7720 -0.0351
 1585poe    c3110380   2.214   5.892   1.346 -0.2607 -0.5078  0.7069
 1586poe    c3110381   2.389   2.813   6.025 -0.0476 -0.0128  0.1062
 1586poe     o210382   2.505   2.851   5.955 -0.4133  0.4732 -0.2508
 1586poe    c2310383   2.593   2.925   6.037 -0.2047  0.1209 -0.1543
 1586poe    c2310384   2.683   3.010   5.945 -0.2349  0.4523  0.1192
 1586poe     o210385   2.707   2.932   5.830 -0.7340  0.4302  0.0291
 1586poe    c2310386   2.793   3.001   5.742 -0.3638  0.6527  0.5618
 1586poe    c2310387   2.814   2.917   5.615 -0.0737  0.5895  0.6502
 1586poe     o210388   2.695   2.932   5.540  0.0756 -0.8079  0.1021
 1586poe    c2310389   2.727   2.892   5.409  0.2790 -0.3919  0.0257
 1586poe    c2310390   2.608   2.906   5.311  0.5768 -0.0170 -0.2865
 1586poe     o210391   2.592   3.046   5.307  0.6260 -0.0166 -0.4503
 1586poe    c3110392   2.486   3.082   5.220  0.0683 -0.6702 -0.0508
 1587poe    c3110393   5.282   1.566   6.911  0.5603 -0.2797 -0.4519
 1587poe     o210394   5.342   1.491   7.014  0.1080 -0.0873 -0.0431
 1587poe    c2310395   5.371   1.353   7.003 -0.1387 -0.1341 -0.1116
 1587poe    c2310396   5.496   1.329   7.090  0.0048  0.0765 -0.2607
 1587poe     o210397   5.476   1.421   7.195  0.1114  0.0194 -0.1906
 1587poe    c2310398   5.575   1.402   7.293 -0.1085  0.2832  0.0841
 1587poe    c2310399   5.524   1.470   7.422  0.0406  0.3650  0.1005
 1587poe     o210400   5.494   1.607   7.410 -0.0487  0.3413  0.0495
 1587poe    c2310401   5.459   1.660   7.536  0.7418  0.4326  0.2408
 1587poe    c2310402   5.408   1.805   7.524 -0.3838  0.0211 -0.0916
 1587poe     o210403   5.506   1.889   7.467  0.3169 -0.4683  0.3790
 1587poe    c3110404   5.442   2.014   7.453  0.0923 -0.6024  0.1978
 1588poe    c3110405   6.654   7.023   0.211  0.0263 -0.0374 -0.1313
 1588poe     o210406   6.644   7.069   0.078  0.2506 -0.1739 -0.1969
 1588poe    c2310407   6.654   7.208   0.058 -0.8720  0.0005  0.3871
 1588poe    c2310408   6.608   7.231  -0.087  0.3788  0.4230  0.0459
 1588poe     o210409   6.696   7.139  -0.147 -0.3624 -0.2377 -0.0354
 1588poe    c2310410   6.698   7.156  -0.287  0.3943  1.1460  0.1266
 1588poe    c2310411   6.809   7.068  -0.347  0.3222  0.7621  0.5463
 1588poe     o210412   6.830   6.943  -0.286 -0.2410  0.4116  0.0236
 1588poe    c2310413   6.949   6.879  -0.327 -0.1186  0.6926 -0.0570
 1588poe    c2310414   6.952   6.749  -0.245 -0.1587  0.5118 -0.3401
 1588poe     o210415   6.984   6.751  -0.108  0.5834  0.1212 -0.5008
 1588poe    c3110416   7.014   6.622  -0.060 -0.2265  0.1726  0.1703
 1589poe    c3110417   3.791   6.473   2.542 -0.0534 -0.0927  0.3300
 1589poe     o210418   3.810   6.362   2.458 -0.4384 -0.2328  0.4270
 1589poe    c2310419   3.917   6.399   2.373 -0.3066 -0.3456  0.5438
 1589poe    c2310420   4.001   6.273   2.344 -0.4488 -0.3476  0.1388
 1589poe     o210421   3.911   6.164   2.338 -0.6342 -0.1842 -0.0620
 1589poe    c2310422   3.986   6.045   2.334 -0.0772  0.1691 -0.1738
 1589poe    c2310423   3.886   5.928   2.336 -0.1746  0.2562  0.2278
 1589poe     o210424   3.831   5.916   2.465 -0.6653 -0.2952 -0.0285
 1589poe    c2310425   3.793   5.780   2.472  0.8454 -0.7379 -0.0348
 1589poe    c2310426   3.649   5.748   2.516  0.5063  0.0309 -0.5690
 1589poe     o210427   3.631   5.800   2.645  0.0268  0.3972 -0.7790
 1589poe    c3110428   3.497   5.769   2.677  0.1502  0.2311 -0.4193
 1590poe    c3110429   4.479   0.103   3.216 -0.2624 -0.0925  0.4589
 1590poe     o210430   4.385   0.146   3.312 -1.1694 -0.5830 -0.1976
 1590poe    c2310431   4.319   0.270   3.295 -0.5554 -0.2940 -0.5379
 1590poe    c2310432   4.219   0.287   3.411 -0.1130 -0.3692 -0.1409
 1590poe     o210433   4.281   0.292   3.537 -0.0822 -0.3127 -0.1580
 1590poe    c2310434   4.201   0.332   3.646 -0.3734 -0.0419 -0.4701
 1590poe    c2310435   4.273   0.300   3.778  0.1526 -0.2432 -0.8020
 1590poe     o210436   4.404   0.350   3.771  0.0461  0.2201  0.3738
 1590poe    c2310437   4.478   0.295   3.878  0.2948  0.2744  0.2310
 1590poe    c2310438   4.629   0.325   3.873  0.2451  0.5754  0.4905
 1590poe     o210439   4.684   0.295   3.747  0.3135  0.3029  0.5846
 1590poe    c3110440   4.821   0.261   3.744  0.1319 -0.4020  0.0312
 1591poe    c3110441   5.615   7.010   3.753 -0.6408  0.0456 -0.0464
 1591poe     o210442   5.618   6.953   3.882  0.2475  0.3045  0.0567
 1591poe    c2310443   5.705   7.023   3.967  0.1126 -0.0821  0.5163
 1591poe    c2310444   5.731   6.941   4.095  0.3752 -0.1538  0.4181
 1591poe     o210445   5.612   6.869   4.119 -0.0948  0.4331 -0.1277
 1591poe    c2310446   5.589   6.857   4.258 -0.4119 -0.9050 -0.2871
 1591poe    c2310447   5.452   6.812   4.311 -0.3173  0.1602  0.8897
 1591poe     o210448   5.347   6.902   4.279 -0.3538 -0.3132 -0.3752
 1591poe    c2310449   5.227   6.859   4.339 -0.3453 -0.1342 -0.2302
 1591poe    c2310450   5.113   6.961   4.321 -0.6894 -0.5424 -0.3770
 1591poe     o210451   5.092   7.080   4.394 -0.2114 -0.3972 -0.4777
 1591poe    c3110452   5.058   7.053   4.528 -0.2411  0.5707 -0.2831
 1592poe    c3110453   5.222   5.163   5.068 -0.0368 -0.7802  0.1724
 1592poe     o210454   5.334   5.212   4.998 -0.0173 -0.4955  0.4032
 1592poe    c2310455   5.333   5.348   4.962  0.3166 -0.5638  0.1308
 1592poe    c2310456   5.462   5.391   4.889  0.0417  0.2664  0.1239
 1592poe     o210457   5.442   5.489   4.789  0.5981 -0.0095 -0.2627
 1592poe    c2310458   5.556   5.506   4.708  0.7519  0.1674 -0.0112
 1592poe    c2310459   5.528   5.625   4.614 -0.1836  0.0566  0.1201
 1592poe     o210460   5.475   5.748   4.660  0.5797  0.5406 -0.2825
 1592poe    c2310461   5.410   5.823   4.560 -0.3669 -0.2617 -0.2845
 1592poe    c2310462   5.351   5.953   4.620  0.0585 -0.3187  0.2619
 1592poe     o210463   5.236   5.937   4.700 -0.0103 -0.0786  0.2107
 1592poe    c3110464   5.120   5.964   4.624  0.0625  0.5301  0.3119
 1593poe    c3110465   0.178   5.371   5.342 -0.0437  0.1503  0.2838
 1593poe     o210466   0.039   5.352   5.344 -0.0538  0.1090 -0.3917
 1593poe    c2310467  -0.028   5.475   5.349  0.0142  0.1209  0.4609
 1593poe    c2310468  -0.154   5.443   5.431 -0.2213  0.6598  0.3218
 1593poe     o210469  -0.136   5.418   5.569  0.0071 -0.7032  0.0604
 1593poe    c2310470  -0.254   5.444   5.641  0.0816  0.5474 -0.2470
 1593poe    c2310471  -0.231   5.387   5.782  0.5984  0.3693 -0.3989
 1593poe     o210472  -0.184   5.255   5.767 -0.1160  0.0053  0.4671
 1593poe    c2310473  -0.166   5.197   5.895  0.2858  0.2456  0.5214
 1593poe    c2310474  -0.073   5.074   5.884  0.3371  0.3121  0.2055
 1593poe     o210475   0.025   5.107   5.788 -0.3005  0.3517 -0.4501
 1593poe    c3110476   0.131   5.013   5.792 -0.3837  0.2755  0.1873
 1594poe    c3110477   2.920   4.096   5.599  0.0137  0.0570  0.3012
 1594poe     o210478   3.051   4.050   5.625 -0.2131 -0.6836  0.1473
 1594poe    c2310479   3.128   4.045   5.507  0.2543  0.5245  0.3895
 1594poe    c2310480   3.261   3.968   5.511 -0.0774 -0.0684  0.1425
 1594poe     o210481   3.355   4.037   5.590  0.1560  0.0241 -0.2136
 1594poe    c2310482   3.454   3.940   5.618  0.2801  0.0906 -0.4229
 1594poe    c2310483   3.567   4.011   5.695 -0.3031  0.4003  0.1492
 1594poe     o210484   3.515   4.097   5.795 -0.9882  0.0871  0.0686
 1594poe    c2310485   3.607   4.182   5.860 -0.6130  0.4603 -0.9289
 1594poe    c2310486   3.514   4.252   5.961 -0.0272 -0.2620  0.1288
 1594poe     o210487   3.405   4.318   5.901  0.3160 -0.0461 -0.2624
 1594poe    c3110488   3.351   4.409   5.994  0.2370 -0.3944  0.0328
 1595poe    c3110489   6.129   3.114   0.475  0.1819  0.6349 -0.6571
 1595poe     o210490   6.041   3.099   0.366  0.1295  0.5303 -0.6003
 1595poe    c2310491   5.973   2.978   0.390  1.1469 -0.0289 -0.4529
 1595poe    c2310492   5.833   2.996   0.329  0.9121 -0.2918 -0.0040
 1595poe     o210493   5.864   3.034   0.197  0.6297  0.7744  0.2288
 1595poe    c2310494   5.750   3.052   0.116  0.4057  0.4682  0.4773
 1595poe    c2310495   5.795   3.103  -0.022 -0.3271  0.2169  0.1388
 1595poe     o210496   5.834   3.237  -0.000  0.1317  0.0664  0.2574
 1595poe    c2310497   5.833   3.291  -0.131 -0.0839 -0.3476  0.0876
 1595poe    c2310498   5.969   3.349  -0.171 -0.2234 -0.4703 -0.5784
 1595poe     o210499   6.076   3.258  -0.156 -0.1003 -0.2189  0.1365
 1595poe    c3110500   6.186   3.297  -0.235 -0.2529 -0.0413  0.0086
 1596poe    c3110501   6.681   0.207   3.706  0.4571  0.0919  0.6874
 1596poe     o210502   6.677   0.338   3.755  0.3621  0.4042 -0.1341
 1596poe    c2310503   6.811   0.371   3.785  0.3082  0.5063 -0.0050
 1596poe    c2310504   6.812   0.491   3.882  0.2343  0.3951  0.1354
 1596poe     o210505   6.735   0.591   3.819  0.5540  0.4457 -0.1806
 1596poe    c2310506   6.716   0.704   3.901  0.5620  0.3826 -0.0928
 1596poe    c2310507   6.595   0.772   3.834  0.0194 -0.1959  0.2812
 1596poe     o210508   6.498   0.675   3.802 -0.2672  0.4512 -0.8659
 1596poe    c2310509   6.365   0.716   3.778 -0.5373  0.1517  0.0922
 1596poe    c2310510   6.335   0.797   3.651 -0.2915  0.0395 -0.0384
 1596poe     o210511   6.356   0.712   3.541  0.3019 -0.3915  0.3985
 1596poe    c3110512   6.323   0.783   3.423 -0.0672 -0.7170  0.3023
 1597poe    c3110513   6.613   4.138   2.939 -0.6916 -0.4833  0.3379
 1597poe     o210514   6.627   4.068   3.060  0.2602 -0.7679  0.0698
 1597poe    c2310515   6.528   4.107   3.153  0.5834 -0.4961  0.3007
 1597poe    c2310516   6.521   3.986   3.249  0.5709 -1.0480 -0.3872
 1597poe     o210517   6.651   3.975   3.303  0.5975  0.3767 -0.1169
 1597poe    c2310518   6.655   3.909   3.428  0.1935  0.2824 -0.1515
 1597poe    c2310519   6.793   3.905   3.496 -0.1801  0.0185  0.6006
 1597poe     o210520   6.882   3.850   3.402 -0.3579  0.7435 -0.0053
 1597poe    c2310521   6.992   3.798   3.473 -0.8349 -0.1678  0.0830
 1597poe    c2310522   7.088   3.754   3.361 -0.3407  0.1591  0.3734
 1597poe     o210523   7.029   3.688   3.251 -0.3876  0.1534  0.4021
 1597poe    c3110524   7.127   3.625   3.172 -0.1004  1.2274 -0.1145
 1598poe    c3110525   2.909   6.408   2.048  0.2085  0.8512 -0.6523
 1598poe     o210526   2.830   6.356   1.943 -0.1266 -0.1966  0.1109
 1598poe    c2310527   2.897   6.242   1.894  0.0186  0.0323 -0.2244
 1598poe    c2310528   2.848   6.204   1.753  0.0519 -0.4019 -0.1204
 1598poe     o210529   2.708   6.184   1.752  0.0331 -0.2805  0.0073
 1598poe    c2310530   2.656   6.144   1.627 -0.0032 -0.5038  0.0923
 1598poe    c2310531   2.507   6.183   1.622  0.1022 -0.1702 -0.6469
 1598poe     o210532   2.445   6.150   1.745 -0.0952  0.9209 -0.4366
 1598poe    c2310533   2.306   6.151   1.726 -0.0880 -0.0451 -0.6219
 1598poe    c2310534   2.243   6.130   1.865  0.3731  0.2495 -0.3663
 1598poe     o210535   2.274   6.235   1.954 -0.4656  0.0994  0.1165
 1598poe    c3110536   2.299   6.202   2.089 -0.4905  0.3770  0.1896
 1599poe    c3110537   0.140   4.955   4.583  0.0934 -0.3222  0.0628
 1599poe     o210538   0.193   4.935   4.454 -0.0424  0.0739 -0.0547
 1599poe    c2310539   0.268   4.816   4.462 -0.3300 -0.1079 -0.0695
 1599poe    c2310540   0.370   4.795   4.348 -0.1687  0.7019 -0.0798
 1599poe     o210541   0.307   4.725   4.243  0.5979 -0.1078 -0.0062
 1599poe    c2310542   0.400   4.693   4.142  0.1327 -0.3458 -0.3630
 1599poe    c2310543   0.323   4.630   4.025 -0.3325 -0.4392 -0.0068
 1599poe     o210544   0.209   4.712   4.013 -0.2466 -0.3163  0.0264
 1599poe    c2310545   0.140   4.665   3.900 -0.3625 -0.5549  0.1947
 1599poe    c2310546   0.018   4.758   3.889  0.1168  0.0226 -0.4286
 1599poe     o210547  -0.057   4.722   4.003 -0.1284 -0.1748 -0.6515
 1599poe    c3110548  -0.191   4.766   4.012 -0.0094  0.1076 -0.2392
 1600poe    c3110549   0.163   2.487   1.995 -0.3643 -0.2340 -0.0249
 1600poe     o210550   0.231   2.444   1.879  0.3007 -0.3077  0.3852
 1600poe    c2310551   0.194   2.517   1.765  0.0990 -0.2767  0.4689
 1600poe    c2310552   0.224   2.428   1.642  0.5265 -0.5227  0.7493
 1600poe     o210553   0.130   2.325   1.624  0.5634 -0.4586  0.1966
 1600poe    c2310554   0.171   2.248   1.513  0.0996 -0.3851 -0.0310
 1600poe    c2310555   0.064   2.141   1.485  0.3570 -0.3867 -1.0462
 1600poe     o210556   0.055   2.036   1.579 -0.1425  0.1881 -0.4364
 1600poe    c2310557   0.136   1.928   1.537 -0.0908  0.0498  0.0065
 1600poe    c2310558   0.110   1.823   1.646 -0.3242  0.1892  0.0853
 1600poe     o210559   0.130   1.884   1.772  0.2305  0.2841 -0.0475
 1600poe    c3110560   0.128   1.783   1.870 -0.2966  0.3058 -0.0326
 1601poe    c3110561   2.178   6.417   2.388  0.0519 -0.3232  0.3522
 1601poe     o210562   2.074   6.487   2.453  0.2827  0.1958  0.1689
 1601poe    c2310563   1.986   6.534   2.353  0.1059 -0.5257 -0.0222
 1601poe    c2310564   1.911   6.657   2.407  0.0974 -0.6375  0.2243
 1601poe     o210565   1.870   6.676   2.541 -0.2660  0.2075  0.0004
 1601poe    c2310566   1.782   6.786   2.546  0.4802  0.8101  0.0748
 1601poe    c2310567   1.810   6.846   2.685  0.2730 -0.1923  0.5587
 1601poe     o210568   1.832   6.741   2.777 -0.4071 -0.4529  0.4277
 1601poe    c2310569   1.839   6.785   2.911  0.0504 -0.3406  0.3697
 1601poe    c2310570   1.782   6.685   3.013 -0.0793 -0.2416  0.3945
 1601poe     o210571   1.831   6.560   2.971  0.7407  0.1125  0.2822
 1601poe    c3110572   1.816   6.442   3.047  0.6781  0.0335  0.1482
 1602poe    c3110573   3.163   4.196   6.469 -0.1194 -0.4697 -0.8114
 1602poe     o210574   3.101   4.321   6.492  0.1397 -0.3173 -0.9303
 1602poe    c2310575   2.966   4.295   6.460 -0.0201 -0.4900 -0.1573
 1602poe    c2310576   2.914   4.431   6.410 -0.7987 -0.7317 -0.0097
 1602poe     o210577   2.882   4.527   6.509 -0.0478  0.0590 -0.5229
 1602poe    c2310578   2.799   4.624   6.449  0.0649  0.5669  0.1339
 1602poe    c2310579   2.702   4.675   6.557  0.3423  0.1980  0.5585
 1602poe     o210580   2.780   4.672   6.675  0.8359 -0.4400  0.2231
 1602poe    c2310581   2.727   4.754   6.777  0.6949 -0.3547  0.0811
 1602poe    c2310582   2.835   4.763   6.885  0.5102  0.1854  0.2248
 1602poe     o210583   2.859   4.630   6.926  0.1978 -0.1111 -0.5581
 1602poe    c3110584   2.911   4.609   7.055 -0.7019  0.8463 -0.0237
 1603poe    c3110585   6.210   4.761   6.918  0.2762 -0.1135 -0.2483
 1603poe     o210586   6.242   4.881   6.852  0.4047  0.1369  0.2650
 1603poe    c2310587   6.138   4.936   6.774  0.2371 -0.2896  0.1867
 1603poe    c2310588   6.158   5.086   6.747 -0.1091 -0.1566  0.6644
 1603poe     o210589   6.296   5.115   6.760 -0.0404 -0.1779  0.0232
 1603poe    c2310590   6.323   5.250   6.730 -0.3544 -0.0818  0.1676
 1603poe    c2310591   6.473   5.272   6.705 -0.3313 -0.3122  0.1049
 1603poe     o210592   6.521   5.172   6.618  0.2608 -0.0251  0.1009
 1603poe    c2310593   6.658   5.163   6.584  0.0800  0.7148 -0.8799
 1603poe    c2310594   6.672   5.040   6.491 -1.1615  0.0758 -0.2418
 1603poe     o210595   6.658   4.919   6.562 -0.1612  0.1400  0.0736
 1603poe    c3110596   6.629   4.830   6.457  0.8511 -0.1576  0.0374
 1604poe    c3110597   6.605   0.688   1.118 -0.2618 -0.3154 -0.0805
 1604poe     o210598   6.667   0.589   1.196 -0.4560  0.3539  0.9493
 1604poe    c2310599   6.760   0.653   1.280  0.6458  0.4109 -0.2718
 1604poe    c2310600   6.808   0.579   1.407 -0.5969 -0.4337 -0.2814
 1604poe     o210601   6.714   0.510   1.487 -0.2694  0.0641  0.5388
 1604poe    c2310602   6.772   0.402   1.556 -0.0298 -0.1148  0.0607
 1604poe    c2310603   6.679   0.325   1.651 -0.0846 -0.6541 -0.4242
 1604poe     o210604   6.560   0.277   1.591 -0.4837 -0.2598  0.0391
 1604poe    c2310605   6.492   0.169   1.652 -0.1538 -0.1552  0.6067
 1604poe    c2310606   6.392   0.108   1.551 -0.0402  0.4257  0.1380
 1604poe     o210607   6.348   0.219   1.476  0.3454  0.3912 -0.1426
 1604poe    c3110608   6.258   0.180   1.374  0.3229  0.2616 -0.0728
 1605poe    c3110609   4.822   3.522   6.719  0.1757  0.3478 -0.0586
 1605poe     o210610   4.904   3.610   6.793  0.3292 -0.1307  0.3501
 1605poe    c2310611   4.957   3.705   6.703 -0.6674  0.0896 -0.0187
 1605poe    c2310612   5.043   3.818   6.764 -0.2191 -0.4959  0.4514
 1605poe     o210613   4.965   3.902   6.846  0.2068  0.1699  0.1825
 1605poe    c2310614   5.026   4.025   6.881  0.5091 -0.0786  0.5393
 1605poe    c2310615   4.944   4.125   6.964  0.3698  0.3336 -0.0906
 1605poe     o210616   4.955   4.090   7.100 -0.6143 -0.2900 -0.1602
 1605poe    c2310617   4.885   4.181   7.181 -0.1679 -0.2560  0.1903
 1605poe    c2310618   4.908   4.130   7.325 -0.1899 -0.1374  0.2361
 1605poe     o210619   5.028   4.178   7.382  0.1138 -0.4797 -0.1119
 1605poe    c3110620   5.074   4.102   7.491 -0.0784 -0.3612  0.0513
 1606poe    c3110621   6.115   2.946   4.542  0.3683 -0.1519 -0.3248
 1606poe     o210622   6.176   3.062   4.595  0.2755 -0.1524 -0.2156
 1606poe    c2310623   6.315   3.059   4.618  0.3302  0.8816 -0.3653
 1606poe    c2310624   6.388   3.185   4.668  0.5212  0.6120  0.0351
 1606poe     o210625   6.347   3.244   4.789 -0.4618  0.4819 -0.2274
 1606poe    c2310626   6.414   3.198   4.905 -0.2289 -0.1861 -0.6210
 1606poe    c2310627   6.328   3.248   5.023  0.1913 -0.7138 -0.0876
 1606poe     o210628   6.265   3.369   4.988 -0.0597 -0.7537  0.2278
 1606poe    c2310629   6.201   3.422   5.102  0.3075  0.3145 -0.0506
 1606poe    c2310630   6.105   3.534   5.059 -0.0482 -0.0905 -0.3187
 1606poe     o210631   6.036   3.496   4.943  0.3641  0.1275 -0.6385
 1606poe    c3110632   5.941   3.592   4.903 -0.0129  0.1050  0.1975
 1607poe    c3110633   3.506   5.310   4.719  0.2160  0.2321  0.1714
 1607poe     o210634   3.515   5.235   4.600  0.8852  0.0654  0.3249
 1607poe    c2310635   3.502   5.096   4.621 -0.1647  0.1940  0.5450
 1607poe    c2310636   3.528   5.043   4.479  0.4834 -0.4833  0.9127
 1607poe     o210637   3.655   5.084   4.434  0.1986 -0.4394  0.1280
 1607poe    c2310638   3.691   5.011   4.320 -0.0759  0.0607 -0.2824
 1607poe    c2310639   3.822   5.064   4.260 -0.2205  0.3103 -0.3777
 1607poe     o210640   3.809   5.194   4.206  0.4972  0.8028  0.6009
 1607poe    c2310641   3.929   5.236   4.144  0.5066 -0.1205 -0.0232
 1607poe    c2310642   3.889   5.374   4.089  0.7494  0.0262  0.1696
 1607poe     o210643   3.818   5.431   4.196  1.0304  0.4266  0.1447
 1607poe    c3110644   3.791   5.568   4.180 -0.9383  0.0849  0.3017
 1608poe    c3110645   3.276   5.330   0.382  0.4383 -0.9869  0.2799
 1608poe     o210646   3.179   5.319   0.280  0.5285 -0.7005  0.1627
 1608poe    c2310647   3.194   5.196   0.214  0.0894 -0.3761 -0.5528
 1608poe    c2310648   3.082   5.187   0.108 -0.4678 -0.2372  0.0115
 1608poe     o210649   3.100   5.310   0.041  0.2525 -0.3443 -0.0030
 1608poe    c2310650   3.005   5.353  -0.054  0.0763  0.5223  0.5602
 1608poe    c2310651   2.883   5.421   0.012  0.0449  0.6324  0.3881
 1608poe     o210652   2.944   5.497   0.114  0.2619 -0.3079  0.9713
 1608poe    c2310653   2.841   5.553   0.192 -0.3005  0.2317 -0.1262
 1608poe    c2310654   2.916   5.622   0.308 -0.1657 -0.4593  0.2094
 1608poe     o210655   3.024   5.546   0.354 -0.1990 -0.2885  0.5716
 1608poe    c3110656   3.087   5.619   0.457  0.6376  0.2489 -0.3057
 1609poe    c3110657   4.173   6.922   5.542  0.4064 -0.4036  0.4784
 1609poe     o210658   4.272   6.914   5.442  0.0321 -0.1102  0.0805
 1609poe    c2310659   4.398   6.953   5.493 -0.1782  0.4505  0.1790
 1609poe    c2310660   4.440   7.079   5.414 -0.0542  0.2419 -0.0892
 1609poe     o210661   4.389   7.069   5.283  0.5749 -0.6383 -0.2736
 1609poe    c2310662   4.416   7.181   5.202  0.1145 -0.0731  0.3438
 1609poe    c2310663   4.288   7.212   5.122  0.5551 -0.6998 -0.6268
 1609poe     o210664   4.183   7.121   5.149  0.1577 -0.0271  0.1482
 1609poe    c2310665   4.056   7.179   5.129 -0.1869 -0.7128  0.3117
 1609poe    c2310666   3.945   7.106   5.052 -0.5707 -0.0207  0.1974
 1609poe     o210667   3.919   6.977   5.104  0.2176 -0.3247 -0.1380
 1609poe    c3110668   3.809   6.920   5.036 -0.0570 -0.4359  0.3935
 1610poe    c3110669   2.039   2.034   2.449 -0.4130 -0.0061 -0.0919
 1610poe     o210670   2.082   2.149   2.519 -0.1799 -0.1355 -0.0220
 1610poe    c2310671   2.076   2.256   2.427  0.2197  0.1051  0.2276
 1610poe    c2310672   2.185   2.364   2.433  0.3644 -0.0321  0.0837
 1610poe     o210673   2.167   2.417   2.563  0.4012 -0.0930  0.1141
 1610poe    c2310674   2.230   2.541   2.580 -0.4905  0.5502 -1.0598
 1610poe    c2310675   2.236   2.578   2.730  0.5909 -0.2540 -0.8938
 1610poe     o210676   2.295   2.478   2.811 -0.4998 -0.1951 -0.0024
 1610poe    c2310677   2.320   2.515   2.945 -0.5933  0.0267 -0.0461
 1610poe    c2310678   2.417   2.409   2.998 -0.1628  0.2796 -0.3144
 1610poe     o210679   2.374   2.280   2.959 -0.0911  0.1746 -0.0502
 1610poe    c3110680   2.461   2.184   3.016  0.3172  0.2060 -0.6107
 1611poe    c3110681   3.285   0.550   5.937 -0.0815 -0.2794  0.3327
 1611poe     o210682   3.351   0.480   5.834  0.1429  0.1547  0.1823
 1611poe    c2310683   3.378   0.563   5.723  0.6988  0.0225  0.2143
 1611poe    c2310684   3.512   0.521   5.660  0.6724 -0.1623  0.2811
 1611poe     o210685   3.490   0.385   5.629  0.0223 -0.0615  0.2829
 1611poe    c2310686   3.609   0.352   5.561  0.0715 -0.2943  0.4770
 1611poe    c2310687   3.604   0.201   5.531 -0.9301 -0.1395 -0.1976
 1611poe     o210688   3.584   0.144   5.658  0.2299 -0.0306  0.0423
 1611poe    c2310689   3.572   0.004   5.666  0.3787 -0.0419  0.0708
 1611poe    c2310690   3.432  -0.053   5.638  0.3761  0.0283 -0.0594
 1611poe     o210691   3.343  -0.056   5.747  0.1349  0.0038 -0.2545
 1611poe    c3110692   3.216  -0.115   5.733 -0.2318  0.6040  0.4384
 1612poe    c3110693   5.529   2.885   2.266 -0.4574  0.0067 -0.4310
 1612poe     o210694   5.477   2.897   2.136  0.5016 -0.0965 -0.8249
 1612poe    c2310695   5.590   2.905   2.052  0.9295  0.5115 -0.1950
 1612poe    c2310696   5.539   2.923   1.908 -0.5039  0.2112  0.2636
 1612poe     o210697   5.422   2.846   1.890 -0.4917  0.2879 -0.1667
 1612poe    c2310698   5.343   2.881   1.779 -0.5912  0.6676  0.0239
 1612poe    c2310699   5.216   2.795   1.793 -0.3219  0.1641 -0.6015
 1612poe     o210700   5.156   2.820   1.918  0.6164 -0.1112 -0.0863
 1612poe    c2310701   5.019   2.787   1.910  0.6698 -0.2695 -0.3373
 1612poe    c2310702   4.962   2.784   2.052  0.8401 -0.0051 -0.2629
 1612poe     o210703   5.036   2.703   2.141  0.7448  0.0549 -0.1274
 1612poe    c3110704   4.970   2.693   2.265  0.1594  0.4213 -0.4026
 1613poe    c3110705   4.712   4.765   6.239 -0.8503  0.1667 -0.0075
 1613poe     o210706   4.688   4.814   6.369  0.3967 -0.2877  0.4072
 1613poe    c2310707   4.565   4.763   6.414 -0.5215  0.9896 -0.5910
 1613poe    c2310708   4.545   4.816   6.557 -0.4062  0.6901 -0.4655
 1613poe     o210709   4.566   4.955   6.552 -0.3207  0.7003  0.0680
 1613poe    c2310710   4.600   5.003   6.680  0.5969  0.7483 -0.1878
 1613poe    c2310711   4.752   4.984   6.692  0.5195  0.1643 -0.0825
 1613poe     o210712   4.811   5.024   6.570  0.3256 -0.1238 -0.2725
 1613poe    c2310713   4.945   5.065   6.585  0.2354  0.1216 -0.1211
 1613poe    c2310714   4.996   5.105   6.445 -0.5055  0.5063 -0.2854
 1613poe     o210715   4.943   5.009   6.357 -0.0987  0.0475 -0.0335
 1613poe    c3110716   5.028   5.014   6.245 -0.0342 -0.0248  0.0123
 1614poe    c3110717   6.052   3.063   1.352 -0.2741  0.1150  0.3449
 1614poe     o210718   6.008   3.174   1.277 -0.0909 -0.2003 -0.2319
 1614poe    c2310719   6.112   3.262   1.242 -0.0463 -0.2968 -0.3447
 1614poe    c2310720   6.034   3.379   1.178 -0.1665  0.0079  0.3474
 1614poe     o210721   5.921   3.338   1.104  0.1387  0.1240 -0.1916
 1614poe    c2310722   5.839   3.433   1.040 -0.0223  0.5630  0.6463
 1614poe    c2310723   5.725   3.359   0.968  0.5007 -0.0250  0.4119
 1614poe     o210724   5.675   3.280   1.074  0.5928 -0.8400 -0.1382
 1614poe    c2310725   5.543   3.246   1.041  0.2371  0.3787 -0.0139
 1614poe    c2310726   5.515   3.117   1.121 -0.4552  0.1684 -0.5792
 1614poe     o210727   5.499   3.149   1.258  0.1139 -0.1217 -0.4423
 1614poe    c3110728   5.428   3.061   1.341 -0.1745  0.2367 -0.3091
 1615poe    c3110729   2.786   2.146   0.186  0.1719  0.1765  0.2810
 1615poe     o210730   2.742   2.012   0.180 -0.2669  0.3058  0.5868
 1615poe    c2310731   2.645   2.004   0.078  0.2992  0.4238  0.0315
 1615poe    c2310732   2.502   2.057   0.100  0.0702 -0.2414  0.1657
 1615poe     o210733   2.410   1.996   0.188  0.2342 -0.4931  0.1623
 1615poe    c2310734   2.425   2.050   0.317  0.5048 -0.0601 -0.0503
 1615poe    c2310735   2.294   2.085   0.389  0.1814  0.1688 -0.7360
 1615poe     o210736   2.215   1.971   0.415 -0.2309  0.6486  0.1446
 1615poe    c2310737   2.237   1.900   0.535 -0.2395  0.4683  0.0384
 1615poe    c2310738   2.134   1.786   0.551  0.1209  0.2566  0.8801
 1615poe     o210739   2.018   1.851   0.597 -0.1291  0.3371  0.1464
 1615poe    c3110740   1.989   1.806   0.728 -0.0099  0.4531  0.2123
 1616poe    c3110741   6.929   0.759   1.743 -0.6573  0.9392  0.0492
 1616poe     o210742   6.859   0.763   1.865  0.4046 -0.2553  0.7197
 1616poe    c2310743   6.823   0.891   1.911  0.4717 -0.0809  0.2964
 1616poe    c2310744   6.756   0.867   2.048  0.7857 -0.4945  0.3779
 1616poe     o210745   6.637   0.791   2.039  0.4648  0.0033  0.3895
 1616poe    c2310746   6.515   0.848   1.996  0.3141 -0.0217  0.7777
 1616poe    c2310747   6.408   0.742   1.968  0.6331 -0.2523  0.4165
 1616poe     o210748   6.437   0.632   2.052 -0.3096 -0.5944  0.3085
 1616poe    c2310749   6.364   0.521   2.006 -0.4958 -0.2456 -0.2549
 1616poe    c2310750   6.394   0.412   2.110  0.2346  0.6568  0.4943
 1616poe     o210751   6.534   0.408   2.125  0.4243 -0.4948 -1.3205
 1616poe    c3110752   6.570   0.303   2.212 -0.0561  0.1596 -0.3171
 1617poe    c3110753   4.750   1.444   0.918  0.1649 -0.0652 -0.4822
 1617poe     o210754   4.725   1.386   1.044  0.3787  0.1187 -0.3537
 1617poe    c2310755   4.826   1.405   1.140  0.3360 -0.4463 -0.1942
 1617poe    c2310756   4.822   1.539   1.215  0.3370 -0.5113 -0.0769
 1617poe     o210757   4.703   1.545   1.289  0.0999  0.1527 -0.4989
 1617poe    c2310758   4.687   1.682   1.320  0.2998  0.0150  0.2430
 1617poe    c2310759   4.599   1.700   1.445  0.1222  0.1683  0.0959
 1617poe     o210760   4.503   1.597   1.460  0.3921 -0.1633 -0.4064
 1617poe    c2310761   4.415   1.615   1.569  0.2831  0.1916 -0.5495
 1617poe    c2310762   4.293   1.530   1.530  0.1435 -0.1329  0.5489
 1617poe     o210763   4.355   1.406   1.502  0.1753 -0.0121  0.0782
 1617poe    c3110764   4.260   1.303   1.485 -0.3243  0.4166  0.2446
 1618poe    c3110765   6.527   1.440   7.003  0.4494  0.6687  0.3419
 1618poe     o210766   6.491   1.528   6.899  0.0993  0.0759 -0.0467
 1618poe    c2310767   6.463   1.656   6.952  0.4857 -0.0290  0.4150
 1618poe    c2310768   6.418   1.745   6.834  0.6145 -0.1892  0.2448
 1618poe     o210769   6.337   1.656   6.760  0.5069  0.1140 -0.0026
 1618poe    c2310770   6.297   1.704   6.634 -0.4472 -0.0542  0.2304
 1618poe    c2310771   6.228   1.594   6.551  0.8606 -0.1440 -0.7574
 1618poe     o210772   6.298   1.476   6.583  0.1398 -0.1098  1.0502
 1618poe    c2310773   6.212   1.366   6.603 -0.2517  0.1331  0.7336
 1618poe    c2310774   6.296   1.240   6.634 -0.3428 -0.2190 -0.3851
 1618poe     o210775   6.377   1.264   6.747 -0.0003 -0.3572 -0.5998
 1618poe    c3110776   6.384   1.142   6.817  0.8823 -0.0502 -0.1296
 1619poe    c3110777   5.485   4.179   0.492 -0.4096  0.1374  0.2345
 1619poe     o210778   5.399   4.282   0.537 -0.3195  0.3676 -0.1213
 1619poe    c2310779   5.437   4.335   0.662  0.0764 -0.0451 -0.0635
 1619poe    c2310780   5.317   4.421   0.705  0.3832  0.3454  0.0179
 1619poe     o210781   5.305   4.514   0.599 -0.5813 -0.0910 -0.2631
 1619poe    c2310782   5.192   4.598   0.610 -0.5993 -0.1349 -0.1134
 1619poe    c2310783   5.207   4.708   0.503  0.5186  0.0620  0.2216
 1619poe     o210784   5.240   4.639   0.384 -0.5924 -0.4183  0.1740
 1619poe    c2310785   5.217   4.718   0.270  1.0210 -0.0842  0.0499
 1619poe    c2310786   5.220   4.644   0.135  0.2642 -0.1982  0.0880
 1619poe     o210787   5.128   4.537   0.126  0.2818 -0.2049 -0.0083
 1619poe    c3110788   5.076   4.545  -0.005  0.4567  0.4034 -0.0464
 1620poe    c3110789   4.584   5.775   0.183  0.7681  0.4796 -0.2153
 1620poe     o210790   4.548   5.696   0.294  0.1314  0.6029 -0.3285
 1620poe    c2310791   4.560   5.737   0.429  0.0985  0.5073 -0.2969
 1620poe    c2310792   4.706   5.731   0.477  0.0753 -0.0953 -0.2929
 1620poe     o210793   4.804   5.818   0.425  0.8137 -0.3259  0.6887
 1620poe    c2310794   4.936   5.786   0.464  1.1061  0.1638  0.1121
 1620poe    c2310795   4.969   5.774   0.614 -0.2474  0.1211  0.4149
 1620poe     o210796   4.978   5.903   0.669 -0.1615  0.2956 -0.0055
 1620poe    c2310797   4.969   5.891   0.809  0.0009  0.2522  0.0018
 1620poe    c2310798   5.009   6.020   0.883  0.0505  0.1709  0.1172
 1620poe     o210799   4.933   6.131   0.841 -0.2382 -0.1412 -0.1888
 1620poe    c3110800   4.977   6.242   0.916 -0.2237 -0.2346 -0.0604
 1621lim     li10801   6.780   2.453   0.657  1.1975  0.1047 -1.1858
 1622lim     li10802   5.570   6.304   1.725 -1.4815  0.4107 -0.3174
 1623lim     li10803   4.647   6.198   2.636 -1.7165  1.1209 -0.4518
 1624lim     li10804   0.671   3.909   4.850  0.9201 -0.9712  0.3299
 1625lim     li10805   5.577   2.247   0.873  0.6523  0.5986  0.8338
 1626lim     li10806   5.417   2.386   2.785  0.0200  1.2835 -0.3388
 1627lim     li10807   1.474   6.063   1.100 -0.0015 -0.9371 -0.7221
 1628lim     li10808   2.623   2.426   1.662 -0.2042  0.1302  0.3834
 1629lim     li10809   5.130   5.653   6.056  0.4104 -0.4450  0.6722
 1630lim     li10810   2.136   3.358   6.869  0.9414  0.0941 -0.6241
 1631lim     li10811   2.663   0.945   1.741  0.5681  0.1953  0.3336
 1632lim     li10812   4.060   4.219   4.448 -0.3991 -0.0468 -0.1909
 1633lim     li10813   2.929   2.293   5.236  0.1234 -0.0522  0.0682
 1634lim     li10814   6.669   3.363   1.023  1.4260  0.5601  0.4110
 1635lim     li10815   5.238   6.190   3.552  1.0522 -0.0219 -0.1306
 1636lim     li10816   1.133   5.055   3.006 -0.7857 -0.5751  0.8147
 1637lim     li10817   5.689   3.984   2.463  0.7619 -0.0334  0.3287
 1638lim     li10818   2.127   0.794   6.550 -1.1555 -0.3625  0.3336
 1639lim     li10819   6.875   5.779   3.950  0.2571 -0.1394 -0.0423
 1640lim     li10820   3.366   4.187   5.766 -1.0334 -0.4452  0.2968
 1641lim     li10821   3.039   1.440   3.577  0.4435 -0.0990  0.1824
 1642lim     li10822   5.077   6.035   4.228 -0.4239 -0.2068 -0.0351
 1643lim     li10823   4.068   5.607   5.930 -0.4355  1.9300  0.2946
 1644lim     li10824   3.131   6.611   0.674  0.7444 -1.1599  0.4863
 1645lim     li10825   0.433   2.801   0.689 -0.2074 -1.2820  1.0910
 1646lim     li10826   2.291   4.265   4.843  0.3273 -0.2342  0.2123
 1647lim     li10827   2.284   6.295   3.489 -1.2014 -0.0516  0.5293
 1648lim     li10828   1.453   2.533   2.734  0.2629 -0.0379 -0.2327
 1649lim     li10829   5.913   6.193   5.483  0.3745  1.0205  0.2289
 1650lim     li10830   2.750   0.038   5.784 -0.2442 -1.0504  0.6064
 1651lim     li10831   2.084   3.236   4.444 -0.8356 -0.3224  1.1386
 1652lim     li10832   0.832   4.183   3.362  1.0006 -1.2291  1.1170
 1653lim     li10833   4.682   2.955   4.026  0.0954  0.2155  0.3124
 1654lim     li10834   3.668   6.088   0.189  0.5406  0.0550 -1.0095
 1655lim     li10835   3.919   1.266   3.272  0.3840 -0.4200  0.4882
 1656lim     li10836   4.879   2.412   3.636 -1.2334  0.3530  1.1193
 1657lim     li10837   3.884   0.634   5.741  0.6994 -0.4912 -0.8067
 1658lim     li10838   0.645   0.826   2.876 -0.4823  0.1710 -0.1471
 1659lim     li10839   1.869   5.669   5.777  0.3973 -1.3594  0.5631
 1660lim     li10840   4.801   4.948   1.196  0.1046 -1.5594  0.7703
 1661lim     li10841   6.848   5.188   0.345 -0.4890  0.2190  0.7728
 1662lim     li10842   4.792   0.734   1.647 -0.7896 -0.6705  0.0426
 1663lim     li10843   2.155   5.401   2.504  0.1537 -0.0368 -0.6903
 1664lim     li10844   3.298   4.557   1.885 -0.2253  0.0645 -1.1973
 1665lim     li10845   5.568   5.026   3.023  1.3363  0.7542 -0.7510
 1666lim     li10846   6.851   0.209   2.725  1.0939 -0.7058  0.1746
 1667lim     li10847   4.252   6.930   5.249 -1.2123 -0.1027 -0.3620
 1668lim     li10848   2.021   5.188   5.314  0.0337 -0.4957 -0.8018
 1669lim     li10849   0.125   1.888   3.892 -0.2206  0.0055  0.3724
 1670lim     li10850   1.039   0.735   2.324  0.5913 -1.0375  0.3689
 1671lim     li10851   2.117   5.319   6.742  0.6803  0.6894  1.3210
 1672lim     li10852   2.202   2.396   5.206 -0.7361  0.0496  0.0306
 1673lim     li10853   4.329   0.273   6.667  0.0435  0.1326 -0.0280
 1674lim     li10854   6.697   4.993   4.775  0.2885  1.2840 -0.6782
 1675lim     li10855   3.097   5.456   0.195 -0.7655  0.3921 -0.1980
 1676lim     li10856   0.993   4.547   1.310 -0.1089  0.3679 -1.0282
 1677lim     li10857   0.723   0.915   0.102 -0.9988  0.5030  0.2194
 1678lim     li10858   2.721   4.189   1.569 -0.1173 -0.8561  0.6998
 1679lim     li10859   4.792   5.709   6.663 -0.8856  0.0684  0.2071
 1680lim     li10860   1.168   5.018   2.146  0.3429  0.2896 -0.3952
 1681lim     li10861   6.028   4.271   4.881 -1.5435  0.5906  0.6206
 1682lim     li10862   5.591   0.830   2.540 -0.2460  0.1603  0.6533
 1683lim     li10863   1.806   1.975   1.475 -0.3432  0.2242  0.5687
 1684lim     li10864   4.255   3.665   3.907 -0.3935 -0.3525  0.1263
 1685lim     li10865   1.645   4.261   5.032  1.1583 -0.2018  1.0683
 1686lim     li10866   6.548   2.571   3.056  0.8887 -0.1827  0.0980
 1687lim     li10867   1.514   0.221   3.133 -0.0646 -0.3624 -0.4358
 1688lim     li10868   3.828   5.385   1.440  0.8535 -0.9191  0.7913
 1689lim     li10869   3.468   0.625   4.743  0.4991 -0.0749 -0.8699
 1690lim     li10870   6.266   4.894   4.137  0.4536  0.6121  0.1447
 1691lim     li10871   6.378   6.690   0.494  0.0990  0.1960 -0.1600
 1692lim     li10872   2.031   4.263   1.124  0.3553  0.3326  0.4197
 1693lim     li10873   0.721   6.822   1.102 -0.1598  1.4696 -0.2700
 1694lim     li10874   2.049   1.093   2.931 -0.5140 -0.4294  0.6630
 1695lim     li10875   4.920   2.988   0.441 -0.1950 -0.1616 -0.8542
 1696lim     li10876   2.681   3.687   3.339 -0.0145 -0.6250 -0.6434
 1697lim     li10877   3.171   5.615   4.271 -0.4975 -0.6842 -0.1680
 1698lim     li10878   0.708   5.382   1.086  0.9988  0.8684  0.2005
 1699lim     li10879   5.546   3.228   3.052  0.0041 -0.8013 -0.4029
 1700lim     li10880   1.875   6.588   2.700  0.4787  0.4401  0.3007
 1701lim     li10881   6.547   4.600   2.994  0.9102  0.1795 -0.2587
 1702lim     li10882   5.737   3.451   2.101  0.0853 -0.9475 -1.1698
 1703lim     li10883   1.485   1.564   4.721 -0.7366 -0.7707  0.0386
 1704lim     li10884   6.285   4.853   0.645  0.4042  0.5748  0.0639
 1705lim     li10885   4.657   5.549   2.994 -0.4756 -0.4286 -0.7585
 1706lim     li10886   6.177   5.451   3.688 -0.1649 -0.9242  0.6775
 1707lim     li10887   1.303   6.786   4.365  1.8805 -1.1959 -1.0132
 1708lim     li10888   3.851   3.302   4.977  0.8990 -0.1684 -0.6209
 1709lim     li10889   3.355   6.998   0.038  0.1648 -0.0960 -0.0746
 1710lim     li10890   2.785   5.731   6.294 -0.4978  0.4013 -0.3598
 1711lim     li10891   6.719   1.580   1.198 -0.6606 -0.5452 -0.4001
 1712lim     li10892   2.690   6.068   5.358  1.3506 -0.1568  0.3440
 1713lim     li10893   4.714   5.365   5.416 -0.6713 -1.4313  0.2672
 1714lim     li10894   0.073   2.050   1.759 -0.6304  0.6865 -0.2932
 1715lim     li10895   3.856   6.974   3.287  0.2268  0.3413 -0.3122
 1716lim     li10896   6.269   2.317   4.604 -0.4450  0.8394  0.8980
 1717lim     li10897   2.349   6.642   6.094 -0.1358  0.7369  0.3139
 1718lim     li10898   6.318   4.399   2.453  0.4079  1.1963 -0.9490
 1719lim     li10899   3.699   5.311   4.263 -1.2275 -1.1056 -0.2740
 1720lim     li10900   6.435   1.502   1.959  0.2073  0.7648 -0.0390
 1721lim     li10901   5.613   4.783   1.580  0.4887 -1.1265 -1.0122
 1722lim     li10902   6.052   1.881   2.507  0.1463  1.2828 -0.7245
 1723lim     li10903   2.014   1.828   5.683 -0.6525 -0.2708  0.3322
 1724lim     li10904   0.128   4.736   4.174  0.0111  0.6758 -0.2146
 1725lim     li10905   0.741   6.270   1.525  1.0614 -0.0817 -0.4096
 1726lim     li10906   0.238   4.400   6.493  0.6524 -0.6633 -0.3599
 1727lim     li10907   2.449   1.030   5.676 -0.6060  0.5539  0.1870
 1728lim     li10908   6.349   2.879   6.184  0.3968  1.0012  0.2561
 1729lim     li10909   2.883   4.682   5.289  0.0971 -0.4639 -0.0680
 1730lim     li10910   4.046   3.654   2.969  0.3446 -0.0822  0.9528
 1731lim     li10911   3.029   2.835   4.259  1.1983  0.1489  0.6610
 1732lim     li10912   1.216   3.283   0.407 -0.8613  0.8683 -0.6705
 1733lim     li10913   0.236   4.271   1.056 -1.0533 -0.1022 -0.0496
 1734lim     li10914   3.040   5.671   0.818 -0.1564  0.1888  0.7845
 1735lim     li10915   6.891   3.509   4.309 -0.6212 -0.1807  0.2860
 1736lim     li10916   5.923   1.497   3.302 -0.7357  0.3569  0.3730
 1737lim     li10917   1.651   2.719   0.412  0.9917  0.5591  0.7113
 1738lim     li10918   5.653   4.991   5.028 -0.6057 -0.4571  0.2660
 1739lim     li10919   2.756   1.284   4.101 -0.1966 -0.0978  0.1670
 1740lim     li10920   5.465   4.424   5.465 -0.0143  0.3736 -0.4364
 1741lim     li10921   2.383   4.884   1.281 -0.0237  0.1172  0.7632
 1742lim     li10922   3.776   3.205   0.211 -0.9699  0.0256 -0.2436
 1743lim     li10923   1.755   0.608   3.814 -1.0623  0.7671  0.7037
 1744lim     li10924   4.867   4.604   2.227 -0.0174 -1.3378 -0.8958
 1745lim     li10925   3.446   6.333   1.637  1.0559 -0.5773 -0.9006
 1746lim     li10926   5.628   0.069   6.928 -0.7386  0.9608  0.3438
 1747lim     li10927   5.406   1.583   0.117  0.3699  0.1862 -0.1516
 1748lim     li10928   3.557   6.431   4.505 -0.9108  0.3922  0.4388
 1749lim     li10929   6.481   5.434   1.522 -0.6688 -1.0213 -0.6636
 1750lim     li10930   6.222   2.568   6.898 -1.1112 -0.3471  0.5223
 1751lim     li10931   2.106   6.042   0.343 -0.4296  0.4629  1.2505
 1752lim     li10932   0.935   3.501   3.722 -0.2496  0.5394  0.0938
 1753lim     li10933   6.697   6.902   4.479  0.8861  0.8931 -0.0809
 1754lim     li10934   1.041   4.375   6.855 -1.6393 -0.1153 -1.1658
 1755lim     li10935   6.468   6.132   5.916  0.4710 -0.9686 -0.0854
 1756lim     li10936   5.725   6.559   6.396  0.0655  0.8080 -0.0605
 1757lim     li10937   3.649   4.887   0.263  0.1905  1.2549  0.4869
 1758lim     li10938   4.188   4.255   1.067 -0.5617  0.2857 -0.2664
 1759lim     li10939   0.641   4.293   5.776  0.3063 -0.0767 -0.5425
 1760lim     li10940   2.138   1.247   4.867  0.0395 -0.5872 -0.8216
 1761lim     li10941   6.577   2.947   5.589  0.2391  0.5891 -1.2661
 1762lim     li10942   4.340   0.149   4.476  0.9215 -0.4269  0.5311
 1763lim     li10943   4.896   3.929   0.968 -0.0654 -0.5008 -0.3872
 1764lim     li10944   2.460   3.282   1.406 -0.8856 -2.1343  0.2259
 1765lim     li10945   5.325   2.849   2.044 -0.0020  0.5551  0.0408
 1766lim     li10946   6.134   3.361   3.458  0.7857  0.5184 -0.2467
 1767lim     li10947   0.672   3.152   1.538  0.1242  0.1557 -1.0868
 1768lim     li10948   1.720   4.205   2.594 -0.1966 -0.1908  0.4885
 1769lim     li10949   5.640   3.751   1.305 -0.2081  0.7118  0.1727
 1770lim     li10950   5.484   2.622   5.299  0.0334 -0.2976 -0.7930
 1771lim     li10951   0.385   6.549   5.410  0.7025  0.1434 -0.5935
 1772lim     li10952   6.221   2.358   1.838  1.0321 -0.6268  0.3413
 1773lim     li10953   0.560   0.097   0.288 -0.0484 -0.0953  0.1055
 1774lim     li10954   2.579   6.170   1.870  0.4391 -0.5805 -0.3030
 1775lim     li10955   4.576   2.525   6.850  0.5944 -0.3259 -0.3529
 1776lim     li10956   2.842   3.597   5.877 -0.2467 -0.3356 -0.4993
 1777lim     li10957   1.439   0.434   6.076 -0.2449  0.3490  0.5267
 1778lim     li10958   4.479   1.388   4.616 -1.4366 -0.5297  0.2089
 1779lim     li10959   5.218   5.815   4.845  0.8302 -0.1369 -0.7383
 1780lim     li10960   3.354   0.320   5.753  0.1974 -0.2017  0.9652
 1781lim     li10961   0.060   2.106   4.778  0.1299 -0.5878  0.7485
 1782lim     li10962   2.116   3.520   2.356 -0.1357  0.0416 -0.0876
 1783lim     li10963   0.050   6.333   4.081  0.0784 -0.8837  0.6717
 1784lim     li10964   4.454   1.452   5.748  1.0393  0.3068 -0.7615
 1785lim     li10965   2.128   4.270   5.606  0.6096 -0.0240  0.6330
 1786lim     li10966   4.723   6.288   1.448  0.5278 -1.2768 -0.3982
 1787lim     li10967   1.096   6.702   2.391  0.5214 -0.2779  2.1735
 1788lim     li10968   6.815   6.054   1.287  0.4212  1.1231  1.0192
 1789lim     li10969   0.292   2.953   2.265 -0.6220  0.2745  0.7838
 1790lim     li10970   4.579   5.076   3.145 -0.4054  0.7632  0.2082
 1791lim     li10971   3.937   6.790   1.303  0.2556  0.1324 -0.5801
 1792lim     li10972   0.516   5.496   4.098  0.1988 -0.1484  0.2075
 1793lim     li10973   4.898   6.960   6.432 -0.0315  0.1367  0.6028
 1794lim     li10974   0.020   5.168   1.995 -0.2112  0.7103 -0.2478
 1795lim     li10975   4.063   3.981   5.193 -0.4182 -1.4030 -0.4797
 1796lim     li10976   0.211   3.252   5.234  0.6605  0.2835  1.6914
 1797lim     li10977   0.083   0.613   0.924 -0.0767  0.2586 -0.7206
 1798lim     li10978   0.446   5.912   4.948 -0.6242 -0.5812 -0.8025
 1799lim     li10979   1.203   4.598   4.557  0.0234  0.9221  0.3364
 1800lim     li10980   4.180   2.950   1.164  0.6503 -1.3327  0.0757
 1801lim     li10981   0.909   0.676   5.833 -1.0720 -0.8401  0.5814
 1802lim     li10982   3.400   5.815   6.293 -0.0542  1.2657  0.1964
 1803lim     li10983   4.412   1.460   0.246 -0.0278  0.8572 -0.6752
 1804lim     li10984   6.895   0.873   6.365 -0.5009  1.4103  0.3666
 1805lim     li10985   0.835   1.063   4.478 -0.0772  0.2217 -0.0627
 1806lim     li10986   4.260   0.803   3.914  0.1318  0.4201 -0.2645
 1807lim     li10987   3.181   0.787   0.838  0.3036  0.1382 -0.5177
 1808lim     li10988   6.199   0.273   4.485  0.2191 -0.1386  0.0119
 1809lim     li10989   4.528   5.467   4.119  0.6082  0.6704  0.4480
 1810lim     li10990   4.920   3.805   3.888  0.4957  0.1115  1.2496
 1811lim     li10991   2.433   6.511   6.935 -0.3646  0.9011  0.9600
 1812lim     li10992   4.841   1.834   3.006 -0.1007  0.0242 -0.0163
 1813lim     li10993   2.022   1.213   1.012 -0.0016 -0.3139  1.3588
 1814lim     li10994   6.087   6.617   2.546 -1.0311  0.3132  0.6814
 1815lim     li10995   1.831   0.525   4.991 -0.4652  0.5044 -0.0151
 1816lim     li10996   6.470   4.381   1.470  0.8535  0.5096 -0.2805
 1817lim     li10997   6.194   3.348   4.823 -0.2085 -1.0848  0.4901
 1818lim     li10998   5.250   6.638   5.001  0.5647 -0.1226 -0.2288
 1819lim     li10999   2.586   4.604   4.232 -0.6897 -0.8182  0.1039
 1820lim     li11000   3.672   4.533   3.737  1.1028  0.3181  0.3763
 1821lim     li11001   5.111   5.310   2.444 -0.1768 -0.8954  0.3972
 1822lim     li11002   0.118   2.994   6.743  0.1756 -0.2146  0.5113
 1823lim     li11003   6.479   1.096   2.751 -0.1061 -0.1889  0.4270
 1824lim     li11004   0.214   0.363   4.992 -0.3879  1.0203 -0.6488
 1825lim     li11005   1.883   1.935   0.525  0.8084 -0.0781 -0.5426
 1826lim     li11006   0.686   0.416   1.606  0.1390 -0.1625  0.0227
 1827lim     li11007   2.404   3.226   0.694  0.1969 -0.2601 -0.1097
 1828lim     li11008   3.829   2.886   6.316  1.1453  0.1724 -0.9580
 1829lim     li11009   6.941   3.647   6.912 -0.5423 -0.4349 -0.5246
 1830lim     li11010   0.516   1.252   0.953  1.2320  0.2984  0.4397
 1831lim     li11011   2.948   1.361   6.472  0.8699  0.1944 -0.2577
 1832lim     li11012   4.249   3.602   6.013 -1.3579  0.1467  0.6750
 1833lim     li11013   1.434   6.070   3.567  0.7341  0.4820 -0.5478
 1834lim     li11014   4.330   2.452   6.129 -0.0228 -0.5220 -2.1163
 1835lim     li11015   4.895   4.047   3.410 -0.3467 -0.1600  0.6943
 1836lim     li11016   1.072   3.137   2.670 -0.2365  0.3159 -1.3419
 1837lim     li11017   5.373   1.519   4.209 -0.9885 -1.0848  0.6968
 1838lim     li11018   5.078   0.908   3.500  0.6429  1.0221  1.4856
 1839lim     li11019   5.868   3.626   5.495  0.1652  0.8482 -0.8466
 1840lim     li11020   3.808   1.971   2.544  0.2296  0.3572  0.0398
 1841lim     li11021   4.605   2.959   2.417  0.2474  0.4407  0.4663
 1842lim     li11022   3.862   0.767   0.584 -0.0298  0.5292 -0.5457
 1843lim     li11023   5.121   0.937   0.732  0.2089 -0.0122 -0.3795
 1844lim     li11024   4.261   6.187   4.925 -0.0959 -0.8731  1.0561
 1845lim     li11025   3.687   2.790   5.488 -0.3591  0.3968  0.1908
 1846lim     li11026   0.217   6.069   6.820 -0.9825 -0.6499  0.5913
 1847lim     li11027   3.280   2.301   2.713  0.7859 -1.3651 -0.6152
 1848lim     li11028   4.798   2.142   2.039  0.8988 -1.4446  0.2538
 1849lim     li11029   6.589   4.226   3.894 -0.6984 -0.8643 -0.2579
 1850lim     li11030   2.580   0.379   3.139  0.1830  0.6134  0.5819
 1851lim     li11031   4.949   6.247   2.119 -0.3634 -0.2199 -0.5479
 1852lim     li11032   2.305   1.640   7.009  0.0116 -0.2142  0.5968
 1853lim     li11033   4.146   5.310   4.624 -0.0070 -0.7057 -0.7505
 1854lim     li11034   1.343   3.699   1.406  1.2444 -0.3454 -0.8364
 1855lim     li11035   4.104   3.013   2.806  1.0713  1.3398  0.4697
 1856lim     li11036   2.226   4.864   0.547 -0.0502  0.3806  0.6276
 1857lim     li11037   0.615   6.708   4.058  0.2185  0.1240 -0.4481
 1858lim     li11038   4.662   2.638   1.420  0.4763 -1.2425  1.3372
 1859lim     li11039   3.856   2.037   3.522 -0.2092 -0.0713 -0.3560
 1860lim     li11040   0.792   5.405   1.922 -0.0462 -0.7527 -0.1536
 1861lim     li11041   0.146   0.783   3.362  1.1083  0.3050  0.5388
 1862lim     li11042   0.754   2.421   3.819 -0.6522 -0.5207 -0.5863
 1863lim     li11043   3.894   0.595   6.396 -0.5146 -0.1348 -1.6282
 1864lim     li11044   4.110   1.775   5.048  0.2920 -0.2815 -0.8564
 1865lim     li11045   0.156   1.990   6.995  1.0038  0.4934  0.0036
 1866lim     li11046   2.531   0.370   4.881  0.6683  0.2373 -0.9432
 1867lim     li11047   0.347   6.656   3.156 -0.3683  0.1160  0.0917
 1868lim     li11048   3.292   6.179   3.315 -0.5553  1.1239  0.0782
 1869lim     li11049   6.605   0.595   2.078 -0.0584  0.4713 -0.2037
 1870lim     li11050   4.492   6.591   4.267  0.4002 -1.0966  0.2319
 1871lim     li11051   6.021   0.352   5.347  1.1116 -0.6600 -0.1423
 1872lim     li11052   2.885   1.544   1.020  0.3942  0.5890 -1.1890
 1873lim     li11053   4.163   0.208   2.062  0.0620  1.1185 -0.9433
 1874lim     li11054   1.483   2.307   3.851  0.3709  0.3836  0.2445
 1875lim     li11055   4.378   4.673   3.936 -0.1760 -0.3391 -1.0311
 1876lim     li11056   4.137   6.450   6.696  0.5279  0.2248  0.0368
 1877lim     li11057   5.318   1.240   2.526  0.1375  0.1396  0.6599
 1878lim     li11058   2.587   5.957   2.820 -0.3294 -1.4830 -1.0498
 1879lim     li11059   6.394   4.449   6.283 -0.2389 -0.1203  0.1949
 1880lim     li11060   1.329   2.633   4.445  1.1163 -0.3729  0.3483
 1881lim     li11061   6.774   4.217   0.472  0.3268 -1.2724  0.4489
 1882lim     li11062   2.246   2.303   2.821  0.3840  0.1894 -0.4131
 1883lim     li11063   3.236   1.871   0.364  0.0420  1.3329  0.2939
 1884lim     li11064   1.105   2.490   5.361 -0.1248 -1.0784  0.6397
 1885lim     li11065   5.914   5.153   1.032  1.0956 -2.0353  0.5150
 1886lim     li11066   2.909   3.808   0.743  1.2265 -0.5206 -0.6384
 1887lim     li11067   0.398   0.059   1.926 -0.8575 -0.0680  0.9169
 1888lim     li11068   5.883   6.592   1.166 -0.3230  0.8953  0.6194
 1889lim     li11069   0.742   2.219   0.760 -0.0966 -1.3449 -1.0635
 1890lim     li11070   4.970   0.932   4.892  0.4946  0.1805 -0.5108
 1891lim     li11071   2.227   5.017   6.177 -0.5924  1.1069  1.0983
 1892lim     li11072   2.787   5.038   3.686  0.0897 -1.3579 -0.3722
 1893lim     li11073   2.744   1.208   2.870 -0.2122  0.4090 -1.0136
 1894lim     li11074   4.652   2.772   5.302  0.3292 -0.3798 -0.4065
 1895lim     li11075   6.386   4.969   6.838  0.8213 -0.0833 -0.9639
 1896lim     li11076   6.140   1.103   0.580 -0.0389 -0.3130  0.9108
 1897lim     li11077   2.878   4.513   6.673  0.0589 -1.4503  0.3730
 1898lim     li11078   2.076   6.526   5.576 -0.3179 -0.9645  1.3027
 1899lim     li11079   1.627   2.146   2.070 -0.8592 -0.5486  0.4589
 1900lim     li11080   3.429   2.717   0.878  0.3418  0.4453 -1.2579
 1901lim     li11081   1.422   1.261   5.548  0.2833  0.2577  0.0920
 1902lim     li11082   7.003   5.284   5.675 -0.7160  0.3911 -0.3075
 1903lim     li11083   3.626   1.673   1.130 -0.8059 -0.1916 -0.7611
 1904lim     li11084   2.658   5.964   1.171 -0.9425 -0.2759 -0.0348
 1905lim     li11085   1.143   5.009   5.386  0.6636  0.2272  0.4713
 1906lim     li11086   2.929   2.788   6.909  0.2975  0.5089  1.8733
 1907lim     li11087   1.606   6.353   3.916  0.1033 -0.0044  1.3506
 1908lim     li11088   0.999   4.882   3.910 -0.0682  0.8724 -1.1235
 1909lim     li11089   5.006   2.455   5.865  1.5688  0.3057  0.1466
 1910lim     li11090   4.969   1.805   0.812  0.0652  0.2729  0.0703
 1911lim     li11091   2.726   2.832   2.225 -0.8775  0.1610  0.8277
 1912lim     li11092   1.971   2.911   1.953  1.2710 -0.7942 -0.5663
 1913lim     li11093   5.645   1.110   4.599 -0.6876 -0.6908 -1.4963
 1914lim     li11094   0.593   1.944   2.748 -0.4187 -0.0046  0.8349
 1915lim     li11095   3.556   3.965   0.278 -0.6765  0.8952  0.1181
 1916lim     li11096   1.179   1.220   0.799 -0.9503  0.3094 -0.4563
 1917lim     li11097   1.381   1.179   3.469  0.5522 -0.5845 -0.7025
 1918lim     li11098   0.450   1.420   6.501  0.6054 -0.2384 -1.0453
 1919lim     li11099   2.264   5.725   4.648 -0.6733 -0.0901  0.3411
 1920lim     li11100   0.330   2.431   5.801 -0.1059  0.6534 -0.7816
 1921lim     li11101   4.607   3.583   1.769  0.7812 -1.1304  1.9935
 1922lim     li11102   4.277   6.040   3.838  0.1831  0.6782  0.2276
 1923lim     li11103   5.695   4.417   4.040 -0.3156 -0.9061  1.7091
 1924lim     li11104   4.373   6.887   0.272  0.2034  0.3652  1.0228
 1925lim     li11105   6.882   0.910   5.715 -0.4029 -0.0469 -0.6944
 1926lim     li11106   4.887   1.780   6.305  0.1814  0.3822 -0.5312
 1927lim     li11107   3.122   5.699   5.206 -0.6022 -0.1443 -0.7144
 1928lim     li11108   2.094   1.763   3.307  0.0050  0.1269  0.8311
 1929lim     li11109   2.967   4.257   2.708  0.9435 -0.8388  0.1067
 1930lim     li11110   0.264   3.462   5.818  0.4161  0.6380  0.8521
 1931lim     li11111   4.270   3.299   0.762  0.0265  0.7733  0.2590
 1932lim     li11112   1.849   4.879   4.514  1.1972 -0.8866  0.2983
 1933lim     li11113   5.248   0.220   1.081 -0.2491  0.7322 -0.8209
 1934lim     li11114   4.399   1.564   2.241 -0.4501 -0.6061  0.0071
 1935lim     li11115   2.562   0.087   1.398  0.1393 -0.2126 -0.1009
 1936lim     li11116   3.860   6.937   2.563 -0.8913 -0.8226  0.7075
 1937lim     li11117   0.917   1.680   4.142 -1.1192 -0.5120  0.1374
 1938lim     li11118   2.974   3.575   4.483  0.2383  1.3628 -0.6187
 1939lim     li11119   3.178   0.359   6.835  0.6855 -0.3223  0.4475
 1940lim     li11120   0.913   3.330   6.714  0.5212 -0.6282  0.1397
 1941lim     li11121   5.319   0.348   0.378 -0.1039  0.4606 -0.5198
 1942lim     li11122   0.818   2.456   6.693 -0.1875  0.1932 -0.7678
 1943lim     li11123   4.255   5.507   0.069  0.5386 -0.4473 -0.1901
 1944lim     li11124   5.504   3.272   5.958 -0.6809  1.1611  0.5658
 1945lim     li11125   0.651   2.341   1.846  0.0231 -0.1708  0.7700
 1946lim     li11126   2.808   2.455   0.924 -0.1925 -0.6651 -0.5186
 1947lim     li11127   3.146   5.141   5.910  0.3742  0.4980 -0.1063
 1948lim     li11128   1.218   5.493   4.556  0.2803 -0.4682 -0.1747
 1949lim     li11129   2.041   2.367   4.641 -0.1403 -0.3828  0.6287
 1950lim     li11130   4.865   3.693   6.975  0.7072  0.1520  0.5846
 1951lim     li11131   5.239   6.508   0.306  0.7050 -0.5610 -0.0506
 1952lim     li11132   6.918   0.930   4.247 -1.2383 -0.0961 -0.0836
 1953lim     li11133   3.970   3.932   6.769 -1.7770  1.3702  1.0491
 1954lim     li11134   6.847   3.037   4.107  0.4496 -0.4782  1.1788
 1955lim     li11135   3.299   4.606   4.789 -0.1917  0.0774  0.5392
 1956lim     li11136   0.302   1.233   5.267 -0.6206 -0.0866  0.4957
 1957lim     li11137   1.657   1.506   2.403  0.8908 -1.0588  0.8145
 1958lim     li11138   1.617   2.560   6.104  0.3260 -0.5078  0.0193
 1959lim     li11139   2.445   3.128   3.254  1.6866  1.8910 -0.2227
 1960lim     li11140   1.002   5.805   6.232  0.9083 -1.1965  1.3592
 1961lim     li11141   6.525   5.969   0.360 -0.5629  0.0613 -0.4808
 1962lim     li11142   0.542   5.292   6.853 -0.0863 -0.7159 -0.0516
 1963lim     li11143   5.405   1.675   5.235  0.3298  0.4490 -0.2895
 1964lim     li11144   3.176   1.625   4.738  0.0410 -0.4949  0.7801
 1965lim     li11145   1.748   6.846   1.615 -0.0611 -0.7880 -0.3062
 1966lim     li11146   3.844   5.869   3.441 -0.6738 -0.7464 -0.2323
 1967lim     li11147   3.377   6.417   5.991 -0.5636  0.1818  1.0124
 1968lim     li11148   2.731   5.174   2.012  0.9725 -0.2552  0.3567
 1969lim     li11149   6.146   0.471   0.802 -0.1511 -0.0588 -0.4166
 1970lim     li11150   5.699   1.323   5.915 -0.5911  0.1598  0.2493
 1971lim     li11151   6.421   1.900   3.837 -0.5191  0.3156  0.1648
 1972lim     li11152   3.018   6.695   2.799 -0.5635 -0.8527 -0.0931
 1973lim     li11153   5.130   0.401   4.309  0.4944 -0.2297  0.9671
 1974lim     li11154   2.037   6.688   0.863  0.9134 -0.4543 -0.2384
 1975lim     li11155   5.841   3.179   1.190 -0.6605  0.2786  0.5586
 1976lim     li11156   5.642   4.785   6.377  0.3464  0.3670  0.2727
 1977lim     li11157   4.486   4.246   7.013  2.0187 -0.6506  0.0310
 1978lim     li11158   1.859   1.497   4.095  0.1552  0.6216 -0.8841
 1979lim     li11159   4.234   0.250   0.891 -1.4491  0.5779 -0.3865
 1980lim     li11160   3.754   6.198   2.426 -1.2253  1.1778 -0.4794
 1981lim     li11161   1.535   0.065   0.238  0.2016 -0.8507 -0.2110
 1982lim     li11162   3.753   2.777   2.112 -0.6156  0.4298  0.3367
 1983lim     li11163   4.775   6.789   3.287  0.2445  0.7650 -0.1534
 1984lim     li11164   5.312   5.070   3.908  0.6671  0.4826  0.7047
 1985lim     li11165   4.904   3.523   5.167  1.8237 -0.1527 -0.7535
 1986lim     li11166   6.708   6.960   6.979  0.5265  0.6753  0.6524
 1987lim     li11167   1.323   5.843   5.408 -0.2656  0.6962  1.4331
 1988lim     li11168   3.138   0.070   1.357  0.2164 -0.7458 -0.4998
 1989lim     li11169   0.633   0.652   3.939  0.9086  1.0887 -0.4184
 1990lim     li11170   6.092   1.982   0.506  0.9404 -0.8562  0.5302
 1991lim     li11171   3.386   4.988   3.313 -0.2367 -0.4468  0.4956
 1992lim     li11172   5.356   5.383   0.384  0.0354 -0.5962  0.4374
 1993lim     li11173   6.631   3.392   2.667 -0.7654 -0.8605 -0.6827
 1994lim     li11174   1.408   5.819   2.970 -0.4765 -0.2950  0.0108
 1995lim     li11175   1.207   3.570   4.381  0.6323  1.5316  0.1700
 1996lim     li11176   0.846   0.273   5.045 -1.4558  0.1755  0.6438
 1997lim     li11177   3.872   1.412   6.838  0.1766 -0.2356 -1.1168
 1998lim     li11178   6.688   3.703   5.807  0.1389 -0.8485  0.1659
 1999lim     li11179   4.925   0.280   1.921 -0.1919  0.1890 -0.1298
 2000lim     li11180   2.207   0.077   6.559  1.0455  0.0943  0.9434
 2001lim     li11181   4.077   6.250   5.614 -0.2610 -0.1646 -0.4084
 2002lim     li11182   0.380   3.855   0.447 -0.1158  1.5867 -0.5415
 2003lim     li11183   5.894   1.937   1.373 -0.5717 -0.6562  0.2589
 2004lim     li11184   2.070   4.592   1.734  0.6917 -0.9245 -0.0227
 2005lim     li11185   4.598   0.735   0.069 -0.1685  0.3271  0.3727
 2006lim     li11186   6.805   0.197   5.657  0.3553  1.2059  0.7442
 2007lim     li11187   6.561   0.497   3.761  0.5644  0.1658 -1.1131
 2008lim     li11188   1.967   0.552   1.426 -0.1983 -0.2740 -0.8739
 2009lim     li11189   6.311   6.663   3.403 -0.0818 -1.0530  0.1242
 2010lim     li11190   5.198   0.225   5.404 -0.4796 -0.1911 -0.0929
 2011lim     li11191   6.426   1.487   6.719 -0.0724 -0.5213 -0.0783
 2012lim     li11192   1.397   3.081   3.378  0.0778  0.6346 -1.3611
 2013lim     li11193   3.901   5.149   2.058 -1.1278  1.0178 -0.0947
 2014lim     li11194   6.397   6.113   2.319  0.2511  0.4952  0.6250
 2015lim     li11195   1.577   3.927   6.412  0.4456  0.4937  0.8749
 2016lim     li11196   0.161   4.068   1.918 -0.4603  0.9019 -0.1593
 2017lim     li11197   0.422   5.117   3.294  0.6903 -1.2592 -0.8731
 2018lim     li11198   6.016   4.117   0.473 -1.1539 -0.2623  0.4226
 2019lim     li11199   3.376   1.412   2.285  0.2337 -0.3940 -0.3214
 2020lim     li11200   3.163   3.071   2.832 -1.0073  0.0382 -0.1575
 2021lim     li11201   3.420   3.162   1.535  1.3718 -0.8395  1.6648
 2022lim     li11202   2.866   2.378   6.231  0.6952 -0.1220  1.4940
 2023lim     li11203   6.536   3.100   1.801 -0.6121  0.1132 -0.3583
 2024lim     li11204   5.742   6.124   3.498  0.3762  0.1477 -0.0153
 2025lim     li11205   3.548   0.772   2.788 -1.2577  0.8096  0.2650
 2026lim     li11206   3.906   4.799   2.561  0.9665  0.3852 -0.4198
 2027lim     li11207   2.222   3.794   6.043 -0.2574 -0.3733 -0.7189
 2028lim     li11208   5.549   6.804   3.960  0.5617 -1.1057 -0.8710
 2029lim     li11209   3.403   4.785   0.874  1.4331  0.8622  0.3711
 2030lim     li11210   2.465   2.240   3.760 -0.2148  0.2795 -0.0459
 2031lim     li11211   5.728   0.528   6.012  0.4853  0.6070 -0.0009
 2032lim     li11212   4.527   0.721   2.802  0.8583 -0.1430  0.5592
 2033lim     li11213   1.842   5.908   6.640 -0.3024  2.0470  0.0427
 2034lim     li11214   0.238   6.488   2.317  0.0976 -0.6603 -0.8495
 2035lim     li11215   2.989   6.706   5.102  0.0665  1.2835  0.2635
 2036lim     li11216   5.896   5.788   7.018 -0.7118  0.0105 -0.3121
 2037lim     li11217   6.444   6.380   5.120  0.2388  0.4197  0.0712
 2038lim     li11218   3.331   2.015   4.308  0.2729  0.1748  0.8005
 2039lim     li11219   4.997   6.732   5.847 -0.1544  0.7103 -1.3134
 2040lim     li11220   6.582   2.229   6.187  0.7686 -0.2894  0.9869
 2041lim     li11221   4.929   4.189   6.115  0.0313  1.0869  0.1790
 2042lim     li11222   0.291   5.658   2.745  0.3764  0.2467  1.3828
 2043lim     li11223   6.704   5.776   6.363 -0.3433  0.0451 -0.6119
 2044lim     li11224   4.170   2.380   0.628 -0.5448  0.8633 -0.5737
 2045lim     li11225   5.589   4.100   6.785  0.2383  0.4297  0.8688
 2046lim     li11226   4.578   6.174   0.535  0.2686  0.6821 -0.3056
 2047lim     li11227   4.510   3.491   4.666  1.4055 -0.3671  0.2156
 2048lim     li11228   6.318   6.014   4.548 -0.7483  1.2701 -0.3203
 2049lim     li11229   0.941   1.744   5.157  0.0384 -0.5182  0.0241
 2050lim     li11230   2.418   4.286   0.282 -1.2622  0.1215 -0.4403
 2051lim     li11231   5.996   3.170   0.210 -0.1482  0.7274  0.2614
 2052lim     li11232   1.907   5.203   3.314 -1.4941 -0.2019  1.0295
 2053lim     li11233   6.597   1.147   4.987  0.5240 -0.1913  0.0517
 2054lim     li11234   1.168   3.356   5.219 -0.7974  0.0106  0.5907
 2055lim     li11235   2.735   6.602   4.480  0.0647 -0.4444  0.0305
 2056lim     li11236   1.101   1.875   0.469 -0.7880 -0.6300  0.6092
 2057lim     li11237   6.881   3.807   3.220  0.3746  0.4177 -1.4408
 2058lim     li11238   6.443   1.779   5.631  0.0277 -0.4770  0.2636
 2059lim     li11239   2.872   6.990   2.320 -1.1875 -0.1353 -0.5931
 2060lim     li11240   4.911   4.666   4.626 -0.8304 -0.6195 -0.6511
 2061lim     li11241   3.825   4.727   6.638 -0.1392 -0.6704  0.6259
 2062lim     li11242   5.505   6.908   2.341 -0.3889 -0.3138  0.0655
 2063lim     li11243   1.707   1.786   6.371  0.5569  0.3991 -1.2395
 2064lim     li11244   6.981   6.497   0.915  0.8900 -0.0904 -0.7828
 2065lim     li11245   5.651   6.036   2.855 -0.0477  0.4787 -0.8195
 2066lim     li11246   3.762   3.800   1.461  0.1536 -0.5812  0.4613
 2067lim     li11247   2.550   2.844   5.779 -0.5374 -0.3625  0.6652
 2068lim     li11248   1.431   1.202   6.875  0.2775  1.7839 -0.2311
 2069lim     li11249   1.100   5.818   2.200 -0.6306  0.4027 -0.6994
 2070lim     li11250   5.244   1.065   6.433 -0.2050  0.3569  0.6965
 2071lim     li11251   0.400   3.561   1.165  0.2820  0.0690 -0.6175
 2072lim     li11252   1.836   3.437   5.291 -1.0729 -0.3929 -1.1183
 2073lim     li11253   3.969   2.155   1.677 -0.5724  0.5161 -1.4722
 2074lim     li11254   1.834   6.607   4.747  0.8759  0.5641  0.3909
 2075lim     li11255   3.716   2.430   6.938  0.1617 -1.2549  1.2096
 2076lim     li11256   4.415   4.388   2.020 -0.4745  0.1008 -1.4155
 2077lim     li11257   4.263   4.440   5.867 -0.0596 -1.1558 -0.1088
 2078lim     li11258   5.573   3.336   4.392 -0.4764 -0.3974  0.5584
 2079lim     li11259   6.136   0.655   6.779  0.6555 -0.4428 -0.2574
 2080lim     li11260   2.276   2.637   6.993 -0.1555  0.6869 -0.1600
 2081lim     li11261   4.533   1.449   1.364  1.8394 -1.1148 -0.3080
 2082lim     li11262   0.073   5.051   1.169 -0.1329  0.6543 -0.6895
 2083lim     li11263   1.079   5.582   0.134 -0.8219  0.7017 -0.6203
 2084lim     li11264   1.587   4.227   0.217  0.0700 -0.7797  0.0346
 2085lim     li11265   6.667   5.543   3.068 -0.6648 -0.3295  0.6651
 2086lim     li11266   1.944   4.223   3.798  0.0495  0.1465  1.5381
 2087lim     li11267   2.084   6.945   4.243  0.3476 -0.5014 -0.2034
 2088lim     li11268   1.118   1.640   2.962 -0.5899 -0.3352  0.4136
 2089lim     li11269   1.018   0.183   0.702  1.5133 -0.3041 -0.4999
 2090lim     li11270   3.629   3.867   2.129  0.5169 -0.6740 -0.8496
 2091lim     li11271   6.998   1.409   0.294 -0.4892 -0.8346 -0.6133
 2092lim     li11272   5.096   3.055   6.454  0.2882  0.4586  0.4852
 2093lim     li11273   2.574   1.680   2.212 -0.3496 -0.9711 -1.0088
 2094lim     li11274   1.960   0.209   2.443  0.4415  0.9255  1.3744
 2095lim     li11275   3.096   0.974   4.955 -0.1792  1.1580 -0.1385
 2096lim     li11276   5.938   2.192   6.133 -0.3365  1.0576  0.7478
 2097lim     li11277   5.321   4.470   0.411 -0.2160  1.0922  0.5791
 2098lim     li11278   0.989   1.825   1.623 -0.6246 -0.1184  0.0414
 2099lim     li11279   3.616   3.403   3.508  0.6165 -0.9840 -0.0998
 2100lim     li11280   1.545   0.916   1.487 -0.2015  0.7323 -0.4549
 2101lim     li11281   3.290   6.792   3.946  0.0268 -0.6446 -0.0883
 2102lim     li11282   3.699   3.032   4.001 -0.0604 -0.5177  0.5012
 2103lim     li11283   0.872   7.004   3.340 -0.4923  0.2976 -0.0877
 2104lim     li11284   3.275   1.680   5.662 -0.4705  0.2359  1.2501
 2105lim     li11285   0.601   5.481   5.668 -1.5844 -0.0040 -0.0165
 2106lim     li11286   6.861   3.932   4.934 -0.1075 -0.9018  0.1654
 2107lim     li11287   3.398   3.950   4.215 -0.0543  0.6215  0.0577
 2108lim     li11288   5.746   4.154   3.181 -0.7294  0.5633  0.3039
 2109lim     li11289   4.466   0.299   3.600  0.1310  0.3201 -0.1389
 2110lim     li11290   5.855   5.352   5.580 -0.4163  0.3383  0.6700
 2111lim     li11291   5.486   5.923   1.149  1.3060  0.7253 -0.2153
 2112lim     li11292   0.770   0.125   6.732 -0.1544 -0.7816 -0.6675
 2113lim     li11293   5.760   0.464   3.315 -0.6409 -0.7655  0.9723
 2114lim     li11294   1.727   3.798   0.654  0.0298 -0.3026  1.5108
 2115lim     li11295   2.241   0.429   0.211  0.2440  1.0857 -1.7000
 2116lim     li11296   4.650   1.564   3.758  0.3440  0.6473  0.6149
 2117lim     li11297   0.635   3.605   2.500  1.1138 -0.7249 -0.8774
 2118lim     li11298   6.691   4.800   5.591 -0.9481  0.2351 -0.0112
 2119lim     li11299   4.179   4.877   5.407 -0.5292 -0.1794 -0.6507
 2120lim     li11300   1.263   6.387   6.768 -1.3298 -1.0331  0.1294
 2121lim     li11301   5.927   1.948   4.949 -0.4257  0.1528 -0.3500
 2122lim     li11302   3.520   1.338   6.181 -0.9012  0.5879  0.0482
 2123lim     li11303   4.767   4.966   6.409  0.5692 -1.0001 -0.6336
 2124lim     li11304   0.890   6.247   0.639 -0.7053 -0.8184 -0.5342
 2125lim     li11305   5.494   2.160   7.037  0.8145 -0.6571  0.6369
 2126lim     li11306   0.190   3.125   3.276 -0.5094 -0.3404  0.4888
 2127lim     li11307   0.231   2.712   4.609 -0.4504 -0.8877 -0.0584
 2128lim     li11308   5.733   2.640   3.823  1.2122  0.4091 -0.1037
 2129lim     li11309   4.327   5.507   1.353 -0.6062  0.5161  0.4590
 2130lim     li11310   2.470   4.535   3.078  0.0240  0.0882  0.2544
 2131lim     li11311   4.570   0.863   5.651 -0.3507 -0.4620  0.2940
 2132lim     li11312   0.207   6.773   6.177 -0.6789  0.1168  0.7314
 2133lim     li11313   0.882   6.071   3.422  0.0506 -0.2301  0.4173
 2134lim     li11314   5.800   0.265   1.984  0.7887 -0.3900  1.0827
 2135lim     li11315   6.458   0.357   1.448 -0.6385 -0.6587 -1.4676
 2136lim     li11316   0.794   1.533   5.934  0.5472  0.1862 -0.3309
 2137lim     li11317   0.827   4.541   0.566  0.4569 -0.6939 -0.2069
 2138lim     li11318   1.469   4.773   6.239 -0.0576  1.3411  0.3906
 2139lim     li11319   0.356   4.576   2.674  0.6509 -0.0615  0.1341
 2140lim     li11320   2.074   5.416   4.033 -0.3680  0.0227  1.1556
 2141lim     li11321   0.436   4.550   4.982 -0.1556 -1.2635 -0.9470
 2142lim     li11322   5.510   1.089   1.323  0.3057  0.2833 -0.2531
 2143lim     li11323   0.334   2.544   3.396 -1.0462 -0.1633 -0.0871
 2144lim     li11324   6.885   1.797   2.960 -0.6026 -0.4647  0.0345
 2145lim     li11325   1.476   2.772   1.310 -0.0024  0.8561  1.1656
 2146lim     li11326   2.508   0.530   3.842  0.4251  1.0012 -0.6748
 2147lim     li11327   3.318   0.438   3.539  0.3989 -0.5416 -0.5800
 2148lim     li11328   6.073   2.675   2.809 -0.5769  0.2296  0.3965
 2149lim     li11329   3.125   3.670   6.713 -0.1426 -0.0147  0.1779
 2150lim     li11330   1.084   6.814   5.956 -1.1221 -0.9511 -0.1887
 2151lim     li11331   3.399   1.125   1.883 -0.3348 -1.1481  0.7893
 2152lim     li11332   1.656   5.178   0.438 -0.7773 -0.0158  0.3550
 2153lim     li11333   6.143   5.242   1.902 -0.1002  0.1373  0.5601
 2154lim     li11334   1.803   4.100   3.285  0.3552 -0.5149 -0.0978
 2155lim     li11335   4.606   2.284   4.671 -0.8108 -0.0964  0.6838
 2156lim     li11336   1.881   5.638   1.536  0.5751 -0.2407 -0.2078
 2157lim     li11337   1.257   3.269   5.950  0.9354  0.4092 -0.9042
 2158lim     li11338   0.258   1.187   2.173 -0.3296  0.9391 -0.3950
 2159lim     li11339   0.966   4.096   2.346 -0.7225 -0.2037  0.7042
 2160lim     li11340   3.274   2.229   3.581 -0.4240 -0.4272 -1.0908
 2161ntf    cn111341   1.929   0.293   0.846  0.0540  0.1265  0.2381
 2161ntf    sn211342   2.062   0.173   0.874 -0.1315 -0.1771 -0.1735
 2161ntf    nn311343   2.152   0.262   0.967 -0.3278  0.2766 -0.4150
 2161ntf    sn211344   2.309   0.263   0.978 -0.3543  0.6538 -0.0639
 2161ntf    cn111345   2.342   0.375   0.839  0.3597 -0.1329 -0.5414
 2161ntf    fn411346   1.982   0.409   0.811  0.0490  0.0577 -0.0015
 2161ntf    fn411347   1.843   0.257   0.752 -0.3174  0.4113  0.4648
 2161ntf    fn411348   1.858   0.308   0.957  0.4025 -0.3905  0.5336
 2161ntf    on511349   1.983   0.069   0.935 -0.5449  0.5263  0.5044
 2161ntf    on511350   2.118   0.155   0.742  0.0088  0.1452 -0.1588
 2161ntf    on511351   2.366   0.134   0.949  0.3697  0.7318  0.9548
 2161ntf    on511352   2.360   0.337   1.091 -0.2443  0.3925  0.0591
 2161ntf    fn411353   2.262   0.481   0.838 -0.2763 -0.5905  0.4737
 2161ntf    fn411354   2.469   0.411   0.840  0.3271 -0.0264 -0.0589
 2161ntf    fn411355   2.334   0.320   0.719 -0.4753  0.3889 -0.7341
 2162ntf    cn111356   2.166   1.251   1.461 -0.1988  0.1163  0.3114
 2162ntf    sn211357   2.119   1.082   1.411 -0.4283  0.1856  0.2877
 2162ntf    nn311358   2.254   1.045   1.339 -0.5608  0.1771  0.0454
 2162ntf    sn211359   2.280   1.039   1.184  0.2747 -0.4588  0.2077
 2162ntf    cn111360   2.454   1.089   1.165 -0.0346  0.4361 -0.3022
 2162ntf    fn411361   2.145   1.334   1.360  0.6887  0.2178  0.2028
 2162ntf    fn411362   2.079   1.295   1.551 -0.4030 -0.9676  0.6598
 2162ntf    fn411363   2.287   1.272   1.510 -0.0193 -0.6288  0.2008
 2162ntf    on511364   2.101   0.999   1.527 -0.3363  0.4661  0.5041
 2162ntf    on511365   2.003   1.103   1.328 -0.0108  0.6706 -0.1822
 2162ntf    on511366   2.210   1.140   1.109  0.4528 -0.5073 -0.0249
 2162ntf    on511367   2.272   0.908   1.123 -0.6890 -0.4512  0.3106
 2162ntf    fn411368   2.484   1.201   1.229  0.1427  0.3870 -0.3003
 2162ntf    fn411369   2.528   0.998   1.226 -0.1890  0.1528 -0.5375
 2162ntf    fn411370   2.489   1.097   1.038  0.2035  0.5338 -0.2317
 2163ntf    cn111371   5.362   1.317   0.838 -0.1175  0.0832 -0.1376
 2163ntf    sn211372   5.254   1.399   0.959 -0.4187 -0.1162 -0.2715
 2163ntf    nn311373   5.352   1.422   1.080  0.0088  0.9152 -0.8107
 2163ntf    sn211374   5.370   1.550   1.169 -0.2409  0.2832  0.1532
 2163ntf    cn111375   5.199   1.597   1.207 -0.2470  0.2252  0.1981
 2163ntf    fn411376   5.460   1.400   0.804  0.0637 -0.0043  0.1589
 2163ntf    fn411377   5.416   1.203   0.877  0.2475  0.1927 -0.3190
 2163ntf    fn411378   5.296   1.299   0.725 -0.0916 -0.0572 -0.1298
 2163ntf    on511379   5.202   1.513   0.888 -0.4836  0.0512  0.0399
 2163ntf    on511380   5.161   1.292   0.988 -0.5936  0.2161  0.4423
 2163ntf    on511381   5.428   1.661   1.098 -0.8214  0.1514 -0.5379
 2163ntf    on511382   5.439   1.515   1.291 -0.2345 -0.4091 -0.0431
 2163ntf    fn411383   5.185   1.698   1.292  0.2683 -0.1823  0.7740
 2163ntf    fn411384   5.132   1.631   1.098  0.1648  0.6467  0.0696
 2163ntf    fn411385   5.131   1.495   1.255  0.3854 -0.1666  0.2617
 2164ntf    cn111386   0.706   2.298   4.823  0.1066 -0.3283 -0.0837
 2164ntf    sn211387   0.577   2.389   4.913  0.0884 -0.1625 -0.2783
 2164ntf    nn311388   0.520   2.283   5.014  0.2969  0.1032  0.1182
 2164ntf    sn211389   0.387   2.296   5.096  0.1328  0.0178 -0.1334
 2164ntf    cn111390   0.457   2.367   5.248  0.0081  0.0591 -0.0959
 2164ntf    fn411391   0.653   2.243   4.715 -0.2497  0.5779 -0.3715
 2164ntf    fn411392   0.804   2.381   4.792  0.2051 -0.1668  0.6350
 2164ntf    fn411393   0.768   2.205   4.895  0.1717 -0.1538  0.0862
 2164ntf    on511394   0.646   2.497   4.978  0.2036 -0.4029 -0.0025
 2164ntf    on511395   0.493   2.427   4.802  0.5207 -0.2002 -0.6208
 2164ntf    on511396   0.347   2.169   5.152  0.2949  0.2519  0.5211
 2164ntf    on511397   0.287   2.395   5.063 -0.4435 -0.3726  0.4055
 2164ntf    fn411398   0.520   2.280   5.325  0.3733  0.5896  0.2095
 2164ntf    fn411399   0.539   2.466   5.218 -0.1464  0.0793 -0.4590
 2164ntf    fn411400   0.359   2.414   5.323 -0.4019  0.0544 -0.6240
 2165ntf    cn111401   0.173   1.243   2.966 -0.0509  0.2081  0.1467
 2165ntf    sn211402   0.112   1.391   2.880 -0.1801 -0.0064 -0.1317
 2165ntf    nn311403   0.181   1.377   2.740 -0.2807  0.4381 -0.2278
 2165ntf    sn211404   0.119   1.344   2.600  0.1119  0.5178 -0.4223
 2165ntf    cn111405   0.001   1.480   2.574 -0.1822  0.2529 -0.4767
 2165ntf    fn411406   0.122   1.215   3.085 -0.3558  0.2313  0.0218
 2165ntf    fn411407   0.168   1.137   2.887 -0.6490  0.1936  0.2007
 2165ntf    fn411408   0.302   1.258   2.992  0.2034 -0.3618 -0.7637
 2165ntf    on511409  -0.030   1.367   2.885 -0.1708  0.0222  0.4062
 2165ntf    on511410   0.158   1.499   2.963 -0.1930 -0.5653  0.6161
 2165ntf    on511411   0.041   1.224   2.586  0.1877  0.4566 -0.3209
 2165ntf    on511412   0.217   1.357   2.495  0.2118 -1.1520 -0.5536
 2165ntf    fn411413  -0.075   1.509   2.678  0.4729  0.0113  0.0718
 2165ntf    fn411414   0.062   1.588   2.529  0.3477  0.1823  0.0678
 2165ntf    fn411415  -0.088   1.446   2.481  0.0023 -0.5469 -0.3645
 2166ntf    cn111416   5.027   6.608   4.059  0.2255 -0.1292 -0.4584
 2166ntf    sn211417   4.846   6.600   4.045  0.1821  0.2766 -0.1247
 2166ntf    nn311418   4.839   6.542   3.900 -0.6647 -0.1161  0.0728
 2166ntf    sn211419   4.834   6.391   3.854 -0.2752 -0.0141 -0.3119
 2166ntf    cn111420   4.654   6.375   3.830 -0.3189 -0.0693  0.0377
 2166ntf    fn411421   5.076   6.627   3.938  0.0609  1.0745 -0.3402
 2166ntf    fn411422   5.070   6.715   4.124 -0.3047 -0.0482 -0.2372
 2166ntf    fn411423   5.088   6.507   4.120  0.1777 -0.0638 -0.3024
 2166ntf    on511424   4.807   6.503   4.144  0.2646 -0.3155 -0.6726
 2166ntf    on511425   4.816   6.739   4.071 -0.5703  0.0579  0.2075
 2166ntf    on511426   4.871   6.282   3.940 -0.3411 -0.0009 -0.2662
 2166ntf    on511427   4.879   6.385   3.718  0.1287 -0.3041 -0.1649
 2166ntf    fn411428   4.616   6.448   3.726  0.2742 -0.0657 -0.1849
 2166ntf    fn411429   4.618   6.251   3.804  0.2098 -0.2579  0.2092
 2166ntf    fn411430   4.586   6.416   3.936 -0.6851 -0.5955  0.0087
 2167ntf    cn111431   3.195   0.288   2.603 -0.4986  0.0780  0.1649
 2167ntf    sn211432   3.200   0.109   2.635 -0.2178  0.1146  0.3248
 2167ntf    nn311433   3.319   0.105   2.737  0.1835 -0.2499 -0.1548
 2167ntf    sn211434   3.312   0.159   2.884  0.1224  0.0753 -0.2769
 2167ntf    cn111435   3.329   0.013   2.991  0.0115  0.2930  0.0394
 2167ntf    fn411436   3.163   0.371   2.701 -0.7802  0.2055 -0.0327
 2167ntf    fn411437   3.304   0.339   2.548 -0.3485  0.5233  0.8714
 2167ntf    fn411438   3.102   0.315   2.513 -0.4064  0.3476  0.1476
 2167ntf    on511439   3.071   0.072   2.688 -0.1196  0.3382  0.7233
 2167ntf    on511440   3.240   0.055   2.508 -0.3885 -0.0369  0.3364
 2167ntf    on511441   3.187   0.212   2.933  0.2412 -0.4495  0.6073
 2167ntf    on511442   3.435   0.228   2.913  0.1554  0.0638 -0.3905
 2167ntf    fn411443   3.451  -0.038   2.986 -0.2511 -0.2963 -0.4395
 2167ntf    fn411444   3.309   0.049   3.117 -0.0330  0.8758 -0.1282
 2167ntf    fn411445   3.249  -0.084   2.950  0.5297  0.0539 -0.4136
 2168ntf    cn111446   1.018   3.738   2.885  0.1984  0.2267 -0.4123
 2168ntf    sn211447   0.940   3.900   2.854  0.1079  0.2276 -0.1760
 2168ntf    nn311448   1.072   3.977   2.819  0.0531  0.3506 -0.1103
 2168ntf    sn211449   1.108   4.119   2.875  0.1682  0.1690  0.2835
 2168ntf    cn111450   1.119   4.211   2.718  0.0235 -0.2746  0.0140
 2168ntf    fn411451   0.941   3.653   2.950  0.7019  0.0394 -0.0565
 2168ntf    fn411452   1.046   3.675   2.772 -0.2507 -0.8500  0.0727
 2168ntf    fn411453   1.129   3.739   2.957 -0.0302  0.2658 -0.0627
 2168ntf    on511454   0.865   3.875   2.733 -0.7208 -0.2579  0.4211
 2168ntf    on511455   0.879   3.937   2.979 -0.6516  0.0960 -0.5000
 2168ntf    on511456   1.240   4.120   2.934  0.4337 -0.0207 -0.2886
 2168ntf    on511457   1.005   4.184   2.952 -0.0894 -0.1307  0.1937
 2168ntf    fn411458   1.214   4.168   2.636 -0.5205 -0.2405 -0.6433
 2168ntf    fn411459   1.004   4.214   2.652 -0.0537  0.0257  0.1630
 2168ntf    fn411460   1.153   4.337   2.739 -0.1239 -0.2025 -0.1764
 2169ntf    cn111461   6.803   3.126   3.211  0.1019  0.5765  0.0461
 2169ntf    sn211462   6.934   3.154   3.087  0.0883  0.0493 -0.0896
 2169ntf    nn311463   6.941   3.010   3.023 -0.0464 -0.0617  0.1428
 2169ntf    sn211464   7.061   2.911   3.013  0.0087  0.0145  0.0440
 2169ntf    cn111465   6.997   2.779   2.905 -0.2045  0.2948 -0.1730
 2169ntf    fn411466   6.778   3.229   3.290 -0.1022  0.5330  0.0377
 2169ntf    fn411467   6.686   3.101   3.155 -0.0073 -0.6333  0.7869
 2169ntf    fn411468   6.815   3.017   3.286  0.0018  0.5217 -0.0169
 2169ntf    on511469   6.878   3.252   2.997 -0.2622  0.0593  0.1367
 2169ntf    on511470   7.056   3.179   3.158  0.4321 -0.4322 -0.5025
 2169ntf    on511471   7.081   2.830   3.131  0.1427 -0.1697 -0.1034
 2169ntf    on511472   7.182   2.959   2.950  0.1065 -0.1657  0.0925
 2169ntf    fn411473   6.946   2.824   2.792 -0.6247 -0.3318 -0.2361
 2169ntf    fn411474   7.082   2.687   2.864 -0.2692  0.1512  0.0135
 2169ntf    fn411475   6.902   2.711   2.968  0.1099  0.2730  0.2855
 2170ntf    cn111476   6.327   4.323   6.907  0.2799 -0.5950 -0.0719
 2170ntf    sn211477   6.505   4.322   6.946  0.2185 -0.3173  0.2193
 2170ntf    nn311478   6.517   4.449   7.038  0.2548  0.0765 -0.3277
 2170ntf    sn211479   6.569   4.594   7.006 -0.0879  0.3268  0.2463
 2170ntf    cn111480   6.744   4.577   7.053 -0.0352  0.1946  0.0047
 2170ntf    fn411481   6.253   4.357   7.011  0.2044  0.0457 -0.3310
 2170ntf    fn411482   6.297   4.422   6.825 -0.6877 -0.4571  0.4417
 2170ntf    fn411483   6.281   4.208   6.860 -0.0011 -0.1661 -0.8608
 2170ntf    on511484   6.519   4.194   7.012 -1.0972 -0.5417  0.1054
 2170ntf    on511485   6.564   4.318   6.815 -0.6094 -0.1177 -0.1644
 2170ntf    on511486   6.525   4.684   7.110 -0.3285  0.7062 -0.1844
 2170ntf    on511487   6.567   4.643   6.871 -0.8079 -0.3552  0.0050
 2170ntf    fn411488   6.810   4.496   6.972 -0.2562  0.2567 -0.2361
 2170ntf    fn411489   6.811   4.691   7.046  0.2562  0.0115 -0.2125
 2170ntf    fn411490   6.761   4.525   7.174 -0.3779  0.4189  0.1488
 2171ntf    cn111491   6.220   0.147   0.118  0.1423  0.1269  0.5880
 2171ntf    sn211492   6.236  -0.027   0.068 -0.0759  0.1777  0.3367
 2171ntf    nn311493   6.300  -0.008  -0.075 -0.2688 -0.2553  0.1924
 2171ntf    sn211494   6.222   0.036  -0.204  0.3009 -0.0149 -0.0735
 2171ntf    cn111495   6.209  -0.127  -0.283 -0.4239  0.2279 -0.4594
 2171ntf    fn411496   6.169   0.154   0.240 -0.4374  0.0067  0.3561
 2171ntf    fn411497   6.327   0.225   0.119 -0.2280  0.6630 -0.2226
 2171ntf    fn411498   6.143   0.216   0.035 -0.2522 -0.8183  0.1556
 2171ntf    on511499   6.327  -0.093   0.159  0.0161 -0.1941 -0.0215
 2171ntf    on511500   6.101  -0.075   0.072 -0.0058 -0.1134 -0.5603
 2171ntf    on511501   6.304   0.115  -0.292 -0.2849  0.2964 -0.3483
 2171ntf    on511502   6.084   0.072  -0.184  0.2262 -0.3960  0.1149
 2171ntf    fn411503   6.160  -0.117  -0.406 -0.6484 -0.4311 -0.4283
 2171ntf    fn411504   6.320  -0.198  -0.295 -0.2300  0.3597  0.5414
 2171ntf    fn411505   6.120  -0.195  -0.213  0.0274 -0.0320 -0.1346
 2172ntf    cn111506   6.153   3.714   1.732 -0.3470 -0.2260 -0.4756
 2172ntf    sn211507   6.192   3.878   1.800 -0.3692 -0.3185 -0.2356
 2172ntf    nn311508   6.231   3.849   1.949  0.7043 -0.0880 -0.4606
 2172ntf    sn211509   6.320   3.928   2.051  0.1242 -0.2104  0.1507
 2172ntf    cn111510   6.312   3.804   2.184 -0.5136  0.0616  0.3679
 2172ntf    fn411511   6.267   3.646   1.724 -0.2388 -0.1704  0.4081
 2172ntf    fn411512   6.066   3.639   1.798 -0.4115  0.1882 -0.0869
 2172ntf    fn411513   6.107   3.718   1.608 -0.2387 -0.3742 -0.5209
 2172ntf    on511514   6.299   3.922   1.714 -0.2195  0.1830  0.1983
 2172ntf    on511515   6.066   3.947   1.788 -0.2241 -0.0764 -0.3932
 2172ntf    on511516   6.264   4.046   2.112  0.6786  0.2384 -0.1969
 2172ntf    on511517   6.461   3.929   2.018  0.0462  0.0551 -0.1711
 2172ntf    fn411518   6.355   3.683   2.150  0.0231  0.1991  0.5444
 2172ntf    fn411519   6.391   3.843   2.282  0.4274 -0.0974 -0.3166
 2172ntf    fn411520   6.191   3.798   2.238 -0.5041 -0.5074  0.3371
 2173ntf    cn111521   3.855   5.378   0.754  0.3943  0.1794  0.2776
 2173ntf    sn211522   4.011   5.443   0.687  0.2303 -0.0408 -0.3174
 2173ntf    nn311523   4.006   5.590   0.741  0.3125 -0.1987  0.1225
 2173ntf    sn211524   3.992   5.730   0.671 -0.2019 -0.2750  0.0721
 2173ntf    cn111525   3.910   5.809   0.813 -0.2352 -0.0274 -0.0841
 2173ntf    fn411526   3.832   5.253   0.717 -0.2797  0.1864  0.6628
 2173ntf    fn411527   3.862   5.372   0.886 -0.4087 -0.2721  0.3064
 2173ntf    fn411528   3.748   5.444   0.712  0.1761 -0.2289  0.1868
 2173ntf    on511529   4.107   5.363   0.758  0.3953  0.1635 -0.3122
 2173ntf    on511530   3.993   5.429   0.544 -1.2308  0.0084 -0.1525
 2173ntf    on511531   3.894   5.744   0.566  0.1284  0.1567 -0.1800
 2173ntf    on511532   4.107   5.817   0.663 -0.1671 -0.3080  0.2054
 2173ntf    fn411533   3.781   5.780   0.814 -0.2322 -0.0520 -0.3468
 2173ntf    fn411534   3.967   5.780   0.929  0.1146  0.0740 -0.2296
 2173ntf    fn411535   3.922   5.940   0.804  0.1467 -0.0032  0.6679
 2174ntf    cn111536   0.635   5.017   4.516  0.4413  0.3532  0.1799
 2174ntf    sn211537   0.726   4.877   4.445 -0.0752  0.0401  0.1362
 2174ntf    nn311538   0.647   4.751   4.495  0.3059 -0.1331  0.3049
 2174ntf    sn211539   0.702   4.620   4.562 -0.0848 -0.3361  0.2290
 2174ntf    cn111540   0.751   4.525   4.415  0.0899 -0.1443  0.1641
 2174ntf    fn411541   0.691   5.129   4.473  0.3330  0.3665  0.0738
 2174ntf    fn411542   0.510   5.034   4.478  0.4296 -0.3073 -0.0871
 2174ntf    fn411543   0.626   5.022   4.648 -0.6990 -0.2754  0.1334
 2174ntf    on511544   0.707   4.893   4.302 -0.0469 -0.1196  0.1141
 2174ntf    on511545   0.859   4.902   4.493  0.1054  0.0243 -0.3497
 2174ntf    on511546   0.598   4.547   4.631 -0.5040 -0.2851 -0.3432
 2174ntf    on511547   0.826   4.636   4.633  0.0963 -0.4293 -0.0691
 2174ntf    fn411548   0.653   4.510   4.328 -0.4768  0.1671  0.7353
 2174ntf    fn411549   0.848   4.582   4.346  0.2942  0.0588  0.6126
 2174ntf    fn411550   0.793   4.402   4.441 -0.3564 -0.2994  0.1547
 2175ntf    cn111551   6.694   1.368   2.290 -0.2962  0.3102  0.0322
 2175ntf    sn211552   6.522   1.413   2.250 -0.2696  0.1287 -0.2858
 2175ntf    nn311553   6.504   1.557   2.310  0.1268  0.0707 -0.0266
 2175ntf    sn211554   6.427   1.597   2.441 -0.1242  0.0367 -0.1640
 2175ntf    cn111555   6.511   1.758   2.455 -0.0535 -0.0447  0.3693
 2175ntf    fn411556   6.776   1.460   2.241  0.4284 -0.3319  0.0322
 2175ntf    fn411557   6.711   1.361   2.421 -0.2890 -0.7277 -0.0145
 2175ntf    fn411558   6.733   1.250   2.245 -0.4521  0.1715  0.2554
 2175ntf    on511559   6.531   1.416   2.106 -0.3228 -0.3806 -0.3030
 2175ntf    on511560   6.441   1.305   2.302  0.2243  0.1769  0.6110
 2175ntf    on511561   6.464   1.527   2.562  0.0045  0.2051 -0.1062
 2175ntf    on511562   6.287   1.626   2.424 -0.0904  0.2551 -0.0719
 2175ntf    fn411563   6.464   1.816   2.564  0.3953  0.1403  0.4655
 2175ntf    fn411564   6.642   1.755   2.472  0.0121 -0.4236 -0.1411
 2175ntf    fn411565   6.486   1.849   2.362  0.5287 -0.3359 -0.0830
 2176ntf    cn111566   6.894   1.649   4.464 -0.3158  0.0921  0.1291
 2176ntf    sn211567   7.013   1.781   4.424 -0.3122  0.0605  0.0338
 2176ntf    nn311568   7.145   1.703   4.457  0.3935  0.8634 -0.8649
 2176ntf    sn211569   7.210   1.583   4.380 -0.1625  0.0127 -0.0251
 2176ntf    cn111570   7.364   1.661   4.322 -0.2964  0.3651  0.0939
 2176ntf    fn411571   6.774   1.691   4.427 -0.1276  0.0913 -0.4883
 2176ntf    fn411572   6.926   1.537   4.401  0.4395  0.5567 -0.3309
 2176ntf    fn411573   6.887   1.618   4.593  0.6923 -0.2812  0.1027
 2176ntf    on511574   7.005   1.820   4.286  0.3598  0.2333  0.0405
 2176ntf    on511575   6.986   1.883   4.522 -0.4796  0.3850 -0.3486
 2176ntf    on511576   7.150   1.551   4.252  0.0440 -0.4046 -0.0211
 2176ntf    on511577   7.257   1.474   4.462 -0.7208 -0.1092  0.1353
 2176ntf    fn411578   7.432   1.728   4.414 -0.4774 -0.0506  0.5344
 2176ntf    fn411579   7.435   1.558   4.280 -0.4461  0.1961  0.2502
 2176ntf    fn411580   7.345   1.741   4.218 -0.1052  0.3637  0.0580
 2177ntf    cn111581   4.741   5.918   1.154  0.0644 -0.2042  0.0606
 2177ntf    sn211582   4.576   5.854   1.114  0.0293  0.1626 -0.3944
 2177ntf    nn311583   4.494   5.986   1.137  0.6986  0.4406  0.4577
 2177ntf    sn211584   4.481   6.112   1.045  0.3070 -0.1067 -0.2450
 2177ntf    cn111585   4.301   6.126   1.061  0.3732  0.0217  0.4207
 2177ntf    fn411586   4.786   6.019   1.081  0.2393 -0.1868  0.1915
 2177ntf    fn411587   4.745   5.946   1.283  0.3950 -0.6438  0.1507
 2177ntf    fn411588   4.840   5.830   1.146  0.0792 -0.1673 -0.1690
 2177ntf    on511589   4.581   5.804   0.979  0.4864  0.0713 -0.3442
 2177ntf    on511590   4.552   5.752   1.213  0.1720  0.3849 -0.1294
 2177ntf    on511591   4.498   6.088   0.903  0.1919  0.5610 -0.3761
 2177ntf    on511592   4.528   6.232   1.108  0.0526 -0.1718  0.0685
 2177ntf    fn411593   4.243   6.172   0.951  0.6157  0.0250  0.2940
 2177ntf    fn411594   4.241   6.011   1.088 -0.1324  0.2560  0.3096
 2177ntf    fn411595   4.277   6.207   1.162  0.0161 -0.0676  0.4122
 2178ntf    cn111596   3.340   0.900   6.094 -0.2443  0.1266  0.3514
 2178ntf    sn211597   3.486   0.869   6.199  0.0532  0.2753 -0.0149
 2178ntf    nn311598   3.420   0.896   6.339 -0.1813 -0.2552 -0.0196
 2178ntf    sn211599   3.418   1.033   6.416  0.5137 -0.0126 -0.4223
 2178ntf    cn111600   3.517   0.994   6.563 -0.3424 -0.0862  0.1450
 2178ntf    fn411601   3.370   0.899   5.965 -0.3400  0.4907  0.3260
 2178ntf    fn411602   3.241   0.816   6.118 -0.2100  0.1320  0.5137
 2178ntf    fn411603   3.301   1.024   6.119  0.0632  0.3520 -0.2721
 2178ntf    on511604   3.528   0.732   6.186  0.2156  0.3502 -0.2748
 2178ntf    on511605   3.577   0.974   6.160 -0.2571  0.4694 -0.2297
 2178ntf    on511606   3.288   1.062   6.473  0.4399 -0.9203 -0.1212
 2178ntf    on511607   3.491   1.144   6.358 -0.0485  0.5186 -0.1343
 2178ntf    fn411608   3.554   1.096   6.639 -0.3137  0.0820 -0.0918
 2178ntf    fn411609   3.461   0.902   6.640 -0.2046 -0.0494  0.2898
 2178ntf    fn411610   3.624   0.929   6.520 -0.6256 -0.1525 -0.4762
 2179ntf    cn111611   4.051   5.123   3.567  0.0142  0.4063  0.2439
 2179ntf    sn211612   4.037   5.145   3.747  0.4975 -0.0446  0.3381
 2179ntf    nn311613   4.137   5.264   3.770  0.3147  0.1995 -0.1063
 2179ntf    sn211614   4.234   5.273   3.893 -0.0972 -0.1201  0.2464
 2179ntf    cn111615   4.385   5.221   3.806 -0.1359 -0.3345  0.3066
 2179ntf    fn411616   4.054   5.239   3.503  0.5600  0.2003 -0.1149
 2179ntf    fn411617   4.166   5.065   3.538 -0.2147  0.2094 -0.2861
 2179ntf    fn411618   3.944   5.062   3.520  0.0835  0.0867  0.5034
 2179ntf    on511619   3.896   5.175   3.756  0.5021 -0.1604  0.8143
 2179ntf    on511620   4.077   5.012   3.786  0.2190 -0.0444  0.6278
 2179ntf    on511621   4.223   5.171   3.995 -0.0569 -0.6013 -0.2283
 2179ntf    on511622   4.273   5.407   3.930 -0.3045 -0.0621  0.2577
 2179ntf    fn411623   4.487   5.226   3.889  0.0126  0.4990  0.0812
 2179ntf    fn411624   4.383   5.097   3.760  0.4328 -0.1749 -0.1619
 2179ntf    fn411625   4.414   5.303   3.706 -0.5245  0.0350  0.4923
 2180ntf    cn111626   5.319   0.287   2.502 -0.1859  0.0231 -0.2038
 2180ntf    sn211627   5.334   0.207   2.340 -0.0423  0.0098 -0.1841
 2180ntf    nn311628   5.179   0.194   2.318 -0.0589 -0.3736  0.1458
 2180ntf    sn211629   5.082   0.076   2.355 -0.5561 -0.0859 -0.2145
 2180ntf    cn111630   5.059   0.005   2.189 -0.0244  0.0089 -0.3314
 2180ntf    fn411631   5.266   0.207   2.593 -0.1510 -0.1453 -0.3318
 2180ntf    fn411632   5.433   0.339   2.545 -0.0800  0.1227 -0.6006
 2180ntf    fn411633   5.233   0.388   2.498  0.1441  0.3106 -0.1576
 2180ntf    on511634   5.389   0.309   2.253 -0.2759  0.3972  0.1212
 2180ntf    on511635   5.413   0.087   2.345  0.1393  0.1167 -0.4321
 2180ntf    on511636   4.947   0.113   2.388 -0.6931 -0.5557 -0.2473
 2180ntf    on511637   5.146  -0.030   2.429  0.6692  0.4123 -0.5356
 2180ntf    fn411638   4.961  -0.083   2.177  0.0779 -0.0913 -0.4384
 2180ntf    fn411639   5.027   0.101   2.104 -0.2113  0.0671 -0.1962
 2180ntf    fn411640   5.174  -0.046   2.148 -0.0470 -0.1417 -0.2066
 2181ntf    cn111641   5.549   2.622   0.408 -0.2964  0.0487 -0.2946
 2181ntf    sn211642   5.595   2.446   0.402 -0.0078  0.1073  0.1112
 2181ntf    nn311643   5.741   2.457   0.346 -0.1896  0.2090 -0.3467
 2181ntf    sn211644   5.875   2.503   0.413 -0.4220  0.1321  0.1765
 2181ntf    cn111645   5.985   2.523   0.270 -0.0387  0.1800  0.4752
 2181ntf    fn411646   5.556   2.678   0.289  0.3896 -0.0093 -0.2891
 2181ntf    fn411647   5.426   2.652   0.447 -0.3343 -0.4493 -0.0213
 2181ntf    fn411648   5.626   2.694   0.488 -0.2357 -0.4930  0.1450
 2181ntf    on511649   5.578   2.402   0.538  0.2492 -0.4141 -0.0211
 2181ntf    on511650   5.503   2.405   0.299  0.2225  0.0910 -0.0894
 2181ntf    on511651   5.940   2.394   0.482 -0.1675  0.1943  0.0398
 2181ntf    on511652   5.879   2.631   0.480  0.4321  0.1361  0.1389
 2181ntf    fn411653   6.043   2.407   0.244  0.1539  0.3476  0.1393
 2181ntf    fn411654   5.926   2.562   0.158 -0.0460 -0.7914  0.1306
 2181ntf    fn411655   6.085   2.610   0.282  0.0057  0.1901  0.0715
 2182ntf    cn111656   4.719   0.681   4.257  0.1973  0.0679  0.4171
 2182ntf    sn211657   4.573   0.782   4.220  0.3586  0.1965  0.1238
 2182ntf    nn311658   4.473   0.664   4.250  0.3944  0.0951 -0.1520
 2182ntf    sn211659   4.361   0.600   4.160 -0.0641  0.1820  0.3494
 2182ntf    cn111660   4.228   0.590   4.283 -0.4210  0.2221 -0.0297
 2182ntf    fn411661   4.743   0.570   4.190 -0.2646  0.3055 -0.1557
 2182ntf    fn411662   4.830   0.754   4.259  0.5973 -0.5104 -0.2539
 2182ntf    fn411663   4.701   0.640   4.381  0.8648 -0.3764  0.3700
 2182ntf    on511664   4.572   0.876   4.329  0.0671  0.5826 -0.2090
 2182ntf    on511665   4.584   0.816   4.080 -0.4400 -0.2058 -0.0476
 2182ntf    on511666   4.380   0.458   4.143 -0.2546  0.2611 -0.5954
 2182ntf    on511667   4.305   0.677   4.052  0.2038 -0.0866  0.0155
 2182ntf    fn411668   4.117   0.538   4.234  0.0229 -0.2362 -0.5644
 2182ntf    fn411669   4.254   0.518   4.391 -0.0082  0.2172 -0.1321
 2182ntf    fn411670   4.213   0.716   4.321  0.3557  0.2563  0.1923
 2183ntf    cn111671   4.578   5.023   0.349 -0.0428  0.3705 -0.0592
 2183ntf    sn211672   4.623   5.186   0.282  0.4396  0.0922 -0.4203
 2183ntf    nn311673   4.737   5.150   0.180  0.4835 -0.8720 -0.0442
 2183ntf    sn211674   4.732   5.117   0.027  0.2593 -0.2541 -0.1741
 2183ntf    cn111675   4.822   5.261  -0.038 -0.3464  0.0281 -0.3907
 2183ntf    fn411676   4.685   4.955   0.387 -0.3614 -0.0882  0.0238
 2183ntf    fn411677   4.493   5.020   0.450 -0.0158  0.0829 -0.0446
 2183ntf    fn411678   4.524   4.943   0.258  0.2631  0.1029 -0.0090
 2183ntf    on511679   4.503   5.233   0.216  0.1680 -0.1451 -0.0992
 2183ntf    on511680   4.684   5.259   0.390  0.0598  0.0780 -0.1956
 2183ntf    on511681   4.604   5.133  -0.036  0.3179  0.9724 -0.0011
 2183ntf    on511682   4.822   5.009  -0.007  0.0828 -0.1731 -0.9177
 2183ntf    fn411683   4.848   5.245  -0.167  0.3574 -0.3451 -0.2088
 2183ntf    fn411684   4.752   5.373  -0.026  0.0240  0.2337 -0.1225
 2183ntf    fn411685   4.927   5.294   0.036 -0.9165 -0.3186  0.5918
 2184ntf    cn111686   2.103   2.807   2.319  0.1541 -0.3383  0.3546
 2184ntf    sn211687   2.161   2.955   2.231  0.0879 -0.3343  0.3177
 2184ntf    nn311688   2.317   2.937   2.239  0.2872  1.0514 -0.1527
 2184ntf    sn211689   2.402   2.900   2.113  0.2593  0.0036  0.1196
 2184ntf    cn111690   2.400   3.048   2.006  0.4607 -0.0550  0.0338
 2184ntf    fn411691   1.973   2.790   2.301  0.2245  0.3221 -0.9045
 2184ntf    fn411692   2.163   2.692   2.291  0.8747  0.0532  0.2568
 2184ntf    fn411693   2.122   2.821   2.449  0.2595  0.0434  0.2992
 2184ntf    on511694   2.095   2.946   2.103  0.0588  0.8764  0.2425
 2184ntf    on511695   2.112   3.058   2.318  0.0448 -0.1654  0.0952
 2184ntf    on511696   2.359   2.788   2.034  0.2882 -0.3010  0.5360
 2184ntf    on511697   2.541   2.889   2.148  0.4353  0.5647 -0.3645
 2184ntf    fn411698   2.473   3.029   1.897  0.2035  0.3641 -0.2127
 2184ntf    fn411699   2.275   3.075   1.973  0.5052  0.3074  0.1576
 2184ntf    fn411700   2.453   3.156   2.060  0.1663 -0.0780  0.3759
 2185ntf    cn111701   6.593   3.276   5.305  0.2737  0.1740  0.1311
 2185ntf    sn211702   6.706   3.227   5.439  0.2720 -0.3365 -0.0523
 2185ntf    nn311703   6.688   3.347   5.540 -0.0397  0.2207 -0.7600
 2185ntf    sn211704   6.779   3.463   5.595  0.0335 -0.1555 -0.0817
 2185ntf    cn111705   6.756   3.581   5.459 -0.1787  0.0511  0.1318
 2185ntf    fn411706   6.610   3.198   5.201  0.3927 -0.2814  0.4887
 2185ntf    fn411707   6.464   3.259   5.330  0.0723 -0.0497 -1.0354
 2185ntf    fn411708   6.605   3.400   5.260  0.1474  0.2991  0.4336
 2185ntf    on511709   6.660   3.105   5.500 -0.0849 -0.3017 -0.2472
 2185ntf    on511710   6.833   3.222   5.372  0.2344  0.6599 -0.2197
 2185ntf    on511711   6.921   3.438   5.600  0.1051  0.4301  1.1963
 2185ntf    on511712   6.712   3.515   5.712 -0.5470  0.1167 -0.5280
 2185ntf    fn411713   6.814   3.699   5.471  0.4543 -0.2565  0.1096
 2185ntf    fn411714   6.817   3.532   5.352  0.1811  1.1669 -0.1796
 2185ntf    fn411715   6.628   3.602   5.430 -0.0696  0.1434 -0.2858
 2186ntf    cn111716   5.612   6.296   2.190  0.2069  0.0457  0.3375
 2186ntf    sn211717   5.569   6.412   2.057 -0.0330 -0.0818  0.3044
 2186ntf    nn311718   5.708   6.461   2.003 -0.0203  0.4104  0.7822
 2186ntf    sn211719   5.802   6.580   2.045  0.2618  0.3745  0.2566
 2186ntf    cn111720   5.951   6.481   2.075  0.2939  0.3332 -0.0300
 2186ntf    fn411721   5.718   6.225   2.156 -0.2619 -0.5970  0.2151
 2186ntf    fn411722   5.645   6.361   2.301  0.2778  0.5417  0.0284
 2186ntf    fn411723   5.514   6.211   2.213  0.3898 -0.0667  0.7131
 2186ntf    on511724   5.510   6.325   1.958  0.4612 -0.4512  0.3273
 2186ntf    on511725   5.493   6.523   2.107 -0.2470 -0.2593  0.3765
 2186ntf    on511726   5.770   6.630   2.177  0.3606 -0.1767  0.4930
 2186ntf    on511727   5.837   6.671   1.938 -0.3571 -0.1706 -0.4234
 2186ntf    fn411728   5.972   6.385   1.987  0.3808 -0.0351  0.3863
 2186ntf    fn411729   6.059   6.557   2.089  0.2136  0.3417  0.5742
 2186ntf    fn411730   5.952   6.415   2.190 -1.2822  0.1213 -0.1144
 2187ntf    cn111731   2.419   5.835   5.783  0.4374  0.1070 -0.1943
 2187ntf    sn211732   2.410   6.011   5.737 -0.0055  0.1206 -0.0584
 2187ntf    nn311733   2.368   6.078   5.873  0.3010  0.3677 -0.0852
 2187ntf    sn211734   2.229   6.140   5.908  0.0283 -0.2735 -0.0130
 2187ntf    cn111735   2.238   6.171   6.087 -0.8193  0.1430 -0.0359
 2187ntf    fn411736   2.511   5.810   5.874  0.4618  0.3178 -0.1589
 2187ntf    fn411737   2.310   5.796   5.847  0.3304  0.0923 -0.3826
 2187ntf    fn411738   2.441   5.743   5.691  0.0696  0.0184 -0.1957
 2187ntf    on511739   2.549   6.040   5.712  0.0644 -0.2007 -0.0408
 2187ntf    on511740   2.317   6.009   5.627 -0.1170 -0.5614  0.0438
 2187ntf    on511741   2.120   6.046   5.897  0.0685 -0.2449 -0.6711
 2187ntf    on511742   2.204   6.272   5.855 -0.2293 -0.4083 -0.2302
 2187ntf    fn411743   2.128   6.228   6.134 -0.4730  0.5631  0.2737
 2187ntf    fn411744   2.255   6.057   6.152  0.1433  0.0968 -0.3494
 2187ntf    fn411745   2.339   6.248   6.124 -0.4209 -0.4459  0.1039
 2188ntf    cn111746   0.324   1.847   5.410 -0.1266  0.1930 -0.0002
 2188ntf    sn211747   0.374   1.776   5.570  0.1029  0.1309 -0.0991
 2188ntf    nn311748   0.224   1.769   5.615  0.0084 -0.3529 -0.4893
 2188ntf    sn211749   0.173   1.792   5.761  0.1795 -0.3480 -0.4298
 2188ntf    cn111750   0.133   1.969   5.745  0.0015 -0.3616 -0.1447
 2188ntf    fn411751   0.424   1.883   5.331  0.2776  0.6351  0.6977
 2188ntf    fn411752   0.256   1.763   5.334  0.5597  0.0348 -0.4473
 2188ntf    fn411753   0.258   1.959   5.435  0.5326  0.4488  0.6422
 2188ntf    on511754   0.434   1.650   5.536  0.0246 -0.0761  0.5246
 2188ntf    on511755   0.459   1.884   5.616  0.2370 -0.0270  0.0249
 2188ntf    on511756   0.282   1.797   5.855 -0.2545 -0.0879  0.0662
 2188ntf    on511757   0.050   1.724   5.792 -0.0331  0.2977  0.1810
 2188ntf    fn411758   0.048   1.983   5.645 -0.4747  0.8157  0.4018
 2188ntf    fn411759   0.085   2.020   5.857  0.5173 -0.4373  0.1168
 2188ntf    fn411760   0.234   2.048   5.712 -0.1256 -0.4823 -0.8347
 2189ntf    cn111761   6.658   5.139   3.746  0.1147 -0.1236 -0.5103
 2189ntf    sn211762   6.578   5.142   3.909  0.1082 -0.0407 -0.5149
 2189ntf    nn311763   6.709   5.192   3.980 -0.4831  0.7395  0.0580
 2189ntf    sn211764   6.768   5.146   4.118 -0.0453 -0.1576 -0.4123
 2189ntf    cn111765   6.809   5.312   4.179 -0.6617 -0.1987  0.1216
 2189ntf    fn411766   6.784   5.097   3.750 -0.0491 -0.5557  0.3999
 2189ntf    fn411767   6.595   5.064   3.657 -0.3751 -0.1535 -0.1399
 2189ntf    fn411768   6.668   5.259   3.691  0.8204  0.0131 -0.1050
 2189ntf    on511769   6.471   5.238   3.907  0.2858  0.1705  0.0019
 2189ntf    on511770   6.545   5.003   3.931 -0.0900 -0.0480 -0.8465
 2189ntf    on511771   6.894   5.077   4.106  0.0829  0.0360 -0.1987
 2189ntf    on511772   6.681   5.077   4.210  0.0389 -0.0298 -0.2367
 2189ntf    fn411773   6.704   5.372   4.235 -0.3627  0.1617  0.3044
 2189ntf    fn411774   6.899   5.301   4.275  0.2531 -0.0768 -0.7078
 2189ntf    fn411775   6.865   5.405   4.103 -0.3030 -0.1450  0.4506
 2190ntf    cn111776   2.522   1.127   0.505  0.2725 -0.1427  0.2576
 2190ntf    sn211777   2.649   1.244   0.447 -0.0550 -0.0818 -0.3378
 2190ntf    nn311778   2.565   1.345   0.361 -0.1287  0.1990  0.0628
 2190ntf    sn211779   2.546   1.499   0.384  0.0825  0.2015  0.2247
 2190ntf    cn111780   2.681   1.558   0.278 -0.2834 -0.0354 -0.3823
 2190ntf    fn411781   2.453   1.069   0.409  0.3193 -0.1522  0.2292
 2190ntf    fn411782   2.577   1.026   0.570 -0.4837 -0.5284  0.3066
 2190ntf    fn411783   2.431   1.176   0.588 -0.1333 -0.3681 -0.0535
 2190ntf    on511784   2.722   1.301   0.557  0.0809 -0.0856 -0.4252
 2190ntf    on511785   2.712   1.145   0.363 -0.0650  0.6101 -1.1693
 2190ntf    on511786   2.574   1.562   0.511  0.2113  0.5922  0.0023
 2190ntf    on511787   2.432   1.547   0.310  0.2251  0.3390  0.0969
 2190ntf    fn411788   2.800   1.505   0.303 -0.0286  0.3519 -0.7701
 2190ntf    fn411789   2.646   1.540   0.152 -0.2042 -0.2743 -0.3716
 2190ntf    fn411790   2.707   1.685   0.303  0.3159 -0.2194 -0.0492
 2191ntf    cn111791   0.096   3.494   2.492  0.5463 -0.3787  0.2280
 2191ntf    sn211792   0.162   3.519   2.324 -0.1697 -0.1722 -0.0267
 2191ntf    nn311793   0.031   3.541   2.239 -0.1165  0.1437 -0.0292
 2191ntf    sn211794  -0.077   3.434   2.200 -0.2410  0.0776  0.4822
 2191ntf    cn111795  -0.187   3.538   2.099 -0.4305 -0.5354  0.0512
 2191ntf    fn411796  -0.011   3.572   2.505  0.6840 -0.0150 -0.6864
 2191ntf    fn411797   0.049   3.372   2.513  0.1964 -0.2628  0.1383
 2191ntf    fn411798   0.188   3.519   2.583  0.1624 -0.5713  0.6733
 2191ntf    on511799   0.233   3.642   2.349 -0.3495  0.0700 -0.6908
 2191ntf    on511800   0.241   3.402   2.296 -0.1921 -0.2213  0.1117
 2191ntf    on511801  -0.161   3.388   2.308 -0.1712  0.0584  0.5279
 2191ntf    on511802  -0.017   3.336   2.113  0.0125  0.6794 -0.0317
 2191ntf    fn411803  -0.117   3.588   1.999  0.6352 -0.1907  0.9507
 2191ntf    fn411804  -0.297   3.477   2.059 -0.4733 -0.4871  0.0937
 2191ntf    fn411805  -0.223   3.641   2.173  0.4632 -0.2707  0.1268
 2192ntf    cn111806   1.025   5.472   3.256  0.6459 -0.0944 -0.3320
 2192ntf    sn211807   1.109   5.378   3.387  0.0165  0.0922  0.2121
 2192ntf    nn311808   1.181   5.494   3.465  0.1624 -0.2490  0.5890
 2192ntf    sn211809   1.320   5.555   3.425 -0.2263  0.1786 -0.1324
 2192ntf    cn111810   1.426   5.467   3.544 -0.1721  0.1843 -0.1760
 2192ntf    fn411811   0.941   5.413   3.173  0.7715  0.0638 -0.5723
 2192ntf    fn411812   0.952   5.572   3.305  0.2292 -0.2553 -0.6201
 2192ntf    fn411813   1.109   5.537   3.177  0.4820  0.1913 -0.2713
 2192ntf    on511814   1.004   5.332   3.475  0.8692 -0.2034  1.0954
 2192ntf    on511815   1.188   5.282   3.314 -0.0719  0.0155  0.2182
 2192ntf    on511816   1.340   5.691   3.468  0.4669  0.3991 -1.1088
 2192ntf    on511817   1.376   5.522   3.296 -0.3330 -0.0925 -0.1110
 2192ntf    fn411818   1.390   5.499   3.667  0.6003 -0.1151  0.1364
 2192ntf    fn411819   1.402   5.337   3.535  0.4874 -0.0007  0.5776
 2192ntf    fn411820   1.557   5.487   3.541 -0.0476 -0.6256 -0.2852
 2193ntf    cn111821   1.430   1.330   1.512  0.1894  0.2111 -0.1651
 2193ntf    sn211822   1.341   1.190   1.436 -0.0091  0.2652 -0.0291
 2193ntf    nn311823   1.221   1.180   1.538  0.4408 -0.3305  0.4464
 2193ntf    sn211824   1.149   1.060   1.610  0.3595 -0.4849  0.1073
 2193ntf    cn111825   0.988   1.137   1.643  0.4550 -0.1140 -0.2726
 2193ntf    fn411826   1.529   1.287   1.589 -0.3246 -0.0713  0.3404
 2193ntf    fn411827   1.480   1.404   1.414  0.0814  0.3282 -0.1314
 2193ntf    fn411828   1.358   1.417   1.580  0.0160  0.1709 -0.2961
 2193ntf    on511829   1.302   1.248   1.310  0.1802  0.6670  0.0943
 2193ntf    on511830   1.435   1.082   1.435 -0.1152  0.1747 -0.1368
 2193ntf    on511831   1.213   1.036   1.736  0.0639 -1.0564  0.1488
 2193ntf    on511832   1.123   0.944   1.528  0.4107 -0.4744  0.0755
 2193ntf    fn411833   0.890   1.049   1.655  0.0622  0.3169 -0.2903
 2193ntf    fn411834   0.988   1.213   1.752  0.4326 -0.3284 -0.1216
 2193ntf    fn411835   0.955   1.212   1.539 -0.0649 -0.2471 -0.2021
 2194ntf    cn111836   1.558   3.162   6.597 -0.1257 -0.1129  0.1774
 2194ntf    sn211837   1.671   3.054   6.504 -0.1753  0.0447 -0.0688
 2194ntf    nn311838   1.801   3.138   6.529 -0.0886  0.0184 -0.4358
 2194ntf    sn211839   1.857   3.250   6.433  0.6794  0.1770  0.1863
 2194ntf    cn111840   1.934   3.144   6.308  0.4361  0.2901 -0.0601
 2194ntf    fn411841   1.554   3.154   6.729 -0.1111 -0.2627  0.1685
 2194ntf    fn411842   1.583   3.290   6.575  0.0870 -0.1837  0.0087
 2194ntf    fn411843   1.433   3.145   6.555 -0.0335  0.1798 -0.2277
 2194ntf    on511844   1.664   2.934   6.584 -0.4523  0.2084  0.1551
 2194ntf    on511845   1.619   3.038   6.371 -1.1337 -0.1680  0.3216
 2194ntf    on511846   1.971   3.311   6.496  0.5436 -0.1454  0.7590
 2194ntf    on511847   1.762   3.331   6.362  0.7805 -0.2484 -0.4380
 2194ntf    fn411848   1.973   3.202   6.195  0.6344 -0.1059 -0.1997
 2194ntf    fn411849   2.041   3.081   6.354 -0.0981 -0.4486  0.1878
 2194ntf    fn411850   1.855   3.047   6.263  0.4737  0.4569 -0.4945
 2195ntf    cn111851   1.355   1.324   3.980  0.1444  0.1433 -0.4312
 2195ntf    sn211852   1.335   1.351   4.159 -0.0165 -0.1708 -0.4003
 2195ntf    nn311853   1.407   1.225   4.217 -0.2531 -0.2039 -0.1821
 2195ntf    sn211854   1.555   1.215   4.267 -0.1816 -0.2162 -0.3991
 2195ntf    cn111855   1.552   1.067   4.372 -0.2776 -0.0990 -0.2371
 2195ntf    fn411856   1.482   1.308   3.948  0.2809 -0.3987  0.3505
 2195ntf    fn411857   1.298   1.214   3.934 -0.0689  0.0009  0.1707
 2195ntf    fn411858   1.298   1.422   3.911 -0.6799 -0.1208 -0.1411
 2195ntf    on511859   1.390   1.479   4.196 -0.4510  0.0631 -0.5555
 2195ntf    on511860   1.194   1.330   4.179  0.1624 -0.5568  0.5035
 2195ntf    on511861   1.589   1.319   4.360 -0.6985 -0.2841 -0.1312
 2195ntf    on511862   1.642   1.186   4.155 -0.2847  0.1607 -0.5782
 2195ntf    fn411863   1.647   1.065   4.464 -0.1351  0.2163 -0.3787
 2195ntf    fn411864   1.443   1.078   4.447 -0.1324  0.5468 -0.1197
 2195ntf    fn411865   1.544   0.952   4.307  0.2843 -0.1999 -0.1296
 2196ntf    cn111866   6.319   1.380   6.207  0.3062  0.4281 -0.2552
 2196ntf    sn211867   6.483   1.301   6.211 -0.0255 -0.2734 -0.1784
 2196ntf    nn311868   6.560   1.393   6.110 -0.4194 -0.0993 -0.3242
 2196ntf    sn211869   6.716   1.407   6.095 -0.3252 -0.5096  0.2552
 2196ntf    cn111870   6.735   1.566   6.182 -0.6071 -0.3158 -0.0380
 2196ntf    fn411871   6.327   1.504   6.252 -0.2785  0.2935  0.2517
 2196ntf    fn411872   6.267   1.387   6.086 -0.8248  0.2621  0.2024
 2196ntf    fn411873   6.227   1.324   6.285  0.4645  0.3990 -0.0919
 2196ntf    on511874   6.513   1.314   6.352  0.2501 -0.0848 -0.2542
 2196ntf    on511875   6.463   1.170   6.155 -0.1531 -0.3073 -0.0559
 2196ntf    on511876   6.769   1.426   5.963  0.7288 -0.5956  0.6594
 2196ntf    on511877   6.780   1.306   6.176  0.2545 -0.1399  0.2622
 2196ntf    fn411878   6.675   1.567   6.299 -0.3282 -0.1147  0.1039
 2196ntf    fn411879   6.858   1.604   6.210 -0.7661  0.0623  0.1480
 2196ntf    fn411880   6.674   1.666   6.120  0.3234  0.2741 -0.0119
 2197ntf    cn111881   2.104   0.519   4.332 -0.1724  0.3657  0.0037
 2197ntf    sn211882   2.046   0.495   4.161 -0.1091 -0.1824  0.0571
 2197ntf    nn311883   1.892   0.514   4.181 -0.0986  0.0046 -0.0413
 2197ntf    sn211884   1.799   0.637   4.152 -0.0783  0.1008  0.2910
 2197ntf    cn111885   1.659   0.598   4.262 -0.1291  0.1195  0.2336
 2197ntf    fn411886   2.060   0.416   4.402 -0.2506 -0.0698 -0.6761
 2197ntf    fn411887   2.236   0.518   4.343 -0.1925  0.2875  0.2406
 2197ntf    fn411888   2.072   0.632   4.393 -0.0111  0.5043 -0.1682
 2197ntf    on511889   2.114   0.590   4.076 -0.0301  0.1151  0.4504
 2197ntf    on511890   2.089   0.359   4.136 -0.0105 -0.0716 -0.3756
 2197ntf    on511891   1.764   0.629   4.012  0.4640 -0.3781  0.1817
 2197ntf    on511892   1.849   0.767   4.189 -0.0075  0.3099 -0.5182
 2197ntf    fn411893   1.653   0.466   4.266 -0.5544  0.1172 -0.3480
 2197ntf    fn411894   1.677   0.642   4.385 -0.2995  0.6257  0.0814
 2197ntf    fn411895   1.545   0.650   4.219 -0.1825 -0.4472 -0.3350
 2198ntf    cn111896   2.162   1.185   5.423  0.0915  0.0931  0.3021
 2198ntf    sn211897   2.079   1.344   5.395  0.1040  0.1002  0.3062
 2198ntf    nn311898   2.204   1.428   5.351 -0.0967  0.2501  0.0242
 2198ntf    sn211899   2.242   1.449   5.200  0.2691 -0.3055  0.0376
 2198ntf    cn111900   2.375   1.572   5.212  0.2776 -0.2943 -0.1562
 2198ntf    fn411901   2.081   1.082   5.443  0.0176  0.0815 -0.0486
 2198ntf    fn411902   2.235   1.145   5.320 -0.3240 -0.1188  0.0883
 2198ntf    fn411903   2.240   1.182   5.529 -0.1622 -0.5743  0.4791
 2198ntf    on511904   1.978   1.323   5.294 -0.2881  0.3130  0.6492
 2198ntf    on511905   2.033   1.380   5.527 -0.1702 -0.7016  0.4325
 2198ntf    on511906   2.141   1.518   5.124  0.8557  1.2516  0.6372
 2198ntf    on511907   2.303   1.332   5.141  0.1296 -0.2885 -0.1427
 2198ntf    fn411908   2.327   1.695   5.203  0.5892 -0.1795 -0.2640
 2198ntf    fn411909   2.438   1.557   5.328  0.3034  0.2242 -0.0973
 2198ntf    fn411910   2.467   1.576   5.118  0.2624  0.0900 -0.1570
 2199ntf    cn111911   1.273   5.307   0.986  0.0133  0.3892  0.0357
 2199ntf    sn211912   1.235   5.233   0.825  0.1162 -0.0721  0.2220
 2199ntf    nn311913   1.146   5.342   0.755  0.8323  0.0741 -0.4719
 2199ntf    sn211914   1.113   5.359   0.602 -0.0301  0.3274 -0.2609
 2199ntf    cn111915   0.979   5.239   0.576  0.1827  0.0109  0.0789
 2199ntf    fn411916   1.159   5.309   1.053  0.2912  1.0697  0.4993
 2199ntf    fn411917   1.360   5.231   1.050  0.1471  0.5823  0.0848
 2199ntf    fn411918   1.321   5.430   0.979  0.1293  0.3473  0.0775
 2199ntf    on511919   1.364   5.218   0.762  0.0458 -0.5980  0.1992
 2199ntf    on511920   1.165   5.114   0.869 -0.0693 -0.0839 -0.1005
 2199ntf    on511921   1.212   5.311   0.508  0.7208  0.3377  0.5076
 2199ntf    on511922   1.045   5.480   0.564 -0.0517  0.1356 -0.8486
 2199ntf    fn411923   0.932   5.236   0.452 -0.1944 -0.2493  0.2237
 2199ntf    fn411924   1.021   5.116   0.595  0.2938  0.0627  0.1713
 2199ntf    fn411925   0.869   5.260   0.647  0.0929 -0.6632  0.1438
 2200ntf    cn111926   0.091   6.062   3.288 -0.2969  0.5687 -0.3379
 2200ntf    sn211927   0.085   5.912   3.186 -0.2601  0.1151  0.3209
 2200ntf    nn311928   0.022   5.968   3.053 -0.1241 -0.2358  0.1056
 2200ntf    sn211929   0.104   5.998   2.922 -0.1726 -0.0240  0.1234
 2200ntf    cn111930  -0.008   6.122   2.850  0.0497  0.0826 -0.0391
 2200ntf    fn411931   0.179   6.151   3.246  0.2794  0.3493  0.3817
 2200ntf    fn411932  -0.027   6.116   3.315 -0.2679  0.3577  0.2115
 2200ntf    fn411933   0.130   6.025   3.409  0.2300 -0.2691 -0.7591
 2200ntf    on511934   0.218   5.862   3.165 -0.1494  0.8045 -0.7318
 2200ntf    on511935  -0.015   5.831   3.252  0.1079 -0.1630  0.5405
 2200ntf    on511936   0.103   5.888   2.829  0.1307  0.0105  0.0799
 2200ntf    on511937   0.230   6.062   2.950 -0.0970  0.1212 -0.5441
 2200ntf    fn411938  -0.127   6.073   2.818  0.0836 -0.1667  0.2135
 2200ntf    fn411939  -0.038   6.225   2.928 -0.0621 -0.1783  0.2638
 2200ntf    fn411940   0.047   6.173   2.741 -0.3601 -0.0412 -0.3056
 2201ntf    cn111941   0.502   3.674   3.223  0.4222  0.2931  0.2416
 2201ntf    sn211942   0.449   3.777   3.363 -0.0258 -0.0617  0.3349
 2201ntf    nn311943   0.352   3.686   3.446 -0.4562  0.0566 -0.0314
 2201ntf    sn211944   0.392   3.587   3.562 -0.0821  0.0732 -0.1469
 2201ntf    cn111945   0.341   3.698   3.697  0.1002  0.0066 -0.0231
 2201ntf    fn411946   0.606   3.725   3.159  0.1494  0.2363 -0.2570
 2201ntf    fn411947   0.541   3.551   3.249 -0.4210 -0.0412 -0.0376
 2201ntf    fn411948   0.411   3.673   3.127  0.2775  0.2252  0.3794
 2201ntf    on511949   0.574   3.814   3.424  0.6125 -0.7479 -0.5294
 2201ntf    on511950   0.366   3.877   3.299 -0.3848 -0.3291  0.3774
 2201ntf    on511951   0.532   3.556   3.579 -0.0869  0.2716  0.2516
 2201ntf    on511952   0.301   3.476   3.568  0.1146 -0.0980 -0.3229
 2201ntf    fn411953   0.217   3.741   3.683 -0.0542 -0.3248  0.3188
 2201ntf    fn411954   0.350   3.648   3.819  0.0806 -0.1949 -0.1036
 2201ntf    fn411955   0.409   3.812   3.702 -0.0504  0.1118 -0.3647
 2202ntf    cn111956   2.688   2.617   3.185 -0.5309  0.1679  0.2170
 2202ntf    sn211957   2.589   2.755   3.121 -0.4664  0.1290  0.0304
 2202ntf    nn311958   2.583   2.719   2.969  0.2950 -0.1497  0.0607
 2202ntf    sn211959   2.667   2.787   2.855 -0.2254  0.0751 -0.1950
 2202ntf    cn111960   2.543   2.898   2.782 -0.1025 -0.0055 -0.5295
 2202ntf    fn411961   2.621   2.503   3.182 -0.2010 -0.0338  0.3830
 2202ntf    fn411962   2.800   2.599   3.116 -0.3135  0.3325  0.5231
 2202ntf    fn411963   2.725   2.639   3.310 -0.0801 -0.6086  0.2263
 2202ntf    on511964   2.461   2.735   3.185 -0.3706  0.4738  0.3338
 2202ntf    on511965   2.648   2.876   3.173 -0.3031 -0.2322  0.6966
 2202ntf    on511966   2.703   2.693   2.752  0.3956 -0.8669  0.8548
 2202ntf    on511967   2.774   2.875   2.898 -0.0611 -0.0355 -0.3764
 2202ntf    fn411968   2.437   2.837   2.733 -0.3022 -0.0864 -0.0073
 2202ntf    fn411969   2.490   2.980   2.872  0.2075 -0.8400  0.4292
 2202ntf    fn411970   2.587   2.974   2.683  0.4548  0.0021 -0.2764
 2203ntf    cn111971   3.302   5.749   5.866  0.2971  0.0068  0.1218
 2203ntf    sn211972   3.230   5.679   6.017 -0.0931  0.0738 -0.0303
 2203ntf    nn311973   3.078   5.700   5.984 -0.1312  0.2579  0.2542
 2203ntf    sn211974   2.975   5.816   6.008  0.0311  0.4371  0.0861
 2203ntf    cn111975   2.867   5.798   5.863 -0.0083  0.0451  0.1654
 2203ntf    fn411976   3.434   5.753   5.860  0.3193 -0.3570  0.3363
 2203ntf    fn411977   3.262   5.671   5.767  0.7010 -0.2211  0.1357
 2203ntf    fn411978   3.249   5.867   5.838  0.0134 -0.1008  0.2034
 2203ntf    on511979   3.271   5.541   6.018  0.3616  0.2056 -0.1940
 2203ntf    on511980   3.283   5.760   6.125 -0.0528 -0.0590  0.0497
 2203ntf    on511981   3.040   5.945   5.995  0.0369  0.3962 -0.3065
 2203ntf    on511982   2.894   5.787   6.123 -0.1216 -0.9067 -0.3492
 2203ntf    fn411983   2.928   5.831   5.751  0.0015  0.1309  0.1965
 2203ntf    fn411984   2.828   5.673   5.842 -0.0932  0.1174 -0.0968
 2203ntf    fn411985   2.755   5.868   5.869  0.1975  0.3554  0.3753
 2204ntf    cn111986   1.021   4.575   3.070  0.2927  0.1972  0.0422
 2204ntf    sn211987   0.866   4.665   3.102  0.2004  0.0332  0.0550
 2204ntf    nn311988   0.886   4.699   3.254 -0.5410 -0.4629  0.2678
 2204ntf    sn211989   0.862   4.834   3.329 -0.1466 -0.1809 -0.1071
 2204ntf    cn111990   0.681   4.847   3.314 -0.1163  0.5977  0.1506
 2204ntf    fn411991   1.127   4.647   3.037  0.2402 -0.0397 -0.6461
 2204ntf    fn411992   1.063   4.508   3.176  0.0329  0.7395  0.4914
 2204ntf    fn411993   1.019   4.486   2.972 -0.4228  0.0965  0.1465
 2204ntf    on511994   0.873   4.770   3.004  0.7405 -0.0705 -0.0245
 2204ntf    on511995   0.761   4.568   3.080  0.0110  0.2335  0.0813
 2204ntf    on511996   0.897   4.949   3.250 -0.7025  0.2872  0.3183
 2204ntf    on511997   0.889   4.833   3.471  0.0464  0.0539 -0.1422
 2204ntf    fn411998   0.625   4.736   3.358  0.0636  0.4072 -0.0971
 2204ntf    fn411999   0.641   4.941   3.398 -0.2331  0.2380  0.5052
 2204ntf    fn412000   0.643   4.866   3.189  0.3839 -0.3038 -0.1514
 2205ntf    cn112001   0.577   6.510   1.804  0.0430 -0.7389  0.0467
 2205ntf    sn212002   0.743   6.508   1.730 -0.0815  0.1033 -0.2626
 2205ntf    nn312003   0.827   6.411   1.821  0.0863  0.3808 -0.1184
 2205ntf    sn212004   0.892   6.440   1.960 -0.3114 -0.1725  0.1880
 2205ntf    cn112005   1.059   6.479   1.898 -0.4620  0.2340  0.0319
 2205ntf    fn412006   0.586   6.588   1.910  0.4902  0.1911 -0.6660
 2205ntf    fn412007   0.476   6.547   1.728 -0.1209 -0.4250  0.4135
 2205ntf    fn412008   0.546   6.392   1.856  0.3907 -0.5334  0.7385
 2205ntf    on512009   0.734   6.442   1.602  0.1941 -0.4427 -0.0037
 2205ntf    on512010   0.790   6.644   1.739 -0.0374  0.1068 -0.5509
 2205ntf    on512011   0.916   6.325   2.043 -0.0636 -0.1585  0.1379
 2205ntf    on512012   0.859   6.562   2.031  0.4191 -0.2124  0.6190
 2205ntf    fn412013   1.157   6.507   1.982 -0.1711 -0.0757 -0.1997
 2205ntf    fn412014   1.105   6.369   1.839 -0.2668  0.2550  0.1445
 2205ntf    fn412015   1.058   6.572   1.804 -0.2028 -0.1260 -0.3314
 2206ntf    cn112016   0.890   2.690   1.186 -0.4798 -0.2607 -0.1618
 2206ntf    sn212017   0.747   2.676   1.298 -0.2594 -0.4166  0.1038
 2206ntf    nn312018   0.633   2.648   1.194  0.0952 -0.7130 -0.2067
 2206ntf    sn212019   0.480   2.654   1.228  0.0788 -0.3014 -0.3402
 2206ntf    cn112020   0.463   2.486   1.297 -0.3030 -0.2182 -0.2297
 2206ntf    fn412021   0.998   2.726   1.255 -0.2110 -0.5531 -0.4280
 2206ntf    fn412022   0.917   2.575   1.128  0.2574  0.2008 -0.7586
 2206ntf    fn412023   0.876   2.775   1.086  0.6135 -0.3728 -0.4215
 2206ntf    on512024   0.781   2.561   1.377  0.5684  0.2067  0.6671
 2206ntf    on512025   0.743   2.802   1.369  0.0408 -0.4007  0.0935
 2206ntf    on512026   0.392   2.657   1.115  0.0343  0.0974 -0.2971
 2206ntf    on512027   0.445   2.731   1.345  0.2862 -0.2064 -0.3398
 2206ntf    fn412028   0.508   2.383   1.228 -0.1719 -0.4983  0.2752
 2206ntf    fn412029   0.521   2.476   1.415 -0.0168  0.1231 -0.3397
 2206ntf    fn412030   0.339   2.451   1.325 -0.4070  0.3252 -0.0016
 2207ntf    cn112031   0.279   0.885   0.018 -0.1474  0.0323 -0.0250
 2207ntf    sn212032   0.395   0.875   0.158 -0.1902  0.2460  0.0258
 2207ntf    nn312033   0.345   0.742   0.224  0.2146  0.0838  0.0098
 2207ntf    sn212034   0.325   0.720   0.378  0.2682 -0.1525 -0.0163
 2207ntf    cn112035   0.365   0.543   0.390  0.0434 -0.1909  0.1791
 2207ntf    fn412036   0.168   0.816   0.037 -0.2124  0.1494  0.0180
 2207ntf    fn412037   0.240   1.007  -0.011 -0.7646 -0.1844 -0.1173
 2207ntf    fn412038   0.318   0.842  -0.101  0.3275  0.5657 -0.0649
 2207ntf    on512039   0.519   0.855   0.088 -0.5573 -0.4794 -0.4334
 2207ntf    on512040   0.377   1.001   0.226 -0.7099  0.2781 -0.1707
 2207ntf    on512041   0.189   0.725   0.426  0.4118  0.1735  0.3645
 2207ntf    on512042   0.425   0.773   0.467 -0.0424 -0.1123  0.3111
 2207ntf    fn412043   0.332   0.489   0.506  0.1228  0.4275  0.4946
 2207ntf    fn412044   0.305   0.467   0.300  0.3876  0.0197 -0.2349
 2207ntf    fn412045   0.494   0.524   0.365  0.1645  0.5196  0.2529
 2208ntf    cn112046   3.789   2.101   6.081  0.3472 -0.2508  0.4911
 2208ntf    sn212047   3.907   2.158   5.954 -0.3625 -0.0994 -0.1048
 2208ntf    nn312048   3.809   2.222   5.849 -0.3771  0.1929  0.0848
 2208ntf    sn212049   3.792   2.369   5.797 -0.2814  0.2743  0.2834
 2208ntf    cn112050   3.629   2.362   5.717 -0.2996  0.2294  0.3242
 2208ntf    fn412051   3.710   2.193   6.132  0.0865  0.0205 -0.3888
 2208ntf    fn412052   3.699   2.015   6.037  0.2298 -0.0504  0.3376
 2208ntf    fn412053   3.853   2.050   6.185  0.0153 -0.0895  0.7712
 2208ntf    on512054   3.995   2.238   6.036  0.1336 -0.7641  0.0142
 2208ntf    on512055   3.962   2.039   5.894  0.5219  0.6681 -0.8389
 2208ntf    on512056   3.877   2.400   5.684 -0.6407 -0.3674 -0.1687
 2208ntf    on512057   3.782   2.467   5.902  1.1145 -0.0186  0.7163
 2208ntf    fn412058   3.575   2.477   5.680  0.2698  0.2321 -0.5201
 2208ntf    fn412059   3.641   2.292   5.606 -0.0367  0.5715  0.1348
 2208ntf    fn412060   3.545   2.305   5.802 -0.1841  0.0710  0.3310
 2209ntf    cn112061   3.673   3.465   2.723 -0.2467  0.0339 -0.1791
 2209ntf    sn212062   3.622   3.400   2.884 -0.1615  0.3958 -0.0043
 2209ntf    nn312063   3.545   3.522   2.947 -0.3859  0.0786  0.3430
 2209ntf    sn212064   3.602   3.636   3.038 -0.2098  0.1498  0.1426
 2209ntf    cn112065   3.505   3.772   2.965  0.0025  0.2025 -0.0445
 2209ntf    fn412066   3.574   3.469   2.636 -0.1329  0.5331 -0.2937
 2209ntf    fn412067   3.719   3.588   2.739 -0.0350 -0.0232 -0.3269
 2209ntf    fn412068   3.758   3.386   2.658 -0.7901 -0.3813 -0.3890
 2209ntf    on512069   3.551   3.281   2.845  0.2767  0.0218  0.3302
 2209ntf    on512070   3.744   3.370   2.955 -0.1818 -0.3466 -0.2795
 2209ntf    on512071   3.742   3.668   3.019 -0.1071  0.0979  0.7833
 2209ntf    on512072   3.555   3.620   3.173 -0.3609 -0.8740 -0.0248
 2209ntf    fn412073   3.375   3.751   2.980  0.0232  0.1253  0.0318
 2209ntf    fn412074   3.537   3.887   3.023 -0.5044  0.2470  0.1485
 2209ntf    fn412075   3.528   3.785   2.836  0.5527 -0.2866  0.0002
 2210ntf    cn112076   5.367   2.020   5.573 -0.1939  0.0156 -0.2454
 2210ntf    sn212077   5.425   1.903   5.700 -0.4484 -0.0275 -0.1674
 2210ntf    nn312078   5.580   1.923   5.684 -0.4337  0.5579  0.6021
 2210ntf    sn212079   5.677   2.032   5.742  0.3049  0.4578 -0.4163
 2210ntf    cn112080   5.717   2.126   5.592  0.5714  0.3754 -0.3966
 2210ntf    fn412081   5.396   1.979   5.450  0.2355  0.4420 -0.2886
 2210ntf    fn412082   5.235   2.033   5.577 -0.1355  0.5200  0.0772
 2210ntf    fn412083   5.421   2.138   5.595  0.3834 -0.3062  0.0929
 2210ntf    on512084   5.375   1.959   5.823  0.1762  0.0492  0.0588
 2210ntf    on512085   5.381   1.772   5.660 -0.3872 -0.1918  0.3025
 2210ntf    on512086   5.809   1.983   5.775 -0.1314 -0.5992 -0.1793
 2210ntf    on512087   5.615   2.116   5.841  0.3855  0.0124  0.0167
 2210ntf    fn412088   5.739   2.051   5.485  0.0282  0.1746 -0.3673
 2210ntf    fn412089   5.624   2.215   5.565  0.1655  0.1043  0.1072
 2210ntf    fn412090   5.824   2.202   5.611  0.2001  0.7304  0.2772
 2211ntf    cn112091   2.226   6.935   3.619  0.0633  0.8206  0.2293
 2211ntf    sn212092   2.080   6.938   3.728 -0.2682 -0.3307 -0.1763
 2211ntf    nn312093   2.021   6.795   3.703 -0.3064 -0.2254 -0.7022
 2211ntf    sn212094   2.021   6.666   3.792 -0.0696  0.0364 -0.3229
 2211ntf    cn112095   2.184   6.592   3.756 -0.0871  0.0034 -0.3364
 2211ntf    fn412096   2.202   6.906   3.492 -0.7635 -0.1298  0.5921
 2211ntf    fn412097   2.276   7.058   3.619 -0.1943  0.9312 -0.5256
 2211ntf    fn412098   2.325   6.857   3.660  0.0406  0.6266 -0.0857
 2211ntf    on512099   2.144   6.968   3.853  0.3468 -0.1901 -0.5202
 2211ntf    on512100   2.002   7.045   3.672  0.3390  0.1051 -0.1948
 2211ntf    on512101   1.923   6.568   3.752 -0.2517  0.3177 -0.5618
 2211ntf    on512102   2.010   6.694   3.933  0.1461 -0.1359 -0.2696
 2211ntf    fn412103   2.192   6.464   3.787 -0.3479  0.0634 -0.0074
 2211ntf    fn412104   2.225   6.624   3.634  0.5969 -0.3965 -0.2129
 2211ntf    fn412105   2.277   6.653   3.828  0.1742 -0.3465 -0.3799
 2212ntf    cn112106   6.617   0.393   4.471 -0.2739  0.1380 -0.6319
 2212ntf    sn212107   6.460   0.481   4.500 -0.2427  0.0270 -0.1190
 2212ntf    nn312108   6.496   0.609   4.417 -0.5419  0.4211  0.3581
 2212ntf    sn212109   6.463   0.639   4.267 -0.3198  0.5064  0.3242
 2212ntf    cn112110   6.291   0.698   4.263 -0.3520  0.3796 -0.3781
 2212ntf    fn412111   6.634   0.284   4.544  0.4893  0.8526  0.2763
 2212ntf    fn412112   6.646   0.365   4.345 -0.4292  0.0829 -0.6562
 2212ntf    fn412113   6.716   0.470   4.513 -0.4736 -0.0093  0.1285
 2212ntf    on512114   6.369   0.382   4.449  0.2841 -0.2073 -0.6248
 2212ntf    on512115   6.458   0.500   4.643  0.6086  0.0422 -0.1026
 2212ntf    on512116   6.472   0.523   4.180  0.1588  0.3884  0.5283
 2212ntf    on512117   6.533   0.758   4.227 -0.0077  0.2499  0.0996
 2212ntf    fn412118   6.279   0.823   4.306 -0.2858  0.1810  0.2314
 2212ntf    fn412119   6.231   0.708   4.145  0.3735  0.1949 -0.7665
 2212ntf    fn412120   6.206   0.640   4.346 -0.1803  0.7030  0.0317
 2213ntf    cn112121   5.945   2.939   1.836 -0.0209  0.6202  0.0924
 2213ntf    sn212122   6.045   3.089   1.813  0.5138  0.3187  0.4242
 2213ntf    nn312123   5.932   3.198   1.823 -0.5430 -0.6879 -0.1546
 2213ntf    sn212124   5.836   3.263   1.717 -0.2617  0.1696  0.1068
 2213ntf    cn112125   5.951   3.384   1.645  0.2615 -0.5872 -0.3418
 2213ntf    fn412126   5.850   2.921   1.745  0.2873  0.0906 -0.1265
 2213ntf    fn412127   6.025   2.834   1.825 -0.1700  0.4891  0.2592
 2213ntf    fn412128   5.885   2.933   1.954  0.0169 -0.2508  0.0783
 2213ntf    on512129   6.134   3.089   1.926  0.4930 -0.1143  0.4430
 2213ntf    on512130   6.101   3.075   1.681 -0.0059  0.8277  0.1431
 2213ntf    on512131   5.739   3.342   1.789 -0.4476 -0.5593  0.6692
 2213ntf    on512132   5.787   3.178   1.612  0.7151  0.3129 -0.4805
 2213ntf    fn412133   5.880   3.474   1.579  0.1464 -0.3326  0.1236
 2213ntf    fn412134   6.027   3.445   1.735 -0.7217  0.2112 -0.0379
 2213ntf    fn412135   6.038   3.328   1.562 -0.0119 -0.1334 -0.9347
 2214ntf    cn112136   2.587   6.173   0.509 -0.7617 -0.4020 -0.2486
 2214ntf    sn212137   2.537   6.163   0.683 -0.0408  0.1577 -0.0014
 2214ntf    nn312138   2.546   6.310   0.736 -0.1350  0.1081  0.1519
 2214ntf    sn212139   2.432   6.415   0.761 -0.3408 -0.1696  0.3931
 2214ntf    cn112140   2.520   6.562   0.699  0.1085 -0.3132  0.6840
 2214ntf    fn412141   2.611   6.053   0.460 -0.2924 -0.3338 -0.1951
 2214ntf    fn412142   2.499   6.233   0.431 -0.1140  0.3776 -0.4003
 2214ntf    fn412143   2.688   6.257   0.494 -0.5713 -0.6867 -0.5779
 2214ntf    on512144   2.402   6.114   0.692  0.0451  0.0826  1.0724
 2214ntf    on512145   2.638   6.087   0.753  0.1908  0.0068 -0.4903
 2214ntf    on512146   2.400   6.465   0.892  0.2883  0.2983  0.3779
 2214ntf    on512147   2.315   6.424   0.678  0.0776  0.7820 -0.1106
 2214ntf    fn412148   2.466   6.675   0.742  0.1882  0.0091 -0.0471
 2214ntf    fn412149   2.648   6.563   0.734  0.2673 -0.5955  0.1226
 2214ntf    fn412150   2.523   6.572   0.567  0.1019 -0.0353  0.7045
 2215ntf    cn112151   1.668   4.132   4.380 -0.2073  0.4237 -0.0061
 2215ntf    sn212152   1.768   4.222   4.258 -0.1675  0.2266 -0.1189
 2215ntf    nn312153   1.892   4.259   4.347  0.1097 -0.0389 -0.3900
 2215ntf    sn212154   1.931   4.385   4.433  0.1138 -0.3411  0.0507
 2215ntf    cn112155   2.014   4.489   4.310  0.4209 -0.1435  0.4237
 2215ntf    fn412156   1.572   4.073   4.311 -0.0285  0.1296 -0.0055
 2215ntf    fn412157   1.723   4.032   4.446 -0.2276  0.3845 -0.0487
 2215ntf    fn412158   1.612   4.216   4.466  0.0519  0.6853 -0.0890
 2215ntf    on512159   1.803   4.134   4.149  0.3176  0.1189  0.1205
 2215ntf    on512160   1.690   4.338   4.221 -0.7090 -0.1525 -0.1860
 2215ntf    on512161   2.038   4.352   4.524  0.1752 -0.6223 -0.1195
 2215ntf    on512162   1.825   4.462   4.492 -0.1060 -0.6661  0.0824
 2215ntf    fn412163   2.078   4.593   4.362 -0.1487  0.5762 -0.2831
 2215ntf    fn412164   2.106   4.417   4.247  0.3576  0.9091 -0.9361
 2215ntf    fn412165   1.927   4.537   4.222  0.5960 -0.0578  0.2950
 2216ntf    cn112166   4.303   5.746   5.323  0.2528 -0.2307 -0.1457
 2216ntf    sn212167   4.144   5.810   5.264  0.5612  0.3828 -0.3151
 2216ntf    nn312168   4.037   5.714   5.326  0.5163  0.6230 -0.0177
 2216ntf    sn212169   3.956   5.734   5.459  0.0807 -0.1655 -0.1554
 2216ntf    cn112170   3.788   5.693   5.403  0.1462 -0.3883 -0.1906
 2216ntf    fn412171   4.341   5.638   5.256  0.3493 -0.1369 -0.2441
 2216ntf    fn412172   4.402   5.833   5.326 -0.3710  0.4823 -0.0161
 2216ntf    fn412173   4.280   5.707   5.447  0.2923  0.4593  0.0812
 2216ntf    on512174   4.148   5.944   5.317  0.9307  0.2984 -0.1299
 2216ntf    on512175   4.147   5.790   5.121 -0.0444  0.1776 -0.3026
 2216ntf    on512176   3.942   5.870   5.505 -0.7071 -0.2634 -0.0920
 2216ntf    on512177   3.999   5.630   5.549 -0.0976 -0.2581 -0.1771
 2216ntf    fn412178   3.766   5.575   5.349  0.2442 -0.5822  0.1919
 2216ntf    fn412179   3.690   5.701   5.492 -0.0431  0.8043 -0.4815
 2216ntf    fn412180   3.747   5.790   5.322 -0.3822 -0.6399 -0.2274
 2217ntf    cn112181   6.317   5.290   6.166 -0.0923  0.1445 -0.0949
 2217ntf    sn212182   6.389   5.122   6.169 -0.1092  0.1440  0.2636
 2217ntf    nn312183   6.368   5.086   6.018  0.0555 -0.7469  0.4492
 2217ntf    sn212184   6.462   5.096   5.892 -0.1744 -0.2859  0.3095
 2217ntf    cn112185   6.340   5.121   5.759  0.2244 -0.1878 -0.0386
 2217ntf    fn412186   6.373   5.374   6.081  0.1866 -0.2870 -0.3444
 2217ntf    fn412187   6.187   5.284   6.140 -0.0146  0.2251 -0.5172
 2217ntf    fn412188   6.341   5.350   6.281 -0.2207 -0.3372  0.1888
 2217ntf    on512189   6.526   5.150   6.204  0.0121 -0.7538  0.5255
 2217ntf    on512190   6.308   5.049   6.264 -0.0309 -0.4507 -0.1294
 2217ntf    on512191   6.534   4.973   5.868  0.4555  0.0044  0.6832
 2217ntf    on512192   6.529   5.222   5.876 -0.2286 -0.2728  0.1877
 2217ntf    fn412193   6.262   5.224   5.787  0.4891 -0.0064  0.0339
 2217ntf    fn412194   6.400   5.143   5.644 -0.1920 -0.1176 -0.2441
 2217ntf    fn412195   6.256   5.021   5.739 -0.2850  0.1761  0.2558
 2218ntf    cn112196   2.515   2.688   4.963  0.3291  0.1834 -0.0048
 2218ntf    sn212197   2.377   2.785   4.895 -0.0354 -0.0611  0.3847
 2218ntf    nn312198   2.454   2.857   4.779 -0.2310  0.1884  0.4093
 2218ntf    sn212199   2.452   3.010   4.742 -0.2580  0.1391  0.2058
 2218ntf    cn112200   2.613   3.050   4.817 -0.1326  0.0934 -0.0400
 2218ntf    fn412201   2.621   2.763   4.993  0.1580  0.3434  0.1991
 2218ntf    fn412202   2.462   2.626   5.067  0.1466 -0.0950 -0.2659
 2218ntf    fn412203   2.552   2.587   4.887 -0.0595 -0.3202  0.4749
 2218ntf    on512204   2.298   2.673   4.850 -0.2586  0.1772  0.1859
 2218ntf    on512205   2.330   2.867   5.004  0.1575  0.3685  0.1431
 2218ntf    on512206   2.358   3.097   4.809 -0.1020  0.3065  0.2081
 2218ntf    on512207   2.466   3.034   4.601 -0.4184  0.1383  0.1889
 2218ntf    fn412208   2.646   3.178   4.814 -0.0399  0.0562 -0.8673
 2218ntf    fn412209   2.618   3.002   4.940 -0.0655  0.2093  0.0015
 2218ntf    fn412210   2.707   2.983   4.752  0.0435 -0.0103  0.3164
 2219ntf    cn112211   2.482   5.741   3.560  0.0518 -0.1247 -0.1074
 2219ntf    sn212212   2.532   5.834   3.412  0.3768 -0.0896  0.0238
 2219ntf    nn312213   2.660   5.910   3.461  0.3617 -0.0526  0.0072
 2219ntf    sn212214   2.704   6.061   3.461 -0.1391  0.0935 -0.1663
 2219ntf    cn112215   2.727   6.102   3.286  0.4330  0.0703 -0.0968
 2219ntf    fn412216   2.385   5.654   3.536 -0.1080  0.1317 -0.3979
 2219ntf    fn412217   2.579   5.674   3.620 -0.3550 -0.2232  0.4537
 2219ntf    fn412218   2.441   5.826   3.653 -0.0949 -0.3759  0.0597
 2219ntf    on512219   2.569   5.732   3.316 -0.6304 -0.5728  0.1360
 2219ntf    on512220   2.418   5.919   3.389 -0.2827 -1.0168 -0.1901
 2219ntf    on512221   2.833   6.080   3.522 -0.0934 -0.2650 -0.1487
 2219ntf    on512222   2.600   6.150   3.506  0.5911  0.4336  0.8970
 2219ntf    fn412223   2.610   6.140   3.238  0.4282  0.3294  0.1251
 2219ntf    fn412224   2.803   6.209   3.269 -0.0627  0.4026 -0.2304
 2219ntf    fn412225   2.777   6.008   3.207 -0.1141 -0.2705 -0.0412
 2220ntf    cn112226   1.596   0.945   4.750 -0.0236 -0.1203  0.2615
 2220ntf    sn212227   1.633   1.007   4.917 -0.2959 -0.0836  0.3088
 2220ntf    nn312228   1.493   0.986   4.984 -0.3871 -0.6238 -0.0520
 2220ntf    sn212229   1.369   1.082   4.994  0.2970  0.2503  0.1376
 2220ntf    cn112230   1.231   0.969   4.957  0.3367  0.1645  0.2519
 2220ntf    fn412231   1.498   1.017   4.698 -0.3769 -0.3983  0.5397
 2220ntf    fn412232   1.697   0.955   4.664 -0.5547  0.4648 -0.3022
 2220ntf    fn412233   1.565   0.817   4.745 -0.9566  0.0815  0.7304
 2220ntf    on512234   1.734   0.918   4.969 -0.4274  0.1365  0.9439
 2220ntf    on512235   1.673   1.145   4.903  0.1217 -0.1998  0.3408
 2220ntf    on512236   1.348   1.185   4.895 -0.1715  0.1343  0.1166
 2220ntf    on512237   1.338   1.113   5.131  0.7714  0.4456  0.2030
 2220ntf    fn412238   1.126   1.048   4.945  0.6179  0.4631 -0.2773
 2220ntf    fn412239   1.241   0.909   4.839 -0.2317  0.0601  0.2568
 2220ntf    fn412240   1.225   0.872   5.046  0.0126 -0.2612 -0.2264
 2221ntf    cn112241   1.872   5.515   2.945 -0.0033  0.0547 -0.0612
 2221ntf    sn212242   1.820   5.349   2.893  0.2179 -0.1470  0.3539
 2221ntf    nn312243   1.869   5.255   3.008  0.0046 -0.0831  0.4964
 2221ntf    sn212244   1.966   5.131   3.006  0.0377 -0.0504 -0.0679
 2221ntf    cn112245   1.856   4.991   2.970  0.1913 -0.2090  0.0766
 2221ntf    fn412246   2.004   5.525   2.944  0.0188 -0.1411  0.5293
 2221ntf    fn412247   1.811   5.602   2.866  0.0265 -0.1057 -0.2619
 2221ntf    fn412248   1.835   5.539   3.070 -0.4902 -0.2184 -0.1507
 2221ntf    on512249   1.677   5.342   2.910  0.1284  0.5684 -0.0539
 2221ntf    on512250   1.873   5.328   2.760  0.2182 -0.2977  0.3783
 2221ntf    on512251   1.998   5.112   3.145  0.6049  0.1896 -0.1656
 2221ntf    on512252   2.078   5.133   2.916 -0.0734  0.8226 -0.2008
 2221ntf    fn412253   1.789   4.947   3.075  0.3021 -0.4909  0.0307
 2221ntf    fn412254   1.773   5.013   2.869 -0.0747  0.3135  0.4056
 2221ntf    fn412255   1.926   4.888   2.924  0.2361 -0.0569 -0.1964
 2222ntf    cn112256   1.083   4.397   5.264  0.0324  0.2461  0.0516
 2222ntf    sn212257   1.009   4.483   5.122 -0.1306  0.2712  0.1526
 2222ntf    nn312258   1.097   4.426   5.005 -0.7058 -0.2302 -0.0450
 2222ntf    sn212259   1.130   4.277   4.967  0.3308  0.0651 -0.3261
 2222ntf    cn112260   0.994   4.238   4.853 -0.0363 -0.1181  0.1704
 2222ntf    fn412261   1.201   4.344   5.235 -0.2177  0.0250 -0.5807
 2222ntf    fn412262   1.107   4.477   5.365  0.1848 -0.4697  0.5925
 2222ntf    fn412263   1.009   4.294   5.303  0.8109 -0.5056 -0.4178
 2222ntf    on512264   0.871   4.442   5.126 -0.1368  0.2963  0.1873
 2222ntf    on512265   1.042   4.620   5.153  0.4380  0.2785 -0.4593
 2222ntf    on512266   1.114   4.190   5.080 -0.0509  0.1279 -0.3313
 2222ntf    on512267   1.251   4.267   4.888  0.3019 -0.3130 -0.3221
 2222ntf    fn412268   0.987   4.317   4.746 -0.5713 -0.0512  0.2521
 2222ntf    fn412269   1.005   4.115   4.805 -0.0125 -0.0522  0.0042
 2222ntf    fn412270   0.886   4.243   4.928  0.1652 -0.1594  0.4652
 2223ntf    cn112271   5.200   3.450   2.550 -0.4488 -0.1203 -0.2644
 2223ntf    sn212272   5.073   3.322   2.575 -0.1866 -0.3791 -0.2417
 2223ntf    nn312273   5.160   3.193   2.594 -0.1040 -0.2660  0.1670
 2223ntf    sn212274   5.151   3.062   2.508 -0.0880 -0.2069  0.0752
 2223ntf    cn112275   5.236   2.948   2.622  0.2104 -0.0774 -0.0156
 2223ntf    fn412276   5.169   3.572   2.592  0.2933  0.0028 -0.0658
 2223ntf    fn412277   5.305   3.419   2.624 -0.9088 -0.6897  0.1698
 2223ntf    fn412278   5.240   3.466   2.425 -0.1589  0.4608 -0.1002
 2223ntf    on512279   5.006   3.360   2.697 -0.3564  0.5930 -0.6253
 2223ntf    on512280   4.990   3.311   2.458 -0.0061 -0.4314 -0.3646
 2223ntf    on512281   5.238   3.063   2.392  0.4280 -0.2354  0.4594
 2223ntf    on512282   5.015   3.018   2.494 -0.1897  0.0536  0.2469
 2223ntf    fn412283   5.362   2.985   2.636  0.2347 -0.3662  0.5557
 2223ntf    fn412284   5.184   2.946   2.743  0.3853 -0.7523  0.0512
 2223ntf    fn412285   5.232   2.822   2.584 -0.0149 -0.0947  0.0640
 2224ntf    cn112286   0.196   5.088   2.472 -0.1928 -0.0223  0.0646
 2224ntf    sn212287   0.023   5.049   2.507 -0.2404  0.1501  0.0231
 2224ntf    nn312288  -0.028   5.184   2.569 -0.6058 -0.0069  0.0684
 2224ntf    sn212289  -0.094   5.311   2.503 -0.0860  0.1872 -0.0793
 2224ntf    cn112290  -0.235   5.323   2.617 -0.2315 -0.2885 -0.2045
 2224ntf    fn412291   0.253   4.974   2.436 -0.2849  0.1987 -0.8008
 2224ntf    fn412292   0.217   5.170   2.370 -0.1868  0.1673  0.2164
 2224ntf    fn412293   0.262   5.140   2.575 -0.7204 -0.0980  0.4433
 2224ntf    on512294  -0.034   5.006   2.382  0.1337 -0.7054  0.1429
 2224ntf    on512295   0.031   4.939   2.599 -0.0822  0.0198 -0.1470
 2224ntf    on512296  -0.154   5.284   2.374 -0.3022  0.5059 -0.0438
 2224ntf    on512297  -0.023   5.436   2.513 -0.6295  0.4898  0.0415
 2224ntf    fn412298  -0.349   5.361   2.562 -0.3498 -0.8569 -0.3505
 2224ntf    fn412299  -0.262   5.205   2.669 -0.0434 -0.0259  0.5036
 2224ntf    fn412300  -0.217   5.397   2.725  0.3792 -0.3299 -0.2746
 2225ntf    cn112301   6.725   5.400   0.981  0.0710 -0.6275  0.1773
 2225ntf    sn212302   6.553   5.412   0.924  0.0779  0.1160  0.3038
 2225ntf    nn312303   6.510   5.263   0.900  0.0611  0.1048  0.4024
 2225ntf    sn212304   6.424   5.170   0.992 -0.0851 -0.5045 -0.3432
 2225ntf    cn112305   6.535   5.026   1.007  0.3636 -0.1684 -0.4187
 2225ntf    fn412306   6.779   5.294   0.922 -0.0607 -0.6241  0.0501
 2225ntf    fn412307   6.802   5.507   0.965 -0.5053 -0.2917 -0.3768
 2225ntf    fn412308   6.727   5.380   1.112  0.5154  0.6026  0.3716
 2225ntf    on512309   6.490   5.486   1.031 -0.1687  0.6129 -0.1815
 2225ntf    on512310   6.578   5.487   0.803 -0.7225 -0.0317  0.0441
 2225ntf    on512311   6.308   5.109   0.931 -0.4160 -0.5429  0.3056
 2225ntf    on512312   6.394   5.201   1.130  0.3280 -0.2679 -0.3058
 2225ntf    fn412313   6.486   4.921   1.070  0.1297  0.4693  0.4910
 2225ntf    fn412314   6.568   4.983   0.887  0.3029 -0.0772 -0.4685
 2225ntf    fn412315   6.647   5.061   1.068 -0.2116  0.1715  0.4843
 2226ntf    cn112316   6.816   7.004   6.249 -0.2175  0.2259 -0.4245
 2226ntf    sn212317   6.908   7.150   6.306 -0.1531  0.0413 -0.0601
 2226ntf    nn312318   6.800   7.223   6.393  0.2988  0.5017  0.1217
 2226ntf    sn212319   6.686   7.318   6.342  0.1599  0.0437 -0.4282
 2226ntf    cn112320   6.768   7.480   6.347 -0.3058  0.2584  0.6223
 2226ntf    fn412321   6.793   6.921   6.349  0.4670 -0.0780 -0.5098
 2226ntf    fn412322   6.700   7.028   6.191 -0.5105 -0.5007 -0.1456
 2226ntf    fn412323   6.898   6.936   6.170  0.1798 -0.0945  0.2587
 2226ntf    on512324   7.015   7.091   6.384 -0.5351  0.5750  0.8760
 2226ntf    on512325   6.951   7.211   6.183 -0.3015 -0.0794 -0.1711
 2226ntf    on512326   6.576   7.326   6.435  0.2247 -0.2589 -0.3253
 2226ntf    on512327   6.657   7.301   6.202 -0.4943 -1.0691 -0.1686
 2226ntf    fn412328   6.786   7.519   6.472  0.9263  0.1391  0.5020
 2226ntf    fn412329   6.885   7.472   6.284 -0.2300 -0.7214  0.8609
 2226ntf    fn412330   6.703   7.579   6.289 -0.0752 -0.0006 -0.0932
 2227ntf    cn112331   4.569   4.238   0.540 -0.1842  0.0075 -0.0941
 2227ntf    sn212332   4.609   4.409   0.492 -0.2141 -0.0235 -0.2254
 2227ntf    nn312333   4.722   4.439   0.597 -0.7426  0.2701  0.2612
 2227ntf    sn212334   4.726   4.531   0.725 -0.0571  0.6274 -0.0090
 2227ntf    cn112335   4.757   4.689   0.641 -0.2709  0.6232 -0.0962
 2227ntf    fn412336   4.488   4.239   0.645  0.3487  0.1660  0.3208
 2227ntf    fn412337   4.508   4.175   0.442  0.1028 -0.0008 -0.2683
 2227ntf    fn412338   4.680   4.172   0.567 -0.4913 -0.3347  0.3457
 2227ntf    on512339   4.646   4.403   0.352 -0.0421 -0.1911 -0.1743
 2227ntf    on512340   4.487   4.477   0.526 -0.2654 -0.2099 -0.0360
 2227ntf    on512341   4.846   4.501   0.798  0.4571  0.1088 -1.0335
 2227ntf    on512342   4.597   4.538   0.789  0.1033 -0.2618  0.4257
 2227ntf    fn412343   4.882   4.712   0.606 -0.1356 -0.3643 -0.2857
 2227ntf    fn412344   4.683   4.708   0.533 -0.6127 -0.4077 -0.0590
 2227ntf    fn412345   4.747   4.796   0.717 -0.3946  0.4493  0.1345
 2228ntf    cn112346   6.879   2.475   1.563 -0.0770 -0.0982 -0.0262
 2228ntf    sn212347   6.741   2.360   1.591 -0.0404 -0.1086  0.1108
 2228ntf    nn312348   6.727   2.303   1.445 -0.3015 -0.6227  0.3354
 2228ntf    sn212349   6.620   2.329   1.333  0.2937  0.2540 -0.0412
 2228ntf    cn112350   6.497   2.200   1.368  0.2979  0.1468 -0.4241
 2228ntf    fn412351   6.841   2.585   1.501  0.0386 -0.0286  0.0262
 2228ntf    fn412352   6.941   2.503   1.676 -0.1117  0.3604 -0.1196
 2228ntf    fn412353   6.972   2.417   1.488  0.4408  0.0601  0.4919
 2228ntf    on512354   6.792   2.263   1.684 -0.3371 -0.5628 -0.1961
 2228ntf    on512355   6.636   2.445   1.641 -0.4911 -0.3887 -0.3456
 2228ntf    on512356   6.664   2.284   1.204 -0.3398 -0.4123 -0.0329
 2228ntf    on512357   6.540   2.449   1.335  0.0418  0.0815  0.3481
 2228ntf    fn412358   6.509   2.089   1.296  0.4881 -0.3118  0.3059
 2228ntf    fn412359   6.500   2.168   1.496 -0.1510  0.3560 -0.3576
 2228ntf    fn412360   6.375   2.245   1.344  0.0307  0.0582  0.6983
 2229ntf    cn112361   1.666   3.621   4.670  0.4706 -0.4706 -0.0211
 2229ntf    sn212362   1.675   3.608   4.851 -0.1709  0.2057  0.0648
 2229ntf    nn312363   1.563   3.713   4.886 -0.1517  0.0368  0.6517
 2229ntf    sn212364   1.415   3.670   4.916 -0.0954 -0.4901  0.1901
 2229ntf    cn112365   1.348   3.824   4.985  0.0941 -0.2431 -0.1748
 2229ntf    fn412366   1.726   3.733   4.632  0.1107 -0.2659  0.0065
 2229ntf    fn412367   1.732   3.523   4.610 -0.3733 -0.7678 -0.4815
 2229ntf    fn412368   1.540   3.629   4.631  0.4561  0.4857  0.2064
 2229ntf    on512369   1.648   3.467   4.870  1.8663 -0.2491 -0.2435
 2229ntf    on512370   1.802   3.664   4.889 -0.4634  0.2304  1.0476
 2229ntf    on512371   1.395   3.569   5.017 -0.5418  0.3130  0.9181
 2229ntf    on512372   1.337   3.645   4.797 -0.7288 -0.3421  0.5675
 2229ntf    fn412373   1.388   3.929   4.915 -0.0888  0.0269  0.1218
 2229ntf    fn412374   1.216   3.814   4.982  0.0955 -0.2878 -0.0775
 2229ntf    fn412375   1.384   3.840   5.111 -0.5359  0.3597 -0.0643
 2230ntf    cn112376   4.237   6.477   1.930  0.2357  0.0460 -0.2557
 2230ntf    sn212377   4.194   6.649   1.968  0.1655 -0.0948  0.3138
 2230ntf    nn312378   4.335   6.717   1.965 -0.0212  0.2849 -0.0402
 2230ntf    sn212379   4.400   6.789   1.841  0.1799 -0.0444 -0.1250
 2230ntf    cn112380   4.572   6.730   1.853  0.0707 -0.4071 -0.3076
 2230ntf    fn412381   4.135   6.395   1.952  0.1862  0.2589  0.3040
 2230ntf    fn412382   4.269   6.467   1.802  0.9381  0.3881 -0.1143
 2230ntf    fn412383   4.346   6.429   1.989 -0.0125 -0.1602  0.0397
 2230ntf    on512384   4.105   6.683   1.860  0.1719 -0.5872  0.1516
 2230ntf    on512385   4.142   6.631   2.101  0.4560  0.4269  0.5028
 2230ntf    on512386   4.419   6.929   1.868  0.4118 -0.1037  0.0262
 2230ntf    on512387   4.355   6.759   1.708  0.0059 -0.0103 -0.0745
 2230ntf    fn412388   4.590   6.602   1.825 -0.2680 -0.4064 -0.5339
 2230ntf    fn412389   4.636   6.795   1.758  0.1386  0.1295  0.1006
 2230ntf    fn412390   4.618   6.754   1.975 -0.5927  0.2179 -0.1728
 2231ntf    cn112391   0.737   5.408   4.992 -0.0132  0.2935  0.1274
 2231ntf    sn212392   0.778   5.553   4.890  0.0855  0.1813  0.0083
 2231ntf    nn312393   0.922   5.586   4.945 -0.0799 -0.3038  0.7597
 2231ntf    sn212394   0.967   5.695   5.047 -0.1872  0.0648  0.4180
 2231ntf    cn112395   0.985   5.833   4.930  0.0473  0.1710  0.5764
 2231ntf    fn412396   0.614   5.368   4.962 -0.0384  0.2787  0.2476
 2231ntf    fn412397   0.816   5.305   4.966 -0.8235 -0.4022  0.3728
 2231ntf    fn412398   0.731   5.416   5.124  0.3140 -0.6041  0.2020
 2231ntf    on512399   0.780   5.491   4.760  0.0694  0.0606  0.0646
 2231ntf    on512400   0.671   5.644   4.919 -0.0510 -0.0595  0.2668
 2231ntf    on512401   1.102   5.680   5.096  0.0625  0.3970 -0.1649
 2231ntf    on512402   0.864   5.717   5.145 -0.6419 -0.6466  0.0968
 2231ntf    fn412403   1.096   5.834   4.858 -0.5119  0.1622 -0.3046
 2231ntf    fn412404   0.877   5.836   4.854  0.4652  0.3956 -0.0137
 2231ntf    fn412405   0.982   5.953   4.986 -0.1750  0.4461 -0.0182
 2232ntf    cn112406   5.899   3.821   3.883 -0.2235  0.2017  0.3153
 2232ntf    sn212407   5.732   3.871   3.829 -0.1073 -0.0081 -0.2457
 2232ntf    nn312408   5.646   3.838   3.957  0.0112 -0.3327 -0.2489
 2232ntf    sn212409   5.589   3.934   4.067  0.1536 -0.2925 -0.2095
 2232ntf    cn112410   5.445   3.839   4.125  0.0035  0.5780  0.8772
 2232ntf    fn412411   5.926   3.699   3.841 -0.8700  0.0678  0.2711
 2232ntf    fn412412   5.997   3.903   3.849 -0.1691  0.0464  0.0974
 2232ntf    fn412413   5.895   3.820   4.015 -0.3658  0.4374  0.3132
 2232ntf    on512414   5.741   4.012   3.800 -0.6954  0.1980  0.5228
 2232ntf    on512415   5.708   3.774   3.725  0.4094 -0.5577  0.1397
 2232ntf    on512416   5.530   4.060   4.031 -0.2119 -0.3984  0.0149
 2232ntf    on512417   5.659   3.921   4.192 -0.1937  0.6897  0.0939
 2232ntf    fn412418   5.331   3.886   4.077 -0.0778 -0.3572  0.1071
 2232ntf    fn412419   5.440   3.713   4.085  0.2484  0.7366  0.3350
 2232ntf    fn412420   5.443   3.840   4.257  0.4212 -0.2854  0.8939
 2233ntf    cn112421   5.035   5.488   5.200 -0.4275  0.3952 -0.0665
 2233ntf    sn212422   4.915   5.601   5.278 -0.2134  0.3566  0.3220
 2233ntf    nn312423   4.994   5.708   5.360 -0.0285  0.3421  0.1630
 2233ntf    sn212424   5.050   5.851   5.324 -0.0604  0.2995 -0.0572
 2233ntf    cn112425   4.912   5.962   5.363 -0.1458  0.1718  0.0043
 2233ntf    fn412426   5.135   5.446   5.276 -0.5852  0.5761  0.2439
 2233ntf    fn412427   4.971   5.385   5.146  0.2337 -0.3455  0.5307
 2233ntf    fn412428   5.106   5.538   5.101 -0.1282 -0.5958 -0.3662
 2233ntf    on512429   4.834   5.655   5.172  0.3026  0.2774 -0.1179
 2233ntf    on512430   4.840   5.511   5.362  0.0485 -0.2302 -0.0629
 2233ntf    on512431   5.071   5.870   5.183  0.0405 -0.2784 -0.1234
 2233ntf    on512432   5.159   5.887   5.411 -0.1501 -0.5865  0.4317
 2233ntf    fn412433   4.804   5.953   5.287  0.1596  0.8890 -0.5213
 2233ntf    fn412434   4.874   5.944   5.489  0.4311  0.3853  0.2125
 2233ntf    fn412435   4.959   6.085   5.355  0.4181  0.0016  0.6515
 2234ntf    cn112436   5.616   0.409   6.579 -0.1879 -0.3384  0.2665
 2234ntf    sn212437   5.762   0.319   6.519  0.0601  0.1724  0.0989
 2234ntf    nn312438   5.756   0.363   6.368  0.0909  0.1976  0.1046
 2234ntf    sn212439   5.721   0.276   6.243 -0.1320  0.3007  0.0950
 2234ntf    cn112440   5.884   0.203   6.209 -0.1482  0.2963  0.0279
 2234ntf    fn412441   5.650   0.521   6.642 -0.6267 -0.0562  0.0048
 2234ntf    fn412442   5.525   0.437   6.487 -0.0628  0.4480  0.3683
 2234ntf    fn412443   5.550   0.333   6.664 -0.0977 -0.1700  0.4889
 2234ntf    on512444   5.864   0.391   6.591  0.2716 -0.0767  0.0512
 2234ntf    on512445   5.746   0.182   6.559 -0.1925  0.0549 -0.3895
 2234ntf    on512446   5.706   0.364   6.130 -0.2368  0.0435 -0.0934
 2234ntf    on512447   5.624   0.173   6.272  0.6504 -0.6766 -0.6892
 2234ntf    fn412448   5.991   0.278   6.232  0.2433 -0.1751 -0.2241
 2234ntf    fn412449   5.914   0.093   6.275  0.7711  0.3482 -0.2894
 2234ntf    fn412450   5.895   0.177   6.080  0.1560  0.3466  0.0429
 2235ntf    cn112451   1.848   4.442   0.611 -0.1149  0.4158  0.1783
 2235ntf    sn212452   1.925   4.325   0.496 -0.4506  0.2820  0.0874
 2235ntf    nn312453   1.857   4.193   0.545 -0.4530  0.2437 -0.0201
 2235ntf    sn212454   1.778   4.077   0.474  0.1484 -0.2773  0.1538
 2235ntf    cn112455   1.918   3.992   0.395  0.1011 -0.0960 -0.1282
 2235ntf    fn412456   1.860   4.417   0.740  0.1910  0.0398  0.0758
 2235ntf    fn412457   1.887   4.569   0.613 -0.0948  0.4058  0.6170
 2235ntf    fn412458   1.719   4.437   0.581 -0.0970 -0.3066  0.2128
 2235ntf    on512459   1.897   4.380   0.366 -0.2009  0.3222  0.0490
 2235ntf    on512460   2.064   4.322   0.538 -0.3689  0.2954 -0.1815
 2235ntf    on512461   1.699   4.117   0.360  0.1127 -0.2128  0.2010
 2235ntf    on512462   1.716   3.977   0.558 -0.2634  0.3980  0.6643
 2235ntf    fn412463   1.996   3.935   0.486  0.0073  0.0455  0.0411
 2235ntf    fn412464   1.877   3.900   0.309 -0.4685 -0.2580  0.3090
 2235ntf    fn412465   1.984   4.080   0.322  0.0606  0.1815  0.1694
 2236ntf    cn112466   2.946   6.609   6.465 -0.4204 -0.0571  0.2512
 2236ntf    sn212467   2.820   6.721   6.397 -0.1145 -0.0035 -0.2275
 2236ntf    nn312468   2.841   6.840   6.498 -0.1238  0.2615 -0.5341
 2236ntf    sn212469   2.739   6.959   6.508  0.0358  0.3584 -0.0169
 2236ntf    cn112470   2.852   7.102   6.502  0.5331 -0.0190  0.3213
 2236ntf    fn412471   2.904   6.570   6.584 -0.2329  0.2101  0.4051
 2236ntf    fn412472   2.952   6.493   6.400  0.1912  0.1981 -0.1530
 2236ntf    fn412473   3.068   6.658   6.470 -0.6881  0.6305  0.0833
 2236ntf    on512474   2.877   6.731   6.264  0.5838  0.0246  0.0684
 2236ntf    on512475   2.700   6.643   6.412 -0.2509  0.2403 -0.0440
 2236ntf    on512476   2.683   6.979   6.639  0.4448  0.3238  0.1634
 2236ntf    on512477   2.643   6.971   6.401 -0.5449  0.4073  0.5093
 2236ntf    fn412478   2.801   7.223   6.494  0.3703 -0.1231 -0.2045
 2236ntf    fn412479   2.932   7.104   6.608  0.8973  0.2732  0.0434
 2236ntf    fn412480   2.932   7.095   6.397 -0.0438 -0.5850 -0.0840
 2237ntf    cn112481   3.140   0.322   6.340  0.1649 -0.0880 -0.0023
 2237ntf    sn212482   3.251   0.180   6.313  0.3669  0.0772 -0.0462
 2237ntf    nn312483   3.376   0.258   6.259  0.1905  0.2485 -0.2094
 2237ntf    sn212484   3.521   0.218   6.305  0.1205  0.2844  0.0437
 2237ntf    cn112485   3.526   0.040   6.270 -0.1987  0.2706  0.0657
 2237ntf    fn412486   3.017   0.278   6.358  0.0368  0.3070  0.0884
 2237ntf    fn412487   3.157   0.393   6.450 -0.0190  0.2054 -0.1622
 2237ntf    fn412488   3.129   0.410   6.242  0.0976 -0.1578 -0.0575
 2237ntf    on512489   3.260   0.131   6.449 -0.4814  0.3368  0.1146
 2237ntf    on512490   3.197   0.104   6.203 -0.3417 -0.0658  0.3941
 2237ntf    on512491   3.547   0.234   6.445  0.3706 -0.3114  0.0682
 2237ntf    on512492   3.616   0.280   6.215  0.5771 -0.1700  0.2133
 2237ntf    fn412493   3.653   0.006   6.284 -0.2219  0.0714 -0.2066
 2237ntf    fn412494   3.456  -0.025   6.362  0.0165 -0.1052 -0.0355
 2237ntf    fn412495   3.492   0.011   6.146 -0.3094 -0.6764  0.3064
 2238ntf    cn112496   2.153   5.482   6.338 -0.1922 -0.2545 -0.3441
 2238ntf    sn212497   1.983   5.497   6.278 -0.0319  0.1122 -0.7052
 2238ntf    nn312498   1.980   5.370   6.186  0.1245 -0.2978 -0.1495
 2238ntf    sn212499   1.960   5.220   6.225 -0.2793 -0.2149 -0.0272
 2238ntf    cn112500   1.791   5.186   6.167 -0.1967 -0.0869 -0.3446
 2238ntf    fn412501   2.249   5.512   6.252  0.3848 -0.2593  0.2876
 2238ntf    fn412502   2.184   5.553   6.445  0.2049 -0.1644 -0.5161
 2238ntf    fn412503   2.183   5.359   6.379  0.1225 -0.1384 -0.2248
 2238ntf    on512504   1.916   5.496   6.405 -0.8313  0.1736 -1.1159
 2238ntf    on512505   1.989   5.617   6.197  0.6164  0.1600 -0.5939
 2238ntf    on512506   1.946   5.198   6.367 -0.1806 -0.5408 -0.0652
 2238ntf    on512507   2.049   5.129   6.156 -0.2462 -0.9093  0.9078
 2238ntf    fn412508   1.757   5.274   6.075  0.7060  0.4743 -0.1583
 2238ntf    fn412509   1.781   5.062   6.124  0.0894 -0.3876  0.4371
 2238ntf    fn412510   1.701   5.204   6.262 -0.4536  0.0337 -0.6102
 2239ntf    cn112511   4.533   5.911   5.883  0.2783  0.3409 -0.0299
 2239ntf    sn212512   4.401   6.021   5.824  0.0025  0.0277  0.0055
 2239ntf    nn312513   4.450   6.163   5.868  0.1033 -0.1048  0.3219
 2239ntf    sn212514   4.444   6.225   6.012  0.1479  0.0585  0.2534
 2239ntf    cn112515   4.621   6.231   6.052  0.1839  0.1868  0.0726
 2239ntf    fn412516   4.505   5.784   5.859  0.0253  0.2867  0.5409
 2239ntf    fn412517   4.647   5.936   5.820  0.5701 -0.1579  0.3004
 2239ntf    fn412518   4.549   5.914   6.014  0.1402  1.1132 -0.0257
 2239ntf    on512519   4.402   6.018   5.680  0.4189  0.2463  0.0044
 2239ntf    on512520   4.280   5.972   5.885 -0.1048 -0.2410 -0.4178
 2239ntf    on512521   4.392   6.139   6.115 -0.0871 -0.5422 -0.3573
 2239ntf    on512522   4.398   6.362   6.004  1.0147  0.3142 -0.6143
 2239ntf    fn412523   4.684   6.312   5.968  0.4797 -0.5048 -0.3827
 2239ntf    fn412524   4.648   6.286   6.169 -0.0353  0.4913 -0.0198
 2239ntf    fn412525   4.680   6.113   6.045 -0.1038  0.0563 -0.1834
 2240ntf    cn112526   1.415   6.544   3.181  0.0949 -0.0448 -0.0744
 2240ntf    sn212527   1.505   6.571   3.336 -0.0819 -0.1278  0.0438
 2240ntf    nn312528   1.406   6.665   3.413  0.5467  0.8190 -0.2843
 2240ntf    sn212529   1.277   6.620   3.491  0.7853  0.1835 -0.2547
 2240ntf    cn112530   1.300   6.709   3.648 -0.1528  0.3200 -0.1905
 2240ntf    fn412531   1.470   6.481   3.078 -0.2522  0.5885 -0.6526
 2240ntf    fn412532   1.299   6.487   3.210 -0.0317 -0.0257 -0.5273
 2240ntf    fn412533   1.376   6.658   3.126  0.4979  0.2412  0.2228
 2240ntf    on512534   1.525   6.435   3.378  0.4877 -0.1134 -0.1660
 2240ntf    on512535   1.622   6.644   3.293 -0.7447  1.0497  0.1988
 2240ntf    on512536   1.265   6.478   3.516 -0.0550  0.2925 -0.0209
 2240ntf    on512537   1.157   6.685   3.447  0.2384 -0.3267  0.4637
 2240ntf    fn412538   1.283   6.840   3.644 -0.1270  0.3261 -0.1146
 2240ntf    fn412539   1.206   6.669   3.732  0.0047 -0.2974 -0.3037
 2240ntf    fn412540   1.418   6.684   3.702 -0.1171  0.3620 -0.2488
 2241ntf    cn112541   3.944   4.852   3.257  0.0081  0.0762  0.5144
 2241ntf    sn212542   3.888   4.706   3.163  0.1532  0.2353  0.1809
 2241ntf    nn312543   3.740   4.749   3.138  0.1201  0.4303  0.6892
 2241ntf    sn212544   3.613   4.752   3.231 -0.3365  0.0255  0.0903
 2241ntf    cn112545   3.509   4.620   3.161  0.1937 -0.0848 -0.5024
 2241ntf    fn412546   3.855   4.888   3.349 -0.1431 -0.1902  0.4762
 2241ntf    fn412547   4.053   4.814   3.321 -0.0247 -0.0915  0.4717
 2241ntf    fn412548   3.975   4.959   3.186 -0.0401 -0.1301  0.1838
 2241ntf    on512549   3.977   4.716   3.050 -0.0429  0.4983  0.0497
 2241ntf    on512550   3.905   4.597   3.257  0.2429  0.4275  0.3902
 2241ntf    on512551   3.542   4.877   3.220 -0.2589  0.0597 -0.0261
 2241ntf    on512552   3.650   4.719   3.367 -0.8704  0.0203  0.2379
 2241ntf    fn412553   3.430   4.661   3.063  0.0835 -0.4800 -0.5787
 2241ntf    fn412554   3.586   4.525   3.112  0.3083 -0.1521 -0.1956
 2241ntf    fn412555   3.448   4.571   3.268  0.0730  0.7117 -0.1970
 2242ntf    cn112556   0.534   5.036   5.083  0.4039  0.0181 -0.1562
 2242ntf    sn212557   0.600   4.998   5.248  0.3701  0.3124 -0.0741
 2242ntf    nn312558   0.478   5.011   5.347  0.2474  0.1600 -0.2043
 2242ntf    sn212559   0.385   4.894   5.396  0.5310  0.0014 -0.0441
 2242ntf    cn112560   0.455   4.872   5.562  0.0602  0.3978  0.2074
 2242ntf    fn412561   0.440   4.949   5.049 -0.0836  0.5662 -0.2504
 2242ntf    fn412562   0.477   5.156   5.082 -0.1133 -0.2260 -0.7219
 2242ntf    fn412563   0.633   5.035   4.995  0.0558  0.6035 -0.5678
 2242ntf    on512564   0.667   4.871   5.239 -0.2597 -0.0053 -0.3579
 2242ntf    on512565   0.687   5.110   5.271  0.5636  0.2154 -0.3363
 2242ntf    on512566   0.408   4.770   5.327 -0.0534 -0.0943 -0.0693
 2242ntf    on512567   0.250   4.940   5.411  0.3278 -0.4284 -0.5201
 2242ntf    fn412568   0.414   4.974   5.636  0.1943  0.5418  0.0836
 2242ntf    fn412569   0.413   4.758   5.615 -0.0120  0.3287  0.0015
 2242ntf    fn412570   0.587   4.872   5.559  0.0558  0.1180 -0.0111
 2243ntf    cn112571   0.784   1.254   5.427  0.2233  0.1924  0.1179
 2243ntf    sn212572   0.918   1.234   5.548  0.3581  0.1069 -0.0436
 2243ntf    nn312573   0.879   1.097   5.613 -0.2126  0.1169 -0.3587
 2243ntf    sn212574   0.942   0.954   5.596  0.2359  0.2657  0.0215
 2243ntf    cn112575   0.879   0.898   5.435 -0.0899  0.3697  0.1128
 2243ntf    fn412576   0.664   1.247   5.481  0.1030 -0.1788 -0.1938
 2243ntf    fn412577   0.785   1.373   5.368  0.5621  0.3991  0.5356
 2243ntf    fn412578   0.778   1.171   5.324 -0.1194  0.4030 -0.0319
 2243ntf    on512579   1.035   1.237   5.464  0.5392  0.7606  0.2239
 2243ntf    on512580   0.896   1.354   5.625  0.8766  0.6902 -0.7891
 2243ntf    on512581   0.880   0.861   5.686 -0.1513 -0.0285 -0.5419
 2243ntf    on512582   1.085   0.943   5.585  0.1494 -0.3267 -0.5865
 2243ntf    fn412583   0.747   0.904   5.442 -0.1024  0.8224 -0.4253
 2243ntf    fn412584   0.904   0.991   5.344  0.2174 -0.2564 -0.4558
 2243ntf    fn412585   0.915   0.781   5.384 -0.1487  0.4254 -0.0573
 2244ntf    cn112586   5.594   1.528   4.609 -0.1058  0.1360 -0.3983
 2244ntf    sn212587   5.483   1.406   4.533  0.0408 -0.1097 -0.2191
 2244ntf    nn312588   5.351   1.435   4.614  0.6635  0.8144  0.4888
 2244ntf    sn212589   5.286   1.366   4.739  0.1571  0.2977 -0.0496
 2244ntf    cn112590   5.223   1.510   4.830 -0.0590  0.0314  0.2209
 2244ntf    fn412591   5.572   1.548   4.738 -0.0055 -0.2901 -0.3128
 2244ntf    fn412592   5.722   1.499   4.592 -0.0249  0.2866 -0.0484
 2244ntf    fn412593   5.568   1.646   4.554 -0.3342  0.1900 -0.1776
 2244ntf    on512594   5.469   1.450   4.397 -0.4791  0.1402 -0.0856
 2244ntf    on512595   5.550   1.281   4.560 -0.3530 -0.1838  0.4485
 2244ntf    on512596   5.379   1.298   4.826 -0.2872 -0.2953 -0.0351
 2244ntf    on512597   5.170   1.287   4.709  0.3684 -0.0580  0.0506
 2244ntf    fn412598   5.111   1.563   4.782  0.0686  0.3389  0.2604
 2244ntf    fn412599   5.203   1.478   4.957 -0.0180 -0.5899  0.0736
 2244ntf    fn412600   5.308   1.610   4.827 -0.3719  0.2801 -0.5261
 2245ntf    cn112601   3.596   5.805   4.706 -0.2355  0.1350 -0.1155
 2245ntf    sn212602   3.549   5.718   4.553 -0.4315 -0.2569  0.1664
 2245ntf    nn312603   3.504   5.845   4.472  0.2733  0.1310  0.3719
 2245ntf    sn212604   3.407   5.853   4.349  0.5997  0.2940  0.1245
 2245ntf    cn112605   3.522   5.870   4.208  0.0136  0.3702 -0.3469
 2245ntf    fn412606   3.591   5.725   4.810 -0.2092  0.1966 -0.0667
 2245ntf    fn412607   3.711   5.871   4.698 -0.5496  0.7024  0.0516
 2245ntf    fn412608   3.504   5.896   4.733 -0.2504 -0.0142  0.3447
 2245ntf    on512609   3.661   5.642   4.503 -0.5117 -0.0822 -0.2825
 2245ntf    on512610   3.445   5.631   4.601 -0.6986  0.0821  0.1999
 2245ntf    on512611   3.338   5.980   4.344 -0.5217 -0.3292 -0.5754
 2245ntf    on512612   3.337   5.735   4.305  0.1069  0.5699  0.1639
 2245ntf    fn412613   3.617   5.961   4.210  0.8822 -0.5196  0.1286
 2245ntf    fn412614   3.585   5.756   4.184 -0.4716  0.0519 -0.1580
 2245ntf    fn412615   3.450   5.893   4.099 -0.1002  0.8131 -0.1804
 2246ntf    cn112616   3.678   2.217   0.345  0.7428  0.5425  0.1166
 2246ntf    sn212617   3.759   2.097   0.235  0.0280  0.1804 -0.0223
 2246ntf    nn312618   3.870   2.195   0.181 -0.1661  0.3290 -0.1552
 2246ntf    sn212619   3.988   2.256   0.264 -0.3372  0.3753  0.0542
 2246ntf    cn112620   4.123   2.139   0.236 -0.4571  0.2123  0.1544
 2246ntf    fn412621   3.737   2.225   0.464  1.1525 -0.4800 -0.0081
 2246ntf    fn412622   3.685   2.338   0.293  0.4774  0.0897 -1.0062
 2246ntf    fn412623   3.549   2.204   0.371  0.7431  0.0740 -0.1152
 2246ntf    on512624   3.795   1.994   0.329  0.0413 -0.2817 -0.5303
 2246ntf    on512625   3.642   2.076   0.153 -0.0509 -0.2085  0.1882
 2246ntf    on512626   3.989   2.255   0.408  0.2197  0.0439  0.0479
 2246ntf    on512627   4.019   2.379   0.195 -0.5220 -0.1947 -1.0691
 2246ntf    fn412628   4.136   2.050   0.333  0.9144 -0.2654 -0.4310
 2246ntf    fn412629   4.101   2.064   0.129  0.0119  0.0101  0.1937
 2246ntf    fn412630   4.242   2.197   0.227 -0.1145 -0.4610  0.2573
 2247ntf    cn112631   3.161   1.258   2.927 -0.1028  0.1900  0.1786
 2247ntf    sn212632   3.098   1.096   2.978  0.3015 -0.0041  0.0634
 2247ntf    nn312633   3.176   1.013   2.869  0.0698 -0.1862  0.0348
 2247ntf    sn212634   3.233   0.867   2.871  0.1236 -0.1656  0.0093
 2247ntf    cn112635   3.118   0.782   2.759  0.2372 -0.0132 -0.2226
 2247ntf    fn412636   3.119   1.350   3.013  0.1666  0.0220  0.4929
 2247ntf    fn412637   3.293   1.272   2.920 -0.1016 -0.0723 -0.4034
 2247ntf    fn412638   3.109   1.306   2.815  0.3634  0.0214 -0.1168
 2247ntf    on512639   3.152   1.083   3.111 -0.0801  0.3811  0.2572
 2247ntf    on512640   2.956   1.115   2.967  0.2947 -0.5299 -0.8114
 2247ntf    on512641   3.220   0.799   2.998  0.5578  1.0331  0.7109
 2247ntf    on512642   3.360   0.875   2.804  0.2497 -0.4200  0.2155
 2247ntf    fn412643   2.991   0.786   2.797  0.5013  0.1453  0.6508
 2247ntf    fn412644   3.123   0.838   2.639  0.1671  0.8673  0.1761
 2247ntf    fn412645   3.157   0.657   2.738 -0.7279 -0.3883  0.1560
 2248ntf    cn112646   7.017   1.651   0.856 -0.6426 -0.1447 -0.2556
 2248ntf    sn212647   7.094   1.815   0.841 -0.6638 -0.0971  0.1387
 2248ntf    nn312648   7.045   1.882   0.974 -0.4035  0.1464  0.1129
 2248ntf    sn212649   7.109   1.999   1.058 -0.2108  0.2326 -0.1527
 2248ntf    cn112650   6.952   2.075   1.108 -0.1842  0.0638  0.1893
 2248ntf    fn412651   7.028   1.580   0.745  0.3121 -0.0728 -0.2174
 2248ntf    fn412652   7.062   1.577   0.956 -0.7647 -0.3880 -0.3811
 2248ntf    fn412653   6.889   1.674   0.880 -0.4638  0.2124  0.3775
 2248ntf    on512654   7.233   1.781   0.827 -0.5937  0.0885  0.3853
 2248ntf    on512655   7.025   1.854   0.720 -0.2287 -0.2380 -0.1598
 2248ntf    on512656   7.179   2.103   0.987 -0.0796  0.0125 -0.3476
 2248ntf    on512657   7.175   1.955   1.178 -0.1773 -0.7941 -0.5366
 2248ntf    fn412658   6.885   2.106   0.998  0.5351  0.0840 -0.2486
 2248ntf    fn412659   6.876   1.989   1.174  0.0531  0.1044  0.5188
 2248ntf    fn412660   6.959   2.187   1.179 -0.0066  0.8118 -0.9722
 2249ntf    cn112661   1.517   6.252   6.328 -0.0355  0.2695 -0.6363
 2249ntf    sn212662   1.607   6.407   6.356  0.0959  0.0726  0.0349
 2249ntf    nn312663   1.738   6.372   6.276  0.1588 -0.1657  0.2378
 2249ntf    sn212664   1.783   6.399   6.128 -0.6707 -0.2105 -0.0264
 2249ntf    cn112665   1.799   6.224   6.081 -0.2689 -0.2224  0.1489
 2249ntf    fn412666   1.597   6.149   6.352 -0.4619  0.1281  0.2002
 2249ntf    fn412667   1.413   6.249   6.410  0.3266  0.0968 -0.1796
 2249ntf    fn412668   1.472   6.229   6.205  0.0782 -0.3196 -0.5705
 2249ntf    on512669   1.528   6.508   6.292 -0.7124 -0.3828  0.3023
 2249ntf    on512670   1.639   6.424   6.496  0.3648  0.0341 -0.0216
 2249ntf    on512671   1.918   6.447   6.115 -0.6537 -0.3168 -0.2406
 2249ntf    on512672   1.680   6.444   6.038 -0.7392 -0.6041 -0.1460
 2249ntf    fn412673   1.685   6.159   6.101 -0.3276 -0.0508  0.3831
 2249ntf    fn412674   1.816   6.214   5.950  0.0804 -0.1683  0.1911
 2249ntf    fn412675   1.894   6.160   6.147  0.1253  0.1118 -0.0897
 2250ntf    cn112676   6.910   6.566   4.641 -0.5507  0.0553 -0.2421
 2250ntf    sn212677   6.917   6.451   4.501 -0.0548 -0.1382 -0.0619
 2250ntf    nn312678   6.879   6.323   4.583 -0.1446 -0.3096 -0.3687
 2250ntf    sn212679   6.814   6.192   4.526 -0.1994 -0.1901 -0.5822
 2250ntf    cn112680   6.905   6.071   4.627 -0.2331  0.2988  0.0379
 2250ntf    fn412681   7.008   6.540   4.727 -0.1419  0.5250 -0.5617
 2250ntf    fn412682   6.929   6.690   4.600 -0.2900 -0.0334 -0.3920
 2250ntf    fn412683   6.795   6.570   4.706 -0.2921 -0.1250  0.2337
 2250ntf    on512684   6.810   6.499   4.417 -0.2289 -0.4009  0.0097
 2250ntf    on512685   7.055   6.456   4.459 -0.1406  0.3433 -0.2935
 2250ntf    on512686   6.851   6.152   4.392 -0.0232  0.7547 -0.8225
 2250ntf    on512687   6.677   6.181   4.567  0.1978 -0.0836  0.8225
 2250ntf    fn412688   6.883   6.095   4.755  0.3956  0.1966  0.1684
 2250ntf    fn412689   6.869   5.946   4.603  0.0527  0.1978  0.1275
 2250ntf    fn412690   7.036   6.082   4.608 -0.1581 -0.2255  0.2426
 2251ntf    cn112691   5.334   1.729   2.266  0.0848 -0.0950 -0.0137
 2251ntf    sn212692   5.299   1.554   2.299 -0.2549 -0.0854 -0.3080
 2251ntf    nn312693   5.173   1.533   2.208 -0.6923 -0.0014  0.2768
 2251ntf    sn212694   5.165   1.423   2.096  0.1932  0.2202 -0.0084
 2251ntf    cn112695   5.228   1.506   1.946 -0.4709  0.1460 -0.3323
 2251ntf    fn412696   5.412   1.778   2.360  0.0460 -0.1363  0.0397
 2251ntf    fn412697   5.379   1.744   2.142 -0.1504  0.6145 -0.0202
 2251ntf    fn412698   5.230   1.811   2.277  0.2728  0.0983  0.3317
 2251ntf    on512699   5.419   1.488   2.252  0.0442 -0.0402  0.3877
 2251ntf    on512700   5.273   1.555   2.440 -0.4025 -0.6422 -0.3292
 2251ntf    on512701   5.026   1.400   2.068  0.3362 -0.2750 -0.3084
 2251ntf    on512702   5.246   1.304   2.105 -0.2350 -0.0417  0.3774
 2251ntf    fn412703   5.195   1.432   1.842  0.1574 -0.7603  0.0936
 2251ntf    fn412704   5.183   1.628   1.923 -0.8987  0.0962  0.2085
 2251ntf    fn412705   5.360   1.502   1.941 -0.4599  0.2268 -0.1104
 2252ntf    cn112706   4.940   2.236   2.980  0.0832  0.0710  0.1910
 2252ntf    sn212707   5.010   2.344   3.109  0.2572  0.2931 -0.0890
 2252ntf    nn312708   4.918   2.472   3.105  0.0662  0.1469 -0.4160
 2252ntf    sn212709   4.943   2.607   3.180 -0.0401 -0.1944  0.2414
 2252ntf    cn112710   4.897   2.725   3.049  0.6533 -0.1434  0.0359
 2252ntf    fn412711   4.955   2.291   2.861 -0.0166  0.2648  0.2668
 2252ntf    fn412712   4.992   2.115   2.984  0.4667  0.2408  0.3543
 2252ntf    fn412713   4.809   2.222   2.997  0.0577  0.7106  0.5732
 2252ntf    on512714   4.990   2.272   3.232 -0.0969  0.6876  0.0887
 2252ntf    on512715   5.147   2.353   3.066  0.3215 -0.0187  0.0506
 2252ntf    on512716   5.080   2.649   3.200  0.0181 -0.0007 -0.5186
 2252ntf    on512717   4.845   2.628   3.283 -0.1648  0.5713 -0.0273
 2252ntf    fn412718   4.905   2.852   3.086 -0.0215  0.0749 -0.5377
 2252ntf    fn412719   4.973   2.708   2.942 -0.0399 -0.4114 -0.4241
 2252ntf    fn412720   4.769   2.714   3.014  0.5880 -1.0370  0.5060
 2253ntf    cn112721   5.099   1.105   5.867 -0.2388  0.2843  0.0683
 2253ntf    sn212722   5.279   1.105   5.842 -0.2384  0.1418  0.0688
 2253ntf    nn312723   5.302   1.057   5.694 -0.4526 -0.3852  0.2062
 2253ntf    sn212724   5.327   0.915   5.631  0.0417 -0.1544 -0.1204
 2253ntf    cn112725   5.477   0.937   5.531  0.0747 -0.2642 -0.0949
 2253ntf    fn412726   5.075   1.141   5.992  0.5862 -0.0039  0.3135
 2253ntf    fn412727   5.040   1.187   5.782  0.4090  0.5379 -0.1481
 2253ntf    fn412728   5.041   0.987   5.854 -0.0355  0.1722  0.1799
 2253ntf    on512729   5.317   1.244   5.838 -0.0301  0.0795 -0.2073
 2253ntf    on512730   5.333   1.032   5.954  0.0545  0.2840  0.0211
 2253ntf    on512731   5.228   0.883   5.532  0.2949 -0.3067 -0.3248
 2253ntf    on512732   5.385   0.816   5.719  0.2253 -0.0925 -0.1690
 2253ntf    fn412733   5.510   0.834   5.455  0.8625 -0.4431  0.4776
 2253ntf    fn412734   5.463   1.041   5.450  0.1581  0.0118  0.2404
 2253ntf    fn412735   5.585   0.961   5.604 -0.1102 -0.1972  0.1551
 2254ntf    cn112736   1.091   1.696   2.484 -0.4078  0.1838  0.0988
 2254ntf    sn212737   1.022   1.865   2.488 -0.0729  0.3334 -0.4065
 2254ntf    nn312738   1.104   1.930   2.371 -0.2672 -0.2893 -0.8967
 2254ntf    sn212739   1.079   2.062   2.289 -0.1524  0.1256 -0.2712
 2254ntf    cn112740   1.206   2.176   2.351  0.0691 -0.3018  0.0718
 2254ntf    fn412741   1.221   1.686   2.506 -0.4286  0.4242  0.3402
 2254ntf    fn412742   1.047   1.625   2.587  0.1086 -0.5100 -0.1531
 2254ntf    fn412743   1.064   1.632   2.372  0.2240 -0.2247  0.1777
 2254ntf    on512744   0.881   1.846   2.467 -0.0403  0.2960 -0.6006
 2254ntf    on512745   1.056   1.907   2.621  0.2598 -0.1855 -0.3252
 2254ntf    on512746   0.952   2.121   2.322 -0.5019 -0.7513 -0.0224
 2254ntf    on512747   1.122   2.058   2.151  0.1919  0.5006 -0.1751
 2254ntf    fn412748   1.212   2.189   2.482  0.2156  0.2924  0.0124
 2254ntf    fn412749   1.330   2.147   2.313  0.2962  0.5588  0.1255
 2254ntf    fn412750   1.180   2.297   2.302  0.3260  0.1019  0.9105
 2255ntf    cn112751   5.863   5.592   2.476  0.2743 -0.2110 -0.2025
 2255ntf    sn212752   5.942   5.755   2.496 -0.3568  0.0776 -0.0359
 2255ntf    nn312753   6.078   5.712   2.563 -0.0530  0.8686 -0.1408
 2255ntf    sn212754   6.230   5.727   2.526  0.1705 -0.0629  0.3777
 2255ntf    cn112755   6.289   5.575   2.606  0.1338 -0.1694  0.2018
 2255ntf    fn412756   5.744   5.604   2.421 -0.0171  0.4339  0.5494
 2255ntf    fn412757   5.924   5.505   2.398  0.5635 -0.2493  0.0624
 2255ntf    fn412758   5.846   5.522   2.587  0.6202  0.2276  0.1306
 2255ntf    on512759   5.952   5.801   2.360  0.1462 -0.3066 -0.1321
 2255ntf    on512760   5.857   5.828   2.587 -0.7495 -0.4834  0.0585
 2255ntf    on512761   6.302   5.828   2.600 -0.4887  0.2801  0.5591
 2255ntf    on512762   6.262   5.703   2.388 -0.4740 -0.2054  0.2495
 2255ntf    fn412763   6.244   5.460   2.558  0.0942  0.0883 -0.3963
 2255ntf    fn412764   6.421   5.576   2.615  0.1385 -0.0208  0.1262
 2255ntf    fn412765   6.257   5.580   2.734 -0.4734 -0.4962  0.0684
 2256ntf    cn112766   4.065   3.209   1.713  0.3089  0.2865 -0.1784
 2256ntf    sn212767   4.081   3.203   1.532  0.1147 -0.2155 -0.1815
 2256ntf    nn312768   3.930   3.216   1.492 -0.0804  0.2414  0.6740
 2256ntf    sn212769   3.844   3.343   1.456  0.1093  0.2334  0.1910
 2256ntf    cn112770   3.845   3.346   1.274 -0.1389 -0.3998  0.1746
 2256ntf    fn412771   4.050   3.334   1.754  0.4908  0.3076 -0.1729
 2256ntf    fn412772   3.971   3.135   1.769  0.3441  0.2938 -0.1087
 2256ntf    fn412773   4.173   3.162   1.774 -0.2685 -1.2686 -0.3026
 2256ntf    on512774   4.157   3.322   1.500 -0.4691  0.0432 -0.6201
 2256ntf    on512775   4.150   3.081   1.498  0.4578 -0.0841  0.0359
 2256ntf    on512776   3.895   3.466   1.512  0.5592 -0.2332  0.8307
 2256ntf    on512777   3.704   3.318   1.475  0.1498  0.0203  0.2173
 2256ntf    fn412778   3.797   3.463   1.234  0.5328 -0.0688  0.3276
 2256ntf    fn412779   3.973   3.339   1.240 -0.2009  0.2658 -0.2142
 2256ntf    fn412780   3.780   3.247   1.216  0.0952 -0.4485 -0.0051
 2257ntf    cn112781   6.185   1.012   1.483 -0.5038  0.0376  0.3526
 2257ntf    sn212782   6.223   0.841   1.532 -0.2959 -0.0108  0.0233
 2257ntf    nn312783   6.076   0.798   1.567 -0.2715  0.1891  0.3768
 2257ntf    sn212784   6.034   0.680   1.662  0.1352  0.0046  0.3307
 2257ntf    cn112785   5.983   0.762   1.816 -0.3785  0.3967 -0.0403
 2257ntf    fn412786   6.100   1.000   1.382  0.0566 -0.0752 -0.1063
 2257ntf    fn412787   6.129   1.082   1.580 -0.1916  0.5482  0.1697
 2257ntf    fn412788   6.297   1.071   1.446 -0.2227 -0.1234  0.9303
 2257ntf    on512789   6.286   0.776   1.419 -0.5445  0.4625 -0.3935
 2257ntf    on512790   6.303   0.854   1.650 -0.2777 -0.4865  0.0651
 2257ntf    on512791   6.137   0.592   1.711 -0.5410 -0.7180  0.4697
 2257ntf    on512792   5.917   0.618   1.605  0.3946 -0.2714  0.0971
 2257ntf    fn412793   5.858   0.803   1.798 -0.4221  0.2122 -0.1608
 2257ntf    fn412794   5.982   0.681   1.921 -0.4134 -0.1401 -0.4464
 2257ntf    fn412795   6.055   0.864   1.859  0.2396 -0.0684  0.0488
 2258ntf    cn112796   5.146   6.166   2.800 -0.0262 -0.1989 -0.1000
 2258ntf    sn212797   5.304   6.203   2.717 -0.3420  0.1054 -0.5706
 2258ntf    nn312798   5.328   6.075   2.629  0.4649 -0.1452  0.0016
 2258ntf    sn212799   5.246   6.023   2.506  0.0225  0.1948  0.1510
 2258ntf    cn112800   5.363   6.053   2.370 -0.1514  0.0194 -0.0402
 2258ntf    fn412801   5.156   6.068   2.889 -0.9809  0.0292  0.2669
 2258ntf    fn412802   5.093   6.263   2.872  0.6495 -0.0110  0.1527
 2258ntf    fn412803   5.055   6.119   2.716  0.1454 -0.7235  0.0043
 2258ntf    on512804   5.272   6.325   2.648 -0.1474  0.4688 -0.0193
 2258ntf    on512805   5.399   6.202   2.825 -0.4228  0.4576 -0.4945
 2258ntf    on512806   5.127   6.095   2.469 -0.2043 -0.2528 -0.0063
 2258ntf    on512807   5.228   5.880   2.502 -0.5621  0.2784 -0.3587
 2258ntf    fn412808   5.485   6.002   2.375 -0.3698 -0.4339  0.9153
 2258ntf    fn412809   5.318   6.003   2.257 -0.1318 -0.0395 -0.0219
 2258ntf    fn412810   5.367   6.185   2.355 -0.3089  0.0251 -0.0264
 2259ntf    cn112811   1.229   2.100   4.707  0.2891  0.4247  0.0530
 2259ntf    sn212812   1.346   2.152   4.577  0.2476 -0.0419 -0.1710
 2259ntf    nn312813   1.408   2.011   4.545 -0.2332 -0.1814 -0.5090
 2259ntf    sn212814   1.547   1.984   4.478  0.0241  0.5003 -0.2571
 2259ntf    cn112815   1.498   1.890   4.331 -0.2239 -0.0085  0.1493
 2259ntf    fn412816   1.279   2.061   4.823  0.4529 -0.6355 -0.3614
 2259ntf    fn412817   1.142   2.194   4.739 -0.0731  0.0745  0.1046
 2259ntf    fn412818   1.157   1.998   4.663  0.0344  0.3653  0.6047
 2259ntf    on512819   1.264   2.193   4.466  0.2500  0.5637  0.0494
 2259ntf    on512820   1.437   2.245   4.638  0.4589 -0.3279 -0.0477
 2259ntf    on512821   1.647   1.908   4.548 -0.4824  0.0925  0.0302
 2259ntf    on512822   1.604   2.098   4.410  0.3198  0.1565 -0.5915
 2259ntf    fn412823   1.593   1.880   4.239 -0.8784 -0.1270 -0.5201
 2259ntf    fn412824   1.467   1.763   4.355 -0.1841  0.0767  0.6533
 2259ntf    fn412825   1.393   1.939   4.267  0.2238  0.2990 -0.3623
 2260ntf    cn112826   2.923   0.784   2.235 -0.1649  0.2760  0.3592
 2260ntf    sn212827   3.040   0.798   2.096  0.0250 -0.1574  0.4722
 2260ntf    nn312828   3.112   0.659   2.099  0.1649 -0.0844  0.5076
 2260ntf    sn212829   3.262   0.622   2.070  0.0543 -0.0388 -0.1362
 2260ntf    cn112830   3.248   0.463   1.984  0.1975  0.0027 -0.2359
 2260ntf    fn412831   2.833   0.688   2.218  0.2488 -0.0046 -0.3010
 2260ntf    fn412832   2.986   0.757   2.348  0.3324 -0.0536  0.0136
 2260ntf    fn412833   2.857   0.895   2.260 -0.0241  0.6158 -0.7342
 2260ntf    on512834   2.956   0.822   1.981 -0.0336  0.1235  0.5714
 2260ntf    on512835   3.121   0.911   2.136 -0.4454  0.2063  0.4041
 2260ntf    on512836   3.333   0.581   2.189 -0.1243  0.2370  0.0679
 2260ntf    on512837   3.334   0.705   1.977  0.2540 -0.3143 -0.2267
 2260ntf    fn412838   3.369   0.411   1.973  0.1583 -0.1336 -0.0326
 2260ntf    fn412839   3.169   0.382   2.053  0.3420 -0.0315 -0.1112
 2260ntf    fn412840   3.184   0.470   1.868 -0.6195  0.2991  0.2280
 2261ntf    cn112841   4.257   3.164   0.366 -0.0640 -0.5208 -0.1098
 2261ntf    sn212842   4.230   2.985   0.386 -0.1553 -0.4794  0.1338
 2261ntf    nn312843   4.320   2.940   0.266  0.2682  0.2391  0.1721
 2261ntf    sn212844   4.276   2.905   0.119 -0.2809  0.1623  0.3511
 2261ntf    cn112845   4.213   2.735   0.131  0.4106 -0.0941  0.4385
 2261ntf    fn412846   4.199   3.234   0.461  0.3613  0.2958 -0.4399
 2261ntf    fn412847   4.385   3.199   0.370 -0.1478 -0.2937  0.7059
 2261ntf    fn412848   4.212   3.216   0.253 -0.0142  0.1609  0.1764
 2261ntf    on512849   4.295   2.947   0.510 -0.5673 -0.0483  0.4864
 2261ntf    on512850   4.088   2.969   0.372 -0.1136 -0.1850 -0.6677
 2261ntf    on512851   4.386   2.881   0.029 -0.4448 -0.0006  0.1940
 2261ntf    on512852   4.164   2.975   0.061 -0.2584  0.1412  0.2814
 2261ntf    fn412853   4.097   2.743   0.195 -0.1268 -0.4976 -0.4746
 2261ntf    fn412854   4.179   2.679   0.016  0.8201  0.3598  0.0952
 2261ntf    fn412855   4.294   2.653   0.195  0.2815 -0.1311  0.5563
 2262ntf    cn112856   2.882   6.092   4.904 -0.1808  0.3582 -0.1838
 2262ntf    sn212857   3.038   6.174   4.949 -0.0143 -0.1491  0.1726
 2262ntf    nn312858   3.098   6.076   5.056  0.1521 -0.1787  0.0525
 2262ntf    sn212859   3.069   6.063   5.209 -0.2762 -0.3655 -0.0431
 2262ntf    cn112860   3.203   6.168   5.273 -0.2953 -0.5443  0.2943
 2262ntf    fn412861   2.895   5.977   4.840  0.0513  0.0519  0.4061
 2262ntf    fn412862   2.813   6.065   5.014 -0.0557  0.1641 -0.1543
 2262ntf    fn412863   2.803   6.158   4.821 -0.9748 -0.1461  0.1626
 2262ntf    on512864   3.118   6.186   4.830 -0.5791  0.2360 -0.1776
 2262ntf    on512865   2.990   6.299   5.003  0.0690  0.0615 -0.2322
 2262ntf    on512866   3.095   5.933   5.264  0.3475 -0.4875 -0.6210
 2262ntf    on512867   2.948   6.127   5.257  0.2506  0.1556  0.6062
 2262ntf    fn412868   3.215   6.171   5.405  0.0967 -0.2033  0.2516
 2262ntf    fn412869   3.318   6.128   5.222 -0.2659 -0.2187  0.0993
 2262ntf    fn412870   3.193   6.291   5.226 -0.4262 -0.7699 -0.2832
 2263ntf    cn112871   4.427   6.053   4.428 -0.1686 -0.0725 -0.1163
 2263ntf    sn212872   4.469   5.876   4.436  0.0494 -0.0458 -0.5998
 2263ntf    nn312873   4.323   5.823   4.453 -0.0589  0.2297 -0.6609
 2263ntf    sn212874   4.225   5.752   4.352 -0.2572 -0.2575 -0.1360
 2263ntf    cn112875   4.090   5.873   4.365 -0.0880 -0.1302  0.5130
 2263ntf    fn412876   4.355   6.082   4.321 -0.9204  0.0022  0.4063
 2263ntf    fn412877   4.359   6.087   4.536  0.2096 -0.5209  0.2716
 2263ntf    fn412878   4.526   6.140   4.413  0.0197 -0.3012 -0.2200
 2263ntf    on512879   4.548   5.846   4.319  0.4130  0.4333 -0.4824
 2263ntf    on512880   4.547   5.870   4.558 -0.1043 -0.0314 -0.5005
 2263ntf    on512881   4.165   5.630   4.399 -0.1997 -0.2174  0.0437
 2263ntf    on512882   4.271   5.753   4.215 -0.1281  0.1448 -0.0925
 2263ntf    fn412883   4.048   5.885   4.490 -0.2404 -0.1730  0.4660
 2263ntf    fn412884   4.137   5.991   4.328 -0.3947 -0.2412 -0.2585
 2263ntf    fn412885   3.985   5.848   4.288  0.2164 -0.3062  0.1505
 2264ntf    cn112886   4.882   1.999   1.448  0.4338 -0.2326 -0.4122
 2264ntf    sn212887   4.938   1.909   1.596 -0.2367  0.0539  0.0227
 2264ntf    nn312888   4.850   1.987   1.700 -0.4818  0.1231 -0.2328
 2264ntf    sn212889   4.713   1.956   1.768 -0.3978  0.4276  0.0795
 2264ntf    cn112890   4.604   2.069   1.676 -0.6189  0.1766  0.0308
 2264ntf    fn412891   4.752   2.000   1.425  0.2406 -0.1417  0.6320
 2264ntf    fn412892   4.920   2.126   1.453  0.3694 -0.2208 -0.1995
 2264ntf    fn412893   4.946   1.946   1.346  0.4252 -0.5892 -0.2334
 2264ntf    on512894   4.913   1.770   1.567  0.3167 -0.0317 -0.0425
 2264ntf    on512895   5.076   1.947   1.611 -0.3062  0.3927 -0.1898
 2264ntf    on512896   4.701   2.002   1.905  0.3118 -0.1472  0.3400
 2264ntf    on512897   4.670   1.820   1.748  0.4410  0.1236  0.3240
 2264ntf    fn412898   4.587   2.023   1.553 -0.0928  0.0483  0.0042
 2264ntf    fn412899   4.487   2.076   1.736 -0.6261 -0.1905  0.0603
 2264ntf    fn412900   4.663   2.187   1.665 -0.9556  0.3303 -0.1440
 2265ntf    cn112901   5.466   6.774   3.263  0.5199  0.2492  0.6728
 2265ntf    sn212902   5.332   6.769   3.385 -0.0903  0.4239  0.0217
 2265ntf    nn312903   5.206   6.788   3.294  0.0975 -0.0173 -0.3348
 2265ntf    sn212904   5.095   6.689   3.242 -0.0031 -0.0559 -0.0505
 2265ntf    cn112905   5.167   6.671   3.076 -0.0518 -0.0462 -0.0725
 2265ntf    fn412906   5.454   6.674   3.178 -0.1889  1.0238 -0.1610
 2265ntf    fn412907   5.470   6.881   3.184 -0.4038 -0.3106 -0.1506
 2265ntf    fn412908   5.581   6.760   3.326  0.6584  0.3302  0.4401
 2265ntf    on512909   5.344   6.645   3.458 -0.2538 -0.0436 -0.7448
 2265ntf    on512910   5.367   6.886   3.462 -1.2389  0.6783  0.1785
 2265ntf    on512911   4.962   6.744   3.231 -0.0173  0.0394  0.5480
 2265ntf    on512912   5.094   6.559   3.305  0.5401  0.0504  0.1833
 2265ntf    fn412913   5.273   6.747   3.052 -0.5124  0.6949  0.2037
 2265ntf    fn412914   5.201   6.547   3.047 -0.1022 -0.0541 -0.0992
 2265ntf    fn412915   5.084   6.709   2.981  0.0127  0.5593  0.1061
 2266ntf    cn112916   5.708   5.159   2.405 -0.1137 -0.3003  0.2054
 2266ntf    sn212917   5.586   5.078   2.297 -0.0207 -0.1144 -0.0401
 2266ntf    nn312918   5.536   5.192   2.202 -0.0470 -0.0803  0.0147
 2266ntf    sn212919   5.613   5.274   2.092  0.0189 -0.0969  0.0482
 2266ntf    cn112920   5.501   5.265   1.949 -0.1601 -0.0472  0.1842
 2266ntf    fn412921   5.818   5.193   2.340 -0.2305  0.1273  0.2337
 2266ntf    fn412922   5.656   5.262   2.468  0.0008 -0.1088 -0.0134
 2266ntf    fn412923   5.758   5.087   2.505  0.2194 -0.3958 -0.0247
 2266ntf    on512924   5.660   4.978   2.224 -0.6333 -0.4945 -0.1490
 2266ntf    on512925   5.490   5.036   2.396  0.2417 -0.1453  0.2029
 2266ntf    on512926   5.732   5.207   2.045  0.0136  0.0836 -0.2210
 2266ntf    on512927   5.627   5.411   2.136  0.1030 -0.1794  0.2822
 2266ntf    fn412928   5.485   5.146   1.892  0.5356 -0.0795  0.0554
 2266ntf    fn412929   5.378   5.304   1.978  0.0145  0.4306  0.2880
 2266ntf    fn412930   5.536   5.347   1.852 -0.0115  0.1257  0.3817
 2267ntf    cn112931   2.863   2.877   3.694 -0.0299 -0.0098  0.1902
 2267ntf    sn212932   2.876   3.030   3.792  0.0507  0.1477 -0.0670
 2267ntf    nn312933   2.849   3.143   3.686 -0.2895  0.1284  0.0007
 2267ntf    sn212934   2.945   3.189   3.571 -0.0980  0.1858  0.1837
 2267ntf    cn112935   3.024   3.330   3.654 -0.0756  0.0559  0.3846
 2267ntf    fn412936   2.917   2.768   3.746  0.2623  0.2285  0.3927
 2267ntf    fn412937   2.737   2.841   3.674 -0.1118  0.1572  0.3902
 2267ntf    fn412938   2.909   2.903   3.573 -0.6730  0.7587  0.0978
 2267ntf    on512939   2.767   3.016   3.885  0.3163 -0.3475  0.1750
 2267ntf    on512940   3.009   3.037   3.847 -0.1834  0.4367  0.4748
 2267ntf    on512941   2.872   3.256   3.467  0.6890  0.2407 -0.3445
 2267ntf    on512942   3.055   3.105   3.529 -0.3679  0.0038 -0.1631
 2267ntf    fn412943   3.072   3.308   3.776  0.1364  0.1249  0.3143
 2267ntf    fn412944   3.123   3.377   3.580  0.3423 -0.3378  0.6857
 2267ntf    fn412945   2.934   3.426   3.666 -0.4115 -0.1636 -0.2869
 2268ntf    cn112946   1.271   4.734   0.497  0.0712  0.1494 -0.1452
 2268ntf    sn212947   1.278   4.849   0.357  0.0457  0.0671 -0.2134
 2268ntf    nn312948   1.255   4.766   0.225  0.3715 -0.1252 -0.1498
 2268ntf    sn212949   1.132   4.719   0.140  0.1923  0.2532 -0.1013
 2268ntf    cn112950   1.106   4.852   0.019  0.1471  0.0665 -0.2964
 2268ntf    fn412951   1.343   4.625   0.478 -0.0414 -0.1218  0.8909
 2268ntf    fn412952   1.304   4.801   0.606  0.1280  0.4455 -0.3450
 2268ntf    fn412953   1.148   4.688   0.518  0.0559  0.2542 -0.0025
 2268ntf    on512954   1.170   4.939   0.387 -0.0578 -0.1820  0.1711
 2268ntf    on512955   1.413   4.898   0.363 -0.1034  0.4849 -0.2599
 2268ntf    on512956   1.011   4.703   0.218  0.4939 -0.4622  0.2340
 2268ntf    on512957   1.164   4.599   0.066 -0.1421 -0.3505  0.7044
 2268ntf    fn412958   1.070   4.966   0.074  0.1463 -0.0417 -0.0694
 2268ntf    fn412959   1.214   4.876  -0.054  0.5340  0.1400  0.2971
 2268ntf    fn412960   1.005   4.817  -0.059 -0.0897 -0.1276  0.0969
 2269ntf    cn112961   6.197   6.065   3.163 -0.0201  0.3118  0.2743
 2269ntf    sn212962   6.077   5.929   3.157  0.0988  0.2218 -0.0449
 2269ntf    nn312963   6.156   5.798   3.121  0.2351  0.2748  0.0638
 2269ntf    sn212964   6.156   5.655   3.186  0.0165  0.2183 -0.0618
 2269ntf    cn112965   6.080   5.556   3.054 -0.5016  0.0868  0.3287
 2269ntf    fn412966   6.297   6.056   3.249 -0.1545 -0.4244  0.3546
 2269ntf    fn412967   6.257   6.085   3.047  0.2326  0.4851  0.4321
 2269ntf    fn412968   6.153   6.186   3.195  0.2572  0.4394  0.1749
 2269ntf    on512969   6.012   5.928   3.285 -0.3161  0.3125 -0.2525
 2269ntf    on512970   6.003   5.965   3.038  0.1643  0.5305  0.0058
 2269ntf    on512971   6.071   5.637   3.302  0.5149  0.5331  0.3559
 2269ntf    on512972   6.288   5.601   3.208 -0.2547 -0.7593 -0.7629
 2269ntf    fn412973   5.997   5.638   2.991 -0.2777 -0.1371 -0.2613
 2269ntf    fn412974   6.168   5.510   2.966 -0.0524  0.4620  0.5744
 2269ntf    fn412975   5.998   5.460   3.092 -0.3209 -0.2979 -0.2300
 2270ntf    cn112976   4.857   3.222   1.467 -0.1150  0.4030  0.2075
 2270ntf    sn212977   4.973   3.106   1.544 -0.4290  0.3045  0.5329
 2270ntf    nn312978   4.921   3.099   1.693 -0.3734  0.1661  0.5463
 2270ntf    sn212979   4.964   3.177   1.822  0.0701  0.1627  0.4034
 2270ntf    cn112980   4.820   3.141   1.927 -0.3960  0.1511 -0.2304
 2270ntf    fn412981   4.849   3.213   1.335 -0.6329  0.0491  0.2612
 2270ntf    fn412982   4.732   3.205   1.509 -0.2104  0.1917 -0.1621
 2270ntf    fn412983   4.891   3.346   1.498 -0.2083  0.3244  0.6359
 2270ntf    on512984   4.952   2.987   1.464 -0.0921  0.4195  0.2748
 2270ntf    on512985   5.103   3.166   1.535 -0.4169  0.3071  0.7168
 2270ntf    on512986   4.949   3.319   1.805  0.2913  0.1453  0.0534
 2270ntf    on512987   5.085   3.141   1.891  0.4425  0.2771 -0.1837
 2270ntf    fn412988   4.835   3.028   1.994  0.6071  0.2319 -0.3029
 2270ntf    fn412989   4.820   3.240   2.015 -0.4573 -0.0863  0.0410
 2270ntf    fn412990   4.702   3.148   1.868 -0.7548  0.3167  0.4982
 2271ntf    cn112991   3.250   2.600   6.086  0.3725 -0.5089 -0.3860
 2271ntf    sn212992   3.170   2.713   5.968  0.3947  0.0003  0.0801
 2271ntf    nn312993   3.105   2.832   6.048  0.2597  0.2511 -0.3989
 2271ntf    sn212994   3.161   2.977   6.069 -0.0173  0.2684  0.2447
 2271ntf    cn112995   3.146   2.971   6.250 -0.0663 -0.3696  0.2246
 2271ntf    fn412996   3.328   2.671   6.166  0.4592 -0.2343 -0.7117
 2271ntf    fn412997   3.160   2.535   6.158 -0.0215  0.8496  0.3874
 2271ntf    fn412998   3.325   2.509   6.027 -0.0598 -1.1040 -0.0327
 2271ntf    on512999   3.283   2.756   5.889  0.2284 -0.2292 -0.2878
 2271ntf    on513000   3.067   2.626   5.916 -0.1467  0.4203  0.4288
 2271ntf    on513001   3.065   3.080   6.037 -0.0271  0.0778 -0.3725
 2271ntf    on513002   3.300   3.004   6.043 -0.2282  0.5973 -0.5997
 2271ntf    fn413003   3.198   3.081   6.303 -0.3848  0.0914 -0.3935
 2271ntf    fn413004   3.023   2.954   6.294 -0.1533 -0.0360  0.1163
 2271ntf    fn413005   3.220   2.873   6.298  0.0926 -0.5606 -0.3951
 2272ntf    cn113006   1.266   0.511   5.350 -0.3711  0.1026 -0.3001
 2272ntf    sn213007   1.184   0.386   5.453  0.2615 -0.1040 -0.0421
 2272ntf    nn313008   1.303   0.288   5.484  0.0520 -0.3546 -0.0319
 2272ntf    sn213009   1.397   0.297   5.609 -0.2188 -0.2881  0.1697
 2272ntf    cn113010   1.536   0.189   5.562  0.0586  0.0060  0.3088
 2272ntf    fn413011   1.376   0.565   5.402 -0.3587  0.0178 -0.2392
 2272ntf    fn413012   1.316   0.456   5.240 -0.8360 -0.8645 -0.0387
 2272ntf    fn413013   1.193   0.616   5.316 -0.0957  0.2695 -0.3824
 2272ntf    on513014   1.146   0.464   5.568  0.0665 -0.2069 -0.0375
 2272ntf    on513015   1.078   0.333   5.372 -0.0847  0.0848  0.2844
 2272ntf    on513016   1.346   0.234   5.728 -0.0058 -0.2732  0.2692
 2272ntf    on513017   1.461   0.423   5.636 -0.6670 -0.0658  0.2011
 2272ntf    fn413018   1.615   0.152   5.661  0.0969 -0.5609  0.0706
 2272ntf    fn413019   1.495   0.080   5.499  0.3928  0.1525 -0.1704
 2272ntf    fn413020   1.608   0.247   5.468  0.2400 -0.1598  0.3462
 2273ntf    cn113021   0.493   4.858   6.781 -0.0751 -0.1230  0.3742
 2273ntf    sn213022   0.501   4.977   6.917  0.0614  0.1683  0.1108
 2273ntf    nn313023   0.379   4.936   7.006  0.1104 -0.0835  0.0617
 2273ntf    sn213024   0.229   4.980   6.984  0.1443 -0.0556 -0.1163
 2273ntf    cn113025   0.151   4.816   6.972  0.3653 -0.1711  0.0114
 2273ntf    fn413026   0.378   4.866   6.717  0.0147  0.6654  0.3068
 2273ntf    fn413027   0.587   4.883   6.691 -0.0022 -0.2672  0.4078
 2273ntf    fn413028   0.502   4.730   6.814  0.4086 -0.1991 -0.0348
 2273ntf    on513029   0.628   4.958   6.984  0.1858  0.0208 -0.1653
 2273ntf    on513030   0.483   5.106   6.854  0.4283  0.0478 -0.2479
 2273ntf    on513031   0.189   5.043   6.861 -1.1224  0.0461  0.3395
 2273ntf    on513032   0.186   5.041   7.107  1.0180  0.1282  0.1047
 2273ntf    fn413033   0.222   4.747   6.884 -0.0243 -0.3373 -0.1713
 2273ntf    fn413034   0.172   4.753   7.086  0.2940 -0.5540 -0.1861
 2273ntf    fn413035   0.022   4.816   6.945  0.3338 -0.1657  0.1650
 2274ntf    cn113036   1.533   1.858   5.367  0.0610  0.4044 -0.0638
 2274ntf    sn213037   1.361   1.832   5.421  0.1212  0.0010 -0.0655
 2274ntf    nn313038   1.356   1.932   5.542 -0.4021 -0.1531  0.0446
 2274ntf    sn213039   1.364   1.912   5.697  0.2712 -0.0890  0.0229
 2274ntf    cn113040   1.472   2.052   5.740  0.0883  0.0214  0.1250
 2274ntf    fn413041   1.560   1.980   5.323  0.4115  0.4893  0.3787
 2274ntf    fn413042   1.625   1.831   5.459  0.1764 -0.2314 -0.3590
 2274ntf    fn413043   1.563   1.779   5.266 -0.2641  0.3686 -0.1339
 2274ntf    on513044   1.284   1.875   5.307  0.6476 -0.0976 -0.4623
 2274ntf    on513045   1.350   1.693   5.457 -0.0125  0.1723  0.5614
 2274ntf    on513046   1.435   1.796   5.744 -0.4003 -0.4312  0.2119
 2274ntf    on513047   1.247   1.957   5.769  0.2220 -0.4723  0.1854
 2274ntf    fn413048   1.567   2.067   5.650 -0.1491  0.1774 -0.1023
 2274ntf    fn413049   1.406   2.166   5.744 -0.1524 -0.1083 -0.1019
 2274ntf    fn413050   1.533   2.033   5.856  0.1135 -0.0933  0.0937
 2275ntf    cn113051   6.126   5.034   2.983  0.4412 -0.2759  0.0789
 2275ntf    sn213052   6.169   4.902   3.101 -0.1494 -0.4296  0.1254
 2275ntf    nn313053   6.027   4.873   3.162 -0.4527  0.5574 -0.0937
 2275ntf    sn213054   5.922   4.768   3.113 -0.3621  0.3384  0.1779
 2275ntf    cn113055   5.948   4.637   3.237  0.2385  0.3748  0.0893
 2275ntf    fn413056   6.066   5.135   3.043 -0.0840 -0.4456 -0.1547
 2275ntf    fn413057   6.229   5.084   2.917  0.4977  0.0269  0.3909
 2275ntf    fn413058   6.038   4.979   2.901  0.3286  0.0217  0.0006
 2275ntf    on513059   6.228   4.797   3.021  0.1629  0.0381 -0.2651
 2275ntf    on513060   6.258   4.983   3.181 -0.4212  0.6145 -0.6123
 2275ntf    on513061   5.929   4.701   2.985 -0.0831  0.5604  0.0769
 2275ntf    on513062   5.790   4.816   3.146 -0.8991 -0.2691 -1.0203
 2275ntf    fn413063   5.949   4.685   3.360 -0.0663 -0.1093  0.2802
 2275ntf    fn413064   5.854   4.544   3.239  0.4486  0.1448 -0.4643
 2275ntf    fn413065   6.067   4.588   3.206 -0.2097 -0.4733 -0.3305
 2276ntf    cn113066   4.703   1.751   5.124  0.2330 -0.1430 -0.2050
 2276ntf    sn213067   4.616   1.593   5.138  0.2706 -0.1105  0.4441
 2276ntf    nn313068   4.723   1.506   5.213  0.2244 -0.6242 -0.0781
 2276ntf    sn213069   4.757   1.353   5.199  0.2797 -0.6244  0.0630
 2276ntf    cn113070   4.909   1.370   5.099 -0.0397  0.2003 -0.2930
 2276ntf    fn413071   4.810   1.721   5.052  0.3191  0.0089 -0.1429
 2276ntf    fn413072   4.632   1.841   5.059 -0.3200  0.0734  0.6766
 2276ntf    fn413073   4.737   1.794   5.245 -0.3396 -0.5521  0.1011
 2276ntf    on513074   4.499   1.627   5.216  0.2564  0.0115  0.3711
 2276ntf    on513075   4.591   1.550   5.002  0.0438  0.2727  0.3638
 2276ntf    on513076   4.675   1.266   5.119 -0.6475  0.2352  0.0645
 2276ntf    on513077   4.803   1.298   5.324  0.2491  0.2423  0.4613
 2276ntf    fn413078   4.875   1.428   4.985  0.4612  0.0734 -0.5057
 2276ntf    fn413079   5.002   1.441   5.161 -0.0924  0.1988 -0.2096
 2276ntf    fn413080   4.962   1.256   5.060 -0.1103 -0.1514  0.6010
 2277ntf    cn113081   3.568   1.766   2.948 -0.0195 -0.5326 -0.0708
 2277ntf    sn213082   3.433   1.836   3.047  0.1594  0.3588 -0.4444
 2277ntf    nn313083   3.308   1.763   2.986 -0.2847  0.6149  0.1415
 2277ntf    sn213084   3.201   1.805   2.879 -0.2682 -0.1283 -0.1700
 2277ntf    cn113085   3.080   1.898   2.977 -0.3660  0.1956 -0.5949
 2277ntf    fn413086   3.687   1.818   2.974 -0.3401 -0.0097  0.3735
 2277ntf    fn413087   3.586   1.636   2.962  0.1591 -0.4573  0.4268
 2277ntf    fn413088   3.549   1.778   2.817 -0.2413 -0.1520 -0.0057
 2277ntf    on513089   3.455   1.787   3.181  0.3011 -0.0744 -0.6235
 2277ntf    on513090   3.435   1.979   3.025  0.6894  0.4330  0.0489
 2277ntf    on513091   3.121   1.697   2.827 -0.2890 -0.3113  0.2373
 2277ntf    on513092   3.227   1.898   2.772 -0.4977 -0.1029 -0.2037
 2277ntf    fn413093   3.029   1.824   3.074 -0.0328  0.2542 -0.3748
 2277ntf    fn413094   3.132   2.004   3.036 -0.5386  0.2412 -0.5219
 2277ntf    fn413095   2.973   1.940   2.911 -0.7380  0.2533  0.0301
 2278ntf    cn113096   5.427   3.744   6.329 -0.2826 -0.1366 -0.4744
 2278ntf    sn213097   5.348   3.631   6.447  0.1511 -0.0046 -0.0565
 2278ntf    nn313098   5.438   3.655   6.574  0.2915 -0.1935 -0.1207
 2278ntf    sn213099   5.429   3.593   6.717  0.5764 -0.2419 -0.1228
 2278ntf    cn113100   5.582   3.495   6.715  0.5833 -0.2291 -0.1678
 2278ntf    fn413101   5.386   3.869   6.346 -0.2880 -0.2108  0.0747
 2278ntf    fn413102   5.557   3.762   6.340 -0.3907  0.3655  0.0865
 2278ntf    fn413103   5.408   3.702   6.205  0.3744  0.1241 -0.6670
 2278ntf    on513104   5.217   3.691   6.450  0.1344 -0.0397 -0.0691
 2278ntf    on513105   5.362   3.501   6.386 -0.1661  0.1262 -0.4079
 2278ntf    on513106   5.328   3.493   6.743  0.2509  0.0855 -0.1273
 2278ntf    on513107   5.464   3.684   6.823 -0.2262 -0.7701  0.6205
 2278ntf    fn413108   5.693   3.560   6.683  0.0574  0.3996 -0.7312
 2278ntf    fn413109   5.608   3.443   6.834 -0.1227 -0.0735  0.0581
 2278ntf    fn413110   5.569   3.391   6.634 -0.6116 -0.1804 -0.0491
 2279ntf    cn113111   2.606   3.333   2.773  0.1728  0.1787 -0.1025
 2279ntf    sn213112   2.759   3.303   2.865 -0.1366 -0.0231  0.3521
 2279ntf    nn313113   2.838   3.430   2.817  0.4420 -0.4494  0.1665
 2279ntf    sn213114   2.913   3.448   2.680  0.3761 -0.4633  0.1286
 2279ntf    cn113115   2.824   3.593   2.619  0.1837 -0.5742  0.1460
 2279ntf    fn413116   2.566   3.456   2.799  0.4885  0.3708 -0.5186
 2279ntf    fn413117   2.603   3.319   2.641  0.3823 -0.2068 -0.0665
 2279ntf    fn413118   2.506   3.258   2.817  0.0588 -0.2039 -0.9825
 2279ntf    on513119   2.709   3.297   3.000 -0.0051 -0.5368  0.3789
 2279ntf    on513120   2.804   3.176   2.815  0.0124 -0.0210  0.4776
 2279ntf    on513121   2.891   3.356   2.571  0.1697  0.3529 -0.5209
 2279ntf    on513122   3.044   3.508   2.684  0.2521 -0.2010  0.2765
 2279ntf    fn413123   2.693   3.573   2.624  0.0671  0.0886 -0.0837
 2279ntf    fn413124   2.847   3.697   2.697  0.2551 -0.3892 -0.1192
 2279ntf    fn413125   2.852   3.623   2.493 -0.1620 -0.5329  0.0760
 2280ntf    cn113126   2.218   2.514   5.771  0.0967 -0.0818 -0.0504
 2280ntf    sn213127   2.311   2.462   5.624  0.1008 -0.1342 -0.0290
 2280ntf    nn313128   2.451   2.428   5.686  0.3233  0.5847 -0.1274
 2280ntf    sn213129   2.573   2.523   5.714  0.5785  0.1593  0.2233
 2280ntf    cn113130   2.634   2.453   5.870  0.0903  0.0761  0.3781
 2280ntf    fn413131   2.088   2.528   5.752  0.0399 -0.2626  0.2119
 2280ntf    fn413132   2.236   2.446   5.882  0.3256 -0.0234 -0.0520
 2280ntf    fn413133   2.257   2.637   5.804 -0.0349 -0.1989  0.5458
 2280ntf    on513134   2.239   2.346   5.577 -0.7230  0.2655  0.2253
 2280ntf    on513135   2.307   2.579   5.540 -0.0992  0.2161  0.4660
 2280ntf    on513136   2.535   2.656   5.754  0.2859  0.2375 -0.2940
 2280ntf    on513137   2.686   2.503   5.626 -0.3097 -0.4169 -0.8132
 2280ntf    fn413138   2.633   2.321   5.865 -0.3947  0.0867  0.1280
 2280ntf    fn413139   2.753   2.492   5.913  0.2942 -0.5712  0.4101
 2280ntf    fn413140   2.548   2.479   5.968 -0.1397 -0.1680  0.2414
 2281ntf    cn113141   0.147   0.454   1.354 -0.6170 -0.2914 -0.3779
 2281ntf    sn213142   0.142   0.408   1.530  0.1273  0.2782 -0.2041
 2281ntf    nn313143   0.045   0.285   1.522  0.1791  0.1613  0.8362
 2281ntf    sn213144   0.083   0.137   1.562 -0.4588 -0.2743 -0.1479
 2281ntf    cn113145   0.031   0.043   1.415  0.0040  0.1004 -0.5535
 2281ntf    fn413146   0.158   0.347   1.277 -0.3093 -0.4315 -0.1412
 2281ntf    fn413147   0.049   0.532   1.311 -0.2258  0.2988 -0.2072
 2281ntf    fn413148   0.256   0.526   1.334 -0.4545 -0.4208  0.0281
 2281ntf    on513149   0.283   0.400   1.557 -0.0219  0.0845  0.5343
 2281ntf    on513150   0.071   0.520   1.588  0.5451  0.1281  0.6150
 2281ntf    on513151  -0.011   0.082   1.656 -0.2157 -0.2555  0.1046
 2281ntf    on513152   0.221   0.100   1.577 -0.4534 -0.4687 -0.6398
 2281ntf    fn413153  -0.099   0.046   1.392 -0.2647 -0.1279  0.8743
 2281ntf    fn413154   0.087   0.097   1.307  0.6748 -0.2567 -0.3899
 2281ntf    fn413155   0.068  -0.084   1.420  0.0794  0.1365 -0.1841
 2282ntf    cn113156   0.519   1.900   1.085  0.3913  0.3066 -0.3621
 2282ntf    sn213157   0.641   1.871   1.217  0.2817  0.0550 -0.3144
 2282ntf    nn313158   0.707   1.737   1.170  0.2213  0.0197 -0.2987
 2282ntf    sn213159   0.832   1.718   1.077  0.3724 -0.0469 -0.0818
 2282ntf    cn113160   0.775   1.576   0.979  0.1444 -0.1441  0.1924
 2282ntf    fn413161   0.440   1.998   1.124 -0.1170 -0.0458 -0.4967
 2282ntf    fn413162   0.577   1.936   0.972  0.0731 -0.4101 -0.7597
 2282ntf    fn413163   0.452   1.790   1.058  0.4332  0.2473 -0.2273
 2282ntf    on513164   0.722   1.991   1.216  0.3772  0.0084  0.7516
 2282ntf    on513165   0.555   1.843   1.329  0.6658  0.2554  0.0348
 2282ntf    on513166   0.950   1.660   1.136  0.5034  0.1282 -0.1701
 2282ntf    on513167   0.852   1.816   0.972  0.3487 -0.0046 -0.0466
 2282ntf    fn413168   0.773   1.467   1.055  0.2881 -0.4140 -0.1889
 2282ntf    fn413169   0.656   1.591   0.925  0.1597  0.1498  0.2398
 2282ntf    fn413170   0.855   1.534   0.882  0.4857 -0.3367  0.5513
 2283ntf    cn113171   5.834   7.035   0.607  0.0100  0.1455 -0.0394
 2283ntf    sn213172   5.662   7.095   0.605 -0.1788 -0.3806  0.0051
 2283ntf    nn313173   5.576   6.969   0.640 -0.0840 -0.3965  0.1772
 2283ntf    sn213174   5.467   6.890   0.560 -0.4532 -0.0411  0.3274
 2283ntf    cn113175   5.518   6.731   0.631 -0.1557 -0.0580  0.0782
 2283ntf    fn413176   5.869   6.984   0.724  0.1547 -0.4861 -0.3562
 2283ntf    fn413177   5.858   6.933   0.526  0.2420 -0.0209  0.2372
 2283ntf    fn413178   5.930   7.122   0.581 -0.2392  0.6406  0.6615
 2283ntf    on513179   5.654   7.208   0.694 -0.5122 -0.2014 -0.2482
 2283ntf    on513180   5.653   7.130   0.465  0.0429 -0.1207  0.0535
 2283ntf    on513181   5.498   6.866   0.421 -0.1689 -0.1848  0.4166
 2283ntf    on513182   5.332   6.916   0.604 -0.5135 -0.2550  0.2660
 2283ntf    fn413183   5.447   6.636   0.572 -0.3907 -0.0209  0.2987
 2283ntf    fn413184   5.641   6.704   0.590 -0.3523  0.0454 -0.6026
 2283ntf    fn413185   5.508   6.726   0.763  0.0726  0.1636  0.1037
 2284ntf    cn113186   4.419   0.123   2.771 -0.1504 -0.0261 -0.8925
 2284ntf    sn213187   4.323  -0.020   2.711 -0.2587 -0.4131  0.1904
 2284ntf    nn313188   4.381  -0.030   2.566  0.0557  0.1016  0.2794
 2284ntf    sn213189   4.508  -0.112   2.523 -0.0958 -0.1182  0.2561
 2284ntf    cn113190   4.615  -0.001   2.428 -0.0894 -0.1438  0.2333
 2284ntf    fn413191   4.372   0.203   2.865 -0.0224 -0.6202 -0.3134
 2284ntf    fn413192   4.530   0.070   2.818 -0.5979 -0.4610 -0.3148
 2284ntf    fn413193   4.464   0.207   2.679  1.2397  0.1699 -0.0555
 2284ntf    on513194   4.347  -0.136   2.793  0.3548  0.0875  0.7352
 2284ntf    on513195   4.186   0.024   2.708 -0.1721 -0.1681 -0.2806
 2284ntf    on513196   4.469  -0.218   2.433  0.1127  0.4547 -0.5222
 2284ntf    on513197   4.603  -0.140   2.627  0.3526 -0.4579 -0.2419
 2284ntf    fn413198   4.563   0.059   2.322  0.1169  0.5888  0.5399
 2284ntf    fn413199   4.665   0.095   2.504 -0.1643  0.5863 -0.6090
 2284ntf    fn413200   4.712  -0.074   2.378  0.3023  0.3363  0.2815
 2285ntf    cn113201   4.885   3.953   2.504  0.3060  0.2387  0.1608
 2285ntf    sn213202   4.910   4.081   2.379 -0.1939  0.3398  0.1607
 2285ntf    nn313203   5.065   4.108   2.379 -0.2315  0.5620  0.0848
 2285ntf    sn213204   5.139   4.227   2.449  0.2493  0.2050  0.1874
 2285ntf    cn113205   5.083   4.215   2.622 -0.4953 -0.1697 -0.0753
 2285ntf    fn413206   5.002   3.891   2.509 -0.1215 -0.6010  0.0221
 2285ntf    fn413207   4.866   3.995   2.628  0.1226 -0.2429  0.3007
 2285ntf    fn413208   4.784   3.875   2.469  0.5996  0.1628 -0.5295
 2285ntf    on513209   4.862   4.014   2.261 -0.2201 -0.0971  0.4178
 2285ntf    on513210   4.836   4.198   2.421  0.1285  0.6574 -0.1392
 2285ntf    on513211   5.103   4.353   2.388 -0.1932 -0.1072 -0.2038
 2285ntf    on513212   5.280   4.197   2.454  0.2685  0.2471 -0.0763
 2285ntf    fn413213   4.978   4.284   2.664 -0.3636 -0.1623  0.2423
 2285ntf    fn413214   5.064   4.090   2.660 -0.0373 -0.2912 -0.2414
 2285ntf    fn413215   5.185   4.263   2.692 -0.2184 -1.0295  0.1234
 2286ntf    cn113216   3.903   0.789   6.997 -0.0598  0.3235 -0.3587
 2286ntf    sn213217   4.008   0.674   6.904  0.0697  0.1144  0.0446
 2286ntf    nn313218   4.040   0.748   6.770  0.4970 -0.4861 -0.1911
 2286ntf    sn213219   4.175   0.750   6.690  0.4405  0.1804 -0.2796
 2286ntf    cn113220   4.199   0.923   6.640 -0.0963  0.2273 -0.3743
 2286ntf    fn413221   3.977   0.889   7.042  0.1879  0.0346 -0.1154
 2286ntf    fn413222   3.807   0.851   6.930 -0.5468 -0.1226 -0.0747
 2286ntf    fn413223   3.853   0.730   7.104  0.5575 -0.1816 -0.3492
 2286ntf    on513224   4.111   0.651   7.002  0.2392 -0.2827 -0.2235
 2286ntf    on513225   3.914   0.569   6.871  0.2452  0.0386 -0.2142
 2286ntf    on513226   4.159   0.693   6.558  0.6974 -0.3066 -0.1022
 2286ntf    on513227   4.289   0.717   6.772 -0.0207 -0.3759  0.1438
 2286ntf    fn413228   4.216   1.003   6.743  0.0251 -0.0565 -0.1745
 2286ntf    fn413229   4.306   0.933   6.562  0.2102  0.0601  0.0252
 2286ntf    fn413230   4.089   0.969   6.581 -0.4472 -0.4928 -0.2962
 2287ntf    cn113231   2.786   0.401   4.371  0.3757  0.0423  0.1806
 2287ntf    sn213232   2.833   0.248   4.457 -0.1022 -0.3360 -0.2237
 2287ntf    nn313233   2.782   0.136   4.360  0.7678 -0.7614 -0.1958
 2287ntf    sn213234   2.645   0.060   4.375 -0.0080  0.6211 -0.1405
 2287ntf    cn113235   2.662  -0.034   4.220  0.0488  0.4472 -0.0286
 2287ntf    fn413236   2.852   0.508   4.413  0.1507  0.1399  0.2878
 2287ntf    fn413237   2.811   0.399   4.241 -0.0698 -0.3440  0.0993
 2287ntf    fn413238   2.657   0.429   4.370  0.4014  0.1584  0.1593
 2287ntf    on513239   2.977   0.254   4.464 -0.1539  0.9395  0.0769
 2287ntf    on513240   2.765   0.244   4.584  0.5716 -0.0785  0.1524
 2287ntf    on513241   2.522   0.131   4.353 -0.1467  0.1932 -0.7796
 2287ntf    on513242   2.641  -0.042   4.476 -0.6715  0.7463 -0.0376
 2287ntf    fn413243   2.567  -0.123   4.196  0.3629  0.0544  0.1792
 2287ntf    fn413244   2.660   0.051   4.119 -0.5190  0.2405 -0.1956
 2287ntf    fn413245   2.772  -0.106   4.216 -0.3068 -0.0859 -0.3186
 2288ntf    cn113246   1.231   0.242   4.217 -0.2131 -0.0539 -0.3070
 2288ntf    sn213247   1.309   0.328   4.078  0.2553 -0.2634 -0.1763
 2288ntf    nn313248   1.231   0.268   3.956 -0.0351 -0.2493  0.0033
 2288ntf    sn213249   1.282   0.235   3.811  0.1486 -0.0181  0.0158
 2288ntf    cn113250   1.312   0.057   3.836  0.0706 -0.0357 -0.0161
 2288ntf    fn413251   1.259   0.113   4.222  0.1471  0.0102 -0.6343
 2288ntf    fn413252   1.262   0.283   4.339 -0.5590  0.8171 -0.5071
 2288ntf    fn413253   1.100   0.231   4.207 -0.2184  0.0552 -0.3600
 2288ntf    on513254   1.261   0.463   4.094 -0.3889 -0.4580 -0.4459
 2288ntf    on513255   1.451   0.302   4.091  0.3079 -0.0387 -0.3012
 2288ntf    on513256   1.404   0.297   3.765  0.1873 -0.2353 -0.1732
 2288ntf    on513257   1.183   0.227   3.707  0.3585 -0.7384 -0.1329
 2288ntf    fn413258   1.205  -0.012   3.871 -0.1957  0.3229 -0.1095
 2288ntf    fn413259   1.337  -0.002   3.720 -0.0387 -0.3611  0.1283
 2288ntf    fn413260   1.415   0.029   3.914  0.0112 -0.4300 -0.0772
 2289ntf    cn113261   2.773   0.803   6.455 -0.1038  0.1607  0.3320
 2289ntf    sn213262   2.653   0.726   6.568 -0.2716 -0.2177 -0.1027
 2289ntf    nn313263   2.687   0.801   6.702 -0.0720  0.7153 -0.6648
 2289ntf    sn213264   2.599   0.822   6.830  0.1139 -0.0434 -0.4024
 2289ntf    cn113265   2.661   0.984   6.884  0.0308 -0.1310 -0.0419
 2289ntf    fn413266   2.780   0.934   6.473  0.2375  0.1842  0.0386
 2289ntf    fn413267   2.902   0.773   6.457 -0.1869 -0.1833  0.4990
 2289ntf    fn413268   2.733   0.794   6.330  0.3235 -0.4527  0.2358
 2289ntf    on513269   2.532   0.741   6.491 -0.1772  0.5908 -0.1004
 2289ntf    on513270   2.698   0.589   6.564 -0.2684 -0.2069 -0.4975
 2289ntf    on513271   2.628   0.730   6.937  0.1144 -0.1632 -0.5057
 2289ntf    on513272   2.465   0.868   6.801  0.0139  0.2646  0.5186
 2289ntf    fn413273   2.599   1.029   6.992 -0.1186 -0.8827  0.1914
 2289ntf    fn413274   2.791   0.984   6.909 -0.0050 -0.5999  0.1473
 2289ntf    fn413275   2.644   1.080   6.794 -0.2345 -0.4633 -0.3495
 2290ntf    cn113276   0.488   2.927   1.925 -0.0829  0.5099 -0.0077
 2290ntf    sn213277   0.662   2.885   1.954 -0.3122 -0.3808  0.1173
 2290ntf    nn313278   0.722   3.025   1.994 -0.3445 -0.3492  0.0536
 2290ntf    sn213279   0.764   3.078   2.135 -0.0787 -0.1209 -0.1092
 2290ntf    cn113280   0.941   3.036   2.139 -0.0295  0.0738 -0.1881
 2290ntf    fn413281   0.423   2.964   2.034 -0.2184  0.3714 -0.0412
 2290ntf    fn413282   0.475   3.019   1.831 -0.3623  0.3749 -0.1023
 2290ntf    fn413283   0.415   2.822   1.891  0.4902  0.2062 -0.3061
 2290ntf    on513284   0.658   2.778   2.051 -0.1100  0.1978  0.7763
 2290ntf    on513285   0.714   2.851   1.824 -0.2856  0.2262 -0.0346
 2290ntf    on513286   0.703   3.012   2.248  0.6249 -0.3236  0.1592
 2290ntf    on513287   0.762   3.222   2.148 -0.4546 -0.1555  0.2512
 2290ntf    fn413288   1.011   3.095   2.044 -0.2456  0.6869  0.0283
 2290ntf    fn413289   0.995   3.079   2.252 -0.4110  0.1503 -0.0298
 2290ntf    fn413290   0.973   2.908   2.133  0.2063  0.1362 -0.2471
 2291ntf    cn113291   1.668   3.379   2.725  0.2253 -0.7489  0.0361
 2291ntf    sn213292   1.669   3.280   2.572  0.0328 -0.2030 -0.3193
 2291ntf    nn313293   1.541   3.337   2.502 -0.4565 -0.0621  0.6694
 2291ntf    sn213294   1.458   3.269   2.387  0.0999  0.0915  0.1706
 2291ntf    cn113295   1.506   3.360   2.238  0.0548  0.4171  0.3558
 2291ntf    fn413296   1.692   3.508   2.713 -0.1323 -0.7020 -0.2075
 2291ntf    fn413297   1.546   3.374   2.776  0.1150  0.0521 -0.1395
 2291ntf    fn413298   1.755   3.344   2.818  0.0261 -0.1388  0.4629
 2291ntf    on513299   1.788   3.335   2.513  0.4352 -0.6395  0.0772
 2291ntf    on513300   1.665   3.148   2.629  0.5506 -0.2945 -0.4942
 2291ntf    on513301   1.316   3.293   2.397 -0.0029 -0.3125 -0.2755
 2291ntf    on513302   1.496   3.132   2.364 -0.1103 -0.1223  1.0391
 2291ntf    fn413303   1.634   3.350   2.206 -0.1113 -0.3524 -0.0656
 2291ntf    fn413304   1.437   3.325   2.131  0.1979  0.4326  0.2575
 2291ntf    fn413305   1.480   3.490   2.247  0.4355  0.5183  0.0040
 2292ntf    cn113306   6.754   6.980   3.959 -0.1753 -0.1543  0.1811
 2292ntf    sn213307   6.795   6.803   3.952  0.4576  0.0098 -0.3766
 2292ntf    nn313308   6.654   6.741   3.922  0.4494 -0.3061  0.2992
 2292ntf    sn213309   6.613   6.589   3.927 -0.1861 -0.1418  0.1680
 2292ntf    cn113310   6.517   6.582   4.082 -0.3478 -0.1702  0.0659
 2292ntf    fn413311   6.741   7.046   3.846 -0.2894  0.1970  0.3962
 2292ntf    fn413312   6.654   7.016   4.038 -0.1170 -0.2501  0.2993
 2292ntf    fn413313   6.858   7.035   4.020  0.1733 -0.6951  0.0819
 2292ntf    on513314   6.887   6.795   3.842  0.5173  0.2415 -0.3430
 2292ntf    on513315   6.846   6.780   4.084 -0.0401  0.3197 -0.1256
 2292ntf    on513316   6.721   6.496   3.946  0.1478  0.1479 -0.3171
 2292ntf    on513317   6.517   6.548   3.827 -0.1678 -0.2961  0.2132
 2292ntf    fn413318   6.595   6.606   4.185 -0.3423 -0.4853  0.1348
 2292ntf    fn413319   6.425   6.677   4.095  0.2081  0.2721  0.8602
 2292ntf    fn413320   6.452   6.469   4.102 -0.1671 -0.1657  0.6839
 2293ntf    cn113321   1.316   0.291   2.736  0.3047  0.1822 -0.2406
 2293ntf    sn213322   1.272   0.164   2.858 -0.3723  0.4435 -0.2045
 2293ntf    nn313323   1.311   0.040   2.769  0.0157  0.6562 -0.3317
 2293ntf    sn213324   1.444  -0.043   2.770 -0.1234  0.4353  0.3618
 2293ntf    cn113325   1.413  -0.149   2.914  0.0474  0.1072  0.1569
 2293ntf    fn413326   1.446   0.311   2.722  0.3311  0.4239  0.3326
 2293ntf    fn413327   1.275   0.276   2.611 -0.4726  0.2925 -0.0049
 2293ntf    fn413328   1.271   0.412   2.768 -0.0072 -0.0616  0.2499
 2293ntf    on513329   1.355   0.193   2.972 -0.2185 -0.7366  0.0024
 2293ntf    on513330   1.128   0.167   2.869 -0.4514 -0.1330 -0.9953
 2293ntf    on513331   1.566   0.030   2.793  0.3337 -0.0392 -0.5238
 2293ntf    on513332   1.435  -0.131   2.656  1.2056  0.1938  0.4222
 2293ntf    fn413333   1.532  -0.189   2.955  0.1972  0.3799 -0.0133
 2293ntf    fn413334   1.351  -0.080   3.008 -0.6694 -0.4334  0.0969
 2293ntf    fn413335   1.337  -0.253   2.882  0.3041 -0.0784  0.1454
 2294ntf    cn113336   2.741   6.272   5.895 -0.0864 -0.2704 -0.2586
 2294ntf    sn213337   2.728   6.415   5.784  0.3389 -0.0442 -0.0203
 2294ntf    nn313338   2.875   6.469   5.786  0.3755 -0.1537  0.3076
 2294ntf    sn213339   2.947   6.576   5.696 -0.0434 -0.0776  0.0641
 2294ntf    cn113340   3.012   6.472   5.561 -0.0722  0.1513 -0.1267
 2294ntf    fn413341   2.837   6.188   5.859 -0.0615 -0.3885  0.0840
 2294ntf    fn413342   2.778   6.305   6.018 -0.1391  0.2661 -0.3849
 2294ntf    fn413343   2.625   6.211   5.914 -0.2290  0.0948  0.0376
 2294ntf    on513344   2.691   6.359   5.656  0.5850  0.6201 -0.3880
 2294ntf    on513345   2.630   6.505   5.841  0.4251  0.1643 -0.1978
 2294ntf    on513346   3.067   6.620   5.761  0.2570 -0.3605 -0.2953
 2294ntf    on513347   2.857   6.675   5.641 -0.1354 -0.1052  0.1633
 2294ntf    fn413348   3.112   6.531   5.496  0.3296  0.1024  0.4369
 2294ntf    fn413349   3.058   6.360   5.614 -0.5715 -0.1371 -0.2950
 2294ntf    fn413350   2.917   6.445   5.474  0.0779 -0.1978 -0.1829
 2295ntf    cn113351   3.144   3.756   1.558 -0.2114  0.1767  0.1503
 2295ntf    sn213352   3.128   3.917   1.641  0.0323  0.3221 -0.0826
 2295ntf    nn313353   3.040   3.887   1.768 -0.0290 -0.3952 -0.2896
 2295ntf    sn213354   3.080   3.868   1.918 -0.1713 -0.1658 -0.2218
 2295ntf    cn113355   3.017   3.700   1.946 -0.4879 -0.0241 -0.0872
 2295ntf    fn413356   3.241   3.741   1.469 -0.1985 -0.3177  0.2418
 2295ntf    fn413357   3.161   3.662   1.650  0.5275 -0.1824 -0.3460
 2295ntf    fn413358   3.030   3.740   1.495 -0.2616  0.2988  0.2098
 2295ntf    on513359   3.260   3.967   1.669  0.1112  0.2293 -0.2895
 2295ntf    on513360   3.046   3.997   1.555 -0.2412 -0.2349 -0.3472
 2295ntf    on513361   2.987   3.939   2.002 -0.0644 -0.2551 -0.0258
 2295ntf    on513362   3.214   3.840   1.965 -0.2425 -0.0782  0.0321
 2295ntf    fn413363   3.072   3.635   2.047 -0.4574 -0.2102 -0.2234
 2295ntf    fn413364   2.887   3.707   1.970 -0.5111  0.6104 -0.3848
 2295ntf    fn413365   3.023   3.627   1.836  0.0852  0.8948 -0.6722
 2296ntf    cn113366   1.804   4.685   3.338 -0.2553  0.1263  0.1539
 2296ntf    sn213367   1.765   4.578   3.480  0.0475  0.2251  0.3119
 2296ntf    nn313368   1.614   4.583   3.439  0.2225  0.6517 -0.2949
 2296ntf    sn213369   1.497   4.639   3.528 -0.0317  0.1221 -0.2860
 2296ntf    cn113370   1.353   4.556   3.455 -0.0511 -0.1012  0.0077
 2296ntf    fn413371   1.784   4.812   3.367 -0.4770  0.1453 -0.0816
 2296ntf    fn413372   1.931   4.667   3.308 -0.1487  0.2219  0.5438
 2296ntf    fn413373   1.736   4.656   3.228  0.0437 -0.8288  0.2112
 2296ntf    on513374   1.842   4.461   3.445 -0.0248  0.3333 -0.2145
 2296ntf    on513375   1.811   4.661   3.589 -0.1359  0.6812  0.0425
 2296ntf    on513376   1.486   4.781   3.503 -0.6668  0.1679  0.2488
 2296ntf    on513377   1.493   4.596   3.665 -0.5050  0.2007 -0.2735
 2296ntf    fn413378   1.369   4.425   3.457  0.0802 -0.0813  0.4435
 2296ntf    fn413379   1.244   4.586   3.525  0.0031  0.3222 -0.0878
 2296ntf    fn413380   1.327   4.589   3.330 -0.6594  0.2165  0.2142
 2297ntf    cn113381   4.374   0.308   1.546  0.1391 -0.0343 -0.2167
 2297ntf    sn213382   4.488   0.442   1.590 -0.1686  0.1757 -0.0574
 2297ntf    nn313383   4.392   0.532   1.675 -0.4278 -0.5087  0.3791
 2297ntf    sn213384   4.380   0.542   1.832 -0.0979  0.0880  0.3725
 2297ntf    cn113385   4.231   0.646   1.842 -0.3419 -0.2475  0.2515
 2297ntf    fn413386   4.426   0.219   1.463 -0.0866 -0.4166  0.0462
 2297ntf    fn413387   4.337   0.235   1.651 -0.6346  0.0679 -0.4114
 2297ntf    fn413388   4.256   0.351   1.504  0.2646  0.5933  0.0585
 2297ntf    on513389   4.597   0.373   1.655 -0.0233 -0.1242 -0.6189
 2297ntf    on513390   4.516   0.497   1.460 -0.1224  0.4697  0.0736
 2297ntf    on513391   4.489   0.610   1.897  0.0085  0.1935  0.0855
 2297ntf    on513392   4.343   0.414   1.888 -0.0438 -0.5607 -1.0164
 2297ntf    fn413393   4.202   0.679   1.967  0.1430  0.3743  0.2028
 2297ntf    fn413394   4.235   0.752   1.764 -0.0861 -0.4256  0.0215
 2297ntf    fn413395   4.126   0.580   1.796 -0.4660  0.0625  0.0888
 2298ntf    cn113396   0.355   4.104   2.296 -0.1207 -0.1506  0.2549
 2298ntf    sn213397   0.526   4.063   2.342  0.0916  0.2246 -0.1922
 2298ntf    nn313398   0.571   4.203   2.397  0.0725  0.0201  0.3506
 2298ntf    sn213399   0.713   4.226   2.459  0.2512  0.1450 -0.1005
 2298ntf    cn113400   0.668   4.258   2.632  0.3483 -0.1714 -0.0155
 2298ntf    fn413401   0.346   4.204   2.210  0.8983  0.0656  0.3858
 2298ntf    fn413402   0.291   4.003   2.239 -0.3961  0.2485 -0.1506
 2298ntf    fn413403   0.278   4.140   2.397 -0.1408 -0.0150  0.1921
 2298ntf    on513404   0.509   3.963   2.444 -0.4375  0.4251 -0.0805
 2298ntf    on513405   0.587   4.028   2.216  0.0456  0.0402 -0.1627
 2298ntf    on513406   0.767   4.352   2.416  0.2414  0.3390  0.4425
 2298ntf    on513407   0.805   4.115   2.455 -0.0540 -0.1045 -0.2046
 2298ntf    fn413408   0.570   4.183   2.680 -0.0499  0.3678  0.0260
 2298ntf    fn413409   0.771   4.260   2.716  0.4330 -0.6665 -0.1081
 2298ntf    fn413410   0.618   4.380   2.626 -0.2739 -0.4355 -0.2447
 2299ntf    cn113411   0.548   0.772   4.605  0.1895  0.0176 -0.0604
 2299ntf    sn213412   0.729   0.770   4.622  0.1966  0.0933 -0.1291
 2299ntf    nn313413   0.769   0.637   4.548 -0.2170 -0.0698 -0.0615
 2299ntf    sn213414   0.813   0.507   4.626 -0.0147 -0.0630 -0.1657
 2299ntf    cn113415   0.727   0.385   4.521 -0.1211  0.2071 -0.3965
 2299ntf    fn413416   0.485   0.877   4.656  0.3260 -0.0370  0.2281
 2299ntf    fn413417   0.513   0.770   4.478 -0.2545 -0.1597  0.0607
 2299ntf    fn413418   0.492   0.668   4.665 -0.1115  0.0096 -0.3529
 2299ntf    on513419   0.766   0.883   4.540 -0.0967  0.1693 -0.1579
 2299ntf    on513420   0.755   0.785   4.763  0.2807 -0.7238 -0.0534
 2299ntf    on513421   0.759   0.484   4.757 -0.3825  0.2403 -0.2602
 2299ntf    on513422   0.952   0.473   4.608  0.1495  0.2077  0.5717
 2299ntf    fn413423   0.735   0.265   4.576 -0.4055  0.5052  0.3136
 2299ntf    fn413424   0.599   0.413   4.505 -0.1556  0.5051  0.3264
 2299ntf    fn413425   0.788   0.379   4.404  0.2374 -0.0564 -0.1983
 2300ntf    cn113426   2.135   5.455   0.157 -0.5602 -0.0159  0.1723
 2300ntf    sn213427   2.088   5.487  -0.016 -0.4977  0.0094  0.1601
 2300ntf    nn313428   1.934   5.516  -0.000 -0.3860  0.6649  0.0414
 2300ntf    sn213429   1.819   5.503  -0.106 -0.0184 -0.1675 -0.2593
 2300ntf    cn113430   1.699   5.634  -0.068 -0.1171 -0.2422 -0.3115
 2300ntf    fn413431   2.251   5.393   0.169 -0.5912 -0.1616 -0.2875
 2300ntf    fn413432   2.133   5.565   0.230 -0.3311 -0.2086  0.4738
 2300ntf    fn413433   2.046   5.380   0.220 -0.8180  0.3139  0.2012
 2300ntf    on513434   2.156   5.609  -0.049  0.0251 -0.3645 -0.1518
 2300ntf    on513435   2.114   5.368  -0.093  0.1462  0.2502  0.0079
 2300ntf    on513436   1.742   5.383  -0.084 -0.1878  0.0578  0.3896
 2300ntf    on513437   1.864   5.523  -0.242  0.0998 -0.0241 -0.1995
 2300ntf    fn413438   1.753   5.753  -0.088  0.3117 -0.5383 -0.9474
 2300ntf    fn413439   1.590   5.636  -0.142 -0.1640 -0.0019 -0.2373
 2300ntf    fn413440   1.662   5.643   0.058 -0.3599  0.0238 -0.4009
 2301ntf    cn113441   2.027   1.059   0.079 -0.0951  0.2001 -0.0743
 2301ntf    sn213442   1.995   1.065  -0.100 -0.1273  0.1151 -0.0716
 2301ntf    nn313443   1.845   1.111  -0.103 -0.0957  0.2181 -0.0937
 2301ntf    sn213444   1.771   1.212  -0.198 -0.0211  0.3796  0.0193
 2301ntf    cn113445   1.792   1.368  -0.106  0.1371  0.3780 -0.0142
 2301ntf    fn413446   1.946   0.979   0.146  0.5684 -0.0215  0.4860
 2301ntf    fn413447   2.146   1.011   0.114  0.0291  0.5671  0.0081
 2301ntf    fn413448   2.007   1.176   0.137 -0.6706  0.1052 -0.0796
 2301ntf    on513449   2.089   1.164  -0.145 -0.3604  0.5061  0.2872
 2301ntf    on513450   2.014   0.931  -0.148 -0.0641  0.1372 -0.1076
 2301ntf    on513451   1.628   1.197  -0.198  0.0402 -0.2409 -0.2995
 2301ntf    on513452   1.833   1.250  -0.322 -0.0077 -0.1856 -0.1500
 2301ntf    fn413453   1.911   1.422  -0.123  0.3115 -0.0602 -0.2263
 2301ntf    fn413454   1.705   1.460  -0.145 -0.1204  0.3436  0.4781
 2301ntf    fn413455   1.776   1.368   0.025 -0.5204 -0.1023 -0.0870
 2302ntf    cn113456   5.114   2.385   4.217 -0.0350 -0.6599 -0.0800
 2302ntf    sn213457   4.979   2.484   4.147  0.3790 -0.0352 -0.0029
 2302ntf    nn313458   4.853   2.431   4.225  0.6947 -0.7974 -0.0087
 2302ntf    sn213459   4.722   2.374   4.161  0.3783 -0.1536  0.0683
 2302ntf    cn113460   4.606   2.506   4.211 -0.0586 -0.4069 -0.2664
 2302ntf    fn413461   5.140   2.420   4.342  0.4655 -0.5259 -0.2210
 2302ntf    fn413462   5.098   2.254   4.216  0.4398 -0.7290  0.4606
 2302ntf    fn413463   5.228   2.410   4.155  0.1616 -0.3928  0.3816
 2302ntf    on513464   5.012   2.621   4.177  0.3021 -0.0584  0.1888
 2302ntf    on513465   4.981   2.450   4.007 -0.3201 -0.2537  0.0366
 2302ntf    on513466   4.672   2.259   4.231 -0.4684  0.2561  0.1563
 2302ntf    on513467   4.711   2.382   4.017 -0.4254 -0.3539  0.1132
 2302ntf    fn413468   4.492   2.506   4.145 -0.1480 -0.2645 -0.1128
 2302ntf    fn413469   4.576   2.494   4.340 -0.0016  0.6659 -0.1443
 2302ntf    fn413470   4.661   2.626   4.202 -0.7266 -0.0925 -0.1632
 2303ntf    cn113471   2.665   4.637   6.052 -0.0051 -0.2276  0.4198
 2303ntf    sn213472   2.604   4.689   5.889 -0.2526 -0.4185  0.4511
 2303ntf    nn313473   2.506   4.569   5.863 -0.4041 -0.2065  0.0257
 2303ntf    sn213474   2.543   4.419   5.839  0.3758  0.0039 -0.1251
 2303ntf    cn113475   2.568   4.409   5.659 -0.3037 -0.5373 -0.1957
 2303ntf    fn413476   2.570   4.577   6.121 -0.5135 -0.2363 -0.2727
 2303ntf    fn413477   2.774   4.562   6.044  0.3330  0.3110 -0.1432
 2303ntf    fn413478   2.704   4.749   6.111 -0.1862  0.1100 -0.0934
 2303ntf    on513479   2.531   4.810   5.919 -0.0163 -0.2684  0.4255
 2303ntf    on513480   2.719   4.701   5.802 -0.4220  0.6670  0.3534
 2303ntf    on513481   2.421   4.345   5.859  0.2987  0.0684 -0.3474
 2303ntf    on513482   2.663   4.358   5.892 -0.2830 -0.9114  0.3461
 2303ntf    fn413483   2.650   4.314   5.617  0.0564 -0.3134 -0.0075
 2303ntf    fn413484   2.455   4.386   5.595 -0.3302  0.0939 -0.3822
 2303ntf    fn413485   2.610   4.525   5.611 -0.3047 -0.3689  0.2120
 2304ntf    cn113486   5.796   1.272   6.606  0.2965 -0.0990 -0.0270
 2304ntf    sn213487   5.830   1.093   6.601 -0.2224 -0.1960 -0.1569
 2304ntf    nn313488   5.686   1.048   6.644 -0.2909 -0.1527 -0.3420
 2304ntf    sn213489   5.634   0.946   6.751 -0.1106  0.3481  0.2322
 2304ntf    cn113490   5.660   1.052   6.896  0.0788  0.2837  0.2456
 2304ntf    fn413491   5.669   1.294   6.633  0.6094  0.6854  0.8510
 2304ntf    fn413492   5.853   1.346   6.699  0.1847  0.3038 -0.2796
 2304ntf    fn413493   5.835   1.346   6.504  0.3609 -0.1556 -0.0439
 2304ntf    on513494   5.874   1.069   6.466  0.5852  0.2248  0.0243
 2304ntf    on513495   5.932   1.071   6.702 -0.0015  0.6161 -0.1982
 2304ntf    on513496   5.714   0.828   6.774 -0.4675 -0.0978 -0.7739
 2304ntf    on513497   5.492   0.925   6.743 -0.0050 -0.0984 -0.6628
 2304ntf    fn413498   5.612   1.012   7.012 -0.6480  0.4110 -0.0045
 2304ntf    fn413499   5.787   1.078   6.922  0.1836 -0.2172  0.2448
 2304ntf    fn413500   5.597   1.168   6.882 -0.4416 -0.0587 -0.2835
 2305ntf    cn113501   1.643   3.280   0.640  0.0531  0.3208 -0.3015
 2305ntf    sn213502   1.651   3.226   0.467 -0.0714 -0.0931 -0.1791
 2305ntf    nn313503   1.800   3.174   0.466  0.1223  0.4644 -0.4062
 2305ntf    sn213504   1.932   3.256   0.443  0.1510  0.5333  0.0041
 2305ntf    cn113505   1.911   3.249   0.263 -0.0868  0.4593  0.0343
 2305ntf    fn413506   1.526   3.324   0.685  0.2001  0.0648  0.3508
 2305ntf    fn413507   1.677   3.185   0.726  0.0244  0.6219  0.0454
 2305ntf    fn413508   1.722   3.384   0.662  0.2231  0.1553 -0.1194
 2305ntf    on513509   1.554   3.119   0.470  0.1212 -0.2682 -0.1872
 2305ntf    on513510   1.624   3.343   0.388 -0.2815  0.3995  0.6155
 2305ntf    on513511   2.054   3.190   0.483 -0.2441 -0.3181 -0.1801
 2305ntf    on513512   1.935   3.397   0.474  0.4796  0.4100  0.5449
 2305ntf    fn413513   1.851   3.143   0.212 -0.1333  0.5258 -0.0500
 2305ntf    fn413514   1.849   3.355   0.213 -0.1358  0.3938 -0.0452
 2305ntf    fn413515   2.028   3.241   0.203 -0.1876 -0.4118 -0.0567
 2306ntf    cn113516   0.372   1.870   3.320  0.0574 -0.2422 -0.1289
 2306ntf    sn213517   0.214   1.941   3.266  0.2585 -0.0107 -0.4204
 2306ntf    nn313518   0.208   2.080   3.339  0.1257 -0.3822  0.2863
 2306ntf    sn213519   0.148   2.107   3.482 -0.2378  0.0641  0.0534
 2306ntf    cn113520  -0.030   2.097   3.450 -0.2812 -0.0009  0.3147
 2306ntf    fn413521   0.391   1.885   3.450 -0.4115 -0.1060 -0.0733
 2306ntf    fn413522   0.409   1.747   3.289 -0.0201 -0.2995  0.0027
 2306ntf    fn413523   0.469   1.950   3.278  0.1196 -0.2025  0.0847
 2306ntf    on513524   0.243   1.962   3.127  0.2550  0.5658 -0.3361
 2306ntf    on513525   0.113   1.843   3.298  1.0402 -0.7223 -0.1160
 2306ntf    on513526   0.176   2.241   3.525 -0.0289 -0.0003  0.1242
 2306ntf    on513527   0.177   1.997   3.571 -0.2502 -0.4166 -0.5268
 2306ntf    fn413528  -0.073   2.152   3.338 -0.1654  0.2195  0.3769
 2306ntf    fn413529  -0.080   1.975   3.452 -0.2585 -0.0162 -0.0615
 2306ntf    fn413530  -0.098   2.160   3.545 -0.7561  0.2405 -0.1788
 2307ntf    cn113531   3.467   4.395   1.447 -0.2064  0.3070  0.0935
 2307ntf    sn213532   3.421   4.384   1.272 -0.1875  0.1299  0.0998
 2307ntf    nn313533   3.267   4.359   1.291 -0.1765 -0.0370 -0.0253
 2307ntf    sn213534   3.155   4.456   1.344 -0.1353 -0.1617  0.2885
 2307ntf    cn113535   3.119   4.555   1.196  0.4114 -0.2961  0.0622
 2307ntf    fn413536   3.426   4.502   1.514 -0.3811  0.2150  0.1339
 2307ntf    fn413537   3.431   4.290   1.520 -0.5638  0.3762  0.0206
 2307ntf    fn413538   3.599   4.397   1.453 -0.1995 -0.3056  0.2083
 2307ntf    on513539   3.469   4.510   1.220  0.3992  0.0621  0.4722
 2307ntf    on513540   3.484   4.265   1.221  0.3434  0.1740  0.6507
 2307ntf    on513541   3.191   4.556   1.442  0.9738 -0.1205 -0.1368
 2307ntf    on513542   3.027   4.391   1.356 -0.0868 -0.3473 -0.1801
 2307ntf    fn413543   3.006   4.624   1.192  0.5600 -0.0406  0.2398
 2307ntf    fn413544   3.218   4.639   1.169 -0.5483  0.6460 -0.6197
 2307ntf    fn413545   3.112   4.465   1.099  0.0758 -0.4490  0.2279
 2308ntf    cn113546   0.402   2.255   4.221  0.3481 -0.2944 -0.7766
 2308ntf    sn213547   0.520   2.382   4.277 -0.3238  0.0229 -0.0637
 2308ntf    nn313548   0.421   2.504   4.283 -0.1431  0.1508  0.3660
 2308ntf    sn213549   0.416   2.630   4.189 -0.1143 -0.0352  0.1148
 2308ntf    cn113550   0.573   2.715   4.226 -0.1934  0.0368  0.2877
 2308ntf    fn413551   0.343   2.208   4.330  1.3171 -0.3475 -0.2595
 2308ntf    fn413552   0.312   2.300   4.135 -0.0080  0.0652 -0.2250
 2308ntf    fn413553   0.467   2.150   4.175  0.3630 -0.3699 -0.5858
 2308ntf    on513554   0.555   2.338   4.410 -0.1991 -0.4482 -0.2516
 2308ntf    on513555   0.622   2.377   4.175 -0.0422 -0.2148  0.2274
 2308ntf    on513556   0.315   2.729   4.214 -0.0590  0.2792 -0.8578
 2308ntf    on513557   0.426   2.585   4.052 -0.3865  0.2975 -0.0128
 2308ntf    fn413558   0.571   2.745   4.354 -0.2714 -0.0893  0.3156
 2308ntf    fn413559   0.679   2.643   4.196 -0.1065  0.3869 -0.2734
 2308ntf    fn413560   0.571   2.831   4.162 -0.1528  0.1947  0.5736
 2309ntf    cn113561   5.093   6.425   6.407 -0.0519  0.1332 -0.0630
 2309ntf    sn213562   5.177   6.552   6.309 -0.1772  0.5295  0.3396
 2309ntf    nn313563   5.119   6.514   6.168  0.4312 -0.1519  0.2675
 2309ntf    sn213564   5.183   6.525   6.025  0.2864 -0.0857  0.2068
 2309ntf    cn113565   5.232   6.352   5.998 -0.5146 -0.2221 -0.3820
 2309ntf    fn413566   5.137   6.303   6.381 -0.2468  0.0848 -0.1641
 2309ntf    fn413567   5.111   6.445   6.537 -0.1229  0.7392 -0.1468
 2309ntf    fn413568   4.964   6.441   6.382 -0.0639  0.1670  0.0192
 2309ntf    on513569   5.136   6.682   6.355 -0.4182  0.4478  0.3611
 2309ntf    on513570   5.317   6.518   6.316  0.0495  1.0420 -1.2078
 2309ntf    on513571   5.311   6.592   6.029  0.3130 -0.1662  0.7069
 2309ntf    on513572   5.097   6.555   5.913 -0.5145 -0.2495  0.7741
 2309ntf    fn413573   5.290   6.335   5.880 -0.6544 -0.0077 -0.4834
 2309ntf    fn413574   5.323   6.312   6.085 -0.0570  0.5099 -0.5127
 2309ntf    fn413575   5.128   6.271   6.005 -0.6329 -0.0079  0.4255
 2310ntf    cn113576   0.804   5.793   2.797  0.0169  0.1719 -0.0658
 2310ntf    sn213577   0.894   5.886   2.670 -0.0691 -0.0403 -0.2827
 2310ntf    nn313578   0.970   5.985   2.765  0.4485 -0.1403 -0.5826
 2310ntf    sn213579   1.019   6.131   2.735  0.3458  0.0370  0.0863
 2310ntf    cn113580   1.191   6.090   2.694  0.3192 -0.0131  0.0252
 2310ntf    fn413581   0.710   5.870   2.851  0.0912  0.6838 -0.6564
 2310ntf    fn413582   0.735   5.690   2.751  0.1668  0.2891 -0.5608
 2310ntf    fn413583   0.880   5.765   2.901  0.0213 -0.2741 -0.1890
 2310ntf    on513584   0.993   5.801   2.607 -0.1728 -0.0772 -0.3952
 2310ntf    on513585   0.789   5.940   2.587 -0.1793  0.4004  0.1409
 2310ntf    on513586   1.036   6.212   2.853 -0.1348  0.0895  0.1223
 2310ntf    on513587   0.957   6.193   2.620 -0.8110  0.1649  0.7676
 2310ntf    fn413588   1.277   6.079   2.794  0.2616  0.2715  0.1065
 2310ntf    fn413589   1.199   5.981   2.620  0.3434  0.5886 -0.8665
 2310ntf    fn413590   1.253   6.175   2.614 -0.1659 -0.0652 -0.4128
 2311ntf    cn113591   3.867   4.190   4.051 -0.2193  0.0323  0.0303
 2311ntf    sn213592   3.995   4.293   4.129  0.2902 -0.3656 -0.2724
 2311ntf    nn313593   3.898   4.416   4.129  0.0519 -0.5430  0.6380
 2311ntf    sn213594   3.787   4.461   4.230  0.0299 -0.0045  0.3780
 2311ntf    cn113595   3.840   4.634   4.249  0.9017 -0.1951 -0.2815
 2311ntf    fn413596   3.927   4.078   4.015  0.3519  0.1425  0.6236
 2311ntf    fn413597   3.762   4.166   4.127  0.2113 -0.1108  0.5871
 2311ntf    fn413598   3.821   4.244   3.939  0.1674  0.6068  0.1427
 2311ntf    on513599   4.011   4.221   4.254 -1.1448  0.2102  0.2601
 2311ntf    on513600   4.111   4.302   4.045 -0.2074 -0.3602 -0.9629
 2311ntf    on513601   3.796   4.399   4.360 -0.1731 -0.3351  0.2349
 2311ntf    on513602   3.658   4.473   4.165  0.0256  0.2192  0.4253
 2311ntf    fn413603   3.801   4.706   4.145  0.4480 -0.2784 -0.1740
 2311ntf    fn413604   3.793   4.695   4.356  0.3444 -0.0733 -0.5898
 2311ntf    fn413605   3.972   4.644   4.255  0.8127  0.6923  0.3765
 2312ntf    cn113606   4.116   5.482   3.019  0.1109  0.1636 -0.2781
 2312ntf    sn213607   4.154   5.396   2.863  0.0474  0.0022 -0.2053
 2312ntf    nn313608   4.131   5.507   2.755 -0.2095 -0.3105 -0.4732
 2312ntf    sn213609   4.245   5.605   2.710 -0.3175  0.0875  0.1122
 2312ntf    cn113610   4.158   5.762   2.682  0.0251  0.2525 -0.0388
 2312ntf    fn413611   4.193   5.588   3.035 -0.4908  0.4865  0.5677
 2312ntf    fn413612   3.990   5.521   3.025 -0.0450 -0.3685 -0.0516
 2312ntf    fn413613   4.140   5.408   3.126  0.0309  0.4195 -0.0815
 2312ntf    on513614   4.286   5.347   2.892 -0.1991 -0.4823  0.1101
 2312ntf    on513615   4.052   5.295   2.849  0.1410 -0.0100 -0.7946
 2312ntf    on513616   4.309   5.586   2.582  0.5997  0.2157  0.5394
 2312ntf    on513617   4.346   5.634   2.809  0.2195  0.1239 -0.4391
 2312ntf    fn413618   4.232   5.861   2.635  0.5892  0.1496  0.6150
 2312ntf    fn413619   4.069   5.741   2.586  0.0971 -0.5018  0.0584
 2312ntf    fn413620   4.100   5.809   2.791 -0.5238 -0.4997 -0.0001
 2313ntf    cn113621   6.681   0.207   3.225  0.1012  0.0888  0.0720
 2313ntf    sn213622   6.685   0.381   3.173  0.2472  0.0421 -0.0704
 2313ntf    nn313623   6.543   0.401   3.109 -0.0657 -0.0589  0.5941
 2313ntf    sn213624   6.407   0.441   3.176 -0.1466 -0.0832  0.4457
 2313ntf    cn113625   6.283   0.330   3.104 -0.2297  0.2702  0.0416
 2313ntf    fn413626   6.598   0.183   3.325  0.1483  0.3257  0.1679
 2313ntf    fn413627   6.652   0.122   3.129  0.1646  0.0413  0.0948
 2313ntf    fn413628   6.803   0.176   3.266 -0.1274 -0.0702  0.6448
 2313ntf    on513629   6.703   0.448   3.299 -0.5006  0.1207 -0.0010
 2313ntf    on513630   6.797   0.385   3.081  0.6584  0.3722  0.4400
 2313ntf    on513631   6.362   0.573   3.138 -0.7040 -0.3803  0.0724
 2313ntf    on513632   6.392   0.404   3.315  0.6292 -1.3504  0.2019
 2313ntf    fn413633   6.268   0.369   2.978  0.5209 -0.1399 -0.1776
 2313ntf    fn413634   6.331   0.208   3.092 -0.0970  0.3380 -0.1212
 2313ntf    fn413635   6.168   0.320   3.169 -0.0119 -0.3005  0.3409
 2314ntf    cn113636   3.117   0.703   1.490 -0.3473 -0.4629  0.0552
 2314ntf    sn213637   2.996   0.778   1.378 -0.1682  0.1762  0.2882
 2314ntf    nn313638   2.928   0.646   1.327  0.7512 -0.4781  0.7287
 2314ntf    sn213639   2.793   0.583   1.375  0.0264  0.3255 -0.1999
 2314ntf    cn113640   2.677   0.668   1.263  0.1086  0.1083 -0.4505
 2314ntf    fn413641   3.186   0.611   1.424 -0.4969 -0.6428  0.1474
 2314ntf    fn413642   3.201   0.787   1.547  0.0642 -0.2013 -0.9245
 2314ntf    fn413643   3.062   0.643   1.594 -0.3294 -0.2813  0.1701
 2314ntf    on513644   2.915   0.868   1.457 -0.1259  0.1849  0.3211
 2314ntf    on513645   3.069   0.839   1.270  0.1225  0.2382  0.5185
 2314ntf    on513646   2.762   0.636   1.505  0.3415  0.4033 -0.1570
 2314ntf    on513647   2.775   0.442   1.346 -0.1694  0.5032 -0.9592
 2314ntf    fn413648   2.554   0.648   1.306  0.3239 -0.1073  0.0784
 2314ntf    fn413649   2.707   0.797   1.263 -0.1887  0.1765 -0.7866
 2314ntf    fn413650   2.683   0.625   1.138 -0.6564 -0.3636 -0.3333
 2315ntf    cn113651   4.107   3.450   2.370 -0.0173  0.6380 -0.2785
 2315ntf    sn213652   4.275   3.430   2.438 -0.1057 -0.0703 -0.2606
 2315ntf    nn313653   4.348   3.568   2.427  0.0528 -0.1378 -0.0515
 2315ntf    sn213654   4.330   3.695   2.518 -0.0889 -0.5753  0.5346
 2315ntf    cn113655   4.309   3.817   2.386  0.4357 -0.7201  0.3153
 2315ntf    fn413656   4.025   3.517   2.449 -0.4650  0.7025 -0.7982
 2315ntf    fn413657   4.106   3.513   2.254 -0.3460  0.5751 -0.3085
 2315ntf    fn413658   4.039   3.337   2.359  0.0558  0.5401  0.2538
 2315ntf    on513659   4.246   3.380   2.570 -0.6231 -0.1313 -0.3963
 2315ntf    on513660   4.331   3.334   2.346  0.0859  0.4839 -0.7266
 2315ntf    on513661   4.448   3.735   2.589  0.3809 -0.0437 -0.5263
 2315ntf    on513662   4.205   3.702   2.590 -0.0547  0.5473  0.4966
 2315ntf    fn413663   4.260   3.926   2.444 -0.6291 -0.9047 -0.2070
 2315ntf    fn413664   4.428   3.856   2.341 -0.1533 -0.4446 -1.0775
 2315ntf    fn413665   4.231   3.784   2.284  0.0855  0.4094  0.2049
 2316ntf    cn113666   4.198   2.752   4.907 -0.0832  0.1542 -0.2920
 2316ntf    sn213667   4.374   2.753   4.862  0.0050  0.0847  0.0494
 2316ntf    nn313668   4.382   2.899   4.804 -0.0278  0.0722  0.0135
 2316ntf    sn213669   4.488   3.011   4.832 -0.0014  0.0691 -0.0708
 2316ntf    cn113670   4.603   2.988   4.693 -0.0310  0.0891 -0.0985
 2316ntf    fn413671   4.165   2.825   5.011 -0.3283 -0.0502 -0.2249
 2316ntf    fn413672   4.118   2.803   4.815  0.1327  0.5467 -0.2635
 2316ntf    fn413673   4.162   2.625   4.923 -0.3819  0.2573 -0.1542
 2316ntf    on513674   4.434   2.741   4.993  0.9777  0.7355 -0.3238
 2316ntf    on513675   4.384   2.644   4.769 -0.1347 -0.1408  0.2988
 2316ntf    on513676   4.576   3.000   4.946  0.0828 -0.5674 -0.1967
 2316ntf    on513677   4.438   3.143   4.805 -0.3472 -0.0885 -0.2032
 2316ntf    fn413678   4.545   3.003   4.575 -0.2189 -0.1204 -0.0331
 2316ntf    fn413679   4.702   3.073   4.714  0.2066 -0.1805 -0.1373
 2316ntf    fn413680   4.659   2.868   4.687  0.3842  0.2893 -0.2620
 2317ntf    cn113681   0.949   4.209   6.361  0.2255  0.0193 -0.1991
 2317ntf    sn213682   1.126   4.241   6.337  0.2512  0.0601  0.0458
 2317ntf    nn313683   1.178   4.095   6.310  0.0688  0.0853 -0.4523
 2317ntf    sn213684   1.250   4.003   6.415 -0.1285  0.1609 -0.2484
 2317ntf    cn113685   1.199   3.832   6.379 -0.3467  0.1779 -0.0190
 2317ntf    fn413686   0.938   4.119   6.457 -0.3355  0.2996  0.0049
 2317ntf    fn413687   0.877   4.312   6.403 -0.1627 -0.2869 -0.1082
 2317ntf    fn413688   0.900   4.162   6.247 -0.0800  0.9749 -0.4794
 2317ntf    on513689   1.133   4.326   6.221  0.9521 -0.2716 -0.1637
 2317ntf    on513690   1.159   4.298   6.465  0.2335  0.2858 -0.0490
 2317ntf    on513691   1.214   4.015   6.554 -0.0301 -0.3337 -0.1765
 2317ntf    on513692   1.394   3.993   6.400 -0.1283  0.1257 -0.2213
 2317ntf    fn413693   1.260   3.750   6.462 -0.0917  0.5682  0.1873
 2317ntf    fn413694   1.069   3.819   6.401 -0.3933  0.6932  0.0231
 2317ntf    fn413695   1.210   3.788   6.255 -0.6185  0.2336 -0.0639
 2318ntf    cn113696   5.949   3.149   2.715  0.2076  0.1597  0.2962
 2318ntf    sn213697   5.810   3.094   2.611  0.0978  0.2724  0.3827
 2318ntf    nn313698   5.834   2.939   2.618  0.5361  0.3244  0.0845
 2318ntf    sn213699   5.787   2.845   2.735  0.1950  0.1587 -0.1833
 2318ntf    cn113700   5.668   2.737   2.649 -0.1128  0.0508  0.3744
 2318ntf    fn413701   5.923   3.135   2.844 -0.4095 -0.1079  0.1448
 2318ntf    fn413702   6.062   3.090   2.678  0.1325  0.4671 -0.4468
 2318ntf    fn413703   5.974   3.279   2.708 -0.1205  0.2050 -0.0784
 2318ntf    on513704   5.695   3.146   2.682 -0.3947 -0.1596 -0.0914
 2318ntf    on513705   5.830   3.149   2.479 -0.3947 -0.1500  0.1301
 2318ntf    on513706   5.699   2.901   2.835 -0.6096 -0.1643 -0.6985
 2318ntf    on513707   5.892   2.750   2.764  0.2348  0.3565  0.3218
 2318ntf    fn413708   5.717   2.650   2.562 -0.3810 -0.0181  0.2903
 2318ntf    fn413709   5.590   2.674   2.734 -0.1897  0.0635  0.3133
 2318ntf    fn413710   5.582   2.819   2.590  0.0018 -0.3852 -0.4177
 2319ntf    cn113711   3.255   4.569   2.745  0.3299 -0.2546 -0.2610
 2319ntf    sn213712   3.244   4.447   2.611 -0.0406 -0.0881 -0.3825
 2319ntf    nn313713   3.223   4.545   2.491  0.7417  0.0117 -0.4406
 2319ntf    sn213714   3.187   4.509   2.342  0.4157 -0.0370 -0.3495
 2319ntf    cn113715   3.008   4.539   2.347  0.4818  0.3075  0.1119
 2319ntf    fn413716   3.259   4.503   2.860 -0.5249  0.1027 -0.0209
 2319ntf    fn413717   3.365   4.642   2.742  0.0513  0.1836  0.1171
 2319ntf    fn413718   3.158   4.658   2.745  0.5787  0.0201 -0.2840
 2319ntf    on513719   3.372   4.382   2.627 -0.2337 -0.4192 -0.1730
 2319ntf    on513720   3.132   4.363   2.648  0.5454 -0.6542  0.1425
 2319ntf    on513721   3.208   4.372   2.305 -0.0069 -0.2112  0.0478
 2319ntf    on513722   3.237   4.612   2.254 -0.5740  0.1265 -0.7321
 2319ntf    fn413723   2.947   4.461   2.435 -0.3132  1.0639  0.2423
 2319ntf    fn413724   2.985   4.666   2.376  0.0580  0.2280  0.1311
 2319ntf    fn413725   2.957   4.522   2.225 -0.9474 -1.0688  0.8507
 2320ntf    cn113726   3.784   2.217   4.087  0.3060 -0.0231  0.4018
 2320ntf    sn213727   3.659   2.274   3.968  0.3135  0.1570  0.4805
 2320ntf    nn313728   3.693   2.423   3.932  0.2976 -0.0846 -0.5773
 2320ntf    sn213729   3.592   2.537   3.895  0.0087 -0.0860  0.1867
 2320ntf    cn113730   3.567   2.606   4.061 -0.1578 -0.3004  0.2517
 2320ntf    fn413731   3.792   2.087   4.108 -0.4750 -0.0842  0.3330
 2320ntf    fn413732   3.906   2.252   4.047  0.1987 -0.3220 -0.2099
 2320ntf    fn413733   3.767   2.267   4.208  0.3617  0.4918  0.2033
 2320ntf    on513734   3.676   2.188   3.854 -0.2108 -0.2753  0.7251
 2320ntf    on513735   3.544   2.251   4.051 -0.0185 -0.2471 -0.0889
 2320ntf    on513736   3.458   2.497   3.862  0.0251 -0.2052  0.2648
 2320ntf    on513737   3.653   2.640   3.814 -0.4470 -0.2507 -0.3775
 2320ntf    fn413738   3.527   2.518   4.151 -0.0281 -0.6798 -0.0626
 2320ntf    fn413739   3.680   2.665   4.099 -0.3916  0.3664 -0.0685
 2320ntf    fn413740   3.473   2.699   4.052  0.0820 -0.1327 -0.6490
 2321ntf    cn113741   6.469   3.739   4.770 -0.0129  0.4055  0.4618
 2321ntf    sn213742   6.305   3.768   4.696  0.1253  0.0649  0.0170
 2321ntf    nn313743   6.315   3.677   4.569 -0.2036  0.4257 -0.2678
 2321ntf    sn213744   6.254   3.536   4.534 -0.0967  0.2553  0.2355
 2321ntf    cn113745   6.108   3.579   4.435 -0.0720 -0.3111 -0.0503
 2321ntf    fn413746   6.566   3.793   4.698 -0.0257 -0.3854 -0.1612
 2321ntf    fn413747   6.478   3.782   4.895 -0.3744  0.3400  0.5115
 2321ntf    fn413748   6.495   3.611   4.793 -0.4913  0.1321 -0.4614
 2321ntf    on513749   6.209   3.724   4.795  0.1062 -0.1344 -0.0892
 2321ntf    on513750   6.299   3.906   4.658  0.1229 -0.0673 -0.4640
 2321ntf    on513751   6.201   3.464   4.647  0.4094 -0.0058  0.3083
 2321ntf    on513752   6.344   3.466   4.446 -0.2190  0.2281  0.1318
 2321ntf    fn413753   6.136   3.671   4.344  0.3524  0.0339  0.4211
 2321ntf    fn413754   6.062   3.472   4.372 -0.0075 -0.2331 -0.2298
 2321ntf    fn413755   6.010   3.626   4.511  0.5950  0.3427  0.4131
 2322ntf    cn113756   5.449   3.741   3.281 -0.3164 -0.2711 -0.5335
 2322ntf    sn213757   5.360   3.898   3.260  0.0427  0.0445  0.2729
 2322ntf    nn313758   5.289   3.865   3.125  0.4464 -0.1353  0.1024
 2322ntf    sn213759   5.347   3.896   2.982 -0.0266  0.1141 -0.0373
 2322ntf    cn113760   5.199   3.962   2.899  0.1044  0.2895 -0.1327
 2322ntf    fn413761   5.358   3.645   3.282  0.0437 -0.6142  0.3430
 2322ntf    fn413762   5.538   3.725   3.184 -0.2489  0.6101 -0.6256
 2322ntf    fn413763   5.512   3.734   3.397 -0.3670  0.7666 -0.4298
 2322ntf    on513764   5.271   3.893   3.373  0.0196  0.3797  0.2709
 2322ntf    on513765   5.458   4.005   3.258 -0.0947  0.1583 -0.4451
 2322ntf    on513766   5.381   3.785   2.897  0.0129  0.3140 -0.2829
 2322ntf    on513767   5.444   4.003   2.977  0.2075 -0.0965  0.0034
 2322ntf    fn413768   5.218   3.992   2.772 -0.5721  0.3112 -0.2335
 2322ntf    fn413769   5.100   3.874   2.897  0.4957 -0.1825  0.5130
 2322ntf    fn413770   5.160   4.070   2.965 -0.2668 -0.2056  0.4748
 2323ntf    cn113771   3.132   0.895   4.372 -0.3624  0.0510 -0.1117
 2323ntf    sn213772   3.162   1.073   4.392  0.6274 -0.1237 -0.0040
 2323ntf    nn313773   3.304   1.076   4.325  0.2197  0.0107 -0.8699
 2323ntf    sn213774   3.433   1.028   4.401 -0.0865 -0.0232 -0.3703
 2323ntf    cn113775   3.516   1.188   4.424 -0.0132 -0.2047  0.7085
 2323ntf    fn413776   3.220   0.828   4.444 -0.1965  0.1109 -0.2579
 2323ntf    fn413777   3.014   0.862   4.424 -0.3885  0.2381 -0.0532
 2323ntf    fn413778   3.146   0.842   4.251  0.0471 -0.2371  0.0604
 2323ntf    on513779   3.066   1.124   4.298  0.1665 -0.3898  0.3157
 2323ntf    on513780   3.152   1.112   4.531 -0.2167  0.2636 -0.1690
 2323ntf    on513781   3.532   0.959   4.323  0.4523  0.0714  0.2213
 2323ntf    on513782   3.418   0.987   4.539  0.3722 -0.0133 -0.3177
 2323ntf    fn413783   3.639   1.168   4.468  0.0783  0.1900  0.6363
 2323ntf    fn413784   3.525   1.267   4.318 -0.1130 -0.5308  0.4549
 2323ntf    fn413785   3.461   1.266   4.516 -0.1618  0.2134  0.2731
 2324ntf    cn113786   5.279   2.609   0.115 -0.1123 -0.0820 -0.3486
 2324ntf    sn213787   5.245   2.777   0.052 -0.0774  0.1524  0.2491
 2324ntf    nn313788   5.217   2.743  -0.099  0.0070 -0.7226  0.4226
 2324ntf    sn213789   5.316   2.761  -0.219 -0.3384  0.2855  0.2760
 2324ntf    cn113790   5.314   2.938  -0.257 -0.2450  0.1840 -0.2216
 2324ntf    fn413791   5.232   2.600   0.238  0.1685 -0.1316 -0.2440
 2324ntf    fn413792   5.227   2.511   0.044  0.1882 -0.0048 -0.6776
 2324ntf    fn413793   5.408   2.581   0.123 -0.1172  0.0873  0.3462
 2324ntf    on513794   5.121   2.810   0.119 -0.1494 -0.0353  0.2114
 2324ntf    on513795   5.359   2.859   0.082 -0.2703  0.5192 -0.0132
 2324ntf    on513796   5.265   2.705  -0.342 -0.0398  0.5191  0.0442
 2324ntf    on513797   5.454   2.729  -0.191 -0.3793 -0.3883 -0.2487
 2324ntf    fn413798   5.191   2.975  -0.287 -0.1681  0.6709  0.0466
 2324ntf    fn413799   5.334   3.006  -0.144 -0.3066 -0.0943 -0.0434
 2324ntf    fn413800   5.401   2.971  -0.351 -0.0260  0.2975  0.0152
 2325ntf    cn113801   3.167   4.430   0.370 -0.0760 -0.0622  0.3972
 2325ntf    sn213802   3.285   4.559   0.320 -0.2943  0.0367  0.1358
 2325ntf    nn313803   3.211   4.684   0.381 -0.5158 -0.2325  0.4265
 2325ntf    sn213804   3.192   4.826   0.316  0.0499 -0.2812  0.1440
 2325ntf    cn113805   3.031   4.862   0.393 -0.0994  0.0378 -0.3106
 2325ntf    fn413806   3.048   4.464   0.324  0.2673 -0.2778 -0.6886
 2325ntf    fn413807   3.185   4.303   0.336  0.4367  0.1341 -0.0776
 2325ntf    fn413808   3.147   4.435   0.500 -0.1028 -0.1608  0.3972
 2325ntf    on513809   3.410   4.544   0.391 -0.4068  0.1652  0.3619
 2325ntf    on513810   3.284   4.552   0.176 -0.2269 -0.1870  0.1467
 2325ntf    on513811   3.163   4.827   0.175  0.1783 -0.1159  0.1188
 2325ntf    on513812   3.284   4.922   0.370 -0.4219  0.1963  0.1057
 2325ntf    fn413813   2.939   4.788   0.334  0.0123 -0.1129 -0.2977
 2325ntf    fn413814   3.025   4.833   0.522  0.3053 -0.0329 -0.3043
 2325ntf    fn413815   2.994   4.989   0.388 -0.2739 -0.0105 -0.2146
 2326ntf    cn113816   5.133   3.822   5.674 -0.0490 -0.4168  0.0231
 2326ntf    sn213817   5.077   3.855   5.844 -0.3313 -0.0138 -0.1466
 2326ntf    nn313818   5.098   3.710   5.898  0.2853  0.1681  0.1116
 2326ntf    sn213819   4.997   3.624   5.982  0.3725 -0.1424 -0.0974
 2326ntf    cn113820   4.912   3.530   5.852 -0.2380 -0.0990  0.2636
 2326ntf    fn413821   5.265   3.814   5.665 -0.0462  0.1106 -0.4416
 2326ntf    fn413822   5.092   3.709   5.618  0.0306 -0.2882 -0.2955
 2326ntf    fn413823   5.096   3.924   5.598  0.1437  0.0534  0.5507
 2326ntf    on513824   5.177   3.949   5.889 -0.4621  0.0342  0.0414
 2326ntf    on513825   4.942   3.903   5.835 -0.1931  0.4304  0.1130
 2326ntf    on513826   4.885   3.694   6.041  0.2110 -0.2082 -0.3248
 2326ntf    on513827   5.066   3.523   6.058  0.1784 -0.1090  0.1244
 2326ntf    fn413828   4.902   3.596   5.738 -0.4893 -0.1952  0.2293
 2326ntf    fn413829   4.979   3.419   5.827 -0.3469 -0.0298 -0.3687
 2326ntf    fn413830   4.787   3.503   5.888 -0.1784 -1.0595 -0.2129
 2327ntf    cn113831   2.133   6.986   3.162 -0.2444 -0.0531 -0.2812
 2327ntf    sn213832   2.184   7.053   3.000  0.5396 -0.0736 -0.0456
 2327ntf    nn313833   2.192   6.923   2.912 -0.1208 -0.4400  0.4281
 2327ntf    sn213834   2.307   6.818   2.887  0.2794  0.0458  0.2244
 2327ntf    cn113835   2.404   6.905   2.760 -0.2219 -0.0240 -0.2141
 2327ntf    fn413836   2.214   6.891   3.204 -0.1757  0.3517  0.5228
 2327ntf    fn413837   2.125   7.073   3.261 -0.0823 -0.3789  0.0180
 2327ntf    fn413838   2.022   6.915   3.151 -0.1866 -0.2855  0.5933
 2327ntf    on513839   2.074   7.137   2.961  0.0328 -0.4150  0.6221
 2327ntf    on513840   2.316   7.107   3.024  0.0402  1.0560  0.1776
 2327ntf    on513841   2.255   6.708   2.809 -0.6975  0.4136  0.3356
 2327ntf    on513842   2.396   6.790   2.996  0.2978 -0.5002  0.0711
 2327ntf    fn413843   2.495   6.819   2.717 -0.1049 -0.0954  0.1704
 2327ntf    fn413844   2.336   6.937   2.651 -0.1015 -0.1671 -0.3317
 2327ntf    fn413845   2.477   7.008   2.801 -0.4737 -0.0679  0.3453
 2328ntf    cn113846   3.554   6.842   1.802  0.0071 -0.0365  0.0950
 2328ntf    sn213847   3.571   6.761   1.964  0.7418 -0.1222 -0.0191
 2328ntf    nn313848   3.429   6.785   2.026  0.7186  0.3025 -0.2378
 2328ntf    sn213849   3.396   6.865   2.157  0.0446 -0.1073 -0.1524
 2328ntf    cn113850   3.391   7.033   2.089 -0.0921 -0.0120  0.0914
 2328ntf    fn413851   3.478   6.776   1.717  0.0821 -0.1046  0.0803
 2328ntf    fn413852   3.506   6.964   1.813 -0.1544 -0.1203  0.3226
 2328ntf    fn413853   3.672   6.853   1.742 -0.0683 -0.2043 -0.0854
 2328ntf    on513854   3.598   6.626   1.921  0.5578  0.1038 -0.8496
 2328ntf    on513855   3.686   6.823   2.024  0.6274 -0.3562  0.4518
 2328ntf    on513856   3.498   6.864   2.259 -0.2982 -0.7036  0.1941
 2328ntf    on513857   3.262   6.832   2.198  0.1575 -0.2368  0.1156
 2328ntf    fn413858   3.378   7.123   2.186 -0.2675  0.4578 -0.3626
 2328ntf    fn413859   3.502   7.064   2.023 -0.2089 -0.0493 -0.1232
 2328ntf    fn413860   3.299   7.046   1.995 -0.0500 -0.3501  0.0032
 2329ntf    cn113861   0.372   5.519   0.518 -0.0668  0.4878  0.0699
 2329ntf    sn213862   0.398   5.442   0.681  0.2046  0.2283 -0.0951
 2329ntf    nn313863   0.375   5.289   0.659  0.4501  0.0644  0.7423
 2329ntf    sn213864   0.240   5.212   0.684  0.3243  0.0482  0.0281
 2329ntf    cn113865   0.244   5.089   0.549 -0.0597  0.0870 -0.0197
 2329ntf    fn413866   0.410   5.645   0.509  0.6431  0.2286 -0.6183
 2329ntf    fn413867   0.439   5.458   0.423 -0.7751 -0.2227  0.0189
 2329ntf    fn413868   0.252   5.497   0.466  0.1888 -0.2167 -0.2374
 2329ntf    on513869   0.537   5.466   0.714  0.2540 -0.3128  0.0945
 2329ntf    on513870   0.302   5.498   0.774  0.5884  0.6794  0.0381
 2329ntf    on513871   0.117   5.284   0.665 -0.1773 -0.8797 -0.2907
 2329ntf    on513872   0.242   5.129   0.802 -0.1505  0.3707  0.2650
 2329ntf    fn413873   0.233   5.136   0.426 -0.1611  0.1522  0.0139
 2329ntf    fn413874   0.355   5.017   0.553 -0.5268 -0.6835 -0.7182
 2329ntf    fn413875   0.139   5.010   0.566 -0.4108  0.4790 -0.3375
 2330ntf    cn113876   4.342   1.985   3.413 -0.5183  0.3334 -0.0357
 2330ntf    sn213877   4.242   1.870   3.313  0.0916 -0.0611 -0.1951
 2330ntf    nn313878   4.341   1.824   3.200  0.9978 -0.1716  0.6265
 2330ntf    sn213879   4.346   1.682   3.133  0.0252  0.1413 -0.1249
 2330ntf    cn113880   4.251   1.724   2.984  0.1229  0.2043 -0.1694
 2330ntf    fn413881   4.291   2.032   3.525  0.1808  0.7059  0.1298
 2330ntf    fn413882   4.459   1.929   3.437 -0.8115 -0.2731 -0.0047
 2330ntf    fn413883   4.365   2.097   3.347 -0.0146 -0.1114 -0.6249
 2330ntf    on513884   4.201   1.768   3.407 -0.1646 -0.0070 -0.2486
 2330ntf    on513885   4.147   1.961   3.255  0.1474 -0.2296 -0.5555
 2330ntf    on513886   4.272   1.566   3.176  0.1648  0.0011 -0.2628
 2330ntf    on513887   4.479   1.662   3.082 -0.1471 -0.2128 -0.4384
 2330ntf    fn413888   4.230   1.624   2.900  0.0860  0.0977 -0.0317
 2330ntf    fn413889   4.136   1.785   3.009 -0.2211 -0.4661 -0.1139
 2330ntf    fn413890   4.329   1.804   2.912  0.5566 -0.0810 -0.0212
 2331ntf    cn113891   3.593   3.642   4.607 -0.4202 -0.0451 -0.1252
 2331ntf    sn213892   3.428   3.567   4.594 -0.4162 -0.0992  0.1445
 2331ntf    nn313893   3.445   3.454   4.702 -0.2894  0.0729  0.3059
 2331ntf    sn213894   3.330   3.386   4.785 -0.2234 -0.1642  0.2030
 2331ntf    cn113895   3.336   3.223   4.705  0.0938 -0.1990  0.2963
 2331ntf    fn413896   3.616   3.696   4.725 -0.1355 -0.3372 -0.0431
 2331ntf    fn413897   3.701   3.566   4.597  0.0357  0.5564  0.1575
 2331ntf    fn413898   3.610   3.738   4.517 -0.1974 -0.3248 -0.3838
 2331ntf    on513899   3.334   3.673   4.622 -0.0834  0.2052  0.1247
 2331ntf    on513900   3.420   3.513   4.461  0.5548 -0.4115  0.2077
 2331ntf    on513901   3.191   3.420   4.764  0.0629  0.7623 -0.2523
 2331ntf    on513902   3.385   3.360   4.915 -0.3417 -0.4862  0.1874
 2331ntf    fn413903   3.282   3.128   4.779 -0.6179  0.0613  0.1189
 2331ntf    fn413904   3.264   3.220   4.594 -0.1891  0.2361  0.4656
 2331ntf    fn413905   3.458   3.187   4.670  0.2429  0.3122  0.2763
 2332ntf    cn113906   6.897   3.053   4.713 -0.3836  0.0412  0.2005
 2332ntf    sn213907   6.881   3.023   4.891 -0.2831  0.0748  0.2163
 2332ntf    nn313908   6.824   2.877   4.885 -0.1839  0.0547 -0.2895
 2332ntf    sn213909   6.677   2.822   4.887 -0.0435 -0.3155 -0.0287
 2332ntf    cn113910   6.669   2.725   5.040  0.1099  0.3415  0.3950
 2332ntf    fn413911   7.019   3.024   4.668 -0.4329 -0.0058  0.0966
 2332ntf    fn413912   6.813   2.980   4.641 -0.3300  0.3223 -0.1499
 2332ntf    fn413913   6.876   3.180   4.683 -0.1996 -0.0169 -0.1822
 2332ntf    on513914   7.018   3.031   4.936 -0.1838  0.2256 -0.1101
 2332ntf    on513915   6.798   3.132   4.936 -0.5184  0.1140 -0.3046
 2332ntf    on513916   6.657   2.721   4.786  0.0947 -0.2482 -0.1229
 2332ntf    on513917   6.576   2.924   4.895 -0.2055 -0.4851  0.1036
 2332ntf    fn413918   6.724   2.793   5.140  0.4510  0.8764 -0.1477
 2332ntf    fn413919   6.546   2.694   5.076  0.2074 -0.2748  0.2165
 2332ntf    fn413920   6.739   2.613   5.032 -0.4398  0.0296 -0.0236
 2333ntf    cn113921   6.787   5.034   3.436 -0.0448  0.0191 -0.1199
 2333ntf    sn213922   6.914   4.995   3.312  0.2312  0.0496  0.1538
 2333ntf    nn313923   6.901   4.840   3.294  0.2861  0.0163  0.3917
 2333ntf    sn213924   7.004   4.724   3.322  0.1362 -0.1894  0.0982
 2333ntf    cn113925   6.981   4.687   3.498  0.4711 -0.1889  0.1415
 2333ntf    fn413926   6.797   5.156   3.486  0.1646 -0.1005  0.1293
 2333ntf    fn413927   6.663   5.022   3.390  0.0994  1.0236 -0.8121
 2333ntf    fn413928   6.795   4.947   3.535  1.1468  0.2089 -0.0360
 2333ntf    on513929   6.861   5.073   3.203  0.9639 -0.4349 -0.5572
 2333ntf    on513930   7.037   5.047   3.367  0.0161  0.4359  0.2770
 2333ntf    on513931   7.142   4.760   3.304  0.0355  0.2394  0.1599
 2333ntf    on513932   6.956   4.604   3.259  0.0967 -0.2903  0.3188
 2333ntf    fn413933   7.060   4.589   3.539  0.3647 -0.5080 -0.4172
 2333ntf    fn413934   6.998   4.792   3.577  0.2708 -0.2076  0.2109
 2333ntf    fn413935   6.858   4.652   3.530  0.5510 -0.0366  0.6350
 2334ntf    cn113936   0.870   2.775   5.803 -0.1554  0.1241  0.0495
 2334ntf    sn213937   0.970   2.789   5.652 -0.3540 -0.0474 -0.0992
 2334ntf    nn313938   0.948   2.942   5.625 -0.8758 -0.2027 -0.5808
 2334ntf    sn213939   1.008   3.038   5.516 -0.2124 -0.0193 -0.0647
 2334ntf    cn113940   0.856   3.060   5.418 -0.0144  0.1043 -0.3447
 2334ntf    fn413941   0.750   2.830   5.803 -0.1144  0.2225  0.6309
 2334ntf    fn413942   0.846   2.647   5.828 -0.0276  0.0757 -0.0728
 2334ntf    fn413943   0.939   2.829   5.902  0.7053  0.4714 -0.7219
 2334ntf    on513944   1.104   2.755   5.692 -0.4277 -0.1572  0.0518
 2334ntf    on513945   0.914   2.701   5.552 -0.2471 -0.3790  0.1307
 2334ntf    on513946   1.098   2.982   5.418 -0.5818 -0.3667 -0.2068
 2334ntf    on513947   1.047   3.166   5.571 -0.3493 -0.0179  0.0294
 2334ntf    fn413948   0.743   3.061   5.487  0.1797 -0.9219  0.0016
 2334ntf    fn413949   0.869   3.177   5.357  0.2451  0.2539 -0.0087
 2334ntf    fn413950   0.834   2.972   5.321  0.1658  0.1179 -0.3999
 2335ntf    cn113951   0.952   1.110   6.563 -0.5064  0.1135  0.2761
 2335ntf    sn213952   1.052   0.964   6.521 -0.1251  0.4531 -0.0148
 2335ntf    nn313953   0.968   0.855   6.597  0.5460 -0.1580 -0.1382
 2335ntf    sn213954   0.831   0.785   6.565  0.4584  0.0004 -0.1101
 2335ntf    cn113955   0.898   0.623   6.516  0.2113 -0.1912  0.1863
 2335ntf    fn413956   1.003   1.173   6.667  0.0563  0.5416 -0.2506
 2335ntf    fn413957   0.944   1.197   6.463  0.6948  0.3928  0.4020
 2335ntf    fn413958   0.829   1.075   6.595 -0.3047 -0.3800  0.5245
 2335ntf    on513959   1.043   0.952   6.378  0.1613 -0.4236  0.0345
 2335ntf    on513960   1.181   0.985   6.580 -0.3034  0.0429  0.5357
 2335ntf    on513961   0.762   0.814   6.441 -0.6820 -0.2657  0.4476
 2335ntf    on513962   0.756   0.763   6.686 -0.8529  0.0041 -0.8982
 2335ntf    fn413963   0.805   0.540   6.472  0.4354 -0.2900 -0.1015
 2335ntf    fn413964   0.984   0.635   6.417  0.1789  0.1863  0.2036
 2335ntf    fn413965   0.962   0.556   6.611  0.7410  0.1077  0.0446
 2336ntf    cn113966   5.762   4.656   2.423  0.1009  0.3343  0.1908
 2336ntf    sn213967   5.788   4.490   2.353 -0.3050  0.2897  0.1407
 2336ntf    nn313968   5.748   4.496   2.201  0.2741 -0.0185 -0.0287
 2336ntf    sn213969   5.812   4.427   2.076 -0.1113  0.4657 -0.4954
 2336ntf    cn113970   5.914   4.565   2.014  0.2464  0.3339 -0.2039
 2336ntf    fn413971   5.635   4.684   2.399  0.0244  0.3199  0.5742
 2336ntf    fn413972   5.785   4.653   2.553  0.4774 -0.5065  0.1102
 2336ntf    fn413973   5.830   4.759   2.375  0.2812  0.0336 -0.2117
 2336ntf    on513974   5.929   4.460   2.361 -0.4711 -0.4030  0.5009
 2336ntf    on513975   5.700   4.415   2.439 -0.2563  0.2237  0.1325
 2336ntf    on513976   5.715   4.398   1.973 -0.3401 -0.2930 -0.0727
 2336ntf    on513977   5.907   4.321   2.099  0.0599  0.6900 -0.1667
 2336ntf    fn413978   6.013   4.589   2.099  0.5794 -0.6751 -0.2946
 2336ntf    fn413979   5.972   4.537   1.899  0.2083  0.1831 -0.1863
 2336ntf    fn413980   5.839   4.675   2.009  0.2836  0.4063  0.6031
 2337ntf    cn113981   0.770   6.421   6.337  0.0011  0.5477 -0.1803
 2337ntf    sn213982   0.697   6.463   6.175 -0.1252 -0.2085 -0.3198
 2337ntf    nn313983   0.610   6.337   6.140  0.2562 -0.4943 -0.2594
 2337ntf    sn213984   0.453   6.335   6.147  0.2406  0.2240 -0.2988
 2337ntf    cn113985   0.420   6.187   6.047  0.0506 -0.1212  0.2664
 2337ntf    fn413986   0.675   6.389   6.424  0.1412 -0.0679 -0.2507
 2337ntf    fn413987   0.842   6.311   6.328  0.1652  0.6456 -0.0588
 2337ntf    fn413988   0.828   6.530   6.386 -0.0258  0.4875 -0.0159
 2337ntf    on513989   0.630   6.586   6.204  0.4527 -0.2593  1.3208
 2337ntf    on513990   0.804   6.471   6.078  0.5708 -0.1637  0.4438
 2337ntf    on513991   0.382   6.428   6.063 -0.6918  0.0127  0.2301
 2337ntf    on513992   0.401   6.294   6.276  0.3952 -0.4477 -0.4461
 2337ntf    fn413993   0.292   6.189   6.012  0.0677 -0.4397  0.1797
 2337ntf    fn413994   0.490   6.194   5.935 -0.0518  0.3301  0.2260
 2337ntf    fn413995   0.448   6.073   6.107 -0.3458 -0.2790  0.1548
 2338ntf    cn113996   4.879   0.851   2.694 -0.2392  0.2149  0.2386
 2338ntf    sn213997   5.004   0.898   2.571 -0.3998  0.0912  0.0268
 2338ntf    nn313998   4.979   1.053   2.567  0.2463  0.2007  0.0544
 2338ntf    sn213999   4.878   1.127   2.472  0.0877  0.0668  0.1166
 2338ntf    cn114000   4.807   1.262   2.571 -0.0226 -0.1102  0.2775
 2338ntf    fn414001   4.884   0.725   2.734 -0.3603  0.1836  0.1578
 2338ntf    fn414002   4.899   0.931   2.798  0.2319 -0.0280  0.3352
 2338ntf    fn414003   4.755   0.866   2.649  0.0001  0.6851 -0.2748
 2338ntf    on514004   5.130   0.869   2.634  0.0553  0.1674 -0.8324
 2338ntf    on514005   4.966   0.828   2.452  0.5103 -0.6126  0.1401
 2338ntf    on514006   4.763   1.052   2.427  0.7095 -0.7863 -0.0822
 2338ntf    on514007   4.946   1.203   2.370 -0.4628  0.6813  0.2069
 2338ntf    fn414008   4.701   1.232   2.643 -0.8269  1.0743 -0.3923
 2338ntf    fn414009   4.891   1.312   2.660  0.8639 -0.2680 -0.4519
 2338ntf    fn414010   4.772   1.366   2.498 -0.2333  0.0042  0.5427
 2339ntf    cn114011   2.450   6.085   6.529  0.2748  0.0627 -0.2279
 2339ntf    sn214012   2.478   6.043   6.704  0.1466  0.1381 -0.1886
 2339ntf    nn314013   2.448   5.889   6.709  0.2498  0.1252  0.0620
 2339ntf    sn214014   2.538   5.760   6.717  0.1014 -0.0019 -0.3041
 2339ntf    cn114015   2.530   5.728   6.896  0.1670 -0.3378 -0.3607
 2339ntf    fn414016   2.527   6.003   6.460  0.1727  0.3611 -0.6973
 2339ntf    fn414017   2.329   6.074   6.478  0.0064  0.0755  0.3972
 2339ntf    fn414018   2.499   6.203   6.495  0.3780  0.0587 -0.0954
 2339ntf    on514019   2.615   6.082   6.729  0.3645 -0.1624 -0.8999
 2339ntf    on514020   2.387   6.127   6.778  0.3372  0.1076  0.0834
 2339ntf    on514021   2.676   5.785   6.684  0.2153 -0.1923  0.0261
 2339ntf    on514022   2.485   5.645   6.650 -0.9928  0.1110  0.3385
 2339ntf    fn414023   2.410   5.688   6.935  0.3088 -0.4329 -0.0261
 2339ntf    fn414024   2.607   5.627   6.931 -0.1586 -0.6099 -0.4171
 2339ntf    fn414025   2.559   5.833   6.971 -0.0809 -0.1593 -0.5115
 2340ntf    cn114026   4.714   6.765   7.006 -0.1488  0.2272  0.1924
 2340ntf    sn214027   4.806   6.921   7.017  0.1853  0.0309  0.1787
 2340ntf    nn314028   4.922   6.915   6.911 -0.2194 -0.3620 -0.2459
 2340ntf    sn214029   5.076   6.895   6.933 -0.1267  0.1520 -0.3990
 2340ntf    cn114030   5.112   7.073   6.925 -0.2171  0.2255  0.6491
 2340ntf    fn414031   4.652   6.743   7.121 -0.4387  0.0814  0.0098
 2340ntf    fn414032   4.615   6.772   6.918 -0.3905 -0.0890  0.4355
 2340ntf    fn414033   4.786   6.658   6.977 -0.0714  0.1898  0.5205
 2340ntf    on514034   4.704   7.016   6.980 -0.0676 -0.1016  0.5373
 2340ntf    on514035   4.860   6.932   7.151  0.1031  0.4171  0.1829
 2340ntf    on514036   5.140   6.844   6.814 -0.3555 -0.5227 -0.2403
 2340ntf    on514037   5.134   6.856   7.059 -0.8030  0.4011 -0.0060
 2340ntf    fn414038   5.242   7.098   6.927 -0.1476 -0.1044  0.4688
 2340ntf    fn414039   5.059   7.131   6.818  0.4448  0.2445  0.3270
 2340ntf    fn414040   5.050   7.138   7.022 -0.2985 -0.0684  0.7958
 2341ntf    cn114041   0.957   3.617   1.895 -0.2303  0.3848 -0.0334
 2341ntf    sn214042   1.000   3.680   1.730 -0.2855 -0.0576 -0.2169
 2341ntf    nn314043   1.007   3.832   1.766  0.0509  0.0771 -0.8287
 2341ntf    sn214044   0.925   3.952   1.705 -0.1945  0.3311 -0.0165
 2341ntf    cn114045   1.077   4.049   1.684 -0.1054  0.2330  0.1667
 2341ntf    fn414046   0.825   3.623   1.905 -0.2045  0.1678  0.4529
 2341ntf    fn414047   0.994   3.493   1.920 -0.1546  0.4341  0.0986
 2341ntf    fn414048   1.021   3.682   1.990  0.0666  0.3448 -0.2048
 2341ntf    on514049   1.126   3.611   1.710 -0.3261 -0.0907 -0.3634
 2341ntf    on514050   0.893   3.624   1.652  0.1179 -0.7021 -0.3180
 2341ntf    on514051   0.842   4.019   1.802 -0.1899 -0.0402  0.2457
 2341ntf    on514052   0.876   3.929   1.571 -0.1868 -0.0360  0.0415
 2341ntf    fn414053   1.051   4.178   1.667  0.7312  0.3476 -0.2908
 2341ntf    fn414054   1.155   4.024   1.787 -0.4436 -0.2401  0.3114
 2341ntf    fn414055   1.140   4.015   1.572 -0.2899  0.6637 -0.0721
 2342ntf    cn114056   5.211   5.222   4.509  0.2903 -0.1014  0.3042
 2342ntf    sn214057   5.129   5.363   4.429  0.1247 -0.5003 -0.2287
 2342ntf    nn314058   5.068   5.419   4.562 -0.2669 -0.4270 -0.4364
 2342ntf    sn214059   4.924   5.478   4.580 -0.0638 -0.1329  0.2397
 2342ntf    cn114060   4.848   5.345   4.679 -0.5514 -0.0514 -0.0196
 2342ntf    fn414061   5.306   5.270   4.588  0.4073  0.2810 -0.0697
 2342ntf    fn414062   5.122   5.155   4.581 -0.1877  0.0262 -0.1580
 2342ntf    fn414063   5.280   5.143   4.428  0.0791  0.0131  0.0125
 2342ntf    on514064   5.231   5.448   4.373 -0.4458  0.4095  0.1020
 2342ntf    on514065   5.044   5.300   4.330  0.0732 -0.4233 -0.2330
 2342ntf    on514066   4.839   5.489   4.464  0.3048  0.0138 -0.0176
 2342ntf    on514067   4.928   5.591   4.671  0.2835 -0.2739  0.4008
 2342ntf    fn414068   4.838   5.235   4.606 -0.2336 -0.4606  0.5431
 2342ntf    fn414069   4.923   5.310   4.782 -0.3167  0.3964 -0.0342
 2342ntf    fn414070   4.730   5.383   4.723 -0.4965  0.0989 -0.0012
 2343ntf    cn114071   2.641   6.570   1.637  0.1916  0.6258  0.0257
 2343ntf    sn214072   2.784   6.680   1.659  0.4005  0.3604  0.0066
 2343ntf    nn314073   2.791   6.736   1.512  0.1744  0.4453  0.0277
 2343ntf    sn214074   2.902   6.716   1.402 -0.1759  0.0717 -0.2619
 2343ntf    cn114075   2.892   6.544   1.346  0.0881  0.0957 -0.3840
 2343ntf    fn414076   2.591   6.515   1.747  0.6294 -0.1026 -0.1249
 2343ntf    fn414077   2.536   6.634   1.590 -0.4747 -0.4027  0.0754
 2343ntf    fn414078   2.671   6.476   1.549  0.1249 -0.3583  1.0250
 2343ntf    on514079   2.731   6.777   1.751 -0.4096 -0.0969  0.0265
 2343ntf    on514080   2.888   6.591   1.706 -0.2266 -0.3644  0.0284
 2343ntf    on514081   3.039   6.730   1.445 -0.3360  0.0580  0.2620
 2343ntf    on514082   2.856   6.788   1.286  0.3638  0.0557 -0.4844
 2343ntf    fn414083   2.998   6.514   1.273  0.1081  0.0851 -0.3502
 2343ntf    fn414084   2.913   6.466   1.451  0.4376  0.8686  0.1272
 2343ntf    fn414085   2.789   6.501   1.274 -0.0616 -0.1824 -0.0065
 2344ntf    cn114086   4.186   6.850   4.025  0.0337  0.2933  0.1988
 2344ntf    sn214087   4.304   6.987   4.040  0.3351  0.0580 -0.0053
 2344ntf    nn314088   4.354   6.993   3.892  0.0335  0.1565 -0.1047
 2344ntf    sn214089   4.446   6.903   3.802  0.2253  0.1045  0.1425
 2344ntf    cn114090   4.604   6.991   3.821  0.4544 -0.1745 -0.4279
 2344ntf    fn414091   4.105   6.848   4.129  0.4858 -0.5673  0.5469
 2344ntf    fn414092   4.107   6.850   3.918  0.3150 -0.1251 -0.0125
 2344ntf    fn414093   4.247   6.733   4.029  0.1656  0.3470 -0.2017
 2344ntf    on514094   4.227   7.098   4.091  0.3813  0.1258 -0.0845
 2344ntf    on514095   4.406   6.943   4.132  0.5090 -0.0170 -0.2356
 2344ntf    on514096   4.413   6.925   3.663  0.1251 -0.3636  0.0894
 2344ntf    on514097   4.469   6.768   3.847  0.9787  0.0235 -0.4623
 2344ntf    fn414098   4.598   7.110   3.763 -0.4323 -0.0163 -0.0317
 2344ntf    fn414099   4.643   7.008   3.947 -0.4395  0.4322 -0.2232
 2344ntf    fn414100   4.696   6.927   3.751  0.2072 -0.6302 -0.3389
 2345ntf    cn114101   5.674   0.001   5.813  0.1718  0.1956  0.0299
 2345ntf    sn214102   5.698  -0.045   5.638 -0.0605  0.0541  0.0355
 2345ntf    nn314103   5.683  -0.201   5.650 -0.3988  0.0538 -0.3606
 2345ntf    sn214104   5.758  -0.315   5.572 -0.4296 -0.2494  0.0488
 2345ntf    cn114105   5.745  -0.252   5.402  0.1846  0.2091  0.1693
 2345ntf    fn414106   5.691   0.131   5.833 -0.1216  0.2744 -0.2328
 2345ntf    fn414107   5.553  -0.034   5.853  0.3737 -0.6631 -0.0918
 2345ntf    fn414108   5.756  -0.065   5.894 -0.2519 -0.2514  0.0971
 2345ntf    on514109   5.582  -0.002   5.563 -0.1039  0.3503  0.2676
 2345ntf    on514110   5.822   0.022   5.611 -0.1803  0.4318  0.4033
 2345ntf    on514111   5.683  -0.437   5.586  0.0374 -0.5562 -0.1363
 2345ntf    on514112   5.898  -0.318   5.605 -0.6137 -0.1809  0.8686
 2345ntf    fn414113   5.634  -0.188   5.367 -0.1169 -0.4308 -0.0643
 2345ntf    fn414114   5.842  -0.165   5.378  0.4580 -0.1451 -0.0235
 2345ntf    fn414115   5.764  -0.340   5.304 -0.4067  0.1887  0.0668
 2346ntf    cn114116   1.152   5.086   5.874  0.1753  0.1240 -0.3117
 2346ntf    sn214117   1.224   5.252   5.885  0.3381  0.0140  0.2810
 2346ntf    nn314118   1.341   5.226   5.784 -0.2680  0.1486 -0.4650
 2346ntf    sn214119   1.489   5.278   5.794 -0.3022  0.2753 -0.6122
 2346ntf    cn114120   1.555   5.135   5.887  0.0596  0.8091 -0.0392
 2346ntf    fn414121   1.116   5.045   5.753 -0.7480  0.2429 -0.0806
 2346ntf    fn414122   1.235   4.992   5.917  0.4320  0.6670  0.3909
 2346ntf    fn414123   1.044   5.065   5.947  0.2904  0.2233 -0.1134
 2346ntf    on514124   1.119   5.334   5.831  1.1410  0.5990 -0.4140
 2346ntf    on514125   1.263   5.265   6.024  0.4122  0.3164  0.2330
 2346ntf    on514126   1.509   5.397   5.872  0.6132  0.1263 -0.6080
 2346ntf    on514127   1.556   5.277   5.666 -0.5249 -0.3585 -0.7308
 2346ntf    fn414128   1.687   5.142   5.873  0.0009  0.3753 -0.9131
 2346ntf    fn414129   1.513   5.115   6.010  0.1016  0.4891 -0.0761
 2346ntf    fn414130   1.522   5.025   5.822  0.2440  0.2384  0.8309
 2347ntf    cn114131   6.850   0.038   1.032  0.1127  0.0420 -0.5283
 2347ntf    sn214132   6.737   0.176   1.067  0.1346  0.0495 -0.4884
 2347ntf    nn314133   6.610   0.104   1.125 -0.0315  0.7305  0.0119
 2347ntf    sn214134   6.515   0.002   1.052 -0.0084  0.4914  0.3124
 2347ntf    cn114135   6.510  -0.130   1.176 -0.3408 -0.1133 -0.3380
 2347ntf    fn414136   6.811  -0.040   0.933  0.1404 -0.2906 -0.2776
 2347ntf    fn414137   6.972   0.080   1.002  0.3679 -0.2907  0.0273
 2347ntf    fn414138   6.863  -0.045   1.134  0.1326  0.7481  0.0505
 2347ntf    on514139   6.804   0.241   1.176 -0.1241  0.0819 -0.3475
 2347ntf    on514140   6.712   0.252   0.947 -0.0363  0.3668 -0.2524
 2347ntf    on514141   6.576  -0.049   0.932  0.0153  0.8336  0.1764
 2347ntf    on514142   6.374   0.034   1.048  0.0143  0.4744 -0.8126
 2347ntf    fn414143   6.611  -0.215   1.160 -0.1806  0.1369 -0.6511
 2347ntf    fn414144   6.510  -0.069   1.294 -0.6205  0.0007 -0.3982
 2347ntf    fn414145   6.399  -0.200   1.160 -0.3631 -0.1842  0.0898
 2348ntf    cn114146   1.289   2.401   1.646  0.3175  0.0876  0.1051
 2348ntf    sn214147   1.376   2.526   1.746  0.0051  0.1307  0.3252
 2348ntf    nn314148   1.281   2.536   1.871 -0.2735  0.2711  0.1058
 2348ntf    sn214149   1.290   2.637   1.991 -0.0819  0.2835  0.0819
 2348ntf    cn114150   1.172   2.768   1.948 -0.5747 -0.2088 -0.0915
 2348ntf    fn414151   1.167   2.433   1.606  0.1964  0.1412  0.5109
 2348ntf    fn414152   1.355   2.359   1.540  0.0984 -0.4170  0.1655
 2348ntf    fn414153   1.279   2.301   1.732  0.3617  0.0128  0.0223
 2348ntf    on514154   1.500   2.458   1.771 -0.2206 -0.4593 -0.1191
 2348ntf    on514155   1.379   2.642   1.660  0.2636 -0.7220 -0.8464
 2348ntf    on514156   1.420   2.698   2.003 -0.0037  0.1636 -0.1420
 2348ntf    on514157   1.240   2.575   2.111 -0.1161 -0.6285 -0.3937
 2348ntf    fn414158   1.185   2.810   1.823  0.3610 -0.0158  0.0645
 2348ntf    fn414159   1.048   2.723   1.953 -0.6877  0.0083 -0.7985
 2348ntf    fn414160   1.176   2.873   2.029  0.3751  0.1180 -0.5415
 2349ntf    cn114161   6.168   5.769   1.167  0.3825 -0.0495  0.0044
 2349ntf    sn214162   6.066   5.803   1.313  0.5175 -0.2083  0.1371
 2349ntf    nn314163   6.022   5.657   1.349  0.2132 -0.1570 -0.0190
 2349ntf    sn214164   5.898   5.569   1.309  0.0346 -0.0096  0.2092
 2349ntf    cn114165   5.790   5.579   1.455 -0.1730  0.0800  0.0504
 2349ntf    fn414166   6.098   5.740   1.058  0.1574  0.0289  0.1278
 2349ntf    fn414167   6.244   5.872   1.134 -0.5791  0.7546  0.2862
 2349ntf    fn414168   6.251   5.668   1.193  0.4430 -0.0421 -0.1592
 2349ntf    on514169   6.156   5.859   1.411  0.3371  1.1453 -0.4473
 2349ntf    on514170   5.968   5.890   1.254  0.1309 -0.0429  1.0007
 2349ntf    on514171   5.944   5.432   1.304  0.8477  0.2718 -0.2262
 2349ntf    on514172   5.826   5.612   1.192  0.0918 -0.3535  0.0456
 2349ntf    fn414173   5.851   5.530   1.561  0.3593 -0.3731 -0.4546
 2349ntf    fn414174   5.763   5.705   1.485 -0.4660 -0.0439  0.3124
 2349ntf    fn414175   5.679   5.508   1.444  0.0036 -0.0945 -0.7039
 2350ntf    cn114176   2.664   6.230   2.326 -0.2716  0.3774  0.1190
 2350ntf    sn214177   2.633   6.148   2.486 -0.2106  0.1610  0.0200
 2350ntf    nn314178   2.572   6.016   2.426  0.1522 -0.0291  0.0659
 2350ntf    sn214179   2.480   5.914   2.501  0.0979 -0.1332 -0.1422
 2350ntf    cn114180   2.321   5.959   2.426 -0.0240 -0.1962  0.0752
 2350ntf    fn414181   2.617   6.353   2.318 -0.5905  0.2024 -0.7197
 2350ntf    fn414182   2.795   6.232   2.308 -0.2560 -0.1471  0.1534
 2350ntf    fn414183   2.608   6.172   2.221  0.1790  0.2483 -0.0511
 2350ntf    on514184   2.768   6.135   2.533  0.0749 -0.0393 -0.8318
 2350ntf    on514185   2.547   6.251   2.539  0.1077  0.3700  0.1334
 2350ntf    on514186   2.473   5.925   2.645 -0.2158 -0.7661 -0.1050
 2350ntf    on514187   2.499   5.781   2.449  0.0464 -0.0499 -0.3731
 2350ntf    fn414188   2.217   5.897   2.480  0.0751 -0.5996 -0.1891
 2350ntf    fn414189   2.295   6.089   2.429  0.6043 -0.0697  0.0711
 2350ntf    fn414190   2.321   5.932   2.296 -0.8452  0.1439 -0.0009
 2351ntf    cn114191   5.528   1.728   6.660  0.1536 -0.1678 -0.2740
 2351ntf    sn214192   5.408   1.727   6.524  0.0352  0.3779 -0.1762
 2351ntf    nn314193   5.436   1.854   6.435 -0.3104  0.5896  0.0166
 2351ntf    sn214194   5.557   1.884   6.341 -0.4041 -0.1159 -0.3314
 2351ntf    cn114195   5.465   1.933   6.192 -0.6384  0.0149 -0.1431
 2351ntf    fn414196   5.519   1.613   6.723 -0.2060 -0.0440 -0.0987
 2351ntf    fn414197   5.652   1.737   6.613  0.2654 -0.2178  0.0061
 2351ntf    fn414198   5.512   1.825   6.749  1.0459  0.1213 -0.4118
 2351ntf    on514199   5.419   1.598   6.461 -0.4238  0.0089  0.4934
 2351ntf    on514200   5.288   1.750   6.600  0.0918 -0.2478  0.1078
 2351ntf    on514201   5.622   1.768   6.284 -0.5226 -0.7178  0.7455
 2351ntf    on514202   5.634   2.004   6.363  0.1573 -0.4763 -0.3064
 2351ntf    fn414203   5.368   2.014   6.231 -0.1815  0.5513 -0.1166
 2351ntf    fn414204   5.540   2.004   6.110  0.2880 -0.5687  0.1806
 2351ntf    fn414205   5.399   1.836   6.130 -0.3913 -0.1461 -0.1558
 2352ntf    cn114206   1.300   3.860   6.820 -0.2509  0.3989  0.3203
 2352ntf    sn214207   1.396   3.811   6.967  0.0032 -0.1521 -0.0244
 2352ntf    nn314208   1.282   3.825   7.074 -0.2361  0.1242 -0.3131
 2352ntf    sn214209   1.229   3.717   7.175 -0.1104 -0.0346 -0.4158
 2352ntf    cn114210   1.168   3.845   7.289  0.2709 -0.0855 -0.1528
 2352ntf    fn414211   1.377   3.875   6.714  0.0313 -0.3290  0.4109
 2352ntf    fn414212   1.202   3.774   6.798  0.1218  0.1863 -0.5519
 2352ntf    fn414213   1.243   3.977   6.839 -0.5627  0.2742  0.1568
 2352ntf    on514214   1.449   3.682   6.931  0.4458  0.0941 -0.2740
 2352ntf    on514215   1.499   3.912   6.980  0.5454 -0.6754 -0.2152
 2352ntf    on514216   1.332   3.648   7.250 -0.0765  0.2189 -0.2269
 2352ntf    on514217   1.115   3.642   7.130 -0.0589 -0.5893  0.3454
 2352ntf    fn414218   1.123   3.797   7.404 -0.1565  0.3601 -0.1340
 2352ntf    fn414219   1.257   3.940   7.316 -0.2193  0.3899 -0.2027
 2352ntf    fn414220   1.069   3.912   7.234  0.2815 -0.0625 -0.1443
 2353ntf    cn114221   2.514   1.812   4.850  0.0925 -0.1153  0.1029
 2353ntf    sn214222   2.517   1.794   4.669 -0.1658  0.5076  0.0345
 2353ntf    nn314223   2.614   1.915   4.645 -0.7271  0.8873 -0.3293
 2353ntf    sn214224   2.756   1.917   4.579 -0.4181 -0.2718  0.2693
 2353ntf    cn114225   2.701   1.959   4.411  0.4847 -0.1095  0.0065
 2353ntf    fn414226   2.449   1.921   4.888  0.1884 -0.1634  0.4044
 2353ntf    fn414227   2.461   1.704   4.905 -0.1479  0.0396  0.1744
 2353ntf    fn414228   2.636   1.819   4.902 -0.0422 -0.2299  0.4398
 2353ntf    on514229   2.570   1.662   4.642 -0.6357  0.4325 -0.5153
 2353ntf    on514230   2.392   1.834   4.610 -0.3715 -0.0797  0.0633
 2353ntf    on514231   2.829   1.793   4.573 -0.4311 -0.2533 -0.3829
 2353ntf    on514232   2.839   2.031   4.610  0.3162 -0.5903 -0.4749
 2353ntf    fn414233   2.804   1.948   4.329  0.2408 -0.7545 -0.2151
 2353ntf    fn414234   2.605   1.880   4.365  0.5345 -0.2214  0.0968
 2353ntf    fn414235   2.656   2.084   4.402  0.7238 -0.0181  0.0737
 2354ntf    cn114236   3.752   6.754   0.159 -0.2077  0.0008  0.1720
 2354ntf    sn214237   3.773   6.596   0.247  0.3495 -0.0140  0.0160
 2354ntf    nn314238   3.904   6.622   0.328  0.3195 -0.4843  0.2239
 2354ntf    sn214239   3.928   6.655   0.480  0.2771 -0.0633  0.1421
 2354ntf    cn114240   4.027   6.507   0.516 -0.1616 -0.3834  0.0448
 2354ntf    fn414241   3.721   6.856   0.238  0.1768 -0.0841  0.4326
 2354ntf    fn414242   3.854   6.778   0.080 -0.1392  0.5087  0.4083
 2354ntf    fn414243   3.651   6.751   0.074 -0.2578  0.4371  0.2171
 2354ntf    on514244   3.650   6.576   0.321  0.1977  0.4564 -0.1069
 2354ntf    on514245   3.790   6.499   0.142  0.0634  0.0198 -0.0620
 2354ntf    on514246   3.820   6.649   0.575  0.0644  0.0704 -0.0893
 2354ntf    on514247   4.017   6.768   0.487 -0.2626  0.3981 -0.3113
 2354ntf    fn414248   3.946   6.403   0.510 -0.4319 -0.1751  0.1080
 2354ntf    fn414249   4.123   6.490   0.426 -0.1412 -0.2131  0.0337
 2354ntf    fn414250   4.085   6.503   0.636  0.1159  0.3220 -0.0577
 2355ntf    cn114251   3.320   6.224   0.709 -0.0284  0.3718 -0.0166
 2355ntf    sn214252   3.179   6.166   0.610  0.0325 -0.0454  0.1381
 2355ntf    nn314253   3.212   6.242   0.477 -0.3855 -0.6990 -0.3496
 2355ntf    sn214254   3.155   6.373   0.412  0.1155 -0.4064 -0.2091
 2355ntf    cn114255   2.996   6.321   0.340  0.0153  0.1201 -0.3750
 2355ntf    fn414256   3.341   6.352   0.688 -0.0633  0.3811  0.0030
 2355ntf    fn414257   3.312   6.190   0.837  0.1308 -0.2219 -0.1582
 2355ntf    fn414258   3.428   6.162   0.665 -0.3171 -0.0397 -0.1628
 2355ntf    on514259   3.192   6.023   0.599 -0.1289 -0.0302 -0.2703
 2355ntf    on514260   3.067   6.221   0.683 -0.1555 -0.0334 -0.1561
 2355ntf    on514261   3.222   6.414   0.290 -0.0316  0.0340 -0.1424
 2355ntf    on514262   3.121   6.477   0.505  0.2382 -0.1891 -0.4049
 2355ntf    fn414263   3.015   6.211   0.268 -0.4800 -0.1002 -0.1706
 2355ntf    fn414264   2.907   6.277   0.427 -0.0966 -0.0012 -0.5501
 2355ntf    fn414265   2.937   6.402   0.254 -0.3309  0.3551  0.0802
 2356ntf    cn114266   1.845   3.410   1.045  0.0440 -0.0858  0.4596
 2356ntf    sn214267   1.766   3.571   1.076 -0.0503  0.0415 -0.4130
 2356ntf    nn314268   1.625   3.509   1.107  0.1040 -0.3527 -0.4881
 2356ntf    sn214269   1.483   3.576   1.101  0.2254 -0.0644 -0.1661
 2356ntf    cn114270   1.376   3.434   1.064  0.1711 -0.0756  0.0341
 2356ntf    fn414271   1.962   3.418   0.985 -0.2478 -0.3765 -0.1697
 2356ntf    fn414272   1.869   3.344   1.157  0.3061  0.2319  0.5906
 2356ntf    fn414273   1.784   3.329   0.959  0.0953  0.0950  0.2518
 2356ntf    on514274   1.841   3.612   1.192  0.0596 -0.1355 -0.4218
 2356ntf    on514275   1.805   3.648   0.960 -0.3326 -0.3889 -0.7991
 2356ntf    on514276   1.471   3.670   0.992 -0.5968 -0.1008 -0.1114
 2356ntf    on514277   1.441   3.628   1.229  0.5127  0.4111 -0.2615
 2356ntf    fn414278   1.419   3.376   0.953  0.5745 -0.2092  0.2554
 2356ntf    fn414279   1.402   3.346   1.159  0.3178 -0.5252 -0.4169
 2356ntf    fn414280   1.246   3.457   1.066  0.1836 -0.0047  0.0535
 2357ntf    cn114281   1.061   3.820   5.993  0.1043  0.3128  0.3408
 2357ntf    sn214282   0.954   3.717   5.889  0.2673  0.1362  0.3481
 2357ntf    nn314283   0.993   3.778   5.750  0.0319 -0.5199 -0.0113
 2357ntf    sn214284   0.960   3.718   5.608 -0.7408 -0.4581  0.1361
 2357ntf    cn114285   0.908   3.866   5.516 -0.1014 -0.4993 -0.2997
 2357ntf    fn414286   1.186   3.842   5.956 -0.0859  0.9500  0.0611
 2357ntf    fn414287   1.003   3.939   6.000 -0.6461  0.0027 -0.4349
 2357ntf    fn414288   1.068   3.774   6.117  0.0755 -0.3738  0.0920
 2357ntf    on514289   1.013   3.585   5.895  0.0466 -0.0119 -0.5881
 2357ntf    on514290   0.817   3.738   5.929  0.1319  1.1207 -0.6049
 2357ntf    on514291   0.851   3.626   5.592 -1.1928  0.0391  0.3426
 2357ntf    on514292   1.082   3.675   5.544 -0.5968 -0.0091  0.1029
 2357ntf    fn414293   0.924   3.834   5.389 -0.7341 -0.6278 -0.3484
 2357ntf    fn414294   0.779   3.891   5.525  0.0951  0.2508  0.5969
 2357ntf    fn414295   0.981   3.973   5.542  0.2690 -0.7092 -0.4614
 2358ntf    cn114296   2.654   3.572   0.102  0.0605  0.2384  0.2687
 2358ntf    sn214297   2.481   3.614   0.068 -0.0405 -0.2557  0.1731
 2358ntf    nn314298   2.428   3.672   0.204  0.3909 -0.0954  0.2747
 2358ntf    sn214299   2.322   3.614   0.305  0.3227 -0.1506  0.1714
 2358ntf    cn114300   2.238   3.766   0.359  0.2224 -0.1208 -0.0656
 2358ntf    fn414301   2.675   3.468   0.181 -0.0920 -0.0936 -0.1268
 2358ntf    fn414302   2.716   3.551  -0.013 -0.1026  0.1054  0.2055
 2358ntf    fn414303   2.710   3.680   0.157  0.0963  0.3679 -0.0213
 2358ntf    on514304   2.500   3.717  -0.031 -0.5329  0.2310  0.5716
 2358ntf    on514305   2.439   3.484   0.022 -0.4400 -0.1743  0.3021
 2358ntf    on514306   2.380   3.551   0.421 -0.4965 -0.1657  0.5812
 2358ntf    on514307   2.216   3.535   0.247 -0.4322  0.4980  0.6490
 2358ntf    fn414308   2.327   3.833   0.432  0.0225 -0.0158  0.0817
 2358ntf    fn414309   2.206   3.845   0.258  1.2034 -0.3684 -0.5842
 2358ntf    fn414310   2.131   3.744   0.433  0.3451  0.4408  0.2843
 2359ntf    cn114311   4.755   5.101   1.690  0.2578 -0.0949 -0.3014
 2359ntf    sn214312   4.660   4.951   1.650  0.0004  0.0872 -0.3789
 2359ntf    nn314313   4.563   5.023   1.549  0.0791  0.5974 -0.0940
 2359ntf    sn214314   4.416   5.073   1.571  0.0102  0.2726  0.1864
 2359ntf    cn114315   4.313   4.923   1.564 -0.7429  0.7621  0.6957
 2359ntf    fn414316   4.841   5.077   1.787 -0.3775 -0.5557  0.1560
 2359ntf    fn414317   4.811   5.166   1.589  0.6206  0.2285  0.1052
 2359ntf    fn414318   4.677   5.197   1.736  0.4317  0.1682 -0.5515
 2359ntf    on514319   4.756   4.862   1.588  0.4957  0.5155 -0.2388
 2359ntf    on514320   4.609   4.903   1.776 -0.4420 -0.4037 -0.7411
 2359ntf    on514321   4.358   5.143   1.459 -0.4342 -0.1710  0.1324
 2359ntf    on514322   4.384   5.121   1.703 -0.2505  0.0139  0.2169
 2359ntf    fn414323   4.317   4.845   1.458  0.1175  0.3530  1.0195
 2359ntf    fn414324   4.342   4.842   1.665  0.6006  0.3832  0.0264
 2359ntf    fn414325   4.182   4.940   1.574 -0.9351 -0.1327 -0.1683
 2360ntf    cn114326   0.867   1.920   6.822  0.2096 -0.7000 -0.3272
 2360ntf    sn214327   0.887   1.743   6.787  0.2210 -0.7018 -0.3110
 2360ntf    nn314328   1.007   1.736   6.686  0.4514 -0.5777 -0.0472
 2360ntf    sn214329   0.994   1.704   6.533 -0.1516 -0.4161 -0.0340
 2360ntf    cn114330   0.958   1.527   6.547 -0.0185 -0.4432 -0.0355
 2360ntf    fn414331   0.975   1.978   6.872 -0.2457  0.4019 -0.5902
 2360ntf    fn414332   0.837   1.983   6.709  0.3464  0.0649  0.0521
 2360ntf    fn414333   0.767   1.944   6.904  0.4978  0.6369 -0.3470
 2360ntf    on514334   0.923   1.692   6.917 -0.3183 -0.6791 -0.1506
 2360ntf    on514335   0.756   1.709   6.738 -0.3204  0.0882  0.5483
 2360ntf    on514336   1.122   1.694   6.467 -0.2689 -0.1256 -0.3074
 2360ntf    on514337   0.883   1.754   6.456 -0.1668 -0.3966  0.0006
 2360ntf    fn414338   0.957   1.468   6.428  0.1654 -0.1331 -0.1923
 2360ntf    fn414339   1.050   1.460   6.614  0.2517  0.0499  0.0896
 2360ntf    fn414340   0.841   1.498   6.602  0.0751  0.0679  0.4358
 2361ntf    cn114341   1.785   2.746   4.883 -0.0774  0.3960  0.2415
 2361ntf    sn214342   1.733   2.782   4.713  0.2319  0.1199  0.0853
 2361ntf    nn314343   1.733   2.939   4.712 -0.4793  0.1211 -0.4595
 2361ntf    sn214344   1.619   3.042   4.745 -0.0937  0.3398  0.1873
 2361ntf    cn114345   1.608   3.128   4.585 -0.3503 -0.0778 -0.0178
 2361ntf    fn414346   1.690   2.801   4.956 -0.7866  0.3146 -0.6031
 2361ntf    fn414347   1.790   2.614   4.896  0.5656  0.3759 -0.1920
 2361ntf    fn414348   1.896   2.804   4.926 -0.0326  0.2010  0.3923
 2361ntf    on514349   1.839   2.739   4.626  0.4083 -0.3219  0.5206
 2361ntf    on514350   1.609   2.709   4.704 -0.3164  1.0782 -0.2968
 2361ntf    on514351   1.658   3.144   4.840 -0.5080  0.0126  0.7113
 2361ntf    on514352   1.487   2.991   4.773 -0.1885  0.3747 -0.1993
 2361ntf    fn414353   1.590   3.043   4.485 -0.1119 -0.2222  0.0613
 2361ntf    fn414354   1.505   3.211   4.589  0.0390  0.4134 -0.1152
 2361ntf    fn414355   1.717   3.197   4.558 -0.4648 -0.0852 -0.5131
 2362ntf    cn114356   0.989   6.180   5.820  0.0650 -0.0962 -0.0310
 2362ntf    sn214357   1.090   6.241   5.681 -0.0661  0.0064 -0.0814
 2362ntf    nn314358   0.992   6.192   5.569 -0.3026  0.2255  0.0266
 2362ntf    sn214359   1.041   6.173   5.421 -0.0464 -0.2141  0.1662
 2362ntf    cn114360   0.978   6.331   5.357  0.4103 -0.1742 -0.1857
 2362ntf    fn414361   1.032   6.215   5.940  0.1302 -0.5191  0.0669
 2362ntf    fn414362   0.865   6.222   5.801 -0.1064 -0.7527 -0.3770
 2362ntf    fn414363   0.983   6.048   5.818  0.3062 -0.1101  0.1957
 2362ntf    on514364   1.086   6.384   5.702  0.0496  0.0127 -0.0994
 2362ntf    on514365   1.210   6.164   5.704 -0.4243 -0.5596 -0.0832
 2362ntf    on514366   0.975   6.071   5.345 -0.0927 -0.2621  0.2706
 2362ntf    on514367   1.184   6.178   5.401 -0.0830 -0.4355 -0.1446
 2362ntf    fn414368   0.996   6.355   5.228 -0.1912  0.2390 -0.1935
 2362ntf    fn414369   0.850   6.349   5.383  0.4134 -0.6562  0.1873
 2362ntf    fn414370   1.039   6.431   5.418  0.0963  0.0254 -0.2008
 2363ntf    cn114371   5.411   1.371   3.118 -0.0790 -0.1504  0.1213
 2363ntf    sn214372   5.321   1.232   3.043  0.0998 -0.1740 -0.0492
 2363ntf    nn314373   5.185   1.303   3.011 -0.2076 -0.7528 -0.0449
 2363ntf    sn214374   5.052   1.319   3.093  0.1197  0.5144  0.2679
 2363ntf    cn114375   4.945   1.198   3.011  0.2882  0.3165  0.3367
 2363ntf    fn414376   5.390   1.377   3.249  0.0111  0.1508  0.1230
 2363ntf    fn414377   5.542   1.356   3.114 -0.0852 -0.1675 -0.0206
 2363ntf    fn414378   5.381   1.489   3.067 -0.2363 -0.3397 -0.2241
 2363ntf    on514379   5.402   1.198   2.928  0.4345 -0.0443  0.1463
 2363ntf    on514380   5.319   1.127   3.142 -0.0529 -0.0063  0.1247
 2363ntf    on514381   4.982   1.443   3.072 -0.0366  0.3890  0.0478
 2363ntf    on514382   5.063   1.269   3.228  0.0407 -0.1771  0.0224
 2363ntf    fn414383   4.828   1.189   3.072  0.0605 -0.0821 -0.1536
 2363ntf    fn414384   4.920   1.236   2.887  0.4021  0.5676  0.3916
 2363ntf    fn414385   5.003   1.081   2.991 -0.4898 -0.0224  0.0091
 2364ntf    cn114386   6.627   6.605   1.813 -0.1609  0.1173  0.4905
 2364ntf    sn214387   6.681   6.687   1.966  0.0641  0.1984  0.3674
 2364ntf    nn314388   6.548   6.754   2.016 -0.1637  0.1541 -0.1648
 2364ntf    sn214389   6.537   6.901   2.068 -0.0608  0.0715  0.0967
 2364ntf    cn114390   6.500   6.993   1.915 -0.0069 -0.0697 -0.0013
 2364ntf    fn414391   6.720   6.523   1.769 -0.3882  0.2624 -0.2886
 2364ntf    fn414392   6.525   6.521   1.823  0.1364 -0.3903 -0.5970
 2364ntf    fn414393   6.601   6.691   1.715 -0.2503  0.1805  0.5692
 2364ntf    on514394   6.718   6.574   2.047 -0.2720 -0.1517  0.0353
 2364ntf    on514395   6.789   6.775   1.929 -0.2116  0.3606 -0.0586
 2364ntf    on514396   6.653   6.969   2.123  0.0478  0.2843 -0.3834
 2364ntf    on514397   6.412   6.912   2.138 -0.2763 -0.1900 -0.2494
 2364ntf    fn414398   6.401   7.079   1.931  0.1295  0.0776  0.0513
 2364ntf    fn414399   6.608   7.059   1.874 -0.5838  0.8496 -0.0688
 2364ntf    fn414400   6.471   6.913   1.814  0.1794 -0.0493 -0.0729
 2365ntf    cn114401   0.760   5.900   4.364 -0.3517  0.5384 -0.1058
 2365ntf    sn214402   0.592   5.903   4.435 -0.2711  0.0163  0.1143
 2365ntf    nn314403   0.521   6.024   4.365  0.2304  0.1604 -0.1498
 2365ntf    sn214404   0.414   6.026   4.250 -0.1062  0.2851  0.1621
 2365ntf    cn114405   0.256   6.021   4.339 -0.2823 -0.2662 -0.1773
 2365ntf    fn414406   0.749   5.886   4.233 -0.0974  0.4274 -0.1148
 2365ntf    fn414407   0.823   6.013   4.388  0.0860  0.2599  0.0675
 2365ntf    fn414408   0.836   5.798   4.400 -0.5499  0.5359  0.3183
 2365ntf    on514409   0.531   5.778   4.400 -0.3399 -0.1081  0.6624
 2365ntf    on514410   0.603   5.931   4.576  0.3514 -0.1053  0.0930
 2365ntf    on514411   0.402   5.910   4.164  0.5478 -0.1038  0.5836
 2365ntf    on514412   0.412   6.154   4.184  0.1167  0.4142  0.4045
 2365ntf    fn414413   0.232   5.903   4.395  0.4926 -0.0978  0.5198
 2365ntf    fn414414   0.257   6.118   4.428  0.2656 -0.1819 -0.2742
 2365ntf    fn414415   0.154   6.039   4.256  0.5206  0.5223 -1.0151
 2366ntf    cn114416   5.608   2.856   4.796 -0.4780 -0.2352  0.2619
 2366ntf    sn214417   5.676   2.790   4.951  0.0640  0.1904  0.2075
 2366ntf    nn314418   5.792   2.894   4.967 -0.1558  0.4569  0.0786
 2366ntf    sn214419   5.817   3.032   5.037  0.1208  0.2668  0.3572
 2366ntf    cn114420   5.977   2.985   5.109  0.2549 -0.2558 -0.2762
 2366ntf    fn414421   5.493   2.802   4.759 -0.2904 -0.3093 -0.2225
 2366ntf    fn414422   5.586   2.985   4.814 -0.9343 -0.2605 -0.0870
 2366ntf    fn414423   5.690   2.848   4.692 -0.2147  0.0296  0.4488
 2366ntf    on514424   5.566   2.797   5.043 -0.0805 -0.6721  0.1120
 2366ntf    on514425   5.720   2.655   4.926  0.0858  0.1607  0.4081
 2366ntf    on514426   5.722   3.057   5.143 -0.4901 -0.2487 -0.0695
 2366ntf    on514427   5.845   3.136   4.942 -0.1745 -0.0894 -0.1208
 2366ntf    fn414428   6.067   2.976   5.012 -0.4342 -0.5573 -0.8893
 2366ntf    fn414429   6.021   3.072   5.199  0.4870 -0.0062 -0.6290
 2366ntf    fn414430   5.960   2.869   5.169 -0.0273 -0.0296  0.0820
 2367ntf    cn114431   0.589   4.917   6.076  0.4067 -0.1337 -0.2550
 2367ntf    sn214432   0.665   4.850   6.227 -0.1730  0.0189  0.1032
 2367ntf    nn314433   0.815   4.858   6.181 -0.1210 -0.7594  0.1339
 2367ntf    sn214434   0.934   4.881   6.280 -0.0245 -0.0029 -0.1495
 2367ntf    cn114435   0.940   5.059   6.318  0.4080 -0.0945  0.2215
 2367ntf    fn414436   0.609   5.047   6.059  0.4931 -0.0481  0.4753
 2367ntf    fn414437   0.632   4.859   5.965  0.1344 -0.0513 -0.4025
 2367ntf    fn414438   0.457   4.914   6.083  0.4254  0.1856  0.2909
 2367ntf    on514439   0.633   4.940   6.335  0.6192  0.4025  0.0248
 2367ntf    on514440   0.608   4.718   6.224  0.0943 -0.0810 -0.6799
 2367ntf    on514441   1.063   4.853   6.224  0.0308  0.2259 -0.1363
 2367ntf    on514442   0.919   4.820   6.410  0.0330 -0.4254 -0.3382
 2367ntf    fn414443   0.828   5.119   6.352  0.1872  0.0450 -0.7155
 2367ntf    fn414444   1.034   5.088   6.406  0.4187 -0.3577  0.2983
 2367ntf    fn414445   0.991   5.119   6.211 -0.2696  0.2024  0.0591
 2368ntf    cn114446   1.663   2.486   5.187  0.1083 -0.0881  0.3087
 2368ntf    sn214447   1.641   2.332   5.281  0.3278 -0.1065  0.3300
 2368ntf    nn314448   1.705   2.398   5.408  0.0716  0.7038  0.0419
 2368ntf    sn214449   1.634   2.488   5.517 -0.1383  0.3345  0.2122
 2368ntf    cn114450   1.731   2.638   5.486  0.1498  0.0907 -0.0877
 2368ntf    fn414451   1.577   2.582   5.220  0.7704  0.4526  0.4850
 2368ntf    fn414452   1.782   2.541   5.203  0.2492 -0.2542 -0.1765
 2368ntf    fn414453   1.648   2.465   5.057  0.2706 -0.0683  0.2869
 2368ntf    on514454   1.502   2.294   5.278  0.2858  0.0904 -0.2907
 2368ntf    on514455   1.738   2.239   5.229 -0.1867 -0.6809  0.3849
 2368ntf    on514456   1.671   2.444   5.649 -0.0189 -0.3520 -0.0417
 2368ntf    on514457   1.495   2.523   5.503 -0.2085  0.1547  0.4445
 2368ntf    fn414458   1.862   2.616   5.483  0.1774  0.2375 -0.0176
 2368ntf    fn414459   1.699   2.698   5.372 -0.2552 -0.0103 -0.0289
 2368ntf    fn414460   1.718   2.731   5.580  0.5697 -0.3811  0.4488
 2369ntf    cn114461   1.254   5.729   4.000  0.5624  0.2237  0.2199
 2369ntf    sn214462   1.240   5.883   3.904 -0.2034 -0.1409 -0.2642
 2369ntf    nn314463   1.177   5.989   4.001  0.1743 -0.4115  0.2838
 2369ntf    sn214464   1.199   6.145   3.997 -0.1843 -0.3625  0.1670
 2369ntf    cn114465   1.049   6.205   4.080  0.0750 -0.3588  0.6332
 2369ntf    fn414466   1.347   5.731   4.094  0.6497 -0.9357  0.1685
 2369ntf    fn414467   1.138   5.685   4.046  0.6399  0.2123  0.4063
 2369ntf    fn414468   1.291   5.634   3.915 -0.5067 -0.1532  0.1529
 2369ntf    on514469   1.377   5.913   3.873 -0.2346  0.6203  0.3047
 2369ntf    on514470   1.155   5.848   3.793 -0.5841 -0.0381 -0.0111
 2369ntf    on514471   1.198   6.217   3.872  0.6077 -0.3437  0.1698
 2369ntf    on514472   1.304   6.187   4.086 -0.0668 -0.3547  0.0240
 2369ntf    fn414473   1.058   6.331   4.119 -0.2464 -0.0325 -0.3126
 2369ntf    fn414474   0.940   6.196   4.005  0.4301 -0.2305  0.1017
 2369ntf    fn414475   1.029   6.131   4.188  0.2775  0.1558  1.0282
 2370ntf    cn114476   5.081   5.709   3.131  0.0621 -0.1348  0.2030
 2370ntf    sn214477   5.218   5.670   3.018  0.3195  0.1958  0.4009
 2370ntf    nn314478   5.288   5.565   3.111 -0.0784 -0.3500  0.0886
 2370ntf    sn214479   5.405   5.463   3.085 -0.1839 -0.4260 -0.0862
 2370ntf    cn114480   5.532   5.564   3.167 -0.2223 -0.5163  0.0828
 2370ntf    fn414481   5.123   5.771   3.240  0.6379  0.3330 -0.2781
 2370ntf    fn414482   4.983   5.777   3.074  0.5339 -0.1577 -0.6656
 2370ntf    fn414483   5.008   5.603   3.162 -0.7097  0.1735 -0.5257
 2370ntf    on514484   5.154   5.617   2.900  0.4597  0.1450  0.3465
 2370ntf    on514485   5.287   5.794   2.990 -0.4048  0.5438  0.1317
 2370ntf    on514486   5.445   5.439   2.948  0.0313  0.1778 -0.1333
 2370ntf    on514487   5.396   5.344   3.164  0.4723 -0.3827  0.0589
 2370ntf    fn414488   5.644   5.495   3.182 -0.0545 -0.1514  0.5380
 2370ntf    fn414489   5.561   5.685   3.123 -0.4128 -0.4575  0.1137
 2370ntf    fn414490   5.489   5.588   3.290 -0.1613 -0.2720  0.0579
 2371ntf    cn114491   3.754   1.600   1.807  0.1157 -0.0006  0.0656
 2371ntf    sn214492   3.847   1.541   1.951  0.2850  0.0743 -0.0126
 2371ntf    nn314493   3.945   1.441   1.879 -0.3734 -0.1935 -0.5420
 2371ntf    sn214494   4.006   1.317   1.954 -0.1228  0.0096 -0.4105
 2371ntf    cn114495   4.108   1.257   1.817 -0.4420 -0.1631 -0.5741
 2371ntf    fn414496   3.836   1.661   1.723  0.4042 -0.4502  0.0159
 2371ntf    fn414497   3.690   1.497   1.755 -0.0232  0.1074  0.0220
 2371ntf    fn414498   3.668   1.694   1.840 -0.0702 -0.1871  0.1146
 2371ntf    on514499   3.913   1.661   1.996 -0.0561  0.5320 -0.7151
 2371ntf    on514500   3.740   1.485   2.030 -0.2115  0.9235 -0.0827
 2371ntf    on514501   3.918   1.207   1.986  0.4782 -0.3626 -0.0154
 2371ntf    on514502   4.104   1.344   2.056 -0.4314 -0.2318 -0.0453
 2371ntf    fn414503   4.183   1.358   1.774 -0.3293  0.1556  0.3574
 2371ntf    fn414504   4.187   1.156   1.850 -0.4653  0.1483  0.4465
 2371ntf    fn414505   4.042   1.224   1.707 -0.4138 -0.1259 -0.6025
 2372ntf    cn114506   2.181   1.606   2.643 -0.2565 -0.1465 -0.1588
 2372ntf    sn214507   2.279   1.579   2.794  0.1802  0.3290 -0.3537
 2372ntf    nn314508   2.389   1.688   2.768  0.5789 -0.0495 -0.2720
 2372ntf    sn214509   2.413   1.835   2.819 -0.2733 -0.1334  0.4025
 2372ntf    cn114510   2.584   1.847   2.881 -0.1221 -0.0994 -0.0150
 2372ntf    fn414511   2.147   1.734   2.639  0.2944  0.0119  0.1078
 2372ntf    fn414512   2.249   1.590   2.531  0.0982 -0.2278  0.0643
 2372ntf    fn414513   2.071   1.537   2.623 -0.5620  0.2393  0.1661
 2372ntf    on514514   2.191   1.603   2.905  0.1201 -0.8506 -0.1340
 2372ntf    on514515   2.332   1.446   2.774  0.3859  0.2977  0.3690
 2372ntf    on514516   2.332   1.868   2.933 -0.2776  0.6210  0.1872
 2372ntf    on514517   2.416   1.939   2.719  1.0835 -0.3206  0.2328
 2372ntf    fn414518   2.616   1.962   2.937  0.2929 -0.0815 -0.2851
 2372ntf    fn414519   2.612   1.745   2.960  0.4172  0.4509  0.5115
 2372ntf    fn414520   2.672   1.837   2.783  0.0093  0.1840  0.0753
 2373ntf    cn114521   5.938   1.447   5.352  0.2255 -0.1436 -0.2088
 2373ntf    sn214522   5.996   1.596   5.438 -0.0376  0.0162 -0.3064
 2373ntf    nn314523   6.141   1.557   5.485 -0.0977 -0.1473 -0.2544
 2373ntf    sn214524   6.286   1.570   5.427  0.0119 -0.0563  0.0419
 2373ntf    cn114525   6.372   1.430   5.504  0.3436  0.0782 -0.0810
 2373ntf    fn414526   5.806   1.439   5.354  0.2459 -0.3544  0.7265
 2373ntf    fn414527   5.980   1.439   5.227  0.8065 -0.0813 -0.0200
 2373ntf    fn414528   5.976   1.338   5.417 -0.1161 -0.0124  0.2167
 2373ntf    on514529   5.981   1.703   5.343  0.0174  0.4443  0.1669
 2373ntf    on514530   5.910   1.602   5.553  0.1194  0.6138 -0.2201
 2373ntf    on514531   6.369   1.674   5.484  0.1125 -0.3689  0.4759
 2373ntf    on514532   6.295   1.546   5.286  0.5334 -0.7717  0.1897
 2373ntf    fn414533   6.329   1.400   5.626 -0.1168 -0.4034 -0.3552
 2373ntf    fn414534   6.359   1.317   5.436  0.6634  0.2508 -0.4271
 2373ntf    fn414535   6.501   1.456   5.510  0.3779 -0.1525  0.2061
 2374ntf    cn114536   5.018   4.620   2.989  0.1314  0.3846 -0.2751
 2374ntf    sn214537   4.909   4.764   3.011 -0.0734  0.1812  0.0505
 2374ntf    nn314538   4.809   4.695   3.110 -0.0542 -0.0170 -0.0680
 2374ntf    sn214539   4.706   4.771   3.202  0.0648  0.0407  0.0180
 2374ntf    cn114540   4.816   4.804   3.343 -0.0402 -0.1119  0.1357
 2374ntf    fn414541   5.113   4.596   3.077 -0.2157  0.0508  0.0107
 2374ntf    fn414542   4.965   4.500   2.971  0.7415  0.0207  0.3188
 2374ntf    fn414543   5.087   4.644   2.879  1.1940 -0.1743  0.2575
 2374ntf    on514544   5.003   4.857   3.070 -0.6132  0.0336  1.1676
 2374ntf    on514545   4.860   4.792   2.879  0.5505 -0.2950 -0.2904
 2374ntf    on514546   4.590   4.696   3.243 -0.1891  0.4347  0.0155
 2374ntf    on514547   4.680   4.907   3.162 -0.8532  0.0441  0.6061
 2374ntf    fn414548   4.844   4.684   3.391 -0.4156 -0.3433 -0.2134
 2374ntf    fn414549   4.924   4.875   3.316 -0.3210  0.4463  0.4788
 2374ntf    fn414550   4.746   4.867   3.436 -0.6367 -0.0504 -0.3461
 2375ntf    cn114551   6.938   3.469   6.516  0.3026  0.2045 -0.2982
 2375ntf    sn214552   7.067   3.498   6.641  0.2894  0.0039 -0.2382
 2375ntf    nn314553   7.170   3.578   6.554  0.2643  0.1313 -0.1506
 2375ntf    sn214554   7.326   3.588   6.566  0.2761  0.0184 -0.2122
 2375ntf    cn114555   7.372   3.499   6.415  0.3744 -0.0902 -0.1187
 2375ntf    fn414556   6.983   3.391   6.420 -0.1126 -0.2392 -0.1363
 2375ntf    fn414557   6.831   3.411   6.568  0.4993 -0.0213 -0.1425
 2375ntf    fn414558   6.898   3.578   6.452  0.4018  0.4203  0.0007
 2375ntf    on514559   6.990   3.570   6.739 -0.0969  0.3640 -0.7990
 2375ntf    on514560   7.120   3.368   6.671 -0.0313 -0.0964 -0.1019
 2375ntf    on514561   7.391   3.509   6.669 -0.2253  0.0865  0.1614
 2375ntf    on514562   7.381   3.720   6.547 -0.0400  0.2207  0.2447
 2375ntf    fn414563   7.353   3.372   6.448  0.2677 -0.0415  0.0044
 2375ntf    fn414564   7.284   3.524   6.319  0.1809 -0.0550  0.0673
 2375ntf    fn414565   7.494   3.517   6.367  0.5035 -0.3207  0.1243
 2376ntf    cn114566   4.092   4.221   0.555 -0.0897 -0.0325 -0.2478
 2376ntf    sn214567   4.150   4.220   0.383  0.0354 -0.0396 -0.2057
 2376ntf    nn314568   4.161   4.066   0.354  0.0030  0.0137 -0.5114
 2376ntf    sn214569   4.060   3.960   0.298  0.0133 -0.2708 -0.0040
 2376ntf    cn114570   4.048   3.857   0.447 -0.3112 -0.0991  0.0895
 2376ntf    fn414571   4.084   4.345   0.599  0.1523 -0.1479  0.1243
 2376ntf    fn414572   3.972   4.168   0.575  0.0316  0.0438  0.7261
 2376ntf    fn414573   4.175   4.162   0.640  0.1174  0.4564 -0.1074
 2376ntf    on514574   4.045   4.290   0.313  0.0337  0.3579  0.1944
 2376ntf    on514575   4.276   4.290   0.378  0.2273 -0.3520  0.1962
 2376ntf    on514576   4.103   3.882   0.184 -0.3488 -0.4224 -0.0404
 2376ntf    on514577   3.924   4.004   0.280  0.1250  0.0906  0.0192
 2376ntf    fn414578   4.155   3.860   0.524 -0.2649  0.3559  0.0135
 2376ntf    fn414579   3.945   3.889   0.523 -0.3409 -1.1280  0.4941
 2376ntf    fn414580   4.031   3.733   0.406 -0.1059 -0.0356 -0.1898
 2377ntf    cn114581   6.272   6.223   0.809  0.4051  0.0148  0.1648
 2377ntf    sn214582   6.274   6.375   0.908 -0.1036 -0.0008  0.2024
 2377ntf    nn314583   6.391   6.330   1.002 -0.1860 -0.3407  0.1421
 2377ntf    sn214584   6.538   6.384   1.018 -0.2624 -0.1724  0.2813
 2377ntf    cn114585   6.505   6.546   1.092  0.3336  0.0866 -0.0145
 2377ntf    fn414586   6.206   6.234   0.695 -0.1025 -0.0370  0.4539
 2377ntf    fn414587   6.392   6.181   0.771  0.3459  0.0995 -0.1176
 2377ntf    fn414588   6.216   6.123   0.875  0.4236 -0.3290 -0.3319
 2377ntf    on514589   6.300   6.481   0.813  0.3366 -0.2216  0.0729
 2377ntf    on514590   6.152   6.383   0.984  0.1102 -0.2272  0.5696
 2377ntf    on514591   6.614   6.406   0.897  0.4309 -0.7392  0.6035
 2377ntf    on514592   6.594   6.309   1.128  0.1777  0.1936  0.3096
 2377ntf    fn414593   6.463   6.630   0.999  0.2921  0.2609  0.1606
 2377ntf    fn414594   6.409   6.522   1.179  0.1674  0.0697 -0.2029
 2377ntf    fn414595   6.612   6.605   1.144 -0.0470  0.4783  0.3305
 2378ntf    cn114596   4.956   4.751   4.134 -0.2328  0.2896 -0.0018
 2378ntf    sn214597   4.775   4.756   4.154 -0.2761 -0.3011 -0.2167
 2378ntf    nn314598   4.747   4.871   4.051 -0.2784 -0.2500 -0.1590
 2378ntf    sn214599   4.665   4.864   3.917 -0.2181  0.0761 -0.2140
 2378ntf    cn114600   4.792   4.817   3.797  0.2189 -0.4313  0.4367
 2378ntf    fn414601   5.009   4.864   4.177 -0.4471  0.4876 -0.2551
 2378ntf    fn414602   5.019   4.652   4.196  0.2778  0.3980 -0.3489
 2378ntf    fn414603   4.989   4.734   4.007  0.2328  0.0945  0.1430
 2378ntf    on514604   4.718   4.628   4.121 -0.5002 -0.2152 -0.1620
 2378ntf    on514605   4.752   4.816   4.283  0.1664 -0.2828 -0.1440
 2378ntf    on514606   4.619   4.995   3.878 -0.0927  0.0981 -0.2860
 2378ntf    on514607   4.563   4.761   3.917 -0.4895  0.3362  0.3380
 2378ntf    fn414608   4.830   4.690   3.797 -0.4053 -0.6245  0.3589
 2378ntf    fn414609   4.749   4.836   3.673  0.3504 -0.4713  0.3845
 2378ntf    fn414610   4.897   4.896   3.814 -0.3114  0.3794  0.0139
 2379ntf    cn114611   5.548   6.297   0.704 -0.2036 -0.2838 -0.0869
 2379ntf    sn214612   5.392   6.349   0.781  0.0824 -0.0086  0.3131
 2379ntf    nn314613   5.441   6.434   0.903  0.4972  0.0770  0.0885
 2379ntf    sn214614   5.366   6.473   1.035 -0.0875 -0.1878 -0.1642
 2379ntf    cn114615   5.313   6.645   1.008 -0.2770 -0.2918 -0.4547
 2379ntf    fn414616   5.541   6.212   0.603 -0.1144 -0.5018  0.0875
 2379ntf    fn414617   5.610   6.405   0.660  0.1065 -0.3396  0.2016
 2379ntf    fn414618   5.632   6.237   0.788  0.0066 -0.0579 -0.1340
 2379ntf    on514619   5.325   6.425   0.678 -0.1368 -0.1573  0.3472
 2379ntf    on514620   5.330   6.224   0.816 -0.4387  0.2835  0.4415
 2379ntf    on514621   5.461   6.498   1.140  0.1932  0.3979 -0.5485
 2379ntf    on514622   5.250   6.399   1.079 -0.1946  0.0685 -0.0090
 2379ntf    fn414623   5.274   6.660   0.882 -0.4135 -0.0441 -0.3837
 2379ntf    fn414624   5.209   6.686   1.079  0.3677  0.2009  0.2145
 2379ntf    fn414625   5.408   6.735   1.022 -0.3541 -0.1191 -1.0223
 2380ntf    cn114626   5.933   2.958   5.619  0.0521  0.1890 -0.1761
 2380ntf    sn214627   5.802   2.834   5.639  0.1205  0.1718  0.1709
 2380ntf    nn314628   5.744   2.888   5.775  0.0623  0.4480  0.0369
 2380ntf    sn214629   5.675   2.799   5.884  0.1825  0.2191 -0.0713
 2380ntf    cn114630   5.818   2.773   5.993  0.3823 -0.1068 -0.4074
 2380ntf    fn414631   5.893   3.076   5.574  0.1217  0.3166  0.0930
 2380ntf    fn414632   5.986   2.996   5.734 -0.6018  0.2744  0.1032
 2380ntf    fn414633   6.035   2.916   5.545  0.1484  0.3185 -0.1167
 2380ntf    on514634   5.719   2.857   5.523  0.0650  0.0754  0.1916
 2380ntf    on514635   5.889   2.719   5.652 -0.5231 -0.2807  0.5623
 2380ntf    on514636   5.632   2.667   5.847  0.4651  0.0357  0.2567
 2380ntf    on514637   5.577   2.876   5.958  0.0418  0.0088 -0.0372
 2380ntf    fn414638   5.917   2.702   5.943  0.3731 -0.0294 -0.5368
 2380ntf    fn414639   5.867   2.888   6.038 -0.4289 -0.1008  0.5216
 2380ntf    fn414640   5.778   2.721   6.108  0.0115 -0.2024 -0.5774
 2381ntf    cn114641   1.967   0.145   5.088 -0.2365 -0.0090  0.4065
 2381ntf    sn214642   1.906   0.211   4.930 -0.2813 -0.2242  0.3323
 2381ntf    nn314643   1.759   0.156   4.922 -0.4913  0.3474  0.1596
 2381ntf    sn214644   1.689   0.087   4.799  0.0484  0.0582  0.0095
 2381ntf    cn114645   1.519   0.099   4.862 -0.0382 -0.1073 -0.1931
 2381ntf    fn414646   1.890   0.177   5.191  0.1371 -0.2343  0.7577
 2381ntf    fn414647   1.978   0.013   5.097  0.0585 -0.0089  0.0462
 2381ntf    fn414648   2.085   0.199   5.108 -0.1894  0.1373 -0.2472
 2381ntf    on514649   1.929   0.351   4.957  0.8317 -0.4213  0.4625
 2381ntf    on514650   1.989   0.145   4.833 -0.6071 -0.2685  0.0841
 2381ntf    on514651   1.724  -0.050   4.768  0.0666  0.2009 -0.6066
 2381ntf    on514652   1.679   0.181   4.691 -0.8456  0.1405  0.1612
 2381ntf    fn414653   1.505   0.042   4.980  0.5288  0.4294  0.1365
 2381ntf    fn414654   1.484   0.226   4.863  0.2546 -0.0261 -0.1218
 2381ntf    fn414655   1.433   0.040   4.781 -0.5704  0.2639  0.0957
 2382ntf    cn114656   2.126   6.250   4.089  0.6162 -0.3257 -0.1669
 2382ntf    sn214657   2.062   6.200   4.252  0.3614 -0.0059 -0.1691
 2382ntf    nn314658   2.035   6.050   4.215  0.0213 -0.1201  0.5304
 2382ntf    sn214659   1.913   5.992   4.136  0.2647  0.2854 -0.1507
 2382ntf    cn114660   1.801   5.946   4.272  0.3927  0.3431 -0.0259
 2382ntf    fn414661   2.231   6.177   4.056  0.4554 -0.4197 -0.4875
 2382ntf    fn414662   2.036   6.234   3.993 -0.2754 -0.1638  0.6231
 2382ntf    fn414663   2.173   6.373   4.087 -0.3167  0.0386 -0.0331
 2382ntf    on514664   2.173   6.223   4.341  0.2622 -0.0347 -0.0364
 2382ntf    on514665   1.941   6.276   4.268 -0.3186 -1.1692  0.3281
 2382ntf    on514666   1.935   5.860   4.081 -0.4869 -0.1964  0.6767
 2382ntf    on514667   1.822   6.079   4.066 -0.2195 -0.2004 -0.1307
 2382ntf    fn414668   1.674   5.937   4.237  0.3937  0.1774  0.0144
 2382ntf    fn414669   1.833   5.830   4.325 -0.3420  0.0622 -0.1965
 2382ntf    fn414670   1.815   6.030   4.373  0.0252  0.1510  0.1845
 2383ntf    cn114671   6.235   3.736   4.034  0.1310  0.2623  0.2944
 2383ntf    sn214672   6.348   3.633   3.934 -0.4433 -0.1472  0.0646
 2383ntf    nn314673   6.463   3.736   3.904 -0.8014  0.2365 -0.0089
 2383ntf    sn214674   6.557   3.717   3.779 -0.5134  0.1353  0.2213
 2383ntf    cn114675   6.636   3.560   3.823 -0.3320  0.2091  0.1584
 2383ntf    fn414676   6.283   3.783   4.148 -0.1042  0.1075  0.4567
 2383ntf    fn414677   6.206   3.842   3.960  0.4704  0.2853  0.1897
 2383ntf    fn414678   6.128   3.666   4.067  0.0925  0.2363  0.1155
 2383ntf    on514679   6.390   3.530   4.025  0.7214  0.0336 -0.2498
 2383ntf    on514680   6.264   3.590   3.825 -0.1419  0.0567 -0.2518
 2383ntf    on514681   6.665   3.812   3.777 -0.4353  0.0578  0.6156
 2383ntf    on514682   6.502   3.682   3.650  0.0692  0.6033 -0.1588
 2383ntf    fn414683   6.556   3.455   3.833 -0.2142  0.0868 -0.1800
 2383ntf    fn414684   6.741   3.524   3.751 -0.3265  0.2722  0.1346
 2383ntf    fn414685   6.685   3.578   3.945  0.0848 -0.4038  0.0844
 2384ntf    cn114686   1.613   1.653   0.320 -0.2159  0.2858  0.0546
 2384ntf    sn214687   1.680   1.664   0.489 -0.0241  0.2345 -0.0184
 2384ntf    nn314688   1.800   1.563   0.496 -0.0340  0.2474  0.3626
 2384ntf    sn214689   1.794   1.408   0.524 -0.0378  0.1256 -0.2890
 2384ntf    cn114690   1.905   1.352   0.391 -0.2730 -0.6492 -0.1638
 2384ntf    fn414691   1.526   1.553   0.309  0.1513 -0.0275 -0.0161
 2384ntf    fn414692   1.548   1.761   0.281 -0.5737  0.2875  0.6446
 2384ntf    fn414693   1.706   1.634   0.229  0.3132 -0.1292  0.6712
 2384ntf    on514694   1.727   1.801   0.491 -0.2083  0.2930  0.3182
 2384ntf    on514695   1.565   1.657   0.575 -0.0235  0.0475 -0.0329
 2384ntf    on514696   1.673   1.346   0.474  0.3234 -0.9413  0.1352
 2384ntf    on514697   1.853   1.371   0.650  0.2535  0.2448 -0.3896
 2384ntf    fn414698   1.929   1.222   0.386 -0.2060 -0.6349 -0.2050
 2384ntf    fn414699   1.859   1.394   0.275  0.1523 -0.0385 -0.1172
 2384ntf    fn414700   2.022   1.409   0.417 -0.4931 -0.0534 -0.4498
 2385ntf    cn114701   2.281   2.661   0.509 -0.6200 -0.3680  0.0828
 2385ntf    sn214702   2.327   2.487   0.485  0.0353 -0.1481 -0.2735
 2385ntf    nn314703   2.480   2.496   0.522  0.0343 -0.3257 -0.2265
 2385ntf    sn214704   2.592   2.569   0.440  0.2678 -0.2001  0.2018
 2385ntf    cn114705   2.655   2.429   0.344  0.8827 -0.0268  0.3504
 2385ntf    fn414706   2.152   2.685   0.491 -0.5135 -0.0860 -0.3190
 2385ntf    fn414707   2.305   2.707   0.631 -0.5691  0.3129 -0.1774
 2385ntf    fn414708   2.347   2.743   0.429 -0.3131 -0.1268  0.5765
 2385ntf    on514709   2.242   2.426   0.584 -0.2073  0.2172 -0.2575
 2385ntf    on514710   2.306   2.452   0.347 -0.2502 -0.4338 -0.1570
 2385ntf    on514711   2.703   2.596   0.527  0.2984  0.0010  0.1014
 2385ntf    on514712   2.557   2.665   0.337  0.8608 -0.2710 -0.0644
 2385ntf    fn414713   2.561   2.388   0.260  0.0426  0.6175  0.9629
 2385ntf    fn414714   2.763   2.444   0.269  0.4921  0.5064 -0.1174
 2385ntf    fn414715   2.674   2.331   0.430 -0.0360 -0.1262  0.4515
 2386ntf    cn114716   6.021   1.069   2.544 -0.4422 -0.1483 -0.2981
 2386ntf    sn214717   5.975   1.022   2.714 -0.2983  0.0873 -0.1937
 2386ntf    nn314718   6.015   1.155   2.787 -0.1812 -0.1871  0.2416
 2386ntf    sn214719   5.930   1.286   2.802  0.1543  0.0775 -0.1707
 2386ntf    cn114720   6.055   1.398   2.733  0.0374 -0.1357 -0.7372
 2386ntf    fn414721   6.048   0.955   2.482  0.0992 -0.2185  0.0630
 2386ntf    fn414722   5.929   1.138   2.479 -0.7725  0.0335  0.3471
 2386ntf    fn414723   6.136   1.131   2.526 -0.2682 -0.3914 -0.0403
 2386ntf    on514724   5.835   0.987   2.708 -0.2102 -0.2325 -0.4649
 2386ntf    on514725   6.064   0.917   2.756  0.0861  0.2469 -0.6052
 2386ntf    on514726   5.930   1.340   2.935  0.3663 -0.0020 -0.1391
 2386ntf    on514727   5.810   1.307   2.723  0.1482 -0.0441 -0.1935
 2386ntf    fn414728   6.140   1.344   2.648  0.9954  0.0402  0.0939
 2386ntf    fn414729   5.996   1.498   2.669 -0.1490 -0.1574 -0.5992
 2386ntf    fn414730   6.138   1.450   2.822 -0.5167 -0.3436 -0.0950
 2387ntf    cn114731   6.578   5.759   5.359 -0.2492 -0.0963  0.1774
 2387ntf    sn214732   6.459   5.894   5.383 -0.1004 -0.0031  0.3933
 2387ntf    nn314733   6.321   5.826   5.351 -0.0388  0.1419 -0.1922
 2387ntf    sn214734   6.211   5.873   5.248 -0.0864  0.3224 -0.0603
 2387ntf    cn114735   6.234   5.737   5.130  0.1387  0.1167  0.2164
 2387ntf    fn414736   6.507   5.657   5.312  0.0431 -0.1842 -0.0736
 2387ntf    fn414737   6.674   5.784   5.272 -0.9322  0.3647 -0.4580
 2387ntf    fn414738   6.629   5.711   5.471  0.0571  0.0982  0.1205
 2387ntf    on514739   6.470   5.928   5.522  0.3598 -0.2502  0.4195
 2387ntf    on514740   6.496   6.005   5.298  0.0966 -0.5055 -0.1775
 2387ntf    on514741   6.224   5.999   5.180  0.3381  0.4478  0.2459
 2387ntf    on514742   6.082   5.848   5.307 -0.1821  0.6957 -0.1140
 2387ntf    fn414743   6.356   5.753   5.079  0.0770  0.5475  0.2057
 2387ntf    fn414744   6.223   5.611   5.169 -0.5384 -0.0732 -0.5567
 2387ntf    fn414745   6.144   5.744   5.033  0.3848 -0.2819 -0.0476
 2388ntf    cn114746   4.209   1.431   4.232 -0.0661 -0.3139  0.3708
 2388ntf    sn214747   4.306   1.566   4.158 -0.0644 -0.1666  0.6376
 2388ntf    nn314748   4.193   1.649   4.089 -0.0901 -0.2563  0.5715
 2388ntf    sn214749   4.148   1.796   4.123  0.5794  0.0410  0.1949
 2388ntf    cn114750   3.994   1.786   4.028  0.2645  0.1958  0.6873
 2388ntf    fn414751   4.118   1.470   4.320  0.0791  0.4134  0.2044
 2388ntf    fn414752   4.141   1.380   4.131 -0.0887  0.0975  0.1748
 2388ntf    fn414753   4.282   1.334   4.284 -0.2701 -0.5970  0.1241
 2388ntf    on514754   4.374   1.630   4.268  0.3857  0.4852 -0.0095
 2388ntf    on514755   4.393   1.494   4.067 -0.3948  0.2007  0.0245
 2388ntf    on514756   4.221   1.901   4.057  0.4900  0.3573  0.5933
 2388ntf    on514757   4.102   1.812   4.259  0.1731 -0.5093  0.1254
 2388ntf    fn414758   3.903   1.695   4.063  0.2852 -0.1283 -0.0867
 2388ntf    fn414759   3.927   1.899   4.017  0.2464  0.1326  0.1421
 2388ntf    fn414760   4.031   1.764   3.903  0.0309  0.2140  0.6133
 2389ntf    cn114761   5.643   1.801   2.833  0.1375  0.6079  0.4511
 2389ntf    sn214762   5.597   1.949   2.739 -0.2499  0.3118  0.1720
 2389ntf    nn314763   5.712   2.049   2.777  0.1990  0.0421 -0.4552
 2389ntf    sn214764   5.855   2.071   2.715  0.2657 -0.2555 -0.4123
 2389ntf    cn114765   5.957   2.070   2.865 -0.0712 -0.2849 -0.1816
 2389ntf    fn414766   5.550   1.707   2.842  0.2140  0.4836  0.0002
 2389ntf    fn414767   5.746   1.740   2.775 -0.3837  0.2329 -0.0972
 2389ntf    fn414768   5.674   1.830   2.958 -0.1609 -0.3439  0.7553
 2389ntf    on514769   5.590   1.895   2.605 -0.5397 -0.5649  0.5370
 2389ntf    on514770   5.473   1.987   2.802 -0.4875  0.3916 -0.3330
 2389ntf    on514771   5.877   2.206   2.670 -0.2954 -0.1304 -0.3184
 2389ntf    on514772   5.905   1.969   2.627  0.1447 -0.2924 -0.4383
 2389ntf    fn414773   5.912   2.142   2.967  0.6727 -0.0050 -0.0411
 2389ntf    fn414774   5.981   1.951   2.919 -0.2279  0.0083  0.5499
 2389ntf    fn414775   6.076   2.124   2.842  0.0705 -0.8552 -0.7970
 2390ntf    cn114776   5.495   5.462   6.521  0.3045  0.0408  0.1189
 2390ntf    sn214777   5.416   5.301   6.493 -0.2501  0.3117  0.1193
 2390ntf    nn314778   5.439   5.223   6.627 -0.7256 -0.1331 -0.0550
 2390ntf    sn214779   5.438   5.290   6.769 -0.6092 -0.0652 -0.0861
 2390ntf    cn114780   5.335   5.163   6.848 -0.3129  0.0099  0.4210
 2390ntf    fn414781   5.548   5.511   6.410  0.0908  0.7114  0.3101
 2390ntf    fn414782   5.422   5.560   6.570  0.0315  0.0403 -0.2857
 2390ntf    fn414783   5.601   5.439   6.597  0.1286 -0.6187  0.1726
 2390ntf    on514784   5.277   5.329   6.466 -0.3581 -0.4559 -0.1424
 2390ntf    on514785   5.502   5.253   6.388  0.0733  0.2665  0.4035
 2390ntf    on514786   5.355   5.408   6.783 -0.2390  0.1296  0.5058
 2390ntf    on514787   5.561   5.286   6.845 -0.5602  0.0144 -0.1612
 2390ntf    fn414788   5.341   5.176   6.980  0.1192 -0.4594  0.4506
 2390ntf    fn414789   5.208   5.170   6.815 -0.1961 -0.0507 -0.0445
 2390ntf    fn414790   5.363   5.039   6.812 -0.2422  0.2718 -0.4363
 2391ntf    cn114791   0.103   4.562   5.843 -0.1057 -0.2709 -0.3268
 2391ntf    sn214792   0.036   4.501   6.000  0.4445 -0.0534 -0.0062
 2391ntf    nn314793   0.063   4.629   6.086  0.3474 -0.2826  0.3694
 2391ntf    sn214794  -0.044   4.733   6.137  0.2781  0.0792 -0.5016
 2391ntf    cn114795   0.079   4.861   6.176 -0.1280  0.3370 -0.0560
 2391ntf    fn414796   0.117   4.461   5.758 -0.2002 -0.2099 -0.4161
 2391ntf    fn414797   0.030   4.650   5.776  0.2541  0.1064 -0.2235
 2391ntf    fn414798   0.226   4.605   5.863 -0.3958  0.4034  0.0337
 2391ntf    on514799  -0.099   4.465   5.964  0.5449 -0.4286 -0.0175
 2391ntf    on514800   0.123   4.399   6.053 -0.1369 -0.3718  0.3448
 2391ntf    on514801  -0.113   4.706   6.260  0.6244 -0.1151 -0.3503
 2391ntf    on514802  -0.129   4.788   6.034 -0.1142  0.4957  0.0366
 2391ntf    fn414803   0.146   4.891   6.066  0.1266  0.2926  0.0868
 2391ntf    fn414804   0.022   4.973   6.215  0.3828  0.6272 -0.1310
 2391ntf    fn414805   0.163   4.816   6.268  0.1755  0.3607 -0.3185
 2392ntf    cn114806   0.012   0.025   0.682 -0.5192  0.0663 -0.1609
 2392ntf    sn214807   0.030   0.059   0.505  0.1432  0.4603 -0.0242
 2392ntf    nn314808   0.076  -0.082   0.454 -0.2100  0.4660 -0.3694
 2392ntf    sn214809  -0.017  -0.190   0.388  0.1326 -0.2766  0.3387
 2392ntf    cn114810   0.116  -0.305   0.343 -0.0927 -0.3695 -0.0940
 2392ntf    fn414811  -0.014   0.133   0.755 -0.2652 -0.0352  0.0829
 2392ntf    fn414812  -0.073  -0.071   0.713 -0.0619 -0.5736 -0.8725
 2392ntf    fn414813   0.132  -0.015   0.723 -0.2645  0.6957 -0.2663
 2392ntf    on514814  -0.106   0.098   0.476  0.1850  0.7341  0.1475
 2392ntf    on514815   0.135   0.155   0.483  0.3957  0.1180 -0.3398
 2392ntf    on514816  -0.071  -0.143   0.263  0.2096  0.2367  0.4944
 2392ntf    on514817  -0.102  -0.265   0.478 -0.1088 -0.1644  0.2051
 2392ntf    fn414818   0.078  -0.413   0.278 -0.8590 -0.1474 -0.0170
 2392ntf    fn414819   0.218  -0.250   0.278 -0.2760 -0.1013 -0.1582
 2392ntf    fn414820   0.174  -0.349   0.453 -0.7227 -0.0684  0.3627
 2393ntf    cn114821   1.133   0.457   1.253  0.0026  0.0754  0.1167
 2393ntf    sn214822   0.961   0.413   1.215  0.1918 -0.6107  0.0427
 2393ntf    nn314823   0.885   0.550   1.229  0.3782 -0.5051  0.0166
 2393ntf    sn214824   0.834   0.641   1.112  0.4173  0.0652  0.4395
 2393ntf    cn114825   0.770   0.780   1.211  0.1274  0.4910 -0.3384
 2393ntf    fn414826   1.143   0.442   1.384  0.2082 -0.0765  0.0838
 2393ntf    fn414827   1.223   0.377   1.197 -0.0569  0.2143 -0.1799
 2393ntf    fn414828   1.162   0.582   1.220  0.5031 -0.1132 -0.1621
 2393ntf    on514829   0.962   0.360   1.081  0.8025 -0.7680  0.1063
 2393ntf    on514830   0.917   0.313   1.309 -0.5621  0.2038  0.5777
 2393ntf    on514831   0.717   0.598   1.041  0.0333  0.0599  1.0716
 2393ntf    on514832   0.939   0.700   1.032  0.0927  0.0592  0.0103
 2393ntf    fn414833   0.679   0.736   1.297  0.1373  0.2675 -0.4402
 2393ntf    fn414834   0.863   0.835   1.287  0.0264  0.0466  0.1113
 2393ntf    fn414835   0.727   0.876   1.131 -0.7671 -0.0915 -0.5701
 2394ntf    cn114836   0.018   1.142   0.951 -0.1710 -0.0063 -0.1945
 2394ntf    sn214837  -0.017   1.104   0.776  0.0774  0.1389 -0.2771
 2394ntf    nn314838  -0.170   1.077   0.794  0.1467 -0.5445 -0.6891
 2394ntf    sn214839  -0.242   0.942   0.830 -0.2993 -0.0100  0.4722
 2394ntf    cn114840  -0.293   0.879   0.667  0.2417  0.6406  0.0500
 2394ntf    fn414841   0.149   1.133   0.972 -0.2183 -0.4886 -0.1009
 2394ntf    fn414842  -0.016   1.268   0.971 -0.0110 -0.0224  0.1889
 2394ntf    fn414843  -0.043   1.059   1.032  0.4559  0.0519  0.3471
 2394ntf    on514844   0.008   1.224   0.700  0.3754  0.1334 -0.1899
 2394ntf    on514845   0.072   0.992   0.762  0.4129  0.4098 -0.3328
 2394ntf    on514846  -0.376   0.961   0.880 -0.9111 -0.9205 -0.7708
 2394ntf    on514847  -0.164   0.836   0.889 -0.5520 -0.6617 -0.3440
 2394ntf    fn414848  -0.191   0.865   0.584  0.3037  0.4991  0.1508
 2394ntf    fn414849  -0.355   0.764   0.686  0.8081  0.3477  0.1549
 2394ntf    fn414850  -0.381   0.963   0.615  0.0669  0.3832 -0.0673
 2395ntf    cn114851   3.688   6.121   6.197 -0.0062 -0.0808  0.0796
 2395ntf    sn214852   3.703   5.941   6.214  0.2423 -0.0184  0.5288
 2395ntf    nn314853   3.776   5.923   6.352  0.4689 -0.4993  0.3489
 2395ntf    sn214854   3.728   5.964   6.496  0.3528 -0.2042  0.2262
 2395ntf    cn114855   3.891   5.936   6.570  0.1762 -0.3101  0.5770
 2395ntf    fn414856   3.803   6.184   6.211 -0.0511  0.0230 -0.0183
 2395ntf    fn414857   3.643   6.164   6.080 -0.4613  0.2952  0.3882
 2395ntf    fn414858   3.613   6.170   6.295  0.2695 -0.0809  0.2895
 2395ntf    on514859   3.566   5.896   6.225  0.3694 -0.7405 -0.6429
 2395ntf    on514860   3.769   5.886   6.098  0.4461  0.0461  0.6142
 2395ntf    on514861   3.638   5.877   6.567  0.2301 -0.0145  0.3027
 2395ntf    on514862   3.708   6.105   6.521  0.2406 -0.2592  0.4505
 2395ntf    fn414863   3.933   5.813   6.548  0.0252 -0.2533 -0.0566
 2395ntf    fn414864   3.989   6.014   6.527 -0.4241  0.1698  0.0610
 2395ntf    fn414865   3.883   5.955   6.701 -0.3061  0.6939  0.4148
 2396ntf    cn114866   4.491   4.182   6.367  0.1343 -0.3082 -0.1396
 2396ntf    sn214867   4.380   4.317   6.318 -0.0321 -0.3665  0.0774
 2396ntf    nn314868   4.263   4.241   6.247 -0.4364  0.1285  0.2086
 2396ntf    sn214869   4.135   4.175   6.309 -0.5146 -0.0029 -0.0913
 2396ntf    cn114870   4.003   4.298   6.285  0.1234  0.7191  0.0874
 2396ntf    fn414871   4.523   4.110   6.260 -0.1348 -0.8230  0.1225
 2396ntf    fn414872   4.607   4.234   6.406 -0.1277  0.1151  0.0756
 2396ntf    fn414873   4.447   4.108   6.467 -0.6209  0.0204 -0.2286
 2396ntf    on514874   4.339   4.377   6.442 -0.3598 -0.2026 -0.1080
 2396ntf    on514875   4.456   4.398   6.225  0.9019 -0.2282  0.9426
 2396ntf    on514876   4.137   4.157   6.452  1.1705  0.2109 -0.0681
 2396ntf    on514877   4.084   4.069   6.226  0.1911 -0.3439 -0.0963
 2396ntf    fn414878   4.028   4.399   6.367  0.7862  0.3698  0.3257
 2396ntf    fn414879   3.993   4.347   6.162  0.6231 -0.2238 -0.3373
 2396ntf    fn414880   3.881   4.260   6.316  0.0772  0.3856 -0.4949
 2397ntf    cn114881   1.967   5.957   3.169  0.2061  0.1349  0.2275
 2397ntf    sn214882   1.838   5.913   3.289  0.0253  0.1164  0.0272
 2397ntf    nn314883   1.927   5.867   3.410 -0.1449 -0.4671 -0.0682
 2397ntf    sn214884   1.913   5.740   3.500 -0.2661 -0.2499  0.2204
 2397ntf    cn114885   2.037   5.777   3.628 -0.0185  0.1141 -0.1228
 2397ntf    fn414886   2.051   6.048   3.215  0.2669  0.1625  0.0601
 2397ntf    fn414887   2.038   5.849   3.143 -0.3245 -0.1079 -0.2380
 2397ntf    fn414888   1.924   5.999   3.051  0.0097 -0.6108  0.0255
 2397ntf    on514889   1.771   6.039   3.315  0.3692  0.6046 -1.3873
 2397ntf    on514890   1.764   5.816   3.213  0.2876  0.1145 -0.2228
 2397ntf    on514891   1.959   5.616   3.443  0.2054  0.0034  0.0543
 2397ntf    on514892   1.801   5.741   3.592 -0.2541 -0.9490  0.2535
 2397ntf    fn414893   2.063   5.682   3.717 -0.0034  0.2741  0.0434
 2397ntf    fn414894   2.150   5.822   3.578  0.0500  0.1990  0.1086
 2397ntf    fn414895   2.002   5.887   3.693 -0.1429  0.2614 -0.4373
 2398ntf    cn114896   2.782   3.117   1.122  0.2691  0.2805 -0.3903
 2398ntf    sn214897   2.653   3.244   1.119  0.2503  0.2656 -0.2422
 2398ntf    nn314898   2.728   3.365   1.052  0.0790  0.0733 -0.7941
 2398ntf    sn214899   2.811   3.480   1.120 -0.3330 -0.0347 -0.0964
 2398ntf    cn114900   2.678   3.595   1.166  0.0728  0.4167 -0.0545
 2398ntf    fn414901   2.822   3.080   1.002 -0.1486 -0.6673 -0.2434
 2398ntf    fn414902   2.885   3.169   1.188 -0.4751  0.6625  0.4825
 2398ntf    fn414903   2.753   3.006   1.189 -0.3478  0.6593 -0.0242
 2398ntf    on514904   2.562   3.175   1.030  0.3022  0.0066 -0.0947
 2398ntf    on514905   2.604   3.256   1.254  0.4891  0.2724 -0.1560
 2398ntf    on514906   2.886   3.555   1.023 -0.0848 -0.2312 -0.0573
 2398ntf    on514907   2.869   3.450   1.248  0.5445  0.8556 -0.2753
 2398ntf    fn414908   2.592   3.541   1.251  0.6916 -0.5794 -0.0382
 2398ntf    fn414909   2.721   3.707   1.223  0.2866  0.3932 -0.1651
 2398ntf    fn414910   2.608   3.629   1.059 -0.0475  0.0409 -0.0976
 2399ntf    cn114911   4.487   5.253   2.478 -0.0981  0.0552  0.2188
 2399ntf    sn214912   4.561   5.106   2.555 -0.0503 -0.0670 -0.0627
 2399ntf    nn314913   4.715   5.130   2.534 -0.0237 -0.0527  0.1501
 2399ntf    sn214914   4.818   5.214   2.617 -0.3610  0.1146  0.4044
 2399ntf    cn114915   4.894   5.081   2.714  0.2867  0.1080 -0.1058
 2399ntf    fn414916   4.354   5.252   2.486 -0.0912 -0.1986  0.3126
 2399ntf    fn414917   4.514   5.368   2.539  0.5788 -0.3193  0.6341
 2399ntf    fn414918   4.511   5.255   2.348  1.1205  0.1364  0.4342
 2399ntf    on514919   4.519   5.105   2.693  0.3491  0.7604  0.0711
 2399ntf    on514920   4.509   5.004   2.467 -0.3842  0.5704 -0.6171
 2399ntf    on514921   4.766   5.315   2.706 -0.1870  0.5174  0.0576
 2399ntf    on514922   4.927   5.255   2.531 -0.6855 -0.0781 -0.1051
 2399ntf    fn414923   4.824   5.054   2.823 -0.7065  0.6801 -0.5913
 2399ntf    fn414924   4.924   4.970   2.648  0.1268  0.1379 -0.2301
 2399ntf    fn414925   5.004   5.127   2.772  0.3597 -0.2154  0.0133
 2400ntf    cn114926   2.608   5.376   5.152  0.0257 -0.1948 -0.0290
 2400ntf    sn214927   2.687   5.476   5.282 -0.0850 -0.2784  0.1019
 2400ntf    nn314928   2.594   5.448   5.406  0.1130 -0.8549  0.1223
 2400ntf    sn214929   2.607   5.353   5.531 -0.1930 -0.2953  0.5856
 2400ntf    cn114930   2.582   5.472   5.665 -0.0947  0.3093  0.0710
 2400ntf    fn414931   2.620   5.245   5.170  0.0504 -0.1859  0.0204
 2400ntf    fn414932   2.480   5.406   5.138  0.2056  0.7259  0.2597
 2400ntf    fn414933   2.660   5.400   5.033  0.2176 -0.1421  0.0644
 2400ntf    on514934   2.823   5.430   5.291  0.1249  0.3682  0.2773
 2400ntf    on514935   2.665   5.606   5.225 -0.8893 -0.0446  0.9045
 2400ntf    on514936   2.738   5.298   5.559  0.0321 -0.1321 -0.1085
 2400ntf    on514937   2.492   5.266   5.539 -0.0262 -0.5251  0.5187
 2400ntf    fn414938   2.583   5.413   5.784  0.2813 -0.7267 -0.4350
 2400ntf    fn414939   2.674   5.567   5.674  0.8077 -0.4882 -0.5049
 2400ntf    fn414940   2.465   5.533   5.664 -0.7741 -0.9828 -0.2754
 2401ntf    cn114941   2.246   2.557   4.154 -0.1780 -0.1491 -0.2274
 2401ntf    sn214942   2.157   2.477   4.016 -0.1228 -0.2881 -0.1823
 2401ntf    nn314943   2.064   2.595   3.973 -0.1118  0.1755  1.0099
 2401ntf    sn214944   1.907   2.605   3.980 -0.1726  0.1277 -0.0595
 2401ntf    cn114945   1.885   2.737   3.857  0.4280  0.0907 -0.2131
 2401ntf    fn414946   2.176   2.586   4.262 -0.0837  0.4182 -0.3163
 2401ntf    fn414947   2.347   2.485   4.199 -0.0140 -0.2662 -0.7663
 2401ntf    fn414948   2.295   2.677   4.128 -0.2512 -0.0081  0.2874
 2401ntf    on514949   2.260   2.455   3.917  0.0076 -0.3352 -0.0382
 2401ntf    on514950   2.085   2.377   4.091 -0.3415  0.0825  0.1083
 2401ntf    on514951   1.880   2.673   4.104  0.1751  0.3606 -0.1100
 2401ntf    on514952   1.827   2.496   3.930  0.1998 -0.1802  0.0090
 2401ntf    fn414953   1.766   2.795   3.859  0.3261 -0.1250  0.0214
 2401ntf    fn414954   1.976   2.829   3.881  0.0961  0.2210  0.5637
 2401ntf    fn414955   1.892   2.694   3.732 -0.2176  0.0076 -0.2238
 2402ntf    cn114956   5.396   3.528   0.736  0.0594  0.1024 -0.5912
 2402ntf    sn214957   5.401   3.629   0.887  0.2641 -0.6930 -0.0570
 2402ntf    nn314958   5.284   3.728   0.856  0.8204  0.0482  0.1784
 2402ntf    sn214959   5.265   3.878   0.901  0.1000  0.0403 -0.0785
 2402ntf    cn114960   5.342   3.974   0.767 -0.3443  0.2654 -0.1720
 2402ntf    fn414961   5.273   3.488   0.708  0.0889  0.0574 -0.6554
 2402ntf    fn414962   5.422   3.588   0.621 -0.4594  0.3802 -0.5642
 2402ntf    fn414963   5.469   3.418   0.746 -0.1835 -0.0065  0.0480
 2402ntf    on514964   5.368   3.546   1.000 -0.2656 -0.0081  0.3025
 2402ntf    on514965   5.537   3.677   0.883  0.1291 -0.3547 -0.9849
 2402ntf    on514966   5.338   3.900   1.023 -0.2001 -0.8893  0.2752
 2402ntf    on514967   5.125   3.910   0.895 -0.1163 -0.7282  0.7043
 2402ntf    fn414968   5.312   4.100   0.791  0.4770  0.4961 -0.3305
 2402ntf    fn414969   5.473   3.967   0.756 -0.4089 -0.4247 -0.6182
 2402ntf    fn414970   5.297   3.942   0.646 -0.5842  0.1256 -0.0457
 2403ntf    cn114971   5.353   6.401   4.686  0.3389 -0.0696  0.2446
 2403ntf    sn214972   5.243   6.545   4.696  0.0861 -0.2470  0.0041
 2403ntf    nn314973   5.142   6.515   4.579  0.0937  0.0825 -0.0862
 2403ntf    sn214974   5.006   6.437   4.572  0.1804 -0.0720 -0.0650
 2403ntf    cn114975   4.885   6.568   4.608  0.1651 -0.0423 -0.2297
 2403ntf    fn414976   5.306   6.283   4.647  0.0801 -0.0880  0.6034
 2403ntf    fn414977   5.455   6.424   4.605  0.2476 -0.2758  0.0694
 2403ntf    fn414978   5.402   6.373   4.806  0.1637 -0.7253  0.1709
 2403ntf    on514979   5.193   6.560   4.830 -0.6113  0.2000 -0.2973
 2403ntf    on514980   5.339   6.644   4.656  0.0613 -0.2707 -0.1190
 2403ntf    on514981   4.980   6.348   4.682  0.9855 -0.2589 -0.0197
 2403ntf    on514982   4.964   6.392   4.442  0.3115  0.4616 -0.2946
 2403ntf    fn414983   4.759   6.528   4.598  0.1720 -0.0424 -0.3249
 2403ntf    fn414984   4.898   6.631   4.723  0.0358  0.0417 -0.2603
 2403ntf    fn414985   4.893   6.663   4.515 -0.4336 -0.2199 -0.4713
 2404ntf    cn114986   1.223   0.720   3.038 -0.1294 -0.4725 -0.0310
 2404ntf    sn214987   1.115   0.729   3.184 -0.1031  0.1287 -0.0477
 2404ntf    nn314988   1.123   0.878   3.235  0.1221  0.0905  0.0331
 2404ntf    sn214989   1.028   0.993   3.186  0.1225 -0.0898 -0.4028
 2404ntf    cn114990   0.909   0.981   3.324  0.2181 -0.3381 -0.3412
 2404ntf    fn414991   1.226   0.606   2.970 -0.5465 -0.4863 -0.0282
 2404ntf    fn414992   1.185   0.809   2.949  0.0484  0.0963  0.4585
 2404ntf    fn414993   1.353   0.730   3.064 -0.1453 -0.4333  0.0328
 2404ntf    on514994   0.985   0.685   3.143 -0.1038 -0.3915  0.4964
 2404ntf    on514995   1.172   0.634   3.277 -0.2821 -0.4776 -0.5552
 2404ntf    on514996   0.948   0.967   3.069  0.4353 -0.5771 -0.5117
 2404ntf    on514997   1.104   1.115   3.196  0.3080 -0.2267 -0.1184
 2404ntf    fn414998   0.972   0.954   3.437  0.1469 -0.8821 -0.4303
 2404ntf    fn414999   0.848   1.097   3.340  0.4901 -0.2158 -0.1741
 2404ntf    fn415000   0.823   0.882   3.309  0.4969 -0.5987 -0.2449
 2405ntf    cn115001   3.974   2.210   1.186 -0.3491 -0.2855 -0.2633
 2405ntf    sn215002   3.944   2.389   1.175  0.3072 -0.1812 -0.3953
 2405ntf    nn315003   3.894   2.425   1.319  0.6698 -0.4826 -0.1911
 2405ntf    sn215004   3.943   2.533   1.422 -0.0032 -0.1511 -0.2094
 2405ntf    cn115005   3.819   2.665   1.400  0.3605  0.2085 -0.1154
 2405ntf    fn415006   3.865   2.144   1.224 -0.1406 -0.4460  0.0586
 2405ntf    fn415007   3.997   2.153   1.069 -0.0065  0.1255 -0.3956
 2405ntf    fn415008   4.069   2.190   1.275 -0.7980  0.2045  0.3375
 2405ntf    on515009   4.074   2.439   1.138  0.3311  0.0292 -0.0317
 2405ntf    on515010   3.836   2.389   1.079 -0.4718  0.3621  0.4596
 2405ntf    on515011   4.066   2.602   1.390 -0.3667  0.4903 -0.2491
 2405ntf    on515012   3.922   2.494   1.559  0.4219 -0.2976 -0.1841
 2405ntf    fn415013   3.845   2.771   1.475  0.1661 -0.0373  0.3045
 2405ntf    fn415014   3.822   2.711   1.276 -0.4334 -0.0922 -0.2526
 2405ntf    fn415015   3.698   2.618   1.425  0.3867  0.0676 -0.2531
 2406ntf    cn115016   5.788   1.457   0.793 -0.0344 -0.1509 -0.0874
 2406ntf    sn215017   5.842   1.369   0.943  0.3733  0.1482 -0.0589
 2406ntf    nn315018   5.973   1.449   0.974  0.3235 -0.0677  0.7215
 2406ntf    sn215019   6.129   1.430   0.967  0.3028  0.0185 -0.0594
 2406ntf    cn115020   6.169   1.397   1.141  0.1137 -0.3841 -0.0910
 2406ntf    fn415021   5.745   1.582   0.804  0.0755 -0.0331 -0.9170
 2406ntf    fn415022   5.893   1.475   0.716 -0.1134  0.0441 -0.1497
 2406ntf    fn415023   5.708   1.391   0.710 -0.2991  0.3479 -0.2309
 2406ntf    on515024   5.740   1.399   1.040 -0.1094  0.2968 -0.6073
 2406ntf    on515025   5.851   1.233   0.896 -0.0204  0.1384 -0.1067
 2406ntf    on515026   6.192   1.557   0.941  1.2301 -0.2835  0.6718
 2406ntf    on515027   6.181   1.312   0.902  0.5564  0.0234  0.1359
 2406ntf    fn415028   6.142   1.271   1.172 -0.2916 -0.1207  0.6398
 2406ntf    fn415029   6.294   1.418   1.178  0.1175 -0.8753  0.1883
 2406ntf    fn415030   6.097   1.468   1.226  0.3703 -0.1731 -0.0509
 2407ntf    cn115031   1.395   0.625   0.415  0.3288 -0.4661 -0.3348
 2407ntf    sn215032   1.497   0.760   0.482 -0.3394 -0.2141  0.1870
 2407ntf    nn315033   1.624   0.712   0.403 -0.3725 -0.6514  0.3978
 2407ntf    sn215034   1.766   0.672   0.457 -0.0602 -0.0732  0.0201
 2407ntf    cn115035   1.860   0.827   0.473 -0.4214  0.1579 -0.0974
 2407ntf    fn415036   1.449   0.508   0.446  0.4046 -0.2932  0.1913
 2407ntf    fn415037   1.273   0.634   0.465  0.3247 -0.5734 -0.3259
 2407ntf    fn415038   1.388   0.634   0.283  0.3984  0.4617 -0.2860
 2407ntf    on515039   1.445   0.885   0.434  0.1966 -0.0680 -0.0228
 2407ntf    on515040   1.478   0.739   0.623 -0.3117 -0.3218  0.1747
 2407ntf    on515041   1.846   0.617   0.351 -0.4509  0.1097 -0.3700
 2407ntf    on515042   1.774   0.607   0.586  0.1094 -0.5055 -0.2059
 2407ntf    fn415043   1.870   0.900   0.364 -0.4036 -0.3089 -0.4110
 2407ntf    fn415044   1.814   0.902   0.572  0.0970  0.3440  0.0011
 2407ntf    fn415045   1.985   0.801   0.505 -0.4665  0.5748  0.4323
 2408ntf    cn115046   1.768   1.632   2.782  0.0310  0.1372 -0.4483
 2408ntf    sn215047   1.710   1.469   2.728  0.0958  0.1228 -0.4750
 2408ntf    nn315048   1.596   1.458   2.835  0.2055  0.2518 -0.3458
 2408ntf    sn215049   1.597   1.369   2.965  0.0251  0.5835 -0.1151
 2408ntf    cn115050   1.539   1.213   2.891 -0.1420  0.1965  0.8227
 2408ntf    fn415051   1.843   1.632   2.891  0.2500 -0.5366 -0.5919
 2408ntf    fn415052   1.853   1.685   2.695  0.0061  0.6558 -0.1607
 2408ntf    fn415053   1.663   1.707   2.810  0.0175 -0.2186  0.4874
 2408ntf    on515054   1.655   1.486   2.596  0.3060 -0.2013 -0.6059
 2408ntf    on515055   1.823   1.380   2.744 -0.0787  0.1179  0.8630
 2408ntf    on515056   1.491   1.399   3.058  0.3303  1.1095  0.0673
 2408ntf    on515057   1.726   1.338   3.022 -0.0823  0.0827 -0.1360
 2408ntf    fn415058   1.553   1.112   2.975  0.0987 -0.4589  0.0057
 2408ntf    fn415059   1.410   1.218   2.863 -0.0257  0.0812  0.2690
 2408ntf    fn415060   1.594   1.198   2.772 -0.0451  0.0565  0.8845
 2409ntf    cn115061   6.769   7.034   5.102 -0.0660  0.2285 -0.0735
 2409ntf    sn215062   6.708   7.193   5.166  0.0710  0.1864  0.1626
 2409ntf    nn315063   6.599   7.230   5.060  0.3646 -0.0637 -0.2323
 2409ntf    sn215064   6.610   7.245   4.904  0.1376 -0.1058 -0.2520
 2409ntf    cn115065   6.662   7.418   4.884 -0.2411  0.0487  0.0760
 2409ntf    fn415066   6.784   6.950   5.203 -0.0218  0.5417  0.1854
 2409ntf    fn415067   6.679   6.978   5.024  0.1828  0.2227 -0.3568
 2409ntf    fn415068   6.880   7.029   5.031 -0.0910 -0.1419 -0.0842
 2409ntf    on515069   6.656   7.162   5.297 -0.1676 -0.7828 -0.1558
 2409ntf    on515070   6.817   7.289   5.163  0.3039 -0.0854 -0.0915
 2409ntf    on515071   6.485   7.239   4.833 -0.3131  0.0753  0.5111
 2409ntf    on515072   6.715   7.160   4.853  0.0326 -0.3255 -0.1065
 2409ntf    fn415073   6.570   7.502   4.928 -0.2621 -0.0459  0.2155
 2409ntf    fn415074   6.769   7.448   4.957 -0.0623  0.1745 -0.2348
 2409ntf    fn415075   6.694   7.468   4.766 -0.3790 -0.0344  0.0038
 2410ntf    cn115076   5.437   5.362   5.407  0.0572  0.4602  0.1232
 2410ntf    sn215077   5.602   5.409   5.348  0.2994 -0.1361  0.3157
 2410ntf    nn315078   5.605   5.564   5.376  0.1873 -0.1352  0.3225
 2410ntf    sn215079   5.591   5.684   5.275  0.1169  0.0722  0.5786
 2410ntf    cn115080   5.768   5.723   5.278  0.1413 -0.0114  0.2754
 2410ntf    fn415081   5.401   5.242   5.365  0.3514  0.3279  0.2461
 2410ntf    fn415082   5.434   5.367   5.540  0.2491  0.4837  0.1274
 2410ntf    fn415083   5.340   5.443   5.368  0.1979  0.4267 -0.2938
 2410ntf    on515084   5.695   5.357   5.445  0.4637 -0.3497  0.0455
 2410ntf    on515085   5.608   5.363   5.212 -0.5935 -0.3979  0.3628
 2410ntf    on515086   5.525   5.801   5.328 -0.0084 -0.0144  0.6167
 2410ntf    on515087   5.557   5.645   5.140  0.0229  0.5979  0.4509
 2410ntf    fn415088   5.809   5.825   5.204 -0.2948 -0.1082 -0.1030
 2410ntf    fn415089   5.810   5.749   5.401  0.6988 -0.5533  0.2061
 2410ntf    fn415090   5.840   5.620   5.236  0.4777  0.5732 -0.6153
 2411ntf    cn115091   5.246   1.158   0.394  0.3184 -0.1546  0.1244
 2411ntf    sn215092   5.079   1.229   0.383  0.4786  0.1466 -0.3756
 2411ntf    nn315093   5.053   1.203   0.230 -0.1799 -0.5708 -0.1515
 2411ntf    sn215094   4.969   1.306   0.147 -0.2736 -0.1515  0.4513
 2411ntf    cn115095   4.960   1.218  -0.012  0.0195  0.2654  0.2015
 2411ntf    fn415096   5.319   1.185   0.288 -0.0708 -0.1724 -0.1486
 2411ntf    fn415097   5.316   1.183   0.504  0.4449 -0.3572  0.0913
 2411ntf    fn415098   5.230   1.027   0.399  0.5509 -0.1779  0.2805
 2411ntf    on515099   5.000   1.137   0.461  0.5506  0.0122 -0.4616
 2411ntf    on515100   5.082   1.363   0.436 -0.1851  0.1548 -0.3422
 2411ntf    on515101   5.043   1.425   0.113 -0.8494  0.3024  0.7621
 2411ntf    on515102   4.836   1.333   0.196 -0.1566  0.5955  0.3742
 2411ntf    fn415103   4.918   1.093   0.005 -0.2754  0.3384  0.0255
 2411ntf    fn415104   4.860   1.270  -0.082  0.1356 -0.5765 -0.6158
 2411ntf    fn415105   5.070   1.205  -0.084  0.1083  0.3813  0.3182
 2412ntf    cn115106   3.846   0.268   3.874  0.2214  0.1259 -0.1417
 2412ntf    sn215107   3.671   0.221   3.868  0.1261  0.4674 -0.0206
 2412ntf    nn315108   3.631   0.276   4.010  0.1414 -0.0610  0.1909
 2412ntf    sn215109   3.567   0.202   4.133  0.2536  0.0669  0.3264
 2412ntf    cn115110   3.708   0.157   4.238  0.4174 -0.1382  0.0203
 2412ntf    fn415111   3.851   0.396   3.904 -0.4329  0.1709 -0.2172
 2412ntf    fn415112   3.913   0.199   3.965 -0.3935  0.5298  0.6237
 2412ntf    fn415113   3.901   0.258   3.754  0.4056 -0.8467  0.0093
 2412ntf    on515114   3.616   0.303   3.762  0.2358  0.6399  0.0555
 2412ntf    on515115   3.677   0.079   3.846  0.3583  0.5023 -0.1756
 2412ntf    on515116   3.502   0.078   4.099  0.2405  0.0939  0.2521
 2412ntf    on515117   3.489   0.299   4.206 -0.0643 -0.0399  0.1318
 2412ntf    fn415118   3.794   0.083   4.169  0.4784  0.0214 -0.0754
 2412ntf    fn415119   3.760   0.265   4.294 -0.0356  0.2050 -0.2213
 2412ntf    fn415120   3.666   0.083   4.339  0.1101  0.2448  0.1761
 2413ntf    cn115121   6.692   2.322   6.725  0.0800  0.1173 -0.3524
 2413ntf    sn215122   6.571   2.187   6.713  0.2533 -0.1115  0.3941
 2413ntf    nn315123   6.612   2.152   6.565  0.3281 -0.3475  0.4696
 2413ntf    sn215124   6.528   2.062   6.469  0.2169  0.0264  0.2144
 2413ntf    cn115125   6.636   1.918   6.446  0.2259  0.0629  0.0186
 2413ntf    fn415126   6.701   2.355   6.853 -0.4427  0.0655 -0.2981
 2413ntf    fn415127   6.808   2.274   6.685 -0.5075 -0.9121 -0.8497
 2413ntf    fn415128   6.666   2.440   6.670 -0.4511  0.3362  0.3499
 2413ntf    on515129   6.627   2.102   6.815  0.2286 -0.1527  0.3736
 2413ntf    on515130   6.440   2.242   6.736  0.2053 -0.0270 -0.0695
 2413ntf    on515131   6.526   2.104   6.330  0.0433 -0.3546  0.1006
 2413ntf    on515132   6.401   2.010   6.514  0.1701  0.1283  0.2000
 2413ntf    fn415133   6.568   1.806   6.423  0.1090  0.3036 -0.8594
 2413ntf    fn415134   6.720   1.935   6.345  0.0048  0.5149 -0.0895
 2413ntf    fn415135   6.715   1.894   6.549 -0.0041  0.2607  0.2417
 2414ntf    cn115136   3.061   5.924   1.575  0.2437  0.5335 -0.2738
 2414ntf    sn215137   3.081   6.041   1.437  0.2157  0.4832 -0.3202
 2414ntf    nn315138   3.227   6.002   1.393  0.2141  0.1943 -0.0711
 2414ntf    sn215139   3.269   5.973   1.245 -0.1131 -0.4158 -0.0483
 2414ntf    cn115140   3.383   5.831   1.255  0.1460 -0.2150 -0.1278
 2414ntf    fn415141   3.082   5.798   1.540 -0.3778  0.4548 -0.3831
 2414ntf    fn415142   3.132   5.940   1.685  0.0425 -0.3974  0.0001
 2414ntf    fn415143   2.933   5.943   1.600 -0.0281 -0.5644 -0.7682
 2414ntf    on515144   2.969   6.009   1.352  0.0126  0.5989 -0.0976
 2414ntf    on515145   3.089   6.171   1.499  0.8014  0.1952  0.2118
 2414ntf    on515146   3.358   6.076   1.197 -0.4193  0.2088  0.7011
 2414ntf    on515147   3.162   5.924   1.162  0.2153 -0.6198 -0.3533
 2414ntf    fn415148   3.315   5.729   1.304 -0.4978 -0.0801 -0.7078
 2414ntf    fn415149   3.440   5.790   1.143  0.0943  0.0009 -0.2335
 2414ntf    fn415150   3.480   5.857   1.340 -0.4748 -0.5448  0.6923
 2415ntf    cn115151   6.048   1.772   4.425  0.1440  0.2732 -0.4211
 2415ntf    sn215152   6.025   1.951   4.442 -0.1222  0.1758  0.2946
 2415ntf    nn315153   5.946   1.985   4.310  0.1091  0.2803  0.1806
 2415ntf    sn215154   5.982   2.104   4.214  0.2143  0.1214  0.0221
 2415ntf    cn115155   5.836   2.122   4.107  0.3469  0.2307 -0.1390
 2415ntf    fn415156   5.936   1.701   4.430  0.0994  0.3529 -0.2964
 2415ntf    fn415157   6.094   1.738   4.306 -0.5794 -0.4382 -0.5060
 2415ntf    fn415158   6.139   1.727   4.510 -0.3674 -0.5772 -0.3151
 2415ntf    on515159   5.940   1.967   4.557 -0.2083 -0.3236  0.2991
 2415ntf    on515160   6.164   1.989   4.453 -0.0494 -0.2064  0.6758
 2415ntf    on515161   6.084   2.077   4.116  0.2891  0.1502  0.0917
 2415ntf    on515162   5.985   2.236   4.271 -0.1873  0.3111 -0.3965
 2415ntf    fn415163   5.723   2.118   4.174  0.5457  0.3816  0.2076
 2415ntf    fn415164   5.835   2.236   4.039 -0.0427  0.4774  0.2789
 2415ntf    fn415165   5.820   2.029   4.013 -0.2925  0.0478  0.1506
 2416ntf    cn115166   6.635   2.392   3.868  0.2829  0.5383  0.4230
 2416ntf    sn215167   6.781   2.482   3.808  0.1808  0.3706 -0.0842
 2416ntf    nn315168   6.900   2.410   3.881 -0.0173 -0.0475 -0.1692
 2416ntf    sn215169   6.934   2.442   4.031 -0.0104  0.1436 -0.2110
 2416ntf    cn115170   7.094   2.527   4.017  0.1728 -0.2571 -0.5614
 2416ntf    fn415171   6.655   2.264   3.843 -0.3747  0.5398 -0.1554
 2416ntf    fn415172   6.595   2.415   3.992 -0.3284  0.1871  0.2951
 2416ntf    fn415173   6.529   2.433   3.799  0.0554 -0.2686  0.2850
 2416ntf    on515174   6.789   2.449   3.668  0.0508 -0.2912  0.0574
 2416ntf    on515175   6.773   2.623   3.833 -0.0510  0.4767 -0.7334
 2416ntf    on515176   6.966   2.319   4.099 -0.5596 -0.0420 -0.2874
 2416ntf    on515177   6.845   2.530   4.102  0.1629  0.4026 -0.3138
 2416ntf    fn415178   7.157   2.512   4.133 -0.3983 -0.5438 -0.2830
 2416ntf    fn415179   7.170   2.484   3.917  0.6773 -0.8316  0.0583
 2416ntf    fn415180   7.086   2.658   4.005  0.1502 -0.2351 -0.3132
 2417ntf    cn115181   2.818   1.261   6.056  0.2207  0.2960  0.3116
 2417ntf    sn215182   2.775   1.339   6.215 -0.0225  0.3754  0.2078
 2417ntf    nn315183   2.686   1.459   6.168 -0.4755 -0.1234 -0.2199
 2417ntf    sn215184   2.656   1.591   6.247  0.2532 -0.1386  0.0950
 2417ntf    cn115185   2.478   1.571   6.280  0.1830  0.0218 -0.1909
 2417ntf    fn415186   2.709   1.234   5.987  0.3682 -0.0479  0.2068
 2417ntf    fn415187   2.900   1.337   5.986  0.1664  0.5464  0.5178
 2417ntf    fn415188   2.882   1.146   6.077 -0.2896  0.0244  0.3964
 2417ntf    on515189   2.696   1.235   6.276  0.1051  0.0803 -0.1236
 2417ntf    on515190   2.902   1.363   6.280  0.0128  0.4912  0.0973
 2417ntf    on515191   2.671   1.710   6.168 -0.1781 -0.0108  0.2018
 2417ntf    on515192   2.713   1.597   6.380  0.4205  0.0277  0.0157
 2417ntf    fn415193   2.460   1.443   6.307 -0.4686  0.0780 -0.3375
 2417ntf    fn415194   2.428   1.648   6.375  0.0534  0.0032 -0.2435
 2417ntf    fn415195   2.397   1.589   6.176  0.4733  0.4898 -0.3372
 2418ntf    cn115196   6.464   2.815   2.399 -0.5070  0.0305 -0.2734
 2418ntf    sn215197   6.563   2.817   2.247  0.1112  0.3861  0.1307
 2418ntf    nn315198   6.605   2.666   2.233  0.3001  0.5046 -0.6467
 2418ntf    sn215199   6.728   2.600   2.304 -0.2659  0.0801 -0.0500
 2418ntf    cn115200   6.860   2.640   2.185 -0.2895 -0.0017 -0.1034
 2418ntf    fn415201   6.368   2.905   2.399 -0.2462  0.3090 -0.1703
 2418ntf    fn415202   6.395   2.702   2.401  0.7460 -0.7487  0.6676
 2418ntf    fn415203   6.525   2.812   2.516 -0.5168 -0.2034 -0.2733
 2418ntf    on515204   6.463   2.846   2.147 -0.5567 -0.7913  0.4501
 2418ntf    on515205   6.666   2.917   2.268  0.5126 -0.0303  0.1640
 2418ntf    on515206   6.724   2.456   2.303  0.2665  0.0587  0.3915
 2418ntf    on515207   6.770   2.673   2.421 -0.1789  0.4168 -0.2884
 2418ntf    fn415208   6.884   2.770   2.185 -0.3690  0.0142 -0.4715
 2418ntf    fn415209   6.974   2.599   2.237 -0.2448  0.5802  0.2737
 2418ntf    fn415210   6.852   2.594   2.061  0.2316  0.1198 -0.1835
 2419ntf    cn115211   3.298   1.165   1.001  0.4233 -0.1305 -0.3173
 2419ntf    sn215212   3.349   1.060   0.862 -0.2841 -0.1308 -0.5821
 2419ntf    nn315213   3.396   1.174   0.764  0.2165  0.0141 -0.1770
 2419ntf    sn215214   3.543   1.225   0.745  0.3198 -0.2676 -0.1359
 2419ntf    cn115215   3.539   1.309   0.584  0.0523 -0.0258 -0.0030
 2419ntf    fn415216   3.271   1.100   1.113 -0.7054 -0.1290 -0.5723
 2419ntf    fn415217   3.386   1.258   1.035 -0.0791  0.0564  0.4939
 2419ntf    fn415218   3.183   1.222   0.967  0.1402  0.2442  1.2080
 2419ntf    on515219   3.451   0.989   0.936 -0.4799 -0.1623 -0.3413
 2419ntf    on515220   3.225   0.988   0.845 -0.4929  0.0191  0.2952
 2419ntf    on515221   3.640   1.120   0.722  0.2733 -0.2696 -0.3287
 2419ntf    on515222   3.564   1.331   0.840 -0.3275 -0.1355 -0.1363
 2419ntf    fn415223   3.426   1.372   0.557 -0.2075 -0.5295 -0.0972
 2419ntf    fn415224   3.641   1.392   0.570  0.1534 -0.1380  0.0668
 2419ntf    fn415225   3.553   1.220   0.487  0.0222  0.1091 -0.1319
 2420ntf    cn115226   6.200   2.929   3.858 -0.7269 -0.3359 -0.3127
 2420ntf    sn215227   6.171   2.926   4.037 -0.0043 -0.2486 -0.1905
 2420ntf    nn315228   6.253   2.797   4.072 -0.0054 -0.1212  0.2903
 2420ntf    sn215229   6.357   2.776   4.188 -0.2915  0.2476  0.6204
 2420ntf    cn115230   6.362   2.594   4.186  0.2634  0.2618 -0.0505
 2420ntf    fn415231   6.330   2.912   3.837 -0.5970  0.0117  0.1974
 2420ntf    fn415232   6.139   2.826   3.802  0.2041 -1.0114 -0.1238
 2420ntf    fn415233   6.166   3.040   3.794 -0.8160 -0.1580  0.0392
 2420ntf    on515234   6.239   3.048   4.074 -0.0320 -0.1724 -0.3896
 2420ntf    on515235   6.027   2.919   4.039 -0.0025 -0.2431 -0.0783
 2420ntf    on515236   6.312   2.805   4.321 -0.0980  0.0728  0.7258
 2420ntf    on515237   6.492   2.816   4.157 -0.5405  0.6390  0.0240
 2420ntf    fn415238   6.249   2.538   4.227  0.2537  0.0890 -0.3140
 2420ntf    fn415239   6.391   2.527   4.076 -0.1204  0.2499 -0.1469
 2420ntf    fn415240   6.446   2.549   4.278 -0.4084 -0.4435  0.2320
 2421ntf    cn115241   2.853   3.940   6.161 -0.2871 -0.1106 -0.1046
 2421ntf    sn215242   2.956   3.868   6.030 -0.0730 -0.0051  0.0042
 2421ntf    nn315243   3.059   3.786   6.115  0.2974  0.0749 -0.3631
 2421ntf    sn215244   3.193   3.843   6.172  0.1660  0.1003 -0.0786
 2421ntf    cn115245   3.297   3.696   6.143 -0.0508 -0.0830  0.0676
 2421ntf    fn415246   2.744   3.994   6.108 -0.4777 -0.4063 -0.0180
 2421ntf    fn415247   2.813   3.842   6.241 -0.3086 -0.0329 -0.0197
 2421ntf    fn415248   2.910   4.029   6.241 -0.3743 -0.0739 -0.0834
 2421ntf    on515249   2.865   3.776   5.967 -0.5240 -0.1504  0.8560
 2421ntf    on515250   3.000   3.979   5.948 -0.2251 -0.2894 -0.4650
 2421ntf    on515251   3.189   3.852   6.316  0.8317  0.2736 -0.0645
 2421ntf    on515252   3.259   3.953   6.106 -0.2017  0.5382  0.2796
 2421ntf    fn415253   3.279   3.649   6.021 -0.6688 -0.5928  0.3518
 2421ntf    fn415254   3.427   3.721   6.150 -0.0449 -0.1695  0.2750
 2421ntf    fn415255   3.274   3.597   6.228 -0.4765  0.4557  0.5934
 2422ntf    cn115256   3.445   3.219   6.619 -0.0485 -0.4346  0.0666
 2422ntf    sn215257   3.523   3.102   6.735  0.3919 -0.1358  0.0770
 2422ntf    nn315258   3.411   2.993   6.755  0.1553  0.1357  0.2372
 2422ntf    sn215259   3.433   2.839   6.776  0.1552  0.1357  0.2382
 2422ntf    cn115260   3.457   2.763   6.613 -0.0586 -0.2154  0.3683
 2422ntf    fn415261   3.351   3.294   6.673  0.4632  0.5623 -0.3978
 2422ntf    fn415262   3.522   3.303   6.551  0.2183 -0.0837  0.7966
 2422ntf    fn415263   3.381   3.146   6.529 -0.0461 -0.9421  0.4674
 2422ntf    on515264   3.639   3.065   6.658 -0.1242 -0.7132 -0.4381
 2422ntf    on515265   3.543   3.182   6.853 -0.6569  0.3837 -0.0842
 2422ntf    on515266   3.320   2.768   6.832  0.2818 -0.4148 -0.1990
 2422ntf    on515267   3.559   2.813   6.840  0.5440  0.7640 -0.2699
 2422ntf    fn415268   3.501   2.639   6.616 -0.6667 -0.4695 -0.5923
 2422ntf    fn415269   3.350   2.767   6.535  0.0589 -0.0076  0.2150
 2422ntf    fn415270   3.547   2.832   6.545 -0.5226  0.3603  0.3293
 2423ntf    cn115271   5.526   0.807   3.825  0.0451  0.2454  0.1695
 2423ntf    sn215272   5.553   0.947   3.711  0.2702  0.2428  0.2189
 2423ntf    nn315273   5.703   0.940   3.667  0.1930 -0.2178  0.0255
 2423ntf    sn215274   5.817   1.046   3.686 -0.1067  0.0231  0.5128
 2423ntf    cn115275   5.878   1.012   3.854 -0.4639 -0.3267  0.5728
 2423ntf    fn415276   5.556   0.696   3.759  0.0246 -0.2915  1.0596
 2423ntf    fn415277   5.598   0.813   3.935 -0.0988 -0.1199  0.2844
 2423ntf    fn415278   5.402   0.798   3.870  0.1380 -0.0187  0.3761
 2423ntf    on515279   5.457   0.925   3.606  0.1901 -0.0676  0.3527
 2423ntf    on515280   5.522   1.058   3.798  0.4536  0.1530  0.4003
 2423ntf    on515281   5.770   1.182   3.683  0.0957  0.0808 -0.5307
 2423ntf    on515282   5.924   1.015   3.594 -0.0399 -0.2267  0.6748
 2423ntf    fn415283   5.936   0.895   3.875  0.4340 -0.0217 -0.1460
 2423ntf    fn415284   5.968   1.098   3.899 -0.1314 -0.5024  0.2453
 2423ntf    fn415285   5.777   1.025   3.938 -0.2649  0.1410  0.7454
 2424ntf    cn115286   6.867   1.250   6.732  0.2741 -0.3456 -0.5654
 2424ntf    sn215287   6.915   1.417   6.783  0.1586 -0.3893 -0.3151
 2424ntf    nn315288   7.071   1.412   6.771  0.1764 -0.0048 -0.2581
 2424ntf    sn215289   7.186   1.443   6.874  0.1144 -0.1252 -0.1525
 2424ntf    cn115290   7.210   1.271   6.926 -0.0932 -0.2001 -0.3007
 2424ntf    fn415291   6.737   1.224   6.736  0.4039 -0.9283  0.1590
 2424ntf    fn415292   6.902   1.223   6.607  0.5747 -0.3287 -0.4863
 2424ntf    fn415293   6.933   1.166   6.810  1.0039  0.3269 -0.4510
 2424ntf    on515294   6.853   1.495   6.679  0.4461  0.5547  0.2083
 2424ntf    on515295   6.857   1.425   6.915 -0.4991  0.4048 -0.6381
 2424ntf    on515296   7.151   1.518   6.991 -0.1172 -0.4122 -0.0364
 2424ntf    on515297   7.308   1.479   6.805 -0.0179  0.1035 -0.2679
 2424ntf    fn415298   7.300   1.254   7.022 -0.5214 -0.2952  0.0884
 2424ntf    fn415299   7.095   1.220   6.966 -0.0215 -0.0009  0.1705
 2424ntf    fn415300   7.255   1.194   6.828  0.1379  0.1625 -0.4822
 2425ntf    cn115301   3.057   6.967   3.367 -0.0535 -0.1216 -0.2005
 2425ntf    sn215302   3.071   6.868   3.216 -0.0573 -0.3599 -0.0449
 2425ntf    nn315303   3.228   6.863   3.208 -0.0129 -0.1363  0.6427
 2425ntf    sn215304   3.336   6.750   3.225  0.2143 -0.0334 -0.0661
 2425ntf    cn115305   3.333   6.743   3.407  0.0911  0.1367 -0.0610
 2425ntf    fn415306   3.156   6.976   3.454  0.4169  0.5827 -0.7963
 2425ntf    fn415307   3.039   7.094   3.332 -0.0981 -0.0599  0.0415
 2425ntf    fn415308   2.946   6.941   3.435 -0.2392  0.0074 -0.4529
 2425ntf    on515309   3.017   6.736   3.237 -0.2499 -0.2923 -0.1217
 2425ntf    on515310   3.014   6.951   3.113  0.3690 -0.3098 -0.2445
 2425ntf    on515311   3.470   6.800   3.205  0.2793  0.1867  0.8633
 2425ntf    on515312   3.312   6.614   3.186  0.5853 -0.1230  0.0119
 2425ntf    fn415313   3.387   6.631   3.454 -0.4993 -0.2825 -0.3716
 2425ntf    fn415314   3.402   6.832   3.476 -0.0819 -0.0416  0.3425
 2425ntf    fn415315   3.208   6.749   3.449 -0.1276 -0.7511 -0.5556
 2426ntf    cn115316   2.063   2.422   3.196  0.1734 -0.0322 -0.2684
 2426ntf    sn215317   1.935   2.299   3.235 -0.0755  0.2594 -0.1610
 2426ntf    nn315318   1.830   2.392   3.305 -0.2203 -0.2396  0.2860
 2426ntf    sn215319   1.824   2.431   3.457 -0.1249 -0.1833  0.2753
 2426ntf    cn115320   1.737   2.591   3.447  0.2691 -0.0133 -0.5184
 2426ntf    fn415321   2.173   2.357   3.162  0.1371 -0.2969  0.1108
 2426ntf    fn415322   2.032   2.505   3.098 -0.5155  0.0583  0.0225
 2426ntf    fn415323   2.089   2.500   3.299  0.5092 -0.1307 -0.2769
 2426ntf    on515324   1.887   2.250   3.108  0.0885  0.0489 -0.1425
 2426ntf    on515325   2.011   2.211   3.320  0.0231  0.0894 -0.4219
 2426ntf    on515326   1.951   2.459   3.520  0.0473  0.5307 -0.3632
 2426ntf    on515327   1.734   2.346   3.530  0.4598 -0.3397  0.8193
 2426ntf    fn415328   1.700   2.638   3.565  0.3394 -0.3863 -0.3464
 2426ntf    fn415329   1.807   2.692   3.398  0.5787  0.0503  0.0428
 2426ntf    fn415330   1.632   2.578   3.369 -0.2961 -0.2326  0.2650
 2427ntf    cn115331   2.395   3.331   5.579 -0.1322  0.0325 -0.3925
 2427ntf    sn215332   2.352   3.337   5.755  0.3273 -0.0664 -0.2753
 2427ntf    nn315333   2.197   3.311   5.748  0.1853  0.7554 -0.3141
 2427ntf    sn215334   2.127   3.193   5.671  0.2478  0.5011  0.0126
 2427ntf    cn115335   2.053   3.143   5.829 -0.2714 -0.0483 -0.4024
 2427ntf    fn415336   2.295   3.364   5.499 -0.3362  0.1612 -0.0826
 2427ntf    fn415337   2.490   3.420   5.554  0.2977 -0.2687  0.1529
 2427ntf    fn415338   2.440   3.211   5.545  0.5262 -0.0780  0.8176
 2427ntf    on515339   2.425   3.231   5.820  0.0806 -0.1910 -0.1983
 2427ntf    on515340   2.368   3.478   5.779  0.7063 -0.1318 -0.1325
 2427ntf    on515341   2.204   3.080   5.626  0.2760  0.6527 -0.3223
 2427ntf    on515342   2.024   3.246   5.585 -0.4005  0.2159  0.6091
 2427ntf    fn415343   2.144   3.122   5.923 -0.1553 -0.2756 -0.5636
 2427ntf    fn415344   1.964   3.229   5.876 -0.1230 -0.3403  0.4201
 2427ntf    fn415345   1.991   3.027   5.813 -0.6791  0.0337  0.5010
 2428ntf    cn115346   5.858   1.801   1.847 -0.0034 -0.1451 -0.4651
 2428ntf    sn215347   6.038   1.821   1.828  0.0187  0.1923  0.0896
 2428ntf    nn315348   6.065   1.723   1.709  0.0953  0.0714  0.2065
 2428ntf    sn215349   6.204   1.663   1.668 -0.1736 -0.4044 -0.0272
 2428ntf    cn115350   6.142   1.498   1.624 -0.2295 -0.2138 -0.6612
 2428ntf    fn415351   5.795   1.786   1.732 -0.7308 -0.2757 -0.0541
 2428ntf    fn415352   5.832   1.692   1.916  0.2760  0.2311  0.2437
 2428ntf    fn415353   5.800   1.896   1.918 -0.0126 -0.3830 -0.1561
 2428ntf    on515354   6.055   1.961   1.796  0.0672  0.1456 -0.0874
 2428ntf    on515355   6.101   1.775   1.949 -0.5179  1.0488  0.7096
 2428ntf    on515356   6.302   1.629   1.769  0.0139  0.1831 -0.0096
 2428ntf    on515357   6.258   1.723   1.549  0.5794 -0.7655  0.1241
 2428ntf    fn415358   6.064   1.495   1.517 -0.0022 -0.6452 -0.8168
 2428ntf    fn415359   6.233   1.403   1.614 -0.1275 -0.1421 -0.4215
 2428ntf    fn415360   6.064   1.462   1.725  1.1183  0.0854  0.5156
 2429ntf    cn115361   0.781   2.896   4.979  0.4584  0.2404  0.1258
 2429ntf    sn215362   0.867   3.039   4.907  0.5927  0.0791 -0.0334
 2429ntf    nn315363   0.751   3.145   4.911  0.1510 -0.4092  0.3793
 2429ntf    sn215364   0.726   3.300   4.909  0.1915 -0.4064 -0.2448
 2429ntf    cn115365   0.633   3.310   4.753 -0.1599  0.1466 -0.0031
 2429ntf    fn415366   0.863   2.792   4.984 -0.1423 -0.2371  0.2297
 2429ntf    fn415367   0.717   2.918   5.093 -0.1562  0.0678 -0.1805
 2429ntf    fn415368   0.690   2.850   4.895 -0.0467 -0.0234  0.8055
 2429ntf    on515369   0.972   3.067   5.001  0.1638 -0.1962  0.5330
 2429ntf    on515370   0.906   2.994   4.775  0.3239  0.3339 -0.2011
 2429ntf    on515371   0.848   3.376   4.900 -0.0629 -0.0231 -0.5288
 2429ntf    on515372   0.630   3.345   5.007 -0.0747  0.2862 -0.8155
 2429ntf    fn415373   0.694   3.244   4.657 -0.6858  0.2031 -0.3810
 2429ntf    fn415374   0.507   3.271   4.759 -0.1148  0.0166  0.0935
 2429ntf    fn415375   0.638   3.437   4.715 -0.1647  0.2353  0.2905
 2430ntf    cn115376   1.689   1.992   0.074  0.1195  0.0209 -0.3669
 2430ntf    sn215377   1.782   2.091   0.195 -0.2452 -0.0978  0.0125
 2430ntf    nn315378   1.890   2.163   0.106 -0.0572 -0.4457 -0.0436
 2430ntf    sn215379   1.926   2.315   0.095 -0.0056 -0.4562 -0.0161
 2430ntf    cn115380   1.915   2.342  -0.084  0.4224  0.2895  0.0627
 2430ntf    fn415381   1.610   2.065  -0.002 -0.3130 -0.1931 -0.1233
 2430ntf    fn415382   1.768   1.943  -0.020  0.0171 -0.1064 -0.3862
 2430ntf    fn415383   1.613   1.898   0.126  0.8639 -0.1750  0.3952
 2430ntf    on515384   1.673   2.172   0.243 -0.2379 -0.1898  0.1865
 2430ntf    on515385   1.849   2.001   0.286  0.1483  1.0407  0.8786
 2430ntf    on515386   2.066   2.336   0.121 -0.1614  0.1929  0.3235
 2430ntf    on515387   1.825   2.405   0.145 -0.0263 -0.2529 -0.4236
 2430ntf    fn415388   2.030   2.310  -0.141  0.3063  0.5255 -0.3084
 2430ntf    fn415389   1.816   2.276  -0.142  0.2555  0.1019  0.5587
 2430ntf    fn415390   1.901   2.472  -0.101 -0.0388  0.1706 -0.5131
 2431ntf    cn115391   0.680   7.002   6.093  0.1290  0.1541 -0.1040
 2431ntf    sn215392   0.825   7.007   6.202  0.1244  0.0214 -0.0919
 2431ntf    nn315393   0.918   7.115   6.136 -0.0317  0.0047 -0.3387
 2431ntf    sn215394   1.019   7.211   6.207 -0.2109 -0.0781  0.0275
 2431ntf    cn115395   0.915   7.357   6.239 -0.4140 -0.1916 -0.1135
 2431ntf    fn415396   0.706   6.919   5.994  0.6454  0.4745 -0.2405
 2431ntf    fn415397   0.569   6.954   6.148  0.2047  0.2372  0.1226
 2431ntf    fn415398   0.650   7.121   6.042 -0.2963 -0.0436 -0.3191
 2431ntf    on515399   0.766   7.050   6.327 -0.2753 -1.1747  0.1455
 2431ntf    on515400   0.880   6.874   6.194 -0.4241 -0.2207  0.1238
 2431ntf    on515401   1.120   7.258   6.115 -0.1400  0.1406  0.2150
 2431ntf    on515402   1.071   7.177   6.338  0.3222  0.4888 -0.0311
 2431ntf    fn415403   0.833   7.396   6.142 -0.4386  0.0762  0.0126
 2431ntf    fn415404   0.832   7.345   6.341  0.3150 -0.1168  0.4934
 2431ntf    fn415405   0.993   7.462   6.260  0.0437 -0.5597  0.0466
 2432ntf    cn115406   2.391   4.924   5.024  0.3021  0.0147 -0.3318
 2432ntf    sn215407   2.375   4.749   5.072 -0.0882  0.1895  0.1831
 2432ntf    nn315408   2.244   4.743   5.158  0.1088 -1.0392  0.4150
 2432ntf    sn215409   2.097   4.695   5.132 -0.1333 -0.1441  0.0946
 2432ntf    cn115410   2.066   4.618   5.294  0.5398 -0.4487  0.0806
 2432ntf    fn415411   2.277   4.982   4.989  0.1380  0.0707  0.2994
 2432ntf    fn415412   2.442   5.002   5.117 -0.6168 -0.1105  0.2827
 2432ntf    fn415413   2.474   4.939   4.922 -0.3521 -0.2170 -0.9057
 2432ntf    on515414   2.365   4.682   4.945 -0.5032  0.1868  0.2155
 2432ntf    on515415   2.492   4.723   5.153  0.1988  0.0845 -0.2593
 2432ntf    on515416   2.073   4.589   5.038 -0.3310  0.0367 -0.0592
 2432ntf    on515417   2.002   4.804   5.135  0.2468  0.2188 -0.5953
 2432ntf    fn415418   1.938   4.589   5.304  0.2253  0.7110 -0.3763
 2432ntf    fn415419   2.137   4.508   5.310  0.2033 -0.7193 -0.2636
 2432ntf    fn415420   2.105   4.697   5.392  0.2735  0.0773 -0.2331
 2433ntf    cn115421   0.087   0.744   2.900  0.1737 -0.0427  0.2383
 2433ntf    sn215422   0.184   0.600   2.846  0.1236 -0.0742  0.2317
 2433ntf    nn315423   0.191   0.544   2.992 -0.0628  0.5990  0.4984
 2433ntf    sn215424   0.295   0.570   3.107  0.3245  0.0219  0.2798
 2433ntf    cn115425   0.323   0.407   3.183  0.3503  0.0754  0.3854
 2433ntf    fn415426  -0.028   0.699   2.948  0.1754 -0.0010  0.2829
 2433ntf    fn415427   0.134   0.822   2.996 -0.6200 -0.0986  0.6844
 2433ntf    fn415428   0.060   0.815   2.792  0.3733 -0.5883 -0.1773
 2433ntf    on515429   0.089   0.528   2.764  0.4614 -0.2855  0.0232
 2433ntf    on515430   0.301   0.654   2.782 -0.3367 -0.0518 -0.6127
 2433ntf    on515431   0.224   0.644   3.209 -0.1254  0.3412 -0.2584
 2433ntf    on515432   0.431   0.608   3.076  0.3265 -0.2266 -0.0227
 2433ntf    fn415433   0.403   0.420   3.287  0.4143 -0.0050  0.3460
 2433ntf    fn415434   0.214   0.348   3.228 -0.1070  0.3762 -0.3162
 2433ntf    fn415435   0.383   0.326   3.097 -0.1572 -0.1688  0.2592
 2434ntf    cn115436   4.440   7.019   1.237 -0.4107 -0.2246  0.2548
 2434ntf    sn215437   4.419   6.879   1.123 -0.0386 -0.1448  0.0860
 2434ntf    nn315438   4.530   6.909   1.017  0.2170 -0.3156  0.3025
 2434ntf    sn215439   4.609   6.813   0.920  0.1067 -0.2445  0.1414
 2434ntf    cn115440   4.721   6.732   1.039  0.3548 -0.1538 -0.0321
 2434ntf    fn415441   4.428   7.137   1.177 -0.4646 -0.2768  0.1619
 2434ntf    fn415442   4.351   7.036   1.333 -0.6550  0.4304 -0.0768
 2434ntf    fn415443   4.560   7.013   1.291 -0.4180 -0.2706  0.2662
 2434ntf    on515444   4.444   6.767   1.211 -0.2044 -0.1545  0.1216
 2434ntf    on515445   4.283   6.903   1.084  0.2059  0.3962 -0.4340
 2434ntf    on515446   4.680   6.893   0.823  0.1498  0.2244  0.5537
 2434ntf    on515447   4.540   6.698   0.868  0.2703 -0.1056 -0.3824
 2434ntf    fn415448   4.796   6.816   1.108  0.4720 -0.3339  0.0577
 2434ntf    fn415449   4.655   6.660   1.128  0.1985  0.6670  0.5256
 2434ntf    fn415450   4.805   6.645   0.984  0.5095  0.0736 -0.1598
 2435ntf    cn115451   6.386   1.459   0.381 -0.1535  0.1432 -0.3184
 2435ntf    sn215452   6.499   1.500   0.517 -0.0520 -0.3202 -0.2608
 2435ntf    nn315453   6.477   1.656   0.522 -0.1002 -0.3419  0.2756
 2435ntf    sn215454   6.560   1.773   0.459 -0.0862 -0.3707  0.2411
 2435ntf    cn115455   6.685   1.783   0.590 -0.0182 -0.0689  0.1540
 2435ntf    fn415456   6.260   1.476   0.419 -0.0799  0.2685 -0.1316
 2435ntf    fn415457   6.399   1.533   0.272 -0.0000  0.1117 -0.3212
 2435ntf    fn415458   6.392   1.333   0.341 -0.3813  0.0528 -0.0730
 2435ntf    on515459   6.435   1.434   0.629  0.3018 -0.1779  0.0271
 2435ntf    on515460   6.631   1.453   0.486 -0.1780 -0.7377 -0.1764
 2435ntf    on515461   6.507   1.907   0.461  0.6532 -0.0735  0.0172
 2435ntf    on515462   6.626   1.732   0.337 -0.2273 -0.2742  0.1321
 2435ntf    fn415463   6.765   1.887   0.575  0.0562 -0.1258  0.1500
 2435ntf    fn415464   6.636   1.791   0.712 -0.6862  0.2545 -0.1335
 2435ntf    fn415465   6.759   1.674   0.605 -0.6155 -0.6001 -0.6817
 2436ntf    cn115466   0.645   2.859   0.073 -0.1775 -0.0728  0.6137
 2436ntf    sn215467   0.780   2.905  -0.040 -0.2753 -0.5072  0.3173
 2436ntf    nn315468   0.730   3.044  -0.095  0.8694 -0.3695 -0.4216
 2436ntf    sn215469   0.762   3.190  -0.050 -0.2279 -0.2224 -0.0843
 2436ntf    cn115470   0.600   3.268  -0.022 -0.0380  0.1928 -0.1261
 2436ntf    fn415471   0.527   2.877   0.017  0.2289 -0.0835 -0.2761
 2436ntf    fn415472   0.650   2.733   0.114  0.4754 -0.1070  0.4499
 2436ntf    fn415473   0.650   2.937   0.180 -0.2333  0.2620  0.3758
 2436ntf    on515474   0.904   2.902   0.034  0.0502 -0.3997 -0.2203
 2436ntf    on515475   0.779   2.820  -0.156 -0.6420  0.0565 -0.1028
 2436ntf    on515476   0.823   3.270  -0.154 -0.1395  0.2991  0.3605
 2436ntf    on515477   0.826   3.203   0.079  0.4509 -0.0201 -0.4328
 2436ntf    fn415478   0.614   3.392   0.020 -0.5199  0.0391  0.5016
 2436ntf    fn415479   0.542   3.276  -0.141  0.0742 -0.3320 -0.2208
 2436ntf    fn415480   0.513   3.208   0.057 -0.0761  0.1819 -0.1755
 2437ntf    cn115481   4.612   3.883   0.318  0.2953  0.0930 -0.0754
 2437ntf    sn215482   4.730   3.787   0.418  0.1319 -0.0562 -0.0253
 2437ntf    nn315483   4.624   3.684   0.472 -0.0543  0.2304  0.1555
 2437ntf    sn215484   4.585   3.651   0.621  0.0343 -0.2068  0.0810
 2437ntf    cn115485   4.406   3.664   0.591  0.1414  0.3913 -0.3171
 2437ntf    fn415486   4.587   3.819   0.204  0.0637 -0.4015  0.2498
 2437ntf    fn415487   4.497   3.904   0.380  0.2432 -0.3473 -0.0204
 2437ntf    fn415488   4.654   4.003   0.282  0.4779 -0.0259 -0.2634
 2437ntf    on515489   4.827   3.743   0.320  0.0026  0.6574 -0.4843
 2437ntf    on515490   4.770   3.880   0.520 -0.1806  0.6425 -0.5310
 2437ntf    on515491   4.614   3.736   0.733  0.5476 -0.8807  0.4639
 2437ntf    on515492   4.609   3.510   0.642  0.1546 -0.2999 -0.6442
 2437ntf    fn415493   4.343   3.648   0.706  0.3102 -0.1960 -0.3032
 2437ntf    fn415494   4.368   3.776   0.532  0.1434  0.6914  0.2409
 2437ntf    fn415495   4.362   3.567   0.513  0.1201  0.2063 -0.0766
 2438ntf    cn115496   3.890   6.190   1.230  0.6185  0.2249  0.2313
 2438ntf    sn215497   3.769   6.263   1.344  0.0374 -0.0748 -0.1920
 2438ntf    nn315498   3.873   6.331   1.439  0.2875 -0.2964 -0.3070
 2438ntf    sn215499   3.901   6.315   1.593  0.0813 -0.2692 -0.2667
 2438ntf    cn115500   4.070   6.247   1.596  0.0264 -0.4379 -0.7576
 2438ntf    fn415501   3.977   6.276   1.180 -0.4108  0.9811 -0.2929
 2438ntf    fn415502   3.953   6.082   1.273 -0.3248 -0.3882  0.1069
 2438ntf    fn415503   3.819   6.151   1.126  0.3110  0.4261  0.3642
 2438ntf    on515504   3.696   6.363   1.270 -0.3504 -0.3141 -0.1356
 2438ntf    on515505   3.695   6.155   1.405 -0.2959  0.2895  0.0567
 2438ntf    on515506   3.826   6.216   1.666 -0.4229  0.1839 -0.1672
 2438ntf    on515507   3.908   6.445   1.654  0.4234 -0.4775  0.1394
 2438ntf    fn415508   4.150   6.282   1.497  0.6125 -0.5289 -0.3202
 2438ntf    fn415509   4.130   6.263   1.713  0.4871 -0.1148 -1.0341
 2438ntf    fn415510   4.054   6.117   1.581 -0.3315 -0.4885 -0.0092
 2439ntf    cn115511   0.474   5.795   6.264  0.4976  0.1048 -0.3931
 2439ntf    sn215512   0.304   5.732   6.252  0.4890  0.0392  0.0323
 2439ntf    nn315513   0.343   5.582   6.228 -0.4369 -0.1697 -0.1843
 2439ntf    sn215514   0.359   5.496   6.097 -0.2102  0.1398 -0.3608
 2439ntf    cn115515   0.431   5.346   6.171 -0.4462  0.1622 -0.0807
 2439ntf    fn415516   0.507   5.854   6.379 -0.2534 -0.5668  0.1776
 2439ntf    fn415517   0.568   5.702   6.255 -0.1381 -0.4976 -0.8676
 2439ntf    fn415518   0.501   5.887   6.173 -0.0878  0.5535 -0.1195
 2439ntf    on515519   0.250   5.757   6.383  0.2867 -0.0133 -0.0405
 2439ntf    on515520   0.252   5.805   6.139  0.4172 -0.5369 -0.3123
 2439ntf    on515521   0.460   5.546   6.008 -0.2643  0.2031 -0.3866
 2439ntf    on515522   0.238   5.441   6.042  0.0064 -0.2863 -0.4120
 2439ntf    fn415523   0.350   5.290   6.258  0.0759 -0.1265  0.2254
 2439ntf    fn415524   0.459   5.247   6.088  0.4360  0.3490 -0.0239
 2439ntf    fn415525   0.540   5.373   6.240 -0.5177  0.0775  0.0639
 2440ntf    cn115526   5.967   5.696   6.227  0.5145  0.4080 -0.6349
 2440ntf    sn215527   6.075   5.714   6.082  0.6485  0.0180 -0.5847
 2440ntf    nn315528   5.988   5.803   5.986 -0.3491  0.1663  0.4429
 2440ntf    sn215529   6.020   5.918   5.885 -0.1438 -0.3211 -0.0483
 2440ntf    cn115530   5.960   6.054   5.989  0.7149  0.1647 -0.1758
 2440ntf    fn415531   5.926   5.808   6.284 -0.2679 -0.3314  0.2769
 2440ntf    fn415532   5.855   5.641   6.184  0.7536 -0.4149 -0.2195
 2440ntf    fn415533   6.008   5.615   6.323 -0.3285  0.7831  0.0583
 2440ntf    on515534   6.186   5.789   6.134  0.2324  0.1527  0.1298
 2440ntf    on515535   6.093   5.579   6.034  0.4208  0.0498 -0.7618
 2440ntf    on515536   5.932   5.919   5.771 -0.5890  0.1421  0.2967
 2440ntf    on515537   6.160   5.950   5.867 -0.0824 -0.3993  0.2995
 2440ntf    fn415538   5.847   6.018   6.047  0.5657 -0.0168 -0.5762
 2440ntf    fn415539   6.038   6.091   6.089  0.0268  0.0487  0.4114
 2440ntf    fn415540   5.936   6.166   5.923  0.3669 -0.0779 -0.4621
 2441ntf    cn115541   4.544   2.264   1.266  0.8223 -0.2649 -0.1765
 2441ntf    sn215542   4.508   2.364   1.119  0.3449 -0.0861  0.0611
 2441ntf    nn315543   4.630   2.342   1.023 -0.0044  0.1608 -0.4431
 2441ntf    sn215544   4.642   2.280   0.879  0.1535 -0.5203 -0.1410
 2441ntf    cn115545   4.677   2.432   0.786  0.0659 -0.2949  0.1948
 2441ntf    fn415546   4.575   2.137   1.244  0.3682 -0.3407 -0.3763
 2441ntf    fn415547   4.652   2.302   1.333  0.3030 -0.2139  0.6479
 2441ntf    fn415548   4.449   2.266   1.358  0.4032 -0.1912 -0.6083
 2441ntf    on515549   4.383   2.309   1.073  0.0571  1.0088 -0.4968
 2441ntf    on515550   4.506   2.495   1.181  0.0520 -0.2187  0.3362
 2441ntf    on515551   4.517   2.248   0.815  0.1717 -0.3550 -0.2594
 2441ntf    on515552   4.760   2.199   0.860  0.2248 -0.4007 -0.2050
 2441ntf    fn415553   4.779   2.493   0.846  0.3237 -0.5742  0.0449
 2441ntf    fn415554   4.704   2.417   0.658 -0.1295 -0.2099  0.1444
 2441ntf    fn415555   4.568   2.506   0.796  0.3831  0.2211 -0.1231
 2442ntf    cn115556   5.842   1.824   6.819 -0.1213 -0.1858 -0.0733
 2442ntf    sn215557   5.882   1.846   6.995  0.1066  0.4642 -0.2014
 2442ntf    nn315558   5.964   1.713   7.015 -0.4307  0.0756 -0.5476
 2442ntf    sn215559   5.925   1.570   7.066 -0.4037  0.1931 -0.1957
 2442ntf    cn115560   6.058   1.480   6.981 -0.2237  0.2211  0.0542
 2442ntf    fn415561   5.800   1.704   6.785  0.0149 -0.0670 -0.6833
 2442ntf    fn415562   5.748   1.903   6.770  0.1555  0.3436  0.2399
 2442ntf    fn415563   5.947   1.837   6.740 -0.1083  0.0133 -0.0255
 2442ntf    on515564   5.973   1.957   7.004  0.0495  0.4758  0.2299
 2442ntf    on515565   5.753   1.850   7.059  0.3357  0.1729  0.2842
 2442ntf    on515566   5.805   1.510   7.013 -0.6394  0.1942  0.3202
 2442ntf    on515567   5.962   1.546   7.204 -0.6327  0.3265 -0.1103
 2442ntf    fn415568   6.026   1.352   6.985 -0.4815  0.2926  0.3350
 2442ntf    fn415569   6.070   1.505   6.851 -0.2243 -0.2768 -0.0429
 2442ntf    fn415570   6.178   1.483   7.038 -0.1628  0.2229 -0.0716
 2443ntf    cn115571   0.525   2.200   2.329  0.6075  0.6500  0.1926
 2443ntf    sn215572   0.360   2.260   2.280  0.3267 -0.2450  0.0157
 2443ntf    nn315573   0.268   2.159   2.356 -0.4715  0.6311  0.2247
 2443ntf    sn215574   0.167   2.062   2.284  0.0581  0.2545 -0.0153
 2443ntf    cn115575   0.019   2.162   2.320 -0.1753 -0.2549  0.4508
 2443ntf    fn415576   0.535   2.162   2.455  0.3170  0.2348  0.0949
 2443ntf    fn415577   0.552   2.090   2.260 -0.3748  0.4256  0.1505
 2443ntf    fn415578   0.622   2.288   2.311  0.5560  0.6199 -0.2365
 2443ntf    on515579   0.342   2.392   2.336 -0.1713 -0.1374 -0.3941
 2443ntf    on515580   0.355   2.247   2.136  0.2979  0.0974 -0.0155
 2443ntf    on515581   0.138   1.954   2.375  0.0982 -0.0623 -0.3823
 2443ntf    on515582   0.165   2.042   2.142  0.0665  0.4255 -0.0398
 2443ntf    fn415583  -0.015   2.167   2.448  0.3845  0.0787  0.5913
 2443ntf    fn415584   0.037   2.289   2.288 -0.1991 -0.4352 -0.2851
 2443ntf    fn415585  -0.089   2.121   2.255 -0.1227  0.2453  0.0483
 2444ntf    cn115586   6.075   3.437   6.265 -0.1808  0.2358  0.1559
 2444ntf    sn215587   6.124   3.354   6.111 -0.3419  0.2503  0.0961
 2444ntf    nn315588   6.256   3.427   6.068  0.1237 -0.4461  0.3248
 2444ntf    sn215589   6.405   3.378   6.084  0.3973  0.2777  0.0360
 2444ntf    cn115590   6.443   3.300   5.924  0.3127 -0.2016  0.2499
 2444ntf    fn415591   5.963   3.393   6.321 -0.1563 -0.2984 -0.2064
 2444ntf    fn415592   6.176   3.435   6.350  0.1312  0.5770 -0.2098
 2444ntf    fn415593   6.056   3.565   6.238  0.1211  0.3101  0.2955
 2444ntf    on515594   6.150   3.215   6.138  0.8187  0.3190 -0.5709
 2444ntf    on515595   6.013   3.386   6.025  0.1966  0.8064 -0.4073
 2444ntf    on515596   6.432   3.279   6.184 -0.3329  0.4702  0.4332
 2444ntf    on515597   6.494   3.491   6.082  0.5638  0.1435 -0.1357
 2444ntf    fn415598   6.349   3.213   5.891 -0.0081  0.1928  0.1208
 2444ntf    fn415599   6.442   3.387   5.825 -0.0709  0.5127  0.8755
 2444ntf    fn415600   6.561   3.240   5.922  0.3468 -0.1299  0.0891
 2445ntf    cn115601   2.780   4.440   3.492 -0.4149 -0.1605 -0.1755
 2445ntf    sn215602   2.928   4.435   3.386 -0.2001  0.2649  0.1012
 2445ntf    nn315603   2.971   4.285   3.399  0.6972  0.4976 -0.1635
 2445ntf    sn215604   2.990   4.165   3.299 -0.5754  0.1864 -0.0385
 2445ntf    cn115605   3.170   4.164   3.320 -0.5162 -0.3603 -0.5460
 2445ntf    fn415606   2.811   4.385   3.608  0.1641 -0.2403 -0.3654
 2445ntf    fn415607   2.728   4.561   3.508 -0.0358  0.0385 -0.4467
 2445ntf    fn415608   2.677   4.369   3.449 -0.7160  0.4929 -0.5540
 2445ntf    on515609   2.876   4.492   3.264 -0.1135  0.0845 -0.0189
 2445ntf    on515610   3.012   4.522   3.464 -0.2851  0.4844 -0.0478
 2445ntf    on515611   2.980   4.205   3.161  0.0339  0.6010  0.0318
 2445ntf    on515612   2.937   4.040   3.348  0.8118 -0.3562  0.1009
 2445ntf    fn415613   3.240   4.073   3.254  0.2443 -0.1343 -0.0704
 2445ntf    fn415614   3.206   4.287   3.287  0.3532 -0.2032  0.8830
 2445ntf    fn415615   3.200   4.154   3.449 -0.3907 -0.4862 -0.5856
 2446ntf    cn115616   5.272   3.585   5.316 -0.3954  0.1469 -0.1341
 2446ntf    sn215617   5.214   3.656   5.159  0.0757  0.1781 -0.2967
 2446ntf    nn315618   5.329   3.594   5.072 -0.1479  0.2319 -0.6330
 2446ntf    sn215619   5.451   3.675   5.016  0.1856  0.3376  0.2370
 2446ntf    cn115620   5.370   3.737   4.866  0.2626  0.0179  0.0615
 2446ntf    fn415621   5.212   3.643   5.418  0.0701 -0.0873  0.2807
 2446ntf    fn415622   5.252   3.455   5.327 -0.1611  0.0991 -0.2570
 2446ntf    fn415623   5.404   3.600   5.325 -0.3549 -0.1612 -0.2098
 2446ntf    on515624   5.085   3.595   5.139 -0.0082 -0.0055  0.7312
 2446ntf    on515625   5.215   3.799   5.178  0.1203  0.1692 -0.2319
 2446ntf    on515626   5.558   3.592   4.967 -0.2251  0.0810 -0.2265
 2446ntf    on515627   5.502   3.790   5.088 -0.1421  0.3718  0.4127
 2446ntf    fn415628   5.450   3.810   4.791 -0.2138  0.6256  0.1328
 2446ntf    fn415629   5.323   3.638   4.792  0.5409  0.2092 -0.3730
 2446ntf    fn415630   5.269   3.818   4.894  0.6067  0.4204  0.1485
 2447ntf    cn115631   6.333   0.818   5.992  0.3122  0.0952 -0.4953
 2447ntf    sn215632   6.364   0.707   5.851 -0.3711 -0.2408 -0.3844
 2447ntf    nn315633   6.298   0.778   5.727  0.2012  0.8053 -0.1038
 2447ntf    sn215634   6.148   0.759   5.686  0.2349  0.0222  0.1095
 2447ntf    cn115635   6.146   0.837   5.521 -0.6042 -0.4649 -0.1159
 2447ntf    fn415636   6.392   0.770   6.101  0.1001 -0.2223 -0.5173
 2447ntf    fn415637   6.382   0.940   5.979  0.1173  0.2743  0.3873
 2447ntf    fn415638   6.205   0.830   6.021  0.4274  0.1217  0.0250
 2447ntf    on515639   6.507   0.704   5.832 -0.3408 -0.5048 -0.1172
 2447ntf    on515640   6.305   0.584   5.897  0.1400 -0.3595 -0.0357
 2447ntf    on515641   6.054   0.844   5.756 -0.7338 -0.5490 -0.4735
 2447ntf    on515642   6.113   0.622   5.657  0.1701  0.1276 -0.3215
 2447ntf    fn415643   6.241   0.793   5.440 -0.0228  0.2883  0.1466
 2447ntf    fn415644   6.029   0.822   5.461 -0.7507  0.2325 -0.0168
 2447ntf    fn415645   6.154   0.967   5.540  0.0962 -0.5067 -0.1173
 2448ntf    cn115646   1.961   2.299   2.024 -0.1039  0.1393 -0.2068
 2448ntf    sn215647   2.064   2.171   1.946  0.0022  0.2912 -0.3163
 2448ntf    nn315648   2.184   2.260   1.899 -0.2099  1.1068  0.6566
 2448ntf    sn215649   2.331   2.261   1.955  0.1324 -0.1575 -0.1889
 2448ntf    cn115650   2.391   2.104   1.886  0.1052 -0.3424  0.2094
 2448ntf    fn415651   1.864   2.234   2.086  0.1859 -0.3065 -0.2170
 2448ntf    fn415652   2.023   2.370   2.118  0.0973 -0.4273  0.0890
 2448ntf    fn415653   1.899   2.379   1.939  0.5026  0.1306 -0.6667
 2448ntf    on515654   2.094   2.077   2.051 -0.1348  0.5481 -0.0462
 2448ntf    on515655   1.976   2.115   1.846  0.3596 -0.1741 -0.3693
 2448ntf    on515656   2.358   2.253   2.096 -0.5399 -0.1274 -0.0586
 2448ntf    on515657   2.413   2.354   1.881  0.2450 -0.1653 -0.0731
 2448ntf    fn415658   2.345   1.991   1.938 -0.6280 -0.3148 -0.3443
 2448ntf    fn415659   2.361   2.100   1.757  0.2983  0.0762  0.1507
 2448ntf    fn415660   2.522   2.110   1.902  0.1307 -0.5564  0.0923
 2449ntf    cn115661   2.342   3.923   0.741 -0.4044 -0.4639  0.1051
 2449ntf    sn215662   2.411   3.994   0.893  0.1168 -0.1239 -0.2848
 2449ntf    nn315663   2.441   4.135   0.831  0.0360 -0.0346 -0.1220
 2449ntf    sn215664   2.481   4.271   0.899  0.4148 -0.2476  0.0868
 2449ntf    cn115665   2.662   4.253   0.889  0.5083  0.5080  0.3009
 2449ntf    fn415666   2.220   3.968   0.717 -0.2176 -0.1630 -0.2896
 2449ntf    fn415667   2.408   3.940   0.627 -0.3005  0.2400  0.2648
 2449ntf    fn415668   2.327   3.792   0.756 -0.2926 -0.4462  0.3758
 2449ntf    on515669   2.300   3.978   0.984  0.4298  0.0347  0.1314
 2449ntf    on515670   2.526   3.910   0.915 -0.0220 -0.4402 -0.7726
 2449ntf    on515671   2.455   4.282   1.040 -0.6510  0.5253 -0.1635
 2449ntf    on515672   2.465   4.388   0.815  1.0142 -0.4137 -0.2656
 2449ntf    fn415673   2.723   4.347   0.959  0.3692  0.3862  0.5868
 2449ntf    fn415674   2.705   4.136   0.934  0.0761  0.1478 -0.2062
 2449ntf    fn415675   2.710   4.268   0.766 -0.2086  0.9999  0.0753
 2450ntf    cn115676   1.582   0.205   6.585 -0.0669  0.1993  0.0296
 2450ntf    sn215677   1.619   0.279   6.747 -0.4245 -0.0398  0.2232
 2450ntf    nn315678   1.761   0.215   6.770 -0.3795 -0.1803 -0.4299
 2450ntf    sn215679   1.808   0.150   6.905 -0.2750 -0.0855 -0.4199
 2450ntf    cn115680   1.724  -0.010   6.890  0.1278 -0.3655  0.2678
 2450ntf    fn415681   1.603   0.075   6.578 -0.2621  0.1842 -0.2919
 2450ntf    fn415682   1.454   0.223   6.555 -0.1531 -0.5414 -0.0646
 2450ntf    fn415683   1.664   0.253   6.494  0.0841 -0.1408 -0.0166
 2450ntf    on515684   1.630   0.420   6.720  0.2711 -0.1454 -0.0692
 2450ntf    on515685   1.513   0.222   6.827 -0.1319 -1.0148 -0.0645
 2450ntf    on515686   1.755   0.211   7.024  0.0535 -0.0883 -0.2711
 2450ntf    on515687   1.948   0.114   6.893 -0.2659  0.1395 -1.0404
 2450ntf    fn415688   1.595  -0.002   6.919  0.0468 -0.4370 -0.0632
 2450ntf    fn415689   1.731  -0.041   6.761 -0.0303  0.3510  0.0817
 2450ntf    fn415690   1.784  -0.106   6.958  0.1035 -0.5501  0.0303
 2451ntf    cn115691   3.078   5.131   4.064 -0.1197 -0.4155  0.1246
 2451ntf    sn215692   3.163   5.099   4.222  0.3269 -0.2548 -0.0810
 2451ntf    nn315693   3.081   4.969   4.257  0.4080 -0.1621  0.4640
 2451ntf    sn215694   3.127   4.831   4.314  0.2330 -0.3998  0.0349
 2451ntf    cn115695   3.160   4.739   4.160  0.2382  0.2509 -0.3553
 2451ntf    fn415696   3.072   5.258   4.028  0.3950 -0.3574  0.2242
 2451ntf    fn415697   3.129   5.064   3.962 -0.2941 -0.0120 -0.2323
 2451ntf    fn415698   2.955   5.085   4.077 -0.4393  0.3039 -0.3462
 2451ntf    on515699   3.302   5.083   4.185  0.3706  0.7451 -0.3570
 2451ntf    on515700   3.130   5.211   4.306  0.0782 -0.7478  0.4852
 2451ntf    on515701   3.020   4.761   4.380 -0.0125 -0.2954 -0.2500
 2451ntf    on515702   3.257   4.835   4.377  0.1700  0.2979  0.1196
 2451ntf    fn415703   3.053   4.687   4.104 -0.0431 -0.0977  0.4791
 2451ntf    fn415704   3.213   4.812   4.064 -0.1847  0.5738 -0.3465
 2451ntf    fn415705   3.242   4.638   4.184  0.2641  0.4367  0.3832
 2452ntf    cn115706   3.704   3.334   5.609  0.2933  0.3239  0.1322
 2452ntf    sn215707   3.811   3.382   5.470  0.0293 -0.0570 -0.2059
 2452ntf    nn315708   3.698   3.457   5.391 -0.3569 -0.0230  0.3744
 2452ntf    sn215709   3.658   3.608   5.398 -0.0220  0.0907 -0.1161
 2452ntf    cn115710   3.489   3.600   5.330  0.0084 -0.0716 -0.1720
 2452ntf    fn415711   3.591   3.278   5.568  0.1587 -0.0911  1.0553
 2452ntf    fn415712   3.759   3.254   5.699  0.3409  0.2741  0.0587
 2452ntf    fn415713   3.667   3.443   5.673 -0.5767  0.1070  0.0101
 2452ntf    on515714   3.910   3.468   5.529 -0.3846 -0.3588  0.9501
 2452ntf    on515715   3.860   3.266   5.400 -0.5162 -0.4450  0.0481
 2452ntf    on515716   3.734   3.689   5.306  0.0587  0.1829  0.0299
 2452ntf    on515717   3.631   3.666   5.527 -0.5540  0.2244 -0.2859
 2452ntf    fn415718   3.489   3.574   5.201  0.0061  0.1904 -0.2256
 2452ntf    fn415719   3.411   3.509   5.386 -0.1036 -0.0631 -0.3171
 2452ntf    fn415720   3.423   3.713   5.350  0.4537  0.1668 -0.0272
 2453ntf    cn115721   3.436   5.579   2.265 -0.0917 -0.0047  0.3142
 2453ntf    sn215722   3.553   5.532   2.134 -0.2931  0.2126  0.0542
 2453ntf    nn315723   3.470   5.428   2.050  0.5741 -0.4910  0.0469
 2453ntf    sn215724   3.478   5.401   1.896  0.3684 -0.4555  0.0296
 2453ntf    cn115725   3.368   5.527   1.824  0.3660 -0.4532  0.0378
 2453ntf    fn415726   3.309   5.552   2.238  0.1627 -0.5273 -0.3602
 2453ntf    fn415727   3.461   5.505   2.372  0.0201 -0.3635  0.0408
 2453ntf    fn415728   3.435   5.708   2.295  0.8178 -0.0191  0.4253
 2453ntf    on515729   3.583   5.658   2.071 -0.4696  0.2084 -0.0389
 2453ntf    on515730   3.667   5.468   2.195 -0.2730  0.3002  0.1085
 2453ntf    on515731   3.407   5.279   1.866 -0.5606  0.0659  0.0757
 2453ntf    on515732   3.599   5.435   1.824  0.4716 -0.2971  0.2769
 2453ntf    fn415733   3.405   5.651   1.849 -0.5716 -0.1870  0.1511
 2453ntf    fn415734   3.342   5.503   1.696 -0.3209  0.6500 -0.0396
 2453ntf    fn415735   3.248   5.524   1.880  0.1369  0.1252 -0.4209
 2454ntf    cn115736   1.483   3.548   3.183  0.4431 -0.2238 -0.4286
 2454ntf    sn215737   1.529   3.501   3.353 -0.0534 -0.1917 -0.2836
 2454ntf    nn315738   1.649   3.409   3.310 -0.0764 -0.3724  0.0364
 2454ntf    sn215739   1.661   3.254   3.292 -0.3459 -0.3820 -0.0619
 2454ntf    cn115740   1.719   3.265   3.120 -0.0817 -0.3088  0.0318
 2454ntf    fn415741   1.440   3.445   3.113 -0.3538 -0.4395  0.3584
 2454ntf    fn415742   1.393   3.645   3.169  0.4838 -0.0844  0.2097
 2454ntf    fn415743   1.594   3.594   3.129  0.3530  0.1683 -0.2884
 2454ntf    on515744   1.569   3.623   3.419 -0.2989 -0.2420 -0.0389
 2454ntf    on515745   1.406   3.445   3.404 -0.2560  0.1530 -0.3885
 2454ntf    on515746   1.541   3.173   3.285  0.1754 -1.2261  0.6233
 2454ntf    on515747   1.777   3.191   3.348 -0.2510 -0.1405  0.0145
 2454ntf    fn415748   1.738   3.147   3.064 -0.4113 -0.0802 -0.5843
 2454ntf    fn415749   1.625   3.324   3.047  0.2069  0.6611  0.4321
 2454ntf    fn415750   1.832   3.333   3.116  0.0997 -0.6134 -0.0508
 2455ntf    cn115751   6.708   2.993   0.386  0.2722 -0.2814 -0.1345
 2455ntf    sn215752   6.877   2.931   0.361  0.2543 -0.4329  0.1147
 2455ntf    nn315753   6.864   2.836   0.237  0.2579 -0.1620 -0.0934
 2455ntf    sn215754   6.855   2.679   0.235 -0.0577 -0.1431 -0.2193
 2455ntf    cn115755   6.837   2.651   0.056 -0.0137 -0.3531 -0.1904
 2455ntf    fn415756   6.612   2.902   0.391  0.0296 -0.0271 -0.1732
 2455ntf    fn415757   6.696   3.066   0.495 -0.2067  0.0822 -0.4281
 2455ntf    fn415758   6.682   3.075   0.286 -0.1152 -0.0586  0.1481
 2455ntf    on515759   6.952   3.053   0.341  0.1409 -0.3859 -0.0189
 2455ntf    on515760   6.904   2.859   0.483 -0.1173 -0.3464  0.2491
 2455ntf    on515761   6.747   2.614   0.304 -0.2128  0.3601  0.0157
 2455ntf    on515762   6.985   2.621   0.257 -0.2421 -0.5040 -0.0850
 2455ntf    fn415763   6.843   2.526   0.011  0.8750 -0.4640  0.2085
 2455ntf    fn415764   6.721   2.706   0.022  0.0973 -0.5767 -0.9523
 2455ntf    fn415765   6.934   2.714  -0.008 -0.3354  0.0554 -0.2749
 2456ntf    cn115766   5.058   4.699   6.513  0.7394  0.2386  0.1148
 2456ntf    sn215767   5.022   4.523   6.538  0.0988  0.3680  0.1222
 2456ntf    nn315768   4.898   4.521   6.634 -0.0267 -0.0251 -0.0450
 2456ntf    sn215769   4.811   4.402   6.689 -0.1145 -0.1074 -0.3598
 2456ntf    cn115770   4.648   4.463   6.638 -0.2421  0.3243  0.5533
 2456ntf    fn415771   5.152   4.714   6.422  0.3100 -0.0551 -0.3781
 2456ntf    fn415772   4.951   4.763   6.469  0.2803 -0.4308  0.2544
 2456ntf    fn415773   5.099   4.757   6.625  0.2107  0.3595  0.2471
 2456ntf    on515774   4.993   4.484   6.403  0.2200  0.4485  0.0733
 2456ntf    on515775   5.140   4.467   6.601  0.0189 -0.0238 -0.0698
 2456ntf    on515776   4.806   4.414   6.833  0.2378 -0.2181 -0.3359
 2456ntf    on515777   4.825   4.269   6.635  0.3576  0.2080 -1.0306
 2456ntf    fn415778   4.642   4.485   6.508  0.7753 -0.0751  0.4339
 2456ntf    fn415779   4.559   4.367   6.658 -0.1739  0.1565  0.0483
 2456ntf    fn415780   4.600   4.573   6.695  0.5606  0.8608  0.2055
 2457ntf    cn115781   6.054   3.895   3.174  0.0182 -0.1874  0.0554
 2457ntf    sn215782   6.028   3.737   3.088 -0.0891  0.1172 -0.4743
 2457ntf    nn315783   6.117   3.752   2.959 -0.0523 -0.2361 -0.4903
 2457ntf    sn215784   6.269   3.721   2.939  0.1563  0.2412  0.3071
 2457ntf    cn115785   6.304   3.862   2.829 -0.2247 -0.0831 -0.2362
 2457ntf    fn415786   5.966   3.912   3.271 -0.2142 -0.2253 -0.1504
 2457ntf    fn415787   6.176   3.888   3.225  0.2454 -0.5307 -0.5188
 2457ntf    fn415788   6.052   4.005   3.101  0.2702 -0.6883 -0.7207
 2457ntf    on515789   6.070   3.623   3.166 -0.4645  0.0502 -0.3685
 2457ntf    on515790   5.886   3.736   3.063 -0.1481  0.5242 -0.1709
 2457ntf    on515791   6.298   3.615   2.845  0.1855 -0.0039  0.5910
 2457ntf    on515792   6.359   3.744   3.049  0.5700  0.1017  0.0003
 2457ntf    fn415793   6.433   3.887   2.814 -0.1090 -0.6642 -0.2352
 2457ntf    fn415794   6.252   3.844   2.709 -0.0268 -0.1320 -0.3156
 2457ntf    fn415795   6.258   3.978   2.873  0.8909  0.2601  0.0663
 2458ntf    cn115796   0.056   0.397   4.428  0.1240 -0.4084 -0.0408
 2458ntf    sn215797   0.187   0.507   4.367 -0.1905  0.1563  0.2934
 2458ntf    nn315798   0.218   0.442   4.227 -0.3177  0.7435 -0.0135
 2458ntf    sn215799   0.164   0.458   4.081  0.0131 -0.3789 -0.2678
 2458ntf    cn115800   0.084   0.299   4.044 -0.2605 -0.3143  0.0482
 2458ntf    fn415801  -0.029   0.454   4.511  0.3451  0.4341 -0.3737
 2458ntf    fn415802  -0.017   0.356   4.326  0.2531 -0.0040 -0.3008
 2458ntf    fn415803   0.103   0.287   4.484  0.3905 -0.1318  0.2829
 2458ntf    on515804   0.122   0.636   4.370 -0.1083  0.1932  0.5299
 2458ntf    on515805   0.290   0.491   4.466  0.2681  0.5346 -0.1131
 2458ntf    on515806   0.264   0.469   3.977 -0.4076  0.3734 -0.6045
 2458ntf    on515807   0.063   0.559   4.063 -0.3428 -0.6985 -0.0733
 2458ntf    fn415808   0.049   0.297   3.916 -0.0006 -0.2626 -0.0238
 2458ntf    fn415809   0.155   0.189   4.064  0.0233 -0.0181  0.7039
 2458ntf    fn415810  -0.028   0.282   4.113 -0.7282 -0.5912 -0.7624
 2459ntf    cn115811   3.087   5.805   3.414 -0.1245  0.2193  0.0234
 2459ntf    sn215812   3.256   5.845   3.360 -0.0346 -0.0799  0.0798
 2459ntf    nn315813   3.260   5.769   3.222 -0.1864  0.1289 -0.0403
 2459ntf    sn215814   3.381   5.735   3.128 -0.3601  0.0281 -0.2249
 2459ntf    cn115815   3.417   5.563   3.175  0.2168  0.1545 -0.1996
 2459ntf    fn415816   3.060   5.839   3.539  0.0478  0.0114  0.1180
 2459ntf    fn415817   3.000   5.857   3.329 -0.0554  0.3696  0.0458
 2459ntf    fn415818   3.065   5.674   3.404  0.0249  0.2399 -0.6183
 2459ntf    on515819   3.265   5.989   3.359 -0.4427 -0.0515  0.1848
 2459ntf    on515820   3.330   5.773   3.461  0.2209 -0.9385 -0.7028
 2459ntf    on515821   3.504   5.808   3.147 -0.2636 -0.1470 -0.1707
 2459ntf    on515822   3.331   5.716   2.994  0.1866 -0.2665 -0.3919
 2459ntf    fn415823   3.483   5.558   3.290  0.0385  0.1497 -0.0977
 2459ntf    fn415824   3.309   5.491   3.198  0.2382  0.0250 -0.5029
 2459ntf    fn415825   3.493   5.496   3.090  0.4154  0.0688  0.0439
 2460ntf    cn115826   1.318   5.387   4.133 -0.2195  0.6710  0.1981
 2460ntf    sn215827   1.359   5.338   4.303  0.2866 -0.0972 -0.1446
 2460ntf    nn315828   1.268   5.210   4.313  0.2767 -0.0930 -0.1811
 2460ntf    sn215829   1.294   5.057   4.289 -0.0558 -0.1572 -0.1401
 2460ntf    cn115830   1.372   5.021   4.449 -0.3985 -0.4429 -0.0379
 2460ntf    fn415831   1.299   5.284   4.052 -0.1832  0.4778  0.4344
 2460ntf    fn415832   1.203   5.451   4.117 -0.3567  0.2930 -0.3570
 2460ntf    fn415833   1.414   5.455   4.072  0.0454  0.2364  0.1279
 2460ntf    on515834   1.501   5.313   4.311  0.1751 -0.5029  0.6564
 2460ntf    on515835   1.303   5.439   4.388 -0.1870 -0.3017 -0.2085
 2460ntf    on515836   1.400   5.019   4.198  0.1929  0.2849 -0.0406
 2460ntf    on515837   1.174   4.978   4.291 -0.5593  0.6064  0.0670
 2460ntf    fn415838   1.306   5.067   4.555 -0.1623 -0.0511 -0.0588
 2460ntf    fn415839   1.375   4.890   4.461  0.1833 -0.3961  0.3488
 2460ntf    fn415840   1.494   5.071   4.446 -0.2539 -0.7979  0.0111
 2461ntf    cn115841   1.730   6.866   6.049 -0.0880  0.1417 -0.6749
 2461ntf    sn215842   1.902   6.822   6.009  0.0985  0.1276  0.1299
 2461ntf    nn315843   1.944   6.958   5.942 -0.0111  0.3767  0.5635
 2461ntf    sn215844   2.090   7.005   5.911  0.1078 -0.4838 -0.2258
 2461ntf    cn115845   2.059   7.094   5.755 -0.4355  0.5486  0.4614
 2461ntf    fn415846   1.660   6.773   6.111 -0.3416  0.9884  0.3349
 2461ntf    fn415847   1.730   6.961   6.141  0.1441 -0.5270  0.0278
 2461ntf    fn415848   1.657   6.906   5.946 -0.6793  0.6348 -0.0751
 2461ntf    on515849   1.959   6.801   6.139  0.0377  0.1999  0.1686
 2461ntf    on515850   1.890   6.706   5.925  0.0939 -0.2325  0.6240
 2461ntf    on515851   2.188   6.905   5.878  0.7317  0.1428 -0.2935
 2461ntf    on515852   2.133   7.111   5.999  0.0840 -0.3212 -0.4090
 2461ntf    fn415853   1.998   7.024   5.661 -0.1562  0.2921  0.4687
 2461ntf    fn415854   1.982   7.200   5.774 -0.8124  0.3546  0.0311
 2461ntf    fn415855   2.174   7.132   5.702 -0.4433 -0.8808 -0.6364
 2462ntf    cn115856   0.601   2.072   6.486 -0.4051  0.1444  0.2828
 2462ntf    sn215857   0.540   2.155   6.336 -0.0828 -0.2909 -0.0955
 2462ntf    nn315858   0.404   2.220   6.381  0.0859 -0.2449  0.3604
 2462ntf    sn215859   0.251   2.184   6.375  0.0096  0.0869  0.2616
 2462ntf    cn115860   0.201   2.268   6.528 -0.2584  0.4927 -0.0481
 2462ntf    fn415861   0.721   2.017   6.474 -0.5154 -0.1179  0.3854
 2462ntf    fn415862   0.623   2.159   6.583  0.8141 -0.1821  0.3132
 2462ntf    fn415863   0.515   1.983   6.532 -1.1265  0.3167 -0.7100
 2462ntf    on515864   0.646   2.252   6.328  0.2236 -0.5782  0.3862
 2462ntf    on515865   0.543   2.050   6.238 -0.4450 -0.4030  0.0108
 2462ntf    on515866   0.210   2.046   6.369 -0.3887  0.2045  0.3068
 2462ntf    on515867   0.190   2.267   6.274  0.4829 -0.2828 -0.3434
 2462ntf    fn415868   0.080   2.231   6.568 -0.0453 -0.1208  0.0415
 2462ntf    fn415869   0.264   2.220   6.634 -0.2834  0.0844 -0.2145
 2462ntf    fn415870   0.208   2.400   6.525 -0.2161  0.5195  1.0412
 2463ntf    cn115871   1.402   0.191   1.464 -0.2088 -0.1099 -0.2718
 2463ntf    sn215872   1.344   0.105   1.613  0.0129  0.2043 -0.0035
 2463ntf    nn315873   1.271   0.219   1.692 -0.4019  0.4004 -0.6657
 2463ntf    sn215874   1.336   0.325   1.789 -0.1243 -0.1823 -0.2081
 2463ntf    cn115875   1.296   0.258   1.953 -0.1061  0.4244  0.0482
 2463ntf    fn415876   1.299   0.186   1.381 -0.9108 -0.0971  0.5831
 2463ntf    fn415877   1.433   0.318   1.484 -0.0479 -0.1925  0.0128
 2463ntf    fn415878   1.509   0.131   1.415 -0.0036  0.2483 -0.2661
 2463ntf    on515879   1.248   0.010   1.563  0.0063  0.2773 -0.1277
 2463ntf    on515880   1.463   0.050   1.675  0.2182 -0.3720 -0.8959
 2463ntf    on515881   1.279   0.457   1.790 -0.1545 -0.1982  0.0298
 2463ntf    on515882   1.480   0.330   1.796 -0.0783 -0.1569 -1.0599
 2463ntf    fn415883   1.364   0.147   1.973 -0.4845  0.2187  0.2148
 2463ntf    fn415884   1.336   0.342   2.046  0.0695  0.7167 -0.2918
 2463ntf    fn415885   1.169   0.232   1.981  0.0138 -0.1951  0.0377
 2464ntf    cn115886   6.290   1.422   4.504  0.0737 -0.2743 -0.0053
 2464ntf    sn215887   6.439   1.489   4.423  0.1256 -0.2186  0.1372
 2464ntf    nn315888   6.438   1.408   4.289 -0.0496 -0.3303  0.2046
 2464ntf    sn215889   6.516   1.279   4.245 -0.0664 -0.3650  0.2766
 2464ntf    cn115890   6.376   1.163   4.246 -0.2503 -0.1521 -0.2261
 2464ntf    fn415891   6.193   1.407   4.416 -0.3922 -0.3446  0.5194
 2464ntf    fn415892   6.302   1.300   4.554 -0.0406 -0.2873 -0.0096
 2464ntf    fn415893   6.237   1.494   4.601 -0.0632 -0.5450  0.1221
 2464ntf    on515894   6.404   1.628   4.410  0.3032 -0.2226 -0.3852
 2464ntf    on515895   6.538   1.454   4.522  0.0971  0.2351  0.3305
 2464ntf    on515896   6.608   1.223   4.340  0.0465  0.2171  0.5137
 2464ntf    on515897   6.566   1.293   4.110 -0.1628 -0.1725  0.2607
 2464ntf    fn415898   6.303   1.186   4.138  0.2384  1.1229 -0.2958
 2464ntf    fn415899   6.419   1.038   4.235 -0.3633 -0.2139  0.0323
 2464ntf    fn415900   6.308   1.187   4.357  0.4642  0.9116 -0.0002
 2465ntf    cn115901   3.970   1.298   0.910 -0.1066  0.3134  0.2888
 2465ntf    sn215902   3.979   1.478   0.935 -0.1358  0.3706 -0.0984
 2465ntf    nn315903   4.109   1.512   0.853 -0.0316 -0.1671 -0.1607
 2465ntf    sn215904   4.251   1.546   0.911 -0.1077 -0.0536 -0.0397
 2465ntf    cn115905   4.225   1.726   0.904  0.0289 -0.0372 -0.1249
 2465ntf    fn415906   3.934   1.267   0.786  0.5994  0.0590  0.1421
 2465ntf    fn415907   4.081   1.229   0.929 -0.3757 -0.0849  0.4336
 2465ntf    fn415908   3.885   1.240   0.992  0.1863 -0.6163 -0.0589
 2465ntf    on515909   3.864   1.527   0.863 -0.5561 -0.5235 -0.0474
 2465ntf    on515910   3.983   1.503   1.077 -0.4035  0.0578 -0.0343
 2465ntf    on515911   4.358   1.520   0.817 -0.1593 -0.2554 -0.0441
 2465ntf    on515912   4.283   1.516   1.048  0.9057 -0.1601 -0.2937
 2465ntf    fn415913   4.312   1.790   0.979  0.0557  0.3000 -0.4397
 2465ntf    fn415914   4.224   1.775   0.781  0.6006  0.2423 -0.0202
 2465ntf    fn415915   4.112   1.772   0.954  0.5573  0.7338  0.3755
 2466ntf    cn115916   4.446   0.817   3.223 -0.0585  0.1314 -0.2058
 2466ntf    sn215917   4.610   0.763   3.280 -0.3217 -0.0939  0.3437
 2466ntf    nn315918   4.570   0.641   3.370 -0.9165 -0.0693  0.1174
 2466ntf    sn215919   4.621   0.492   3.370 -0.0657  0.2178  0.0966
 2466ntf    cn115920   4.793   0.518   3.423  0.0898  0.0214 -0.3111
 2466ntf    fn415921   4.372   0.712   3.190  0.3780 -0.3043  0.1874
 2466ntf    fn415922   4.385   0.881   3.321  0.2182  0.1317 -0.0320
 2466ntf    fn415923   4.455   0.890   3.113 -0.8272  0.1895 -0.2346
 2466ntf    on515924   4.673   0.721   3.157 -0.1522 -0.3682  0.5233
 2466ntf    on515925   4.671   0.869   3.355 -0.4806  0.3293 -0.1168
 2466ntf    on515926   4.632   0.419   3.246  0.2671  0.5015 -0.0440
 2466ntf    on515927   4.563   0.422   3.482 -0.9808 -0.0699 -0.5496
 2466ntf    fn415928   4.797   0.581   3.539 -0.1778  0.1707 -0.3838
 2466ntf    fn415929   4.860   0.406   3.446 -0.0027  0.0919  0.2913
 2466ntf    fn415930   4.857   0.589   3.332  0.7822  0.2888  0.3771
 2467ntf    cn115931   1.919   4.907   6.970  0.0682  0.2623  0.0881
 2467ntf    sn215932   1.956   4.841   6.804 -0.1224 -0.0220  0.1581
 2467ntf    nn315933   2.100   4.780   6.821  0.0749  0.2272 -0.5749
 2467ntf    sn215934   2.141   4.635   6.864  0.0020  0.3756  0.0174
 2467ntf    cn115935   2.144   4.556   6.700  0.4099  0.0937  0.1606
 2467ntf    fn415936   1.791   4.938   6.971 -0.0648 -0.2391 -0.4420
 2467ntf    fn415937   1.942   4.817   7.064 -0.4396  0.2814  0.2299
 2467ntf    fn415938   1.995   5.011   6.998  0.5955 -0.1626  0.2755
 2467ntf    on515939   1.862   4.735   6.778 -0.2067  0.2862 -0.8465
 2467ntf    on515940   1.958   4.958   6.721  0.0251 -0.0817  0.0769
 2467ntf    on515941   2.050   4.568   6.954  0.2443  0.3884  0.2708
 2467ntf    on515942   2.280   4.644   6.899  0.1493  0.1999 -0.5083
 2467ntf    fn415943   2.236   4.610   6.622 -0.0957 -0.0007 -0.5066
 2467ntf    fn415944   2.171   4.426   6.707 -0.0339 -0.0196 -0.1870
 2467ntf    fn415945   2.024   4.557   6.644  0.7301 -0.5592 -0.5601
 2468ntf    cn115946   0.619   4.881   1.529 -0.3581 -0.3800  0.4648
 2468ntf    sn215947   0.776   4.939   1.600 -0.1754  0.0417 -0.2683
 2468ntf    nn315948   0.779   4.840   1.722  0.4783  0.3139 -0.0573
 2468ntf    sn215949   0.745   4.868   1.873  0.3153 -0.1531 -0.0061
 2468ntf    cn115950   0.614   4.745   1.903  0.2003 -0.0485 -0.0810
 2468ntf    fn415951   0.512   4.932   1.587 -0.3187  0.8678 -0.5128
 2468ntf    fn415952   0.607   4.910   1.400 -0.2654 -0.1903  0.4993
 2468ntf    fn415953   0.609   4.749   1.535 -0.1073 -0.4142  0.1493
 2468ntf    on515954   0.876   4.912   1.499  0.0647  0.4097 -0.1306
 2468ntf    on515955   0.760   5.078   1.632 -0.2689 -0.0630  0.1561
 2468ntf    on515956   0.682   4.991   1.912  0.2356 -0.0348 -0.5042
 2468ntf    on515957   0.848   4.815   1.960  0.0508 -0.0326  0.3800
 2468ntf    fn415958   0.493   4.796   1.886  0.1193 -0.2589 -0.1377
 2468ntf    fn415959   0.615   4.646   1.815  0.1804  0.1280 -0.2794
 2468ntf    fn415960   0.614   4.699   2.027 -0.3320  0.6049  0.1667
 2469ntf    cn115961   0.444   3.600   4.354 -0.3208  0.0010 -0.3162
 2469ntf    sn215962   0.306   3.625   4.470 -0.2107  0.1586 -0.2198
 2469ntf    nn315963   0.328   3.526   4.589 -0.1082  0.0554 -0.3245
 2469ntf    sn215964   0.245   3.514   4.722  0.3068 -0.0698 -0.0703
 2469ntf    cn115965   0.160   3.358   4.683 -0.0625  0.0302  0.3224
 2469ntf    fn415966   0.435   3.697   4.265 -0.1608  0.2839 -0.0273
 2469ntf    fn415967   0.563   3.608   4.410 -0.4763  0.4535 -0.0473
 2469ntf    fn415968   0.450   3.480   4.297 -0.0967 -0.1428  0.0052
 2469ntf    on515969   0.313   3.766   4.500  0.5263  0.1904 -0.5025
 2469ntf    on515970   0.193   3.581   4.392  0.0515 -0.5878 -0.1820
 2469ntf    on515971   0.142   3.615   4.731  0.0802 -0.1691 -1.2678
 2469ntf    on515972   0.319   3.479   4.840 -0.0501 -0.4277  0.0512
 2469ntf    fn415973   0.082   3.314   4.780 -0.3045  0.0460  0.1377
 2469ntf    fn415974   0.078   3.359   4.578  0.3330  0.3956  0.0121
 2469ntf    fn415975   0.251   3.263   4.666  0.2979  0.4372 -0.0656
 2470ntf    cn115976   2.778   0.399   3.588  0.0626 -0.3844 -0.5829
 2470ntf    sn215977   2.825   0.570   3.547  0.0975 -0.1716  0.3165
 2470ntf    nn315978   2.892   0.601   3.685  0.3045  0.1865  0.1355
 2470ntf    sn215979   2.829   0.672   3.810 -0.2194  0.3212 -0.2000
 2470ntf    cn115980   2.904   0.568   3.940 -0.4600  0.0934 -0.2423
 2470ntf    fn415981   2.726   0.396   3.709  0.1796 -0.4464 -0.5333
 2470ntf    fn415982   2.690   0.362   3.497 -0.4437 -0.2805 -0.1395
 2470ntf    fn415983   2.877   0.311   3.594  0.7091  0.3723  0.2058
 2470ntf    on515984   2.928   0.551   3.448 -0.0463  0.0393  0.1262
 2470ntf    on515985   2.697   0.620   3.505 -0.1678 -0.9859  0.1233
 2470ntf    on515986   2.693   0.636   3.840 -0.0898 -0.0588 -0.0644
 2470ntf    on515987   2.868   0.808   3.838 -0.2538  0.3243 -0.1671
 2470ntf    fn415988   2.932   0.633   4.052 -0.4139  0.2063 -0.3182
 2470ntf    fn415989   2.829   0.467   3.980 -0.0079 -0.2287 -0.2058
 2470ntf    fn415990   3.021   0.517   3.906 -0.0282  0.6591  0.3680
 2471ntf    cn115991   4.422   2.029   2.571 -0.2003  0.1567 -0.1575
 2471ntf    sn215992   4.603   2.039   2.558 -0.1888  0.3443  0.1307
 2471ntf    nn315993   4.634   2.161   2.464  0.2084 -0.0322 -0.2316
 2471ntf    sn215994   4.653   2.312   2.501 -0.1363  0.0560 -0.4155
 2471ntf    cn115995   4.833   2.326   2.523 -0.1559  0.1896 -0.3400
 2471ntf    fn415996   4.379   2.128   2.647  0.2526  0.6476 -0.5299
 2471ntf    fn415997   4.376   2.048   2.448  0.3258  0.6042 -0.2896
 2471ntf    fn415998   4.368   1.919   2.621 -0.0220  0.1097 -0.0672
 2471ntf    on515999   4.642   2.050   2.696  0.2869  0.6767 -0.0292
 2471ntf    on516000   4.640   1.916   2.490  0.0690  0.1547  0.6083
 2471ntf    on516001   4.604   2.356   2.629  0.3671  0.3250 -0.3143
 2471ntf    on516002   4.619   2.407   2.397  0.1616  0.6250  0.0022
 2471ntf    fn416003   4.893   2.235   2.449 -0.5509 -0.3730  0.0192
 2471ntf    fn416004   4.872   2.447   2.487  0.8902  0.1445  0.5813
 2471ntf    fn416005   4.869   2.320   2.651 -0.7465 -0.4634 -0.1969
 2472ntf    cn116006   6.694   4.375   4.534 -0.3238 -0.0809 -0.0412
 2472ntf    sn216007   6.801   4.349   4.389 -0.1025 -0.1517  0.1336
 2472ntf    nn316008   6.924   4.437   4.432 -0.1385  0.0670 -0.2060
 2472ntf    sn216009   7.044   4.470   4.337 -0.0548 -0.1606 -0.1820
 2472ntf    cn116010   7.186   4.405   4.428 -0.0670  0.3148  0.1819
 2472ntf    fn416011   6.588   4.298   4.551  0.1116 -0.6860 -0.0392
 2472ntf    fn416012   6.766   4.382   4.645  0.3040  0.0967 -0.4510
 2472ntf    fn416013   6.650   4.495   4.499 -0.3789  0.1150  0.6734
 2472ntf    on516014   6.820   4.207   4.402  0.1357 -0.1561 -0.2376
 2472ntf    on516015   6.740   4.387   4.264  0.7124 -0.1997 -0.2860
 2472ntf    on516016   7.077   4.609   4.317 -0.5904 -0.0965 -0.6669
 2472ntf    on516017   7.052   4.397   4.213 -0.1288  0.2098 -0.4059
 2472ntf    fn416018   7.216   4.458   4.546  0.2795  0.4208  0.0466
 2472ntf    fn416019   7.168   4.277   4.460 -0.5770  0.3517  0.0482
 2472ntf    fn416020   7.288   4.401   4.344  0.4633 -1.0003  0.8586
 2473ntf    cn116021   1.059   2.089   3.307  0.0986 -0.2660 -0.1490
 2473ntf    sn216022   1.118   1.960   3.421 -0.0636 -0.1104  0.1111
 2473ntf    nn316023   0.984   1.932   3.500  0.1120  0.0154  0.4567
 2473ntf    sn216024   0.882   1.812   3.498  0.1466 -0.0111  0.1381
 2473ntf    cn116025   0.728   1.908   3.498  0.3243  0.2762  0.1016
 2473ntf    fn416026   0.978   2.178   3.361  0.6799  0.2947 -0.1945
 2473ntf    fn416027   1.154   2.168   3.261  0.1426  0.1595  0.6496
 2473ntf    fn416028   0.998   2.046   3.198  0.3251 -0.4980 -0.1850
 2473ntf    on516029   1.166   1.863   3.326 -0.3397 -0.1818  0.0425
 2473ntf    on516030   1.217   2.035   3.493 -0.3684  0.5089 -0.1037
 2473ntf    on516031   0.882   1.744   3.625  0.5067 -0.1833  0.0475
 2473ntf    on516032   0.880   1.737   3.375  0.0559 -0.3504  0.3460
 2473ntf    fn416033   0.718   1.989   3.394  0.2226 -0.2396 -0.2872
 2473ntf    fn416034   0.616   1.838   3.491  0.5375 -0.0312 -0.2328
 2473ntf    fn416035   0.714   1.997   3.596 -0.2493  0.1552  0.1333
 2474ntf    cn116036   1.483   2.187   0.832 -0.6857  0.4502 -0.0008
 2474ntf    sn216037   1.509   2.184   1.012  0.1537 -0.1527 -0.1281
 2474ntf    nn316038   1.496   2.031   1.043 -0.0460 -0.1298 -0.0942
 2474ntf    sn216039   1.599   1.913   1.039  0.2804  0.1451  0.1089
 2474ntf    cn116040   1.550   1.830   0.885  0.1506 -0.4152  0.4483
 2474ntf    fn416041   1.596   2.153   0.773 -0.6395 -0.1086  0.3978
 2474ntf    fn416042   1.384   2.106   0.798 -0.4306 -0.0988  0.5452
 2474ntf    fn416043   1.454   2.312   0.800 -0.0396  0.5506 -0.1905
 2474ntf    on516044   1.636   2.245   1.041 -0.0141 -0.2847  0.9320
 2474ntf    on516045   1.394   2.251   1.067  0.1816 -0.2951  0.1053
 2474ntf    on516046   1.575   1.810   1.138 -0.2589  0.3421  0.1850
 2474ntf    on516047   1.735   1.948   1.004  0.3538  0.0588  0.3046
 2474ntf    fn416048   1.432   1.770   0.891 -0.4737  0.6292 -1.0028
 2474ntf    fn416049   1.552   1.916   0.785  0.0921 -0.6976  0.2023
 2474ntf    fn416050   1.636   1.737   0.845  0.2796  0.1824 -0.7056
 2475ntf    cn116051   1.083   6.972   0.038  0.5165 -0.2791 -0.1366
 2475ntf    sn216052   1.048   7.037   0.204  0.1467 -0.0351 -0.3098
 2475ntf    nn316053   1.084   7.189   0.192  0.3376 -0.0443  0.1239
 2475ntf    sn216054   0.993   7.312   0.159  0.0633 -0.3394 -0.2323
 2475ntf    cn116055   1.065   7.422   0.285  0.2053 -0.6496 -0.0434
 2475ntf    fn416056   1.207   7.000   0.001  0.4077 -0.2821 -0.5098
 2475ntf    fn416057   1.078   6.840   0.050 -0.1269 -0.2815 -0.3943
 2475ntf    fn416058   1.006   7.014  -0.060  0.5148 -1.1596 -0.5271
 2475ntf    on516059   0.907   7.012   0.220  0.2018  0.1045  0.4386
 2475ntf    on516060   1.136   6.969   0.297  0.5029  0.1415 -0.5167
 2475ntf    on516061   0.853   7.318   0.193  0.1544 -0.2356  0.1365
 2475ntf    on516062   1.030   7.370   0.032  0.2233  0.0436 -0.0137
 2475ntf    fn416063   1.189   7.458   0.257  0.1574 -0.2923  0.1926
 2475ntf    fn416064   1.000   7.537   0.291  0.3412 -0.5806  0.1201
 2475ntf    fn416065   1.071   7.358   0.401 -0.0001 -1.1367 -0.2960
 2476ntf    cn116066   5.952   0.905   5.093  0.0709  0.0862 -0.0993
 2476ntf    sn216067   5.860   0.754   5.137 -0.2424  0.1699 -0.4573
 2476ntf    nn316068   5.842   0.699   4.991 -0.0188 -0.2910 -0.3147
 2476ntf    sn216069   5.735   0.721   4.878 -0.0818  0.0453 -0.1910
 2476ntf    cn116070   5.601   0.608   4.924 -0.0697  0.0518 -0.1380
 2476ntf    fn416071   5.879   0.974   5.007  0.4760  0.5519 -0.0741
 2476ntf    fn416072   5.990   0.990   5.187  0.5995 -0.1822 -0.0666
 2476ntf    fn416073   6.061   0.873   5.027 -0.4056  0.1854 -0.9480
 2476ntf    on516074   5.944   0.678   5.226 -0.1335  0.3857 -0.3753
 2476ntf    on516075   5.746   0.817   5.199 -0.1722 -0.5500  0.4164
 2476ntf    on516076   5.782   0.678   4.749  0.9492  0.2010  0.1239
 2476ntf    on516077   5.671   0.850   4.878  0.0585  0.1187 -0.8396
 2476ntf    fn416078   5.541   0.650   5.034 -0.4166 -0.7108 -0.0269
 2476ntf    fn416079   5.503   0.603   4.835 -0.3094 -0.7073  0.1579
 2476ntf    fn416080   5.640   0.482   4.936 -0.2701  0.0017  0.0010
 2477ntf    cn116081   3.824   4.434   1.887  0.3003 -0.2121  0.1004
 2477ntf    sn216082   3.986   4.499   1.837  0.0281  0.4096  0.0082
 2477ntf    nn316083   3.980   4.467   1.684 -0.1765 -0.0241  0.1032
 2477ntf    sn216084   4.069   4.530   1.570 -0.0360 -0.3716  0.0200
 2477ntf    cn116085   3.967   4.669   1.512  0.3505 -0.1498 -0.1297
 2477ntf    fn416086   3.724   4.494   1.824  0.3373  0.0970  0.3325
 2477ntf    fn416087   3.807   4.303   1.883 -0.4954 -0.1196  0.1768
 2477ntf    fn416088   3.796   4.465   2.012 -0.2370  0.3864 -0.1592
 2477ntf    on516089   3.979   4.638   1.876  0.1362  0.4742 -0.2035
 2477ntf    on516090   4.074   4.403   1.899 -0.2641 -0.3241 -0.6936
 2477ntf    on516091   4.076   4.439   1.459  0.2532  0.0090 -0.2758
 2477ntf    on516092   4.183   4.605   1.616 -0.6134 -0.0928  1.0200
 2477ntf    fn416093   3.868   4.635   1.431  0.1512  0.7118 -0.2495
 2477ntf    fn416094   3.907   4.719   1.618 -0.2967 -0.2510 -0.4412
 2477ntf    fn416095   4.034   4.762   1.446  0.0623  0.1365 -0.0169
 2478ntf    cn116096   7.037   6.195   0.233 -0.3730  0.1154  0.2057
 2478ntf    sn216097   7.064   6.017   0.252  0.3632  0.1587 -0.4017
 2478ntf    nn316098   7.095   6.007   0.405 -0.4920  0.2154 -0.2193
 2478ntf    sn216099   6.999   5.952   0.516 -0.3580 -0.1652 -0.2917
 2478ntf    cn116100   6.987   5.775   0.474 -0.0693 -0.3363  0.3434
 2478ntf    fn416101   6.970   6.229   0.124  0.3593 -0.2468 -0.3673
 2478ntf    fn416102   6.959   6.231   0.334 -0.3131 -0.0282  0.3038
 2478ntf    fn416103   7.147   6.269   0.242 -0.1476 -0.1946  0.0017
 2478ntf    on516104   6.940   5.962   0.204  0.3671  0.0973 -0.3412
 2478ntf    on516105   7.179   5.993   0.168  0.7256 -0.4108  0.2458
 2478ntf    on516106   6.861   5.995   0.513 -0.1367  0.5958  0.1517
 2478ntf    on516107   7.057   5.956   0.648 -0.5604  0.3079 -0.2155
 2478ntf    fn416108   6.957   5.752   0.348  0.1568  0.8622  0.0574
 2478ntf    fn416109   7.105   5.718   0.497  0.0487  0.0800  0.8165
 2478ntf    fn416110   6.903   5.706   0.550 -0.3004 -0.2396  0.1735
 2479ntf    cn116111   5.127   6.714   1.770  0.4471  0.0219  0.1445
 2479ntf    sn216112   5.073   6.540   1.772 -0.0275  0.1681  0.2903
 2479ntf    nn316113   5.172   6.480   1.666 -0.1573 -0.1588  0.3520
 2479ntf    sn216114   5.245   6.341   1.664  0.1455  0.0019  0.1053
 2479ntf    cn116115   5.230   6.311   1.485  0.1387 -0.0158  0.1088
 2479ntf    fn416116   5.081   6.770   1.659 -0.2964 -0.3064  0.2802
 2479ntf    fn416117   5.083   6.783   1.874 -0.1240  0.1559 -0.1821
 2479ntf    fn416118   5.258   6.732   1.776  0.3530  0.7822  0.0422
 2479ntf    on516119   5.090   6.495   1.908  0.6029 -0.3260  0.0536
 2479ntf    on516120   4.941   6.561   1.719  0.0524  0.4710  0.2108
 2479ntf    on516121   5.168   6.232   1.718 -0.0027 -0.2661 -0.6370
 2479ntf    on516122   5.386   6.350   1.693  0.2684  0.1812 -0.5273
 2479ntf    fn416123   5.300   6.203   1.456 -0.4537 -0.2756 -0.3545
 2479ntf    fn416124   5.107   6.276   1.453  0.0998  0.0643  0.1710
 2479ntf    fn416125   5.274   6.402   1.399 -0.4982 -0.2870 -0.5070
 2480ntf    cn116126   1.950   4.772   5.829  0.2325 -0.1049 -0.0722
 2480ntf    sn216127   1.839   4.665   5.924 -0.3861  0.4228 -0.1919
 2480ntf    nn316128   1.733   4.641   5.811 -0.1235  0.0172 -0.3561
 2480ntf    sn216129   1.676   4.504   5.758  0.2389 -0.4929  0.5411
 2480ntf    cn116130   1.532   4.579   5.675  0.3777 -0.5270  0.2705
 2480ntf    fn416131   1.992   4.715   5.717 -0.3894 -0.2856 -0.2135
 2480ntf    fn416132   1.897   4.891   5.804  0.0823 -0.0007  0.7117
 2480ntf    fn416133   2.063   4.793   5.896  0.2725 -0.1335 -0.1308
 2480ntf    on516134   1.930   4.555   5.947  0.3737  1.0303 -0.2544
 2480ntf    on516135   1.784   4.740   6.034 -0.0665  0.4402 -0.0438
 2480ntf    on516136   1.604   4.424   5.854 -0.0057 -0.5835  0.2841
 2480ntf    on516137   1.766   4.442   5.664  0.1090 -0.8020  0.6228
 2480ntf    fn416138   1.567   4.676   5.592 -0.2857 -0.2274  0.3327
 2480ntf    fn416139   1.467   4.495   5.596  0.3572 -0.0260 -0.2512
 2480ntf    fn416140   1.453   4.648   5.754 -0.0427 -0.6146 -0.0666
 2481ntf    cn116141   1.547   3.116   3.986 -0.1635  0.3440 -0.1055
 2481ntf    sn216142   1.621   3.242   4.094  0.2358  0.0510 -0.0310
 2481ntf    nn316143   1.658   3.358   3.995  0.2055 -0.0481 -0.1581
 2481ntf    sn216144   1.671   3.511   4.027 -0.1589 -0.0682  0.0903
 2481ntf    cn116145   1.830   3.555   3.951 -0.4209  0.2698 -0.2650
 2481ntf    fn416146   1.590   3.101   3.861 -0.7796 -0.4930 -0.2291
 2481ntf    fn416147   1.550   2.996   4.041 -0.4769  0.4533  0.1501
 2481ntf    fn416148   1.420   3.147   3.965 -0.2459 -0.2969 -0.5992
 2481ntf    on516149   1.514   3.267   4.187  0.2978  0.6842 -0.1243
 2481ntf    on516150   1.740   3.176   4.142  0.1301  0.3394  0.6410
 2481ntf    on516151   1.690   3.550   4.165  0.0737  0.2027 -0.0179
 2481ntf    on516152   1.573   3.590   3.957 -0.0232  0.3786  0.3992
 2481ntf    fn416153   1.839   3.539   3.820  0.0224  0.2243 -0.2307
 2481ntf    fn416154   1.860   3.679   3.986 -0.0052 -0.0594  0.5785
 2481ntf    fn416155   1.935   3.491   4.001 -1.2933 -0.7238  0.3277
 2482ntf    cn116156   2.351   2.808   6.478 -0.3919 -0.0919  0.0432
 2482ntf    sn216157   2.490   2.864   6.581  0.2410 -0.1981 -0.7378
 2482ntf    nn316158   2.535   2.987   6.494  0.2937  0.1765 -0.1866
 2482ntf    sn216159   2.638   3.103   6.517 -0.1970  0.5495  0.1628
 2482ntf    cn116160   2.792   3.018   6.470 -0.6345 -0.3067  0.2698
 2482ntf    fn416161   2.252   2.895   6.481 -0.0969  0.2583 -0.2493
 2482ntf    fn416162   2.386   2.795   6.351 -0.5796 -0.2657  0.0091
 2482ntf    fn416163   2.308   2.685   6.504 -0.0821 -0.0899  0.5884
 2482ntf    on516164   2.427   2.896   6.707  0.0656  0.2939 -0.9453
 2482ntf    on516165   2.580   2.752   6.567  0.5620 -0.1069  0.5029
 2482ntf    on516166   2.659   3.143   6.654 -0.0047  0.2382  0.2265
 2482ntf    on516167   2.625   3.206   6.417 -0.1642 -0.1067 -0.5225
 2482ntf    fn416168   2.883   3.098   6.418 -0.8934 -0.3022 -0.1808
 2482ntf    fn416169   2.846   2.961   6.576 -0.1965 -1.4852 -0.5559
 2482ntf    fn416170   2.785   2.920   6.381  0.3247 -0.6946  0.6148
 2483ntf    cn116171   0.698   6.399   0.009 -0.4312  0.3382  0.4869
 2483ntf    sn216172   0.540   6.486  -0.012 -0.5397  0.0103 -0.0504
 2483ntf    nn316173   0.562   6.538  -0.159 -0.1567 -0.1367 -0.0451
 2483ntf    sn216174   0.630   6.669  -0.211 -0.2110 -0.0325  0.1459
 2483ntf    cn116175   0.661   6.636  -0.387 -0.3762 -0.0090  0.1121
 2483ntf    fn416176   0.801   6.478   0.037  0.1878 -0.4086  0.3403
 2483ntf    fn416177   0.687   6.317   0.112  0.2965  0.2534  0.5030
 2483ntf    fn416178   0.732   6.320  -0.091  0.1108  0.7935  0.3089
 2483ntf    on516179   0.437   6.385  -0.002  0.1679 -0.6824  0.3649
 2483ntf    on516180   0.541   6.588   0.089  0.4663 -0.1382  0.0972
 2483ntf    on516181   0.761   6.676  -0.152 -0.3476 -0.4159  0.4927
 2483ntf    on516182   0.550   6.789  -0.217 -0.2049 -0.0394 -0.0913
 2483ntf    fn416183   0.552   6.599  -0.453 -0.0881  0.4218 -0.6124
 2483ntf    fn416184   0.719   6.733  -0.455 -0.2776 -0.2170 -0.1031
 2483ntf    fn416185   0.743   6.533  -0.398  0.1509  0.3930  0.2119
 2484ntf    cn116186   4.205   6.158   0.112 -0.2616 -0.1627 -0.2620
 2484ntf    sn216187   4.305   6.091  -0.025 -0.2488 -0.0204 -0.3217
 2484ntf    nn316188   4.454   6.105   0.021 -0.0239 -0.0268 -1.0417
 2484ntf    sn216189   4.557   6.212  -0.031  0.3283  0.0593 -0.1849
 2484ntf    cn116190   4.682   6.121  -0.125  0.2020 -0.3171  0.0069
 2484ntf    fn416191   4.189   6.065   0.205 -0.3307 -0.4437 -0.5558
 2484ntf    fn416192   4.247   6.267   0.175  0.0089 -0.0037 -0.7156
 2484ntf    fn416193   4.083   6.180   0.067 -0.4440  0.3212  0.4472
 2484ntf    on516194   4.270   5.952  -0.013  0.1993 -0.0759  0.4614
 2484ntf    on516195   4.247   6.164  -0.135  0.9060  0.7722 -0.4231
 2484ntf    on516196   4.619   6.278   0.082  0.0530  0.3274 -0.1881
 2484ntf    on516197   4.512   6.304  -0.132  0.0492  0.5636  0.3950
 2484ntf    fn416198   4.631   6.009  -0.175  0.2334 -0.1884 -0.3186
 2484ntf    fn416199   4.726   6.197  -0.224 -0.6521  0.0827 -0.0689
 2484ntf    fn416200   4.781   6.081  -0.047  0.0787 -0.1785  0.2328
 2485ntf    cn116201   5.402   0.761   1.800  0.1369  0.4895 -0.1860
 2485ntf    sn216202   5.294   0.752   1.654  0.1577 -0.3227 -0.1535
 2485ntf    nn316203   5.342   0.616   1.592  0.3542 -0.3361  0.0256
 2485ntf    sn216204   5.272   0.523   1.486  0.1139  0.1801 -0.2727
 2485ntf    cn116205   5.196   0.642   1.371 -0.3412 -0.0154 -0.1747
 2485ntf    fn416206   5.439   0.883   1.836 -0.3326  0.4759  0.3595
 2485ntf    fn416207   5.346   0.709   1.908 -0.3317  0.7794 -0.2874
 2485ntf    fn416208   5.513   0.692   1.778  0.2244  0.4952  0.2248
 2485ntf    on516209   5.162   0.747   1.712  0.0696  0.6798 -0.2578
 2485ntf    on516210   5.330   0.862   1.569 -0.0563 -0.3405 -0.2684
 2485ntf    on516211   5.161   0.448   1.538  0.2181  0.5687  0.5350
 2485ntf    on516212   5.358   0.454   1.393 -0.3358 -0.2994 -0.3327
 2485ntf    fn416213   5.287   0.715   1.309 -0.2855  0.0257 -0.0447
 2485ntf    fn416214   5.116   0.592   1.279  0.2207  0.0611 -0.7138
 2485ntf    fn416215   5.122   0.731   1.435  0.2368  0.3049  0.0567
 2486ntf    cn116216   0.319   6.207   1.598  0.1892 -0.0941  0.0164
 2486ntf    sn216217   0.347   6.283   1.435 -0.2257 -0.0604 -0.0398
 2486ntf    nn316218   0.333   6.153   1.348  0.0521 -0.0901 -0.0418
 2486ntf    sn216219   0.232   6.119   1.233  0.1321 -0.1361 -0.0983
 2486ntf    cn116220   0.342   6.033   1.116  0.3689  0.4596 -0.3160
 2486ntf    fn416221   0.393   6.097   1.599 -0.0057 -0.2304 -0.3045
 2486ntf    fn416222   0.368   6.282   1.695 -0.3225  0.4392 -0.1302
 2486ntf    fn416223   0.195   6.165   1.617  0.2288 -0.3448 -0.2634
 2486ntf    on516224   0.251   6.390   1.428 -0.3664 -0.1652  0.2836
 2486ntf    on516225   0.488   6.310   1.434 -0.2855  0.2758  0.3257
 2486ntf    on516226   0.189   6.235   1.159  0.3494  0.2986  0.4484
 2486ntf    on516227   0.142   6.013   1.271  0.1269 -0.2602 -0.4541
 2486ntf    fn416228   0.411   5.943   1.184 -0.2943  0.0315 -0.1946
 2486ntf    fn416229   0.282   5.980   1.011  0.4044 -0.0407 -0.0866
 2486ntf    fn416230   0.431   6.117   1.065  1.0439  0.0682  0.2067
 2487ntf    cn116231   0.640   1.456   4.942  0.0880 -0.0741 -0.4065
 2487ntf    sn216232   0.815   1.504   4.931  0.0149  0.2102 -0.3433
 2487ntf    nn316233   0.836   1.515   4.776  0.3016  0.1650 -0.3071
 2487ntf    sn216234   0.883   1.635   4.685 -0.3143  0.4537 -0.2462
 2487ntf    cn116235   0.716   1.689   4.638 -0.3439  0.0594 -0.5924
 2487ntf    fn416236   0.608   1.345   4.877 -0.5840 -0.1412  0.0264
 2487ntf    fn416237   0.592   1.455   5.065  0.0610  0.7707 -0.4018
 2487ntf    fn416238   0.570   1.552   4.882 -0.6173 -0.4989 -0.2767
 2487ntf    on516239   0.824   1.621   5.015 -0.0400  0.3952 -0.5951
 2487ntf    on516240   0.880   1.379   4.962 -0.1164  0.2915  0.2709
 2487ntf    on516241   0.935   1.586   4.560  0.2396  0.5011 -0.0356
 2487ntf    on516242   0.940   1.750   4.750  0.0907  0.4444 -0.5825
 2487ntf    fn416243   0.709   1.766   4.530 -0.2262  0.2387 -0.4723
 2487ntf    fn416244   0.628   1.592   4.617 -0.2353 -0.1436 -0.1108
 2487ntf    fn416245   0.656   1.749   4.739  0.2640  0.0654 -0.2356
 2488ntf    cn116246   2.943   1.568   1.751 -0.1477 -0.4247 -0.2081
 2488ntf    sn216247   3.115   1.518   1.780  0.0001  0.1281 -0.1101
 2488ntf    nn316248   3.189   1.604   1.672  0.2552 -0.3107 -0.2882
 2488ntf    sn216249   3.322   1.577   1.593  0.4339 -0.0936 -0.0661
 2488ntf    cn116250   3.441   1.678   1.686  0.1566  0.1136  0.0664
 2488ntf    fn416251   2.864   1.510   1.840  0.1383 -0.0157  0.3215
 2488ntf    fn416252   2.932   1.700   1.757  0.7221 -0.3510 -0.0591
 2488ntf    fn416253   2.901   1.535   1.630 -0.9714 -0.3236  0.0475
 2488ntf    on516254   3.144   1.557   1.916 -0.5827  0.1997 -0.0023
 2488ntf    on516255   3.118   1.377   1.749 -0.3702  0.2357 -0.6476
 2488ntf    on516256   3.319   1.646   1.466 -0.3093  0.5647  0.2979
 2488ntf    on516257   3.366   1.440   1.599  0.0561 -0.2550 -0.8530
 2488ntf    fn416258   3.409   1.805   1.704 -0.3390 -0.0299  0.2140
 2488ntf    fn416259   3.446   1.628   1.808  0.3001 -0.2867 -0.1009
 2488ntf    fn416260   3.563   1.688   1.635  0.4369  0.0446  0.7140
 2489ntf    cn116261   4.280   5.112   6.324 -0.1082  0.1416  0.1003
 2489ntf    sn216262   4.265   5.253   6.437  0.0859  0.1436  0.1254
 2489ntf    nn316263   4.119   5.301   6.405 -0.0012  0.3575  0.8196
 2489ntf    sn216264   3.978   5.264   6.464 -0.0441 -0.4521  0.2324
 2489ntf    cn116265   3.917   5.432   6.499  0.7169 -0.0795 -0.2012
 2489ntf    fn416266   4.242   5.143   6.201 -0.3178  0.0228  0.1347
 2489ntf    fn416267   4.407   5.074   6.319  0.1584  1.0901 -0.6315
 2489ntf    fn416268   4.203   5.009   6.354  0.3725 -0.0557  0.6666
 2489ntf    on516269   4.295   5.198   6.567 -0.1558  0.0306  0.1351
 2489ntf    on516270   4.364   5.346   6.390 -0.0370  0.3205  0.2135
 2489ntf    on516271   3.977   5.213   6.599 -0.5201 -0.5367  0.1969
 2489ntf    on516272   3.891   5.207   6.365  0.0969  0.2707 -0.3128
 2489ntf    fn416273   3.790   5.433   6.537  0.6876  0.4059 -0.3054
 2489ntf    fn416274   3.977   5.497   6.597  0.8736 -0.9347  0.2825
 2489ntf    fn416275   3.924   5.513   6.395 -0.0812  0.4883  0.1828
 2490ntf    cn116276   5.691   4.742   7.019  0.0634 -0.3326 -0.1028
 2490ntf    sn216277   5.617   4.576   7.007  0.0862 -0.3502 -0.0000
 2490ntf    nn316278   5.735   4.488   6.954  0.4100 -0.3516  0.7099
 2490ntf    sn216279   5.744   4.400   6.824  0.1547  0.1418  0.3543
 2490ntf    cn116280   5.924   4.373   6.820  0.1165 -0.0896  0.1440
 2490ntf    fn416281   5.712   4.790   6.897 -0.1118 -0.2041 -0.0814
 2490ntf    fn416282   5.614   4.828   7.084 -0.0611  0.0638 -0.7680
 2490ntf    fn416283   5.811   4.744   7.075 -0.0784 -0.2201  0.2019
 2490ntf    on516284   5.590   4.542   7.145  0.1725  0.1654  0.1479
 2490ntf    on516285   5.503   4.593   6.920 -0.3215 -0.6178  0.4789
 2490ntf    on516286   5.712   4.460   6.697  0.3178 -0.6285 -0.0596
 2490ntf    on516287   5.687   4.268   6.835  0.6665 -0.1122 -0.0192
 2490ntf    fn416288   5.990   4.472   6.761 -0.6099  0.4147  0.1485
 2490ntf    fn416289   5.977   4.349   6.939  0.2543 -0.2365  0.0523
 2490ntf    fn416290   5.949   4.262   6.753  0.4508  0.1164 -0.0778
 2491ntf    cn116291   5.474   5.505   0.852 -0.3289  0.1432  0.1867
 2491ntf    sn216292   5.410   5.664   0.790  0.2486  0.4490  0.3702
 2491ntf    nn316293   5.530   5.696   0.694 -0.0483  0.1623 -0.0953
 2491ntf    sn216294   5.540   5.670   0.539  0.1846  0.1240 -0.0740
 2491ntf    cn116295   5.489   5.834   0.481  0.0355  0.0353 -0.1970
 2491ntf    fn416296   5.553   5.518   0.957 -0.4090  0.1565  0.2461
 2491ntf    fn416297   5.369   5.435   0.891  0.0759 -0.2867  0.5038
 2491ntf    fn416298   5.538   5.439   0.757  0.0810  1.0051 -0.1522
 2491ntf    on516299   5.286   5.630   0.725  0.1995  0.1025  0.6390
 2491ntf    on516300   5.401   5.748   0.907 -0.4462  1.1438 -0.1781
 2491ntf    on516301   5.444   5.579   0.481  0.0574 -0.0206  0.3560
 2491ntf    on516302   5.676   5.661   0.493  0.1717  0.3274 -0.1537
 2491ntf    fn416303   5.442   5.823   0.358 -0.3016  0.2560 -0.0889
 2491ntf    fn416304   5.388   5.879   0.554  0.3880  0.0112  0.3101
 2491ntf    fn416305   5.577   5.933   0.493  0.0238 -0.0012  0.2231
 2492ntf    cn116306   3.501   5.372   5.474 -0.2995  0.1052 -0.3419
 2492ntf    sn216307   3.357   5.266   5.443 -0.1563 -0.1309 -0.2019
 2492ntf    nn316308   3.415   5.121   5.441 -0.3790 -0.2245  0.0384
 2492ntf    sn216309   3.407   5.011   5.329  0.0912 -0.2239  0.0033
 2492ntf    cn116310   3.477   4.878   5.432  0.0220  0.1851  0.5829
 2492ntf    fn416311   3.473   5.501   5.479  0.3696  0.2302  0.5142
 2492ntf    fn416312   3.557   5.340   5.589 -0.7267 -0.4867 -0.2964
 2492ntf    fn416313   3.601   5.371   5.386 -0.0751 -0.1124 -0.0845
 2492ntf    on516314   3.277   5.287   5.561  0.0238 -0.2920 -0.0504
 2492ntf    on516315   3.303   5.325   5.323 -0.5171  0.1030  0.0710
 2492ntf    on516316   3.507   5.008   5.225  0.3865 -0.3577  0.2861
 2492ntf    on516317   3.277   4.958   5.300 -0.0445  0.2270 -0.2149
 2492ntf    fn416318   3.518   4.780   5.353 -0.5028  0.1939  0.2927
 2492ntf    fn416319   3.587   4.919   5.493  0.1067  0.9201 -0.0460
 2492ntf    fn416320   3.394   4.827   5.521  0.2317 -0.2798  0.5132
 2493ntf    cn116321   2.928   1.332   2.186  0.1068  0.1493  0.0202
 2493ntf    sn216322   2.763   1.268   2.142  0.2956 -0.1536 -0.2553
 2493ntf    nn316323   2.688   1.266   2.280  0.5523  0.7360 -0.0939
 2493ntf    sn216324   2.566   1.353   2.326  0.0367 -0.1372  0.2218
 2493ntf    cn116325   2.431   1.288   2.223  0.3521 -0.4785  0.0215
 2493ntf    fn416326   2.928   1.452   2.241 -0.4731 -0.0925  0.5590
 2493ntf    fn416327   2.987   1.253   2.275  0.3904  0.1583 -0.1585
 2493ntf    fn416328   3.012   1.337   2.084  0.3056 -0.2873  0.1590
 2493ntf    on516329   2.717   1.373   2.055 -0.4267 -0.1564  0.1195
 2493ntf    on516330   2.776   1.138   2.081 -0.1488  0.0042 -0.6862
 2493ntf    on516331   2.573   1.492   2.288  0.5583 -0.0390  0.6832
 2493ntf    on516332   2.529   1.322   2.462  0.5188 -0.5427  0.2623
 2493ntf    fn416333   2.318   1.353   2.246  0.5919 -0.0873  0.0850
 2493ntf    fn416334   2.456   1.304   2.094 -0.3097 -0.2774 -0.0874
 2493ntf    fn416335   2.393   1.162   2.241 -0.1802 -0.2955  0.2200
 2494ntf    cn116336   2.532   5.357   0.348 -0.0907 -0.0616  0.0407
 2494ntf    sn216337   2.585   5.199   0.274  0.0531 -0.0136  0.0409
 2494ntf    nn316338   2.544   5.235   0.126 -0.3885 -0.1137  0.1356
 2494ntf    sn216339   2.511   5.130   0.015  0.1651 -0.3370  0.1795
 2494ntf    cn116340   2.671   5.120  -0.071  0.2649 -0.3226  0.3623
 2494ntf    fn416341   2.400   5.368   0.352 -0.0626  0.4545 -0.3033
 2494ntf    fn416342   2.567   5.387   0.472 -0.1538 -0.1788  0.0871
 2494ntf    fn416343   2.578   5.454   0.270  0.1617  0.1183  0.4140
 2494ntf    on516344   2.726   5.192   0.300 -0.0248  0.0019  0.4741
 2494ntf    on516345   2.496   5.114   0.349  0.1954  0.1080  0.3467
 2494ntf    on516346   2.422   5.186  -0.082 -0.6440 -1.2329  0.3835
 2494ntf    on516347   2.483   4.996   0.061 -0.9132 -0.1675  0.0408
 2494ntf    fn416348   2.768   5.062  -0.003  0.3064 -0.8136 -0.1086
 2494ntf    fn416349   2.653   5.054  -0.184 -0.0295 -0.2123  0.3451
 2494ntf    fn416350   2.712   5.243  -0.100  0.4243 -0.3459  0.4866
 2495ntf    cn116351   0.195   4.589   0.763  0.0792  0.4612  0.4294
 2495ntf    sn216352   0.346   4.530   0.845  0.1817  0.1005 -0.0102
 2495ntf    nn316353   0.391   4.659   0.923  0.1746 -0.0240  0.1984
 2495ntf    sn216354   0.441   4.682   1.070 -0.1546  0.2012  0.2770
 2495ntf    cn116355   0.620   4.712   1.056 -0.2519  0.5244 -0.3344
 2495ntf    fn416356   0.125   4.496   0.699  0.2862  0.6665 -0.1057
 2495ntf    fn416357   0.111   4.646   0.847  0.2427  0.4813  0.5778
 2495ntf    fn416358   0.220   4.666   0.658  0.1251 -0.5412 -0.3169
 2495ntf    on516359   0.288   4.425   0.925  0.3766  0.1428  0.1873
 2495ntf    on516360   0.437   4.487   0.742 -0.7290 -0.1554 -0.7170
 2495ntf    on516361   0.442   4.571   1.162  0.0023  0.0320  0.0726
 2495ntf    on516362   0.389   4.806   1.122  0.0670  0.6276 -0.4996
 2495ntf    fn416363   0.678   4.609   0.997  0.3220  0.6825 -0.0565
 2495ntf    fn416364   0.649   4.813   0.976  0.3899  0.2769 -0.4160
 2495ntf    fn416365   0.675   4.731   1.175  0.4316  0.5376 -0.6491
 2496ntf    cn116366   4.595   4.034   1.272  0.0944 -0.1180 -0.0383
 2496ntf    sn216367   4.477   4.011   1.408  0.2203 -0.3608  0.0311
 2496ntf    nn316368   4.379   3.904   1.348 -0.1245  0.0296 -0.1139
 2496ntf    sn216369   4.400   3.749   1.339  0.1701  0.0629 -0.0093
 2496ntf    cn116370   4.251   3.706   1.245  0.2329 -0.3168  0.0597
 2496ntf    fn416371   4.550   3.974   1.163 -1.2166  0.0401  0.3909
 2496ntf    fn416372   4.618   4.163   1.254  0.4325 -0.1958 -0.1640
 2496ntf    fn416373   4.719   3.994   1.295  0.0442 -0.1556  0.1662
 2496ntf    on516374   4.557   3.961   1.517 -0.0974 -0.4475  0.2259
 2496ntf    on516375   4.422   4.144   1.421  0.8169 -0.1456  0.4175
 2496ntf    on516376   4.375   3.682   1.465 -0.4009  0.1190 -0.0900
 2496ntf    on516377   4.511   3.703   1.260  0.1263  0.2294 -0.1657
 2496ntf    fn416378   4.212   3.580   1.258  0.0244 -0.2933 -0.3193
 2496ntf    fn416379   4.148   3.783   1.275  0.1180 -0.4403 -0.0160
 2496ntf    fn416380   4.274   3.720   1.115  0.4963 -0.2401  0.1154
 2497ntf    cn116381   4.060   0.718   2.382  0.0227  0.0826  0.2295
 2497ntf    sn216382   3.924   0.611   2.439 -0.0779  0.1204  0.0600
 2497ntf    nn316383   3.994   0.557   2.570  1.0022 -0.0276 -0.5662
 2497ntf    sn216384   4.041   0.414   2.613 -0.0819 -0.1083  0.4070
 2497ntf    cn116385   3.940   0.394   2.763 -0.3554 -0.3760  0.1877
 2497ntf    fn416386   4.090   0.802   2.479 -0.3082 -0.0383  0.4379
 2497ntf    fn416387   4.171   0.655   2.346 -0.1362  0.1199 -0.3349
 2497ntf    fn416388   4.021   0.792   2.280 -0.1506  0.3118  0.4606
 2497ntf    on516389   3.821   0.707   2.470 -0.3131 -0.0863 -0.0864
 2497ntf    on516390   3.889   0.517   2.337  0.1526 -0.3853  0.4401
 2497ntf    on516391   4.180   0.417   2.651  0.0660 -0.3688 -0.1085
 2497ntf    on516392   4.009   0.306   2.523  0.1117  0.1815 -0.0125
 2497ntf    fn416393   3.950   0.496   2.847 -0.5096 -0.2446  0.0489
 2497ntf    fn416394   3.813   0.396   2.726 -0.3450  0.4220  0.1650
 2497ntf    fn416395   3.957   0.280   2.827  0.1139 -0.4758 -0.1095
 2498ntf    cn116396   2.319   6.566   4.831  0.3706 -0.1506  0.0975
 2498ntf    sn216397   2.317   6.747   4.843  0.3375 -0.1233 -0.3107
 2498ntf    nn316398   2.398   6.771   4.975  0.0527 -0.3332 -0.0952
 2498ntf    sn216399   2.348   6.812   5.118 -0.2368 -0.1262 -0.2543
 2498ntf    cn116400   2.296   6.983   5.087 -0.3074 -0.0274  0.4018
 2498ntf    fn416401   2.433   6.519   4.781  0.1542 -0.1479 -0.4108
 2498ntf    fn416402   2.283   6.500   4.940 -0.6856  0.3538  0.0557
 2498ntf    fn416403   2.225   6.533   4.744  0.2337  0.8849 -0.1556
 2498ntf    on516404   2.384   6.784   4.721 -0.3896  0.5541 -0.5190
 2498ntf    on516405   2.176   6.778   4.850  0.4521  0.3362  0.0493
 2498ntf    on516406   2.461   6.821   5.206  0.0249 -0.2822 -0.5716
 2498ntf    on516407   2.228   6.745   5.161 -0.2499 -0.2214 -0.4368
 2498ntf    fn416408   2.388   7.043   5.014 -0.5422 -0.4487 -0.2540
 2498ntf    fn416409   2.182   6.997   5.021  0.2512 -0.2613 -0.6403
 2498ntf    fn416410   2.285   7.051   5.200  0.3700 -0.0488  0.4803
 2499ntf    cn116411   6.987   1.436   3.412 -0.0165 -0.2342  0.3260
 2499ntf    sn216412   6.851   1.415   3.531 -0.3533  0.2245  0.0294
 2499ntf    nn316413   6.752   1.336   3.438 -0.5628  0.3053  0.1840
 2499ntf    sn216414   6.694   1.190   3.439 -0.0241  0.0832 -0.2994
 2499ntf    cn116415   6.524   1.225   3.493  0.0683 -0.1886  0.1711
 2499ntf    fn416416   6.948   1.512   3.311  0.2327  0.3482  0.6641
 2499ntf    fn416417   7.103   1.482   3.455  0.2489  0.1820 -0.8033
 2499ntf    fn416418   7.028   1.319   3.365  0.4073  0.1503 -0.2783
 2499ntf    on516419   6.900   1.347   3.648  0.2679 -0.2907 -0.5204
 2499ntf    on516420   6.813   1.553   3.544  1.1059  0.5626  0.9217
 2499ntf    on516421   6.745   1.099   3.538 -0.9742 -0.4483 -0.2837
 2499ntf    on516422   6.666   1.138   3.307 -0.0353  0.4901 -0.4614
 2499ntf    fn416423   6.498   1.246   3.621  0.0335 -0.3857  0.1972
 2499ntf    fn416424   6.469   1.321   3.421  0.1651  0.1167  0.5035
 2499ntf    fn416425   6.436   1.130   3.464 -0.4039  0.2801  0.0460
 2500ntf    cn116426   2.174   3.970   5.257  0.3120 -0.5585  0.3679
 2500ntf    sn216427   2.271   4.103   5.333 -0.3055 -0.2748  0.6696
 2500ntf    nn316428   2.408   4.032   5.366 -0.0240  0.1502  0.4248
 2500ntf    sn216429   2.543   4.039   5.287 -0.1602 -0.1942  0.1607
 2500ntf    cn116430   2.605   3.870   5.313  0.0988 -0.1779 -0.3394
 2500ntf    fn416431   2.161   3.866   5.338 -0.8080 -0.6251  0.1257
 2500ntf    fn416432   2.054   4.010   5.217  0.4601 -0.1754  0.3060
 2500ntf    fn416433   2.236   3.930   5.147  0.2689  0.2025  0.0615
 2500ntf    on516434   2.291   4.210   5.238  0.5635 -0.2114  0.9097
 2500ntf    on516435   2.207   4.137   5.457 -0.0439  0.3203  0.6431
 2500ntf    on516436   2.647   4.113   5.354  0.1128 -0.7600  0.3698
 2500ntf    on516437   2.523   4.052   5.145  0.6343 -0.5753  0.0056
 2500ntf    fn416438   2.574   3.824   5.433 -0.4156 -0.2902 -0.5166
 2500ntf    fn416439   2.552   3.783   5.229 -0.1393 -0.1127 -0.2555
 2500ntf    fn416440   2.737   3.863   5.298  0.0627 -0.1039 -0.7030
 2501ntf    cn116441   1.196   4.136   0.964 -0.2989  0.4294  0.2761
 2501ntf    sn216442   1.334   4.160   0.847 -0.2246 -0.6730  0.1250
 2501ntf    nn316443   1.412   4.282   0.908 -0.3195 -0.3503 -0.3899
 2501ntf    sn216444   1.565   4.320   0.908 -0.4939  0.3530 -0.5693
 2501ntf    cn116445   1.552   4.474   0.812 -0.2414  0.4545 -0.4402
 2501ntf    fn416446   1.247   4.123   1.085  0.0722 -0.1929  0.0589
 2501ntf    fn416447   1.109   4.236   0.965 -0.7588  0.0298  0.4178
 2501ntf    fn416448   1.127   4.030   0.926  0.2252  0.3810 -0.5668
 2501ntf    on516449   1.413   4.041   0.860  0.0816 -0.4264  0.5447
 2501ntf    on516450   1.268   4.196   0.724  0.1076  0.0644  0.1588
 2501ntf    on516451   1.653   4.234   0.833  0.2546 -0.2247  0.9463
 2501ntf    on516452   1.610   4.366   1.036 -0.8238  0.0195 -0.3308
 2501ntf    fn416453   1.467   4.562   0.861 -0.0064  0.0409  0.7343
 2501ntf    fn416454   1.659   4.548   0.787  0.3223 -0.2094 -0.0026
 2501ntf    fn416455   1.511   4.443   0.690 -0.1317  0.4839 -0.4845
 2502ntf    cn116456   5.651   1.015   0.431  0.0172 -0.2067 -0.0148
 2502ntf    sn216457   5.669   0.886   0.557  0.3204 -0.4787 -0.3308
 2502ntf    nn316458   5.644   0.756   0.472 -0.1143 -0.3320 -0.4284
 2502ntf    sn216459   5.742   0.635   0.453 -0.1456 -0.3147 -0.7065
 2502ntf    cn116460   5.851   0.690   0.319  0.3874  0.3834  0.0012
 2502ntf    fn416461   5.532   1.004   0.375 -0.1431 -0.0637  0.3003
 2502ntf    fn416462   5.657   1.137   0.481 -0.1374 -0.0878 -0.2833
 2502ntf    fn416463   5.733   1.014   0.327  0.0727  0.1041  0.0256
 2502ntf    on516464   5.803   0.913   0.603 -0.2893  1.0024  0.6724
 2502ntf    on516465   5.561   0.918   0.648  0.2572 -0.2461 -0.4888
 2502ntf    on516466   5.680   0.523   0.387 -0.0044 -0.4878 -0.5458
 2502ntf    on516467   5.828   0.612   0.567 -0.5466 -0.2141 -0.3813
 2502ntf    fn416468   5.951   0.766   0.361  0.4122  0.1239  0.4159
 2502ntf    fn416469   5.900   0.582   0.260 -0.6963 -0.2260  0.1989
 2502ntf    fn416470   5.786   0.757   0.225 -0.0976 -0.0115  0.0499
 2503ntf    cn116471   3.628   6.663   5.210  0.3274  0.2207  0.5968
 2503ntf    sn216472   3.517   6.519   5.221  0.0321  0.4300  0.3623
 2503ntf    nn316473   3.572   6.459   5.356  0.8879 -0.0957 -0.2053
 2503ntf    sn216474   3.515   6.461   5.502  0.1884 -0.2181 -0.4705
 2503ntf    cn116475   3.640   6.367   5.594  0.0172  0.1117  0.1099
 2503ntf    fn416476   3.608   6.755   5.303 -0.4913  0.8171 -0.1529
 2503ntf    fn416477   3.758   6.638   5.215  0.4399  0.4931 -0.6556
 2503ntf    fn416478   3.612   6.728   5.097 -0.1295  0.3828  0.7534
 2503ntf    on516479   3.386   6.578   5.222 -0.5166 -0.7304 -0.4886
 2503ntf    on516480   3.562   6.443   5.107  0.2186  0.9377  0.0960
 2503ntf    on516481   3.394   6.387   5.526  0.4359 -0.5320 -0.1662
 2503ntf    on516482   3.516   6.593   5.561 -0.6368 -0.0788 -0.7514
 2503ntf    fn416483   3.754   6.434   5.586 -0.3206  0.7023  0.2316
 2503ntf    fn416484   3.616   6.345   5.722  0.3071 -0.3210  0.0933
 2503ntf    fn416485   3.671   6.246   5.549  0.5196  0.4217 -0.3981
 2504ntf    cn116486   2.720   6.621   4.051  0.1672  0.2100  0.0472
 2504ntf    sn216487   2.838   6.618   4.190 -0.2908 -0.1294  0.4335
 2504ntf    nn316488   2.847   6.463   4.210 -0.2718 -0.2420 -0.3978
 2504ntf    sn216489   2.965   6.372   4.159  0.0474 -0.1577  0.1738
 2504ntf    cn116490   2.855   6.228   4.140 -0.0259 -0.0640 -0.1136
 2504ntf    fn416491   2.762   6.562   3.941  0.3882  0.1122  0.1822
 2504ntf    fn416492   2.606   6.560   4.081 -0.0366  0.4544 -0.2303
 2504ntf    fn416493   2.694   6.746   4.018 -0.5246  0.0740  0.0539
 2504ntf    on516494   2.953   6.690   4.143 -0.5347  0.0562  0.1176
 2504ntf    on516495   2.764   6.686   4.293  0.0374 -0.4239  0.8667
 2504ntf    on516496   3.060   6.323   4.255 -0.3980  0.0241  0.7120
 2504ntf    on516497   3.012   6.381   4.023  0.2811  0.3510  0.2866
 2504ntf    fn416498   2.749   6.247   4.062  0.2617 -0.3736 -0.5814
 2504ntf    fn416499   2.925   6.132   4.083 -0.0702  0.1947 -0.6097
 2504ntf    fn416500   2.802   6.185   4.253  0.0048 -0.0183 -0.0823
 2505ntf    cn116501   0.116   1.290   1.355  0.6441 -0.2490 -0.0212
 2505ntf    sn216502   0.136   1.378   1.513  0.3658 -0.1082 -0.0641
 2505ntf    nn316503   0.046   1.281   1.597  0.3910 -0.7978 -0.8161
 2505ntf    sn216504  -0.107   1.298   1.628  0.6324 -0.1393  0.0480
 2505ntf    cn116505  -0.094   1.366   1.797 -0.1230 -0.0649  0.0795
 2505ntf    fn416506   0.184   1.360   1.267  0.0412  0.0296 -0.2748
 2505ntf    fn416507   0.168   1.168   1.361 -0.2318 -0.6605 -0.6147
 2505ntf    fn416508  -0.007   1.277   1.308  0.2012  0.8667  0.7786
 2505ntf    on516509   0.277   1.367   1.538  0.3565  0.0632  0.0632
 2505ntf    on516510   0.094   1.515   1.491 -0.1251 -0.1637  0.4945
 2505ntf    on516511  -0.167   1.169   1.651 -0.2043  0.3009  0.3908
 2505ntf    on516512  -0.192   1.397   1.566  0.3209 -0.1935  0.3841
 2505ntf    fn416513  -0.206   1.400   1.859 -0.2040 -0.5149  0.1819
 2505ntf    fn416514  -0.024   1.277   1.866 -0.3115  0.0601  0.4341
 2505ntf    fn416515  -0.020   1.476   1.793 -0.1480 -0.0345  0.4810
 2506ntf    cn116516   6.103   0.505   2.323  0.1034 -0.8375  0.3559
 2506ntf    sn216517   5.947   0.489   2.413  0.1989 -0.3018  0.6190
 2506ntf    nn316518   5.995   0.392   2.527  0.2316 -0.6193  0.3353
 2506ntf    sn216519   5.947   0.252   2.579 -0.1669 -0.4000  0.5647
 2506ntf    cn116520   6.107   0.170   2.605  0.3298  0.3757 -0.0264
 2506ntf    fn416521   6.188   0.579   2.392 -0.4581 -0.0185  0.1838
 2506ntf    fn416522   6.156   0.385   2.302  0.0616 -0.8121  0.1004
 2506ntf    fn416523   6.090   0.566   2.206  0.4605 -0.0843  0.7046
 2506ntf    on516524   5.921   0.625   2.453  0.0680 -0.1517  0.0288
 2506ntf    on516525   5.863   0.428   2.313  1.0519 -0.1605 -0.1875
 2506ntf    on516526   5.878   0.170   2.482 -0.5280  0.2920  0.2302
 2506ntf    on516527   5.890   0.270   2.710 -0.0941 -0.0759  0.5514
 2506ntf    fn416528   6.192   0.177   2.503  0.4347 -0.5943 -0.0177
 2506ntf    fn416529   6.160   0.219   2.716  0.4856 -0.4026  0.2532
 2506ntf    fn416530   6.089   0.040   2.618 -0.1768  0.3849 -0.5973
 2507ntf    cn116531   5.857   5.110   0.361  0.3100  0.1707  0.1958
 2507ntf    sn216532   5.854   5.080   0.541 -0.0971  0.0998  0.1775
 2507ntf    nn316533   5.787   4.938   0.541 -0.3245  0.2050 -0.1161
 2507ntf    sn216534   5.637   4.901   0.568 -0.1786 -0.0161  0.4112
 2507ntf    cn116535   5.637   4.858   0.744 -0.0107 -0.2265  0.3601
 2507ntf    fn416536   5.743   5.093   0.297  0.5573  0.2707 -0.2728
 2507ntf    fn416537   5.889   5.235   0.332  0.1320  0.1409 -0.1206
 2507ntf    fn416538   5.937   5.028   0.295  0.0605 -0.2026  0.3533
 2507ntf    on516539   5.994   5.076   0.573 -0.0400 -0.3915 -0.1310
 2507ntf    on516540   5.779   5.192   0.593 -0.1563  0.1895 -0.0951
 2507ntf    on516541   5.611   4.777   0.498 -0.4240  0.0481  0.3892
 2507ntf    on516542   5.546   5.010   0.542  0.2328  0.1749 -0.2778
 2507ntf    fn416543   5.687   4.952   0.823  0.6779 -0.5266  0.2961
 2507ntf    fn416544   5.512   4.833   0.779  0.0034  0.1358  0.6802
 2507ntf    fn416545   5.699   4.742   0.764  0.5898  0.0602  0.1940
 2508ntf    cn116546   2.190   1.394   3.863 -0.4212  0.1125 -0.0670
 2508ntf    sn216547   2.164   1.531   3.979  0.1301 -0.1943  0.4314
 2508ntf    nn316548   2.235   1.454   4.096 -0.1679 -0.7699  0.2363
 2508ntf    sn216549   2.213   1.480   4.249 -0.1201 -0.1697  0.1443
 2508ntf    cn116550   2.346   1.601   4.277 -0.0267 -0.2503  0.0486
 2508ntf    fn416551   2.140   1.281   3.911 -0.7220  0.2154 -0.1390
 2508ntf    fn416552   2.140   1.423   3.744 -0.2267  0.0317 -0.1700
 2508ntf    fn416553   2.320   1.376   3.843 -0.4347 -0.1719  0.0883
 2508ntf    on516554   2.240   1.644   3.930 -0.5439  0.4504  0.8445
 2508ntf    on516555   2.024   1.559   3.998  0.1537  0.2066  0.0488
 2508ntf    on516556   2.245   1.360   4.323 -0.0270  0.6785  1.5170
 2508ntf    on516557   2.098   1.559   4.285 -0.0550 -0.0956  0.1903
 2508ntf    fn416558   2.462   1.558   4.230  0.3327 -0.0133  0.7008
 2508ntf    fn416559   2.310   1.717   4.224 -0.5204 -0.1890  0.5141
 2508ntf    fn416560   2.364   1.627   4.405 -0.1979 -0.0250  0.0279
 2509ntf    cn116561   6.355   3.673   6.910 -0.0011  0.0884  0.1531
 2509ntf    sn216562   6.298   3.630   7.078 -0.2643 -0.1115  0.0128
 2509ntf    nn316563   6.340   3.479   7.082  0.0213 -0.0407 -0.2464
 2509ntf    sn216564   6.360   3.391   7.211  0.1394  0.2374 -0.0729
 2509ntf    cn116565   6.536   3.410   7.251  0.0832  0.3418  0.1289
 2509ntf    fn416566   6.359   3.801   6.878 -0.9204  0.0908  0.0234
 2509ntf    fn416567   6.478   3.629   6.891 -0.1207 -0.1566 -0.0490
 2509ntf    fn416568   6.286   3.609   6.818 -0.3340  0.5560  0.0730
 2509ntf    on516569   6.375   3.726   7.153 -0.0337  0.0465 -0.4181
 2509ntf    on516570   6.156   3.643   7.058 -0.2611 -0.2296 -0.0928
 2509ntf    on516571   6.358   3.251   7.175  0.3313  0.1560  0.2344
 2509ntf    on516572   6.287   3.432   7.328 -0.4561 -0.5130 -0.1752
 2509ntf    fn416573   6.614   3.395   7.144 -0.1925  0.4627 -0.0905
 2509ntf    fn416574   6.570   3.530   7.293 -0.0969  0.4798 -0.1181
 2509ntf    fn416575   6.570   3.320   7.341 -0.2715 -0.1739 -0.2434
 2510ntf    cn116576   0.473   0.072   3.212 -0.0250 -0.2583  0.2897
 2510ntf    sn216577   0.512  -0.089   3.288  0.4630 -0.1825  0.1974
 2510ntf    nn316578   0.414  -0.075   3.409  0.4698 -0.9391  0.2948
 2510ntf    sn216579   0.454  -0.029   3.554  0.3269  0.1957 -0.0180
 2510ntf    cn116580   0.291  -0.060   3.628  0.1775  0.2325 -0.3292
 2510ntf    fn416581   0.371   0.060   3.128 -0.0048 -0.1491  0.2491
 2510ntf    fn416582   0.444   0.177   3.287 -0.0853  0.0976 -0.2246
 2510ntf    fn416583   0.576   0.113   3.140 -0.1813 -0.2171  0.0866
 2510ntf    on516584   0.470  -0.189   3.193 -0.0149  0.2983 -0.1037
 2510ntf    on516585   0.653  -0.075   3.318  0.3950  0.6134  0.1846
 2510ntf    on516586   0.476   0.114   3.563 -0.0024  0.2149  0.5148
 2510ntf    on516587   0.541  -0.118   3.626 -0.1440  0.1182  0.4591
 2510ntf    fn416588   0.188   0.002   3.573  0.4680  0.3937 -0.6923
 2510ntf    fn416589   0.274  -0.191   3.628  0.5361  0.1827  0.1804
 2510ntf    fn416590   0.297  -0.033   3.758 -0.4404  0.6708 -0.3853
 2511ntf    cn116591   1.485   6.064   4.598  0.2214 -0.0988  0.1206
 2511ntf    sn216592   1.532   6.227   4.665  0.1078 -0.0212  0.0138
 2511ntf    nn316593   1.409   6.280   4.747  0.0379 -0.2025  0.0264
 2511ntf    sn216594   1.332   6.417   4.746  0.0395 -0.2014  0.1248
 2511ntf    cn116595   1.284   6.443   4.919  0.1210 -0.3299  0.1672
 2511ntf    fn416596   1.468   5.977   4.695  0.0788 -0.0124  0.1747
 2511ntf    fn416597   1.371   6.063   4.530  0.4063  0.3533 -0.2042
 2511ntf    fn416598   1.575   6.008   4.519 -0.3530  0.2067 -0.7721
 2511ntf    on516599   1.641   6.193   4.753  0.2011  0.4333  0.0719
 2511ntf    on516600   1.555   6.305   4.546 -0.2005  0.4516  0.2606
 2511ntf    on516601   1.203   6.388   4.689  0.1911  0.3019 -0.4859
 2511ntf    on516602   1.404   6.537   4.711 -0.2790 -0.0135  0.1104
 2511ntf    fn416603   1.224   6.561   4.926  0.2288 -0.2659  0.0105
 2511ntf    fn416604   1.195   6.359   4.970 -0.5707  0.2572 -0.0543
 2511ntf    fn416605   1.380   6.457   5.008  0.3373  0.7949 -0.2228
 2512ntf    cn116606   5.144   2.207   5.208 -0.3855 -0.1670  0.2798
 2512ntf    sn216607   5.219   2.257   5.050  0.0355 -0.0525  0.5150
 2512ntf    nn316608   5.181   2.132   4.963 -0.0119  0.4640 -0.2156
 2512ntf    sn216609   5.266   2.010   4.913  0.0807  0.5430 -0.2515
 2512ntf    cn116610   5.327   2.077   4.755 -0.0201 -0.1375 -0.5851
 2512ntf    fn416611   5.189   2.088   5.244  0.3053  0.0741  0.2304
 2512ntf    fn416612   5.179   2.297   5.298 -0.0651 -0.0634  0.0545
 2512ntf    fn416613   5.012   2.202   5.208 -0.3989  0.1041  0.8788
 2512ntf    on516614   5.141   2.371   5.008  0.2919  0.0667  0.3599
 2512ntf    on516615   5.361   2.272   5.067  0.1172 -0.7537  0.4738
 2512ntf    on516616   5.174   1.906   4.874 -0.1397  0.5637  0.2122
 2512ntf    on516617   5.378   1.954   4.985 -0.4731 -0.1175  0.1059
 2512ntf    fn416618   5.412   2.177   4.776 -0.1990 -0.2066  0.5215
 2512ntf    fn416619   5.394   1.988   4.684 -0.1309 -0.5472 -0.1836
 2512ntf    fn416620   5.233   2.123   4.675 -0.1163 -0.1160 -0.4601
 2513ntf    cn116621   4.073   6.855   6.818 -0.2239  0.0685  0.0523
 2513ntf    sn216622   4.119   6.793   6.653 -0.2228 -0.0425  0.0947
 2513ntf    nn316623   3.996   6.853   6.576 -0.2888 -0.1189  0.1410
 2513ntf    sn216624   3.853   6.788   6.564 -0.2734 -0.0575 -0.3671
 2513ntf    cn116625   3.846   6.713   6.398  0.3471 -0.2195 -0.3211
 2513ntf    fn416626   3.973   6.782   6.865  0.0739 -0.4585 -0.1218
 2513ntf    fn416627   4.177   6.851   6.900 -0.0859 -0.1356 -0.1308
 2513ntf    fn416628   4.029   6.980   6.826 -0.4389 -0.0483  0.6817
 2513ntf    on516629   4.238   6.865   6.616  0.0585 -0.3229  0.4413
 2513ntf    on516630   4.127   6.649   6.660  0.2298 -0.0817 -1.0060
 2513ntf    on516631   3.742   6.879   6.571 -0.2763 -0.1440  0.8526
 2513ntf    on516632   3.830   6.675   6.651 -0.4796 -0.0872 -0.4584
 2513ntf    fn416633   3.956   6.649   6.361  0.0322 -0.5601 -0.6610
 2513ntf    fn416634   3.743   6.634   6.376  0.2385  0.1057 -0.9958
 2513ntf    fn416635   3.841   6.806   6.303  0.3401  0.1383  0.0256
 2514ntf    cn116636   2.419   4.037   2.639 -0.0433 -0.1143  0.0295
 2514ntf    sn216637   2.279   4.087   2.744 -0.2714  0.1940 -0.4195
 2514ntf    nn316638   2.290   3.973   2.852 -0.0763  0.4895 -0.1237
 2514ntf    sn216639   2.190   3.929   2.964  0.0561  0.2127 -0.1132
 2514ntf    cn116640   2.113   3.778   2.898  0.2493  0.2009 -0.3123
 2514ntf    fn416641   2.527   4.008   2.709  0.2055 -0.7607 -0.6115
 2514ntf    fn416642   2.399   3.929   2.565  0.3356 -0.3891  0.3233
 2514ntf    fn416643   2.448   4.133   2.554  0.1397  0.0709  0.2970
 2514ntf    on516644   2.322   4.215   2.795 -0.0896 -0.1257  0.2430
 2514ntf    on516645   2.163   4.082   2.659 -0.2502 -0.6497 -0.4020
 2514ntf    on516646   2.083   4.021   2.993  0.3442  0.4453  0.2299
 2514ntf    on516647   2.261   3.880   3.080 -0.2012  0.8670  0.3308
 2514ntf    fn416648   2.207   3.687   2.878  0.2306  0.1529 -0.1800
 2514ntf    fn416649   2.024   3.721   2.977 -0.0033  0.5317 -0.3533
 2514ntf    fn416650   2.052   3.800   2.783  0.4431 -0.1202 -0.4774
 2515ntf    cn116651   2.337   4.943   4.118 -0.4853 -0.2788 -0.0234
 2515ntf    sn216652   2.340   4.776   4.045 -0.4633 -0.4389  0.3457
 2515ntf    nn316653   2.389   4.805   3.899 -0.4489  0.6111  0.5528
 2515ntf    sn216654   2.313   4.857   3.771 -0.2121 -0.3716  0.0078
 2515ntf    cn116655   2.336   4.723   3.650  0.0777 -0.1413 -0.1905
 2515ntf    fn416656   2.449   5.012   4.105 -0.5588 -0.1426  0.0695
 2515ntf    fn416657   2.239   5.014   4.063 -0.1467 -0.0841 -0.3830
 2515ntf    fn416658   2.317   4.942   4.248  0.2208  0.0890  0.0916
 2515ntf    on516659   2.450   4.712   4.113 -0.1896  0.2593  0.5696
 2515ntf    on516660   2.200   4.741   4.058 -0.4488 -0.3240  0.8588
 2515ntf    on516661   2.381   4.974   3.722 -0.1141 -0.3806  0.1217
 2515ntf    on516662   2.170   4.869   3.787 -0.1265  0.2222  0.3580
 2515ntf    fn416663   2.254   4.735   3.547 -0.0604  0.1988 -0.0426
 2515ntf    fn416664   2.460   4.700   3.612  0.1492 -0.0939  0.0140
 2515ntf    fn416665   2.295   4.615   3.714 -0.6731  0.2391 -0.0167
 2516ntf    cn116666   2.082   0.106   1.342  0.1446  0.3566 -0.3775
 2516ntf    sn216667   2.095   0.096   1.523 -0.1063  0.2951 -0.3624
 2516ntf    nn316668   2.203   0.206   1.551 -0.2949  0.3148  0.3039
 2516ntf    sn216669   2.182   0.355   1.596 -0.1034  0.3401  0.3113
 2516ntf    cn116670   2.171   0.330   1.775 -0.2969 -0.2394  0.2237
 2516ntf    fn416671   2.191   0.073   1.275  0.2501 -0.3681  0.1489
 2516ntf    fn416672   1.980   0.035   1.296  0.3706 -0.1463 -0.1119
 2516ntf    fn416673   2.057   0.233   1.315 -0.2428  0.3318 -0.1436
 2516ntf    on516674   1.964   0.128   1.574 -0.0864  0.3823 -0.3663
 2516ntf    on516675   2.148  -0.037   1.545  0.0253  0.5111  0.6484
 2516ntf    on516676   2.062   0.417   1.546 -0.5112 -0.7677 -0.1289
 2516ntf    on516677   2.305   0.429   1.581 -0.1135  0.3810  0.4357
 2516ntf    fn416678   2.204   0.437   1.847  0.3364  0.1205 -0.5907
 2516ntf    fn416679   2.047   0.293   1.802 -0.5319  0.2543 -0.1607
 2516ntf    fn416680   2.251   0.235   1.819 -0.1458 -0.1531  0.1352
 2517ntf    cn116681   4.727   1.850   5.885 -0.6534  0.0191 -0.0034
 2517ntf    sn216682   4.678   1.896   6.054  0.0432  0.5246  0.0667
 2517ntf    nn316683   4.524   1.865   6.063  0.1519 -0.2096 -0.4722
 2517ntf    sn216684   4.463   1.735   6.126  0.1589  0.0749  0.1350
 2517ntf    cn116685   4.446   1.783   6.300  0.2059 -0.1175  0.1925
 2517ntf    fn416686   4.679   1.943   5.804 -0.5803  0.0229 -0.0426
 2517ntf    fn416687   4.859   1.854   5.877 -0.6442 -0.3581 -0.0312
 2517ntf    fn416688   4.687   1.729   5.851 -0.4163  0.0747 -0.4943
 2517ntf    on516689   4.767   1.844   6.154  0.3727  0.1963 -0.3962
 2517ntf    on516690   4.689   2.039   6.040  0.4492  0.4235 -0.7261
 2517ntf    on516691   4.555   1.624   6.123  0.3097  0.2044 -0.0365
 2517ntf    on516692   4.327   1.702   6.090  0.1676  0.1783  0.0072
 2517ntf    fn416693   4.351   1.709   6.357 -0.5446  0.3783 -0.3959
 2517ntf    fn416694   4.547   1.766   6.384  0.2305 -0.3347  0.1199
 2517ntf    fn416695   4.405   1.908   6.309  1.0708  0.1923 -0.1587
 2518ntf    cn116696   4.472   3.370   5.125  0.1653  0.1701 -0.4612
 2518ntf    sn216697   4.314   3.457   5.098 -0.2206 -0.3969 -0.0359
 2518ntf    nn316698   4.315   3.569   5.207 -0.3374 -0.3436 -0.0909
 2518ntf    sn216699   4.307   3.554   5.363  0.2180 -0.1579 -0.0403
 2518ntf    cn116700   4.472   3.610   5.414 -0.1124  0.6577  0.1437
 2518ntf    fn416701   4.451   3.274   5.214  0.3745  0.0344 -0.5566
 2518ntf    fn416702   4.505   3.298   5.019 -0.3207 -0.4369 -0.2049
 2518ntf    fn416703   4.580   3.443   5.149  0.2627  0.0689 -0.5927
 2518ntf    on516704   4.334   3.524   4.972 -0.3984 -0.2991 -0.0117
 2518ntf    on516705   4.200   3.370   5.106 -0.3393 -0.2642 -0.3055
 2518ntf    on516706   4.289   3.423   5.421  0.5061  0.0606  0.5589
 2518ntf    on516707   4.218   3.656   5.414  0.0341  0.1840 -1.0311
 2518ntf    fn416708   4.476   3.629   5.545  0.0585  0.4379  0.1716
 2518ntf    fn416709   4.563   3.518   5.391 -0.1189  0.6385  0.1927
 2518ntf    fn416710   4.511   3.724   5.359  0.1269  0.4725 -0.0684
 2519ntf    cn116711   6.463   4.523   5.021  0.3052 -0.5371  0.7649
 2519ntf    sn216712   6.344   4.653   4.974  0.4976 -0.5766  0.1700
 2519ntf    nn316713   6.302   4.692   5.120 -1.0997 -0.1229 -0.3882
 2519ntf    sn216714   6.318   4.829   5.195 -0.0463 -0.5834  0.2515
 2519ntf    cn116715   6.163   4.913   5.153  0.2456 -0.1713 -0.0113
 2519ntf    fn416716   6.500   4.453   4.916  0.0978  0.2529  0.1585
 2519ntf    fn416717   6.569   4.572   5.084  0.7507  0.0790 -0.4355
 2519ntf    fn416718   6.406   4.444   5.111 -0.6268  0.1519  0.8042
 2519ntf    on516719   6.407   4.754   4.893 -0.1158 -0.0390  0.3629
 2519ntf    on516720   6.234   4.584   4.911 -0.1175  0.0805  0.5141
 2519ntf    on516721   6.412   4.917   5.130 -0.0619 -0.4539  0.4038
 2519ntf    on516722   6.329   4.828   5.339  0.0335 -0.4690  0.2458
 2519ntf    fn416723   6.058   4.834   5.171  0.0932  0.0039 -0.1162
 2519ntf    fn416724   6.150   5.024   5.223  0.3412 -0.6313  0.7474
 2519ntf    fn416725   6.158   4.950   5.026 -0.0740  0.2138  0.1102
 2520ntf    cn116726   4.449   3.594   6.500  0.3408  0.0954 -0.1958
 2520ntf    sn216727   4.398   3.652   6.665 -0.0696 -0.5227 -0.1014
 2520ntf    nn316728   4.346   3.511   6.712  0.1602 -0.2214  1.1036
 2520ntf    sn216729   4.197   3.464   6.729 -0.1392  0.1488 -0.2970
 2520ntf    cn116730   4.211   3.282   6.722  0.0046  0.1419  0.1365
 2520ntf    fn416731   4.525   3.693   6.457  0.0121  0.5336  0.2233
 2520ntf    fn416732   4.522   3.484   6.504 -0.0183 -0.1569 -0.5322
 2520ntf    fn416733   4.345   3.581   6.419 -0.0935  0.1576  0.3406
 2520ntf    on516734   4.518   3.695   6.733 -0.0856 -0.3954 -0.1537
 2520ntf    on516735   4.302   3.757   6.643  0.2246 -0.2169  0.0629
 2520ntf    on516736   4.110   3.496   6.619  0.3656  0.5601 -0.5798
 2520ntf    on516737   4.148   3.493   6.861 -0.0703 -0.2556 -0.1811
 2520ntf    fn416738   4.295   3.246   6.626 -0.4684 -0.1701 -0.1607
 2520ntf    fn416739   4.261   3.230   6.833 -0.4382  0.0928  0.3138
 2520ntf    fn416740   4.097   3.218   6.710 -0.2106  0.5173  0.1509
 2521ntf    cn116741   2.228   0.696   3.110 -0.1761  0.0044 -0.0050
 2521ntf    sn216742   2.125   0.547   3.104 -0.2595  0.0480  0.3284
 2521ntf    nn316743   1.981   0.592   3.149 -0.3053  0.3498 -0.1211
 2521ntf    sn216744   1.923   0.600   3.294 -0.0243 -0.0335  0.0130
 2521ntf    cn116745   1.785   0.711   3.253 -0.3901 -0.3832  0.2886
 2521ntf    fn416746   2.355   0.677   3.077 -0.0265  0.2024  0.4464
 2521ntf    fn416747   2.179   0.782   3.023  0.9171  0.3870 -0.2674
 2521ntf    fn416748   2.232   0.744   3.233 -0.7341  0.2653 -0.0857
 2521ntf    on516749   2.120   0.516   2.963 -0.5054 -0.3293  0.4167
 2521ntf    on516750   2.202   0.460   3.189  0.2203 -0.3098 -0.4626
 2521ntf    on516751   2.000   0.675   3.391  0.0930  0.5520 -0.5261
 2521ntf    on516752   1.852   0.485   3.343 -0.1589 -0.0799 -0.2928
 2521ntf    fn416753   1.836   0.832   3.237 -0.0286 -0.5278  0.3468
 2521ntf    fn416754   1.726   0.674   3.140 -0.1876  0.3969 -0.0766
 2521ntf    fn416755   1.697   0.716   3.351 -0.5271 -0.0050  0.1455
 2522ntf    cn116756   3.531   3.630   0.753  0.3642  0.2928  0.0622
 2522ntf    sn216757   3.409   3.764   0.737  0.0078 -0.0538 -0.1266
 2522ntf    nn316758   3.487   3.890   0.787 -0.3399  0.2536 -0.3494
 2522ntf    sn216759   3.633   3.933   0.746 -0.0181 -0.4711  0.0267
 2522ntf    cn116760   3.617   4.110   0.782 -0.2236 -0.4621 -0.1081
 2522ntf    fn416761   3.568   3.599   0.876  0.4819 -0.0158 -0.0493
 2522ntf    fn416762   3.490   3.511   0.711  0.3447  0.2314  0.2536
 2522ntf    fn416763   3.641   3.661   0.687  0.3382 -0.6461 -0.4437
 2522ntf    on516764   3.366   3.765   0.599 -0.5597 -0.4638  0.0424
 2522ntf    on516765   3.307   3.719   0.829 -0.2868 -0.3121 -0.5713
 2522ntf    on516766   3.659   3.922   0.605  1.2594  0.2741  0.1915
 2522ntf    on516767   3.728   3.882   0.842 -0.0956 -0.2641  0.2146
 2522ntf    fn416768   3.543   4.176   0.694 -0.2499 -0.2391  0.0810
 2522ntf    fn416769   3.565   4.136   0.901  0.2231 -0.4664  0.0892
 2522ntf    fn416770   3.737   4.166   0.779 -0.1974 -0.4739  0.5802
 2523ntf    cn116771   6.876   4.177   2.544  0.0720  0.1528 -0.4999
 2523ntf    sn216772   6.939   4.335   2.609 -0.0160 -0.1439  0.3191
 2523ntf    nn316773   6.894   4.433   2.495 -0.2221  0.2201  0.7120
 2523ntf    sn216774   6.759   4.513   2.487  0.0729  0.6690  0.1041
 2523ntf    cn116775   6.805   4.688   2.505  0.2641  0.5967  0.3283
 2523ntf    fn416776   6.927   4.069   2.600 -0.4774  0.3415  0.3903
 2523ntf    fn416777   6.744   4.163   2.544  0.1120 -0.2633 -0.0089
 2523ntf    fn416778   6.905   4.171   2.415 -0.1880 -0.2512 -0.5421
 2523ntf    on516779   6.872   4.351   2.736 -0.1122 -0.3341  0.2938
 2523ntf    on516780   7.082   4.323   2.615  0.0672  0.4772 -0.3262
 2523ntf    on516781   6.673   4.501   2.602  0.4609 -0.2958  0.2993
 2523ntf    on516782   6.700   4.503   2.356 -0.3728 -0.4127  0.3842
 2523ntf    fn416783   6.896   4.704   2.600  0.7501  0.6126 -0.1342
 2523ntf    fn416784   6.854   4.746   2.396  0.1189  0.0178 -0.0486
 2523ntf    fn416785   6.709   4.767   2.550  0.2223  0.6778  0.0976
 2524ntf    cn116786   4.502   2.154   5.421  0.2344 -0.1369  0.1201
 2524ntf    sn216787   4.336   2.079   5.422  0.2525 -0.1787 -0.0656
 2524ntf    nn316788   4.262   2.210   5.378 -0.0773 -0.2824  0.1784
 2524ntf    sn216789   4.182   2.240   5.246  0.3635  0.0202 -0.0235
 2524ntf    cn116790   4.011   2.210   5.302  0.3462  0.2242  0.0364
 2524ntf    fn416791   4.538   2.217   5.311 -0.1505 -0.1897 -0.0369
 2524ntf    fn416792   4.514   2.247   5.514 -0.1178 -0.1541  0.1847
 2524ntf    fn416793   4.595   2.063   5.449  0.3415 -0.2313 -0.5360
 2524ntf    on516794   4.348   1.975   5.322  0.3246 -0.2462  0.0126
 2524ntf    on516795   4.314   2.047   5.561  0.6166  0.0341  0.0414
 2524ntf    on516796   4.204   2.148   5.137  0.1952 -0.1965  0.1224
 2524ntf    on516797   4.183   2.380   5.211 -0.3612  0.1669  0.5044
 2524ntf    fn416798   3.999   2.089   5.354 -0.1215  0.1990 -0.1313
 2524ntf    fn416799   3.973   2.300   5.390  0.0389 -0.2387  0.3800
 2524ntf    fn416800   3.923   2.211   5.204  0.1269 -0.1572  0.2273
 2525ntf    cn116801   0.111   4.392   5.353 -0.2950 -0.2373 -0.1959
 2525ntf    sn216802   0.029   4.454   5.204 -0.2965  0.0960 -0.0583
 2525ntf    nn316803   0.151   4.465   5.105  0.2162 -0.8971  0.4495
 2525ntf    sn216804   0.181   4.386   4.973 -0.1666 -0.1374 -0.1023
 2525ntf    cn116805   0.075   4.473   4.853  0.1243 -0.1367 -0.3618
 2525ntf    fn416806   0.195   4.476   5.411  0.0682 -0.5508 -0.2658
 2525ntf    fn416807   0.014   4.368   5.440 -0.1348 -0.3125 -0.0385
 2525ntf    fn416808   0.169   4.274   5.346 -0.1056 -0.1566  0.0053
 2525ntf    on516809  -0.065   4.351   5.167 -0.2826 -0.0305  0.2636
 2525ntf    on516810  -0.009   4.587   5.246 -0.1538 -0.0024  0.3862
 2525ntf    on516811   0.137   4.249   4.962  0.0590 -0.2578  0.4565
 2525ntf    on516812   0.314   4.415   4.926 -0.1286 -0.4541 -0.1948
 2525ntf    fn416813  -0.046   4.495   4.903  0.2148 -0.4198 -0.0131
 2525ntf    fn416814   0.134   4.585   4.815 -0.0795  0.2109  0.3148
 2525ntf    fn416815   0.049   4.399   4.747 -0.3529  0.0754 -0.3980
 2526ntf    cn116816   0.398   6.807   4.691  0.0277  0.4654  0.2886
 2526ntf    sn216817   0.480   6.694   4.574 -0.0616  0.5564  0.1384
 2526ntf    nn316818   0.597   6.637   4.661  0.0628  0.1845 -0.2681
 2526ntf    sn216819   0.745   6.684   4.684  0.1102 -0.1984  0.2246
 2526ntf    cn116820   0.825   6.594   4.548 -0.4590 -0.1196 -0.1665
 2526ntf    fn416821   0.289   6.858   4.636 -0.5779 -0.3911  0.6773
 2526ntf    fn416822   0.365   6.746   4.803  0.4352  0.3452  0.3459
 2526ntf    fn416823   0.475   6.909   4.726  0.3978  0.1567  0.3823
 2526ntf    on516824   0.369   6.603   4.563  0.1021  0.4238 -0.4231
 2526ntf    on516825   0.523   6.773   4.461 -0.2150  0.3201 -0.0895
 2526ntf    on516826   0.800   6.626   4.804  0.2104 -0.2447  0.1559
 2526ntf    on516827   0.766   6.826   4.664  0.1344 -0.2666 -0.2519
 2526ntf    fn416828   0.807   6.463   4.554  0.4005 -0.1996  0.9279
 2526ntf    fn416829   0.782   6.633   4.429 -0.3760  0.3200 -0.0523
 2526ntf    fn416830   0.955   6.619   4.554 -0.4204 -0.4058  0.2975
 2527ntf    cn116831   6.131   2.679   1.126  0.0911  0.1838  0.0828
 2527ntf    sn216832   5.953   2.646   1.109  0.1166  0.0568  0.0622
 2527ntf    nn316833   5.930   2.526   1.207  0.0463  0.2212  0.2499
 2527ntf    sn216834   5.800   2.450   1.252  0.2063 -0.1806  0.0417
 2527ntf    cn116835   5.750   2.545   1.398 -0.3254 -0.0813 -0.2014
 2527ntf    fn416836   6.168   2.788   1.061 -0.1796  0.3391  0.1865
 2527ntf    fn416837   6.156   2.702   1.253 -0.7119  0.9261  0.1193
 2527ntf    fn416838   6.199   2.573   1.088 -0.0909  0.3640 -0.7726
 2527ntf    on516839   5.902   2.772   1.161  0.4306  0.0816  0.3115
 2527ntf    on516840   5.931   2.597   0.976 -0.7163  0.1662  0.1492
 2527ntf    on516841   5.841   2.327   1.314  0.4727 -0.2326 -0.2313
 2527ntf    on516842   5.683   2.451   1.167  0.2163  0.0203  0.0318
 2527ntf    fn416843   5.762   2.676   1.379  0.3078 -0.0492  0.3448
 2527ntf    fn416844   5.623   2.521   1.422 -0.2161 -0.3919  0.0711
 2527ntf    fn416845   5.816   2.519   1.510 -0.1028 -0.1413 -0.3461
 2528ntf    cn116846   5.183   4.708   3.693  0.2319 -0.6496  0.1566
 2528ntf    sn216847   5.335   4.744   3.786  0.3270 -0.3940 -0.0971
 2528ntf    nn316848   5.437   4.721   3.669  0.4167  0.4944 -0.1963
 2528ntf    sn216849   5.499   4.582   3.632 -0.3705  0.0441  0.1595
 2528ntf    cn116850   5.491   4.581   3.450  0.2644 -0.4146  0.1291
 2528ntf    fn416851   5.145   4.790   3.597 -0.2747 -0.3906  0.5718
 2528ntf    fn416852   5.188   4.583   3.650  0.1189 -0.6802  0.2314
 2528ntf    fn416853   5.081   4.710   3.777  0.2479 -0.1604  0.1694
 2528ntf    on516854   5.326   4.884   3.821 -0.1107 -0.3236 -0.4878
 2528ntf    on516855   5.336   4.647   3.892  0.3632 -0.7287 -0.4022
 2528ntf    on516856   5.426   4.463   3.666  0.0187 -0.3279 -0.2895
 2528ntf    on516857   5.642   4.584   3.650 -0.3466  0.3646 -0.0598
 2528ntf    fn416858   5.378   4.529   3.404 -0.2827 -0.0503  1.0353
 2528ntf    fn416859   5.496   4.703   3.399  0.5532 -0.2561  0.5355
 2528ntf    fn416860   5.581   4.505   3.390  0.2860 -0.1007 -0.2379
 2529ntf    cn116861   6.266   4.200   5.492  0.0617 -0.1670 -0.0052
 2529ntf    sn216862   6.154   4.077   5.418  0.0864 -0.0660 -0.2134
 2529ntf    nn316863   6.244   3.952   5.448  0.1947  0.0781  0.0720
 2529ntf    sn216864   6.335   3.874   5.347  0.1027 -0.2284  0.2236
 2529ntf    cn116865   6.281   3.701   5.363  0.2343 -0.3144 -0.2388
 2529ntf    fn416866   6.217   4.324   5.491  0.0314 -0.1776  0.1098
 2529ntf    fn416867   6.300   4.177   5.618  0.4206  0.4705  0.0185
 2529ntf    fn416868   6.380   4.205   5.426 -0.3391  0.4677 -0.6651
 2529ntf    on516869   6.046   4.064   5.513  0.2486 -0.5349 -0.0882
 2529ntf    on516870   6.129   4.115   5.282 -0.2801  0.1510 -0.0882
 2529ntf    on516871   6.470   3.861   5.397  0.2141 -0.4652 -0.1334
 2529ntf    on516872   6.316   3.892   5.205 -0.4687 -0.2070  0.3021
 2529ntf    fn416873   6.349   3.624   5.280 -0.3653 -0.6683 -0.4080
 2529ntf    fn416874   6.303   3.639   5.478 -0.3489  0.2847  0.2018
 2529ntf    fn416875   6.151   3.702   5.338 -0.0071  0.5015  0.9833
 2530ntf    cn116876   1.128   1.192   0.383 -0.2688  0.2527  0.2266
 2530ntf    sn216877   1.075   1.327   0.493 -0.1724  0.2446  0.2831
 2530ntf    nn316878   0.931   1.359   0.440 -0.0777  0.0901 -0.0751
 2530ntf    sn216879   0.789   1.313   0.490  0.1057 -0.0749  0.2969
 2530ntf    cn116880   0.676   1.427   0.406  0.1317 -0.5865 -0.4390
 2530ntf    fn416881   1.242   1.132   0.415 -0.0585  0.6183  0.1700
 2530ntf    fn416882   1.041   1.093   0.376  0.0194 -0.0339  0.6241
 2530ntf    fn416883   1.147   1.236   0.260  0.3733  0.2125  0.3051
 2530ntf    on516884   1.090   1.273   0.626  0.1688 -0.6238 -0.0938
 2530ntf    on516885   1.161   1.437   0.459  0.3233 -0.3446 -0.4199
 2530ntf    on516886   0.762   1.341   0.629 -1.1829  0.5984 -0.0829
 2530ntf    on516887   0.763   1.185   0.430  0.2940  0.0534 -0.0577
 2530ntf    fn416888   0.553   1.387   0.431 -0.1173  0.1130 -0.5143
 2530ntf    fn416889   0.682   1.553   0.448 -0.6181 -0.7735  0.2439
 2530ntf    fn416890   0.697   1.427   0.275  0.5620 -0.4978 -0.3729
 2531ntf    cn116891   0.086   4.120   0.737  0.0795  0.2491 -0.4123
 2531ntf    sn216892   0.004   4.066   0.584  0.1898 -0.1704 -0.3258
 2531ntf    nn316893  -0.016   3.914   0.617 -0.3151 -0.1257 -0.4222
 2531ntf    sn216894   0.054   3.785   0.563  0.4214  0.1635 -0.1637
 2531ntf    cn116895  -0.031   3.761   0.405  0.0701 -0.2872  0.0904
 2531ntf    fn416896   0.203   4.060   0.748 -0.1352 -0.1615 -0.3382
 2531ntf    fn416897   0.096   4.251   0.747 -0.3070  0.2131  0.5241
 2531ntf    fn416898   0.018   4.084   0.845  0.3817  0.1782 -0.2470
 2531ntf    on516899  -0.122   4.134   0.566  0.5368  0.5039 -0.2329
 2531ntf    on516900   0.104   4.092   0.483  0.3211  0.1957 -0.1043
 2531ntf    on516901   0.018   3.671   0.645 -0.3414  0.1165 -0.5545
 2531ntf    on516902   0.194   3.807   0.534  0.4358  0.6255  0.2442
 2531ntf    fn416903  -0.159   3.728   0.415  0.0051 -0.2431 -0.5211
 2531ntf    fn416904  -0.024   3.869   0.329  0.1912 -0.1301  0.3264
 2531ntf    fn416905   0.031   3.669   0.333  0.5865  0.1849 -0.0748
 2532ntf    cn116906   4.586   6.708   4.919 -0.1237  0.0259  0.1053
 2532ntf    sn216907   4.477   6.722   4.775  0.1058  0.1346 -0.0569
 2532ntf    nn316908   4.336   6.691   4.837 -0.0219 -0.0741 -0.4486
 2532ntf    sn216909   4.218   6.778   4.895  0.0059 -0.0645 -0.4065
 2532ntf    cn116910   4.109   6.772   4.750  0.0135  0.0079 -0.4151
 2532ntf    fn416911   4.536   6.776   5.021 -0.4169  0.2840 -0.2087
 2532ntf    fn416912   4.612   6.583   4.956 -0.6526 -0.1975 -0.2743
 2532ntf    fn416913   4.701   6.765   4.888  0.0242 -0.4190 -0.1740
 2532ntf    on516914   4.493   6.854   4.719 -0.2597  0.1197 -0.2018
 2532ntf    on516915   4.518   6.621   4.681 -0.0775  0.1712 -0.1770
 2532ntf    on516916   4.237   6.918   4.920 -0.2431 -0.0755 -0.1553
 2532ntf    on516917   4.149   6.705   4.998 -0.0894  0.0639 -0.3801
 2532ntf    fn416918   4.050   6.654   4.740  0.7760 -0.4569  0.4200
 2532ntf    fn416919   4.015   6.865   4.749 -0.0523 -0.0546 -0.1014
 2532ntf    fn416920   4.173   6.781   4.634 -0.0895  0.5376 -0.4347
 2533ntf    cn116921   4.881   1.800   4.036 -0.0067  0.5265 -0.4914
 2533ntf    sn216922   4.902   1.622   4.005  0.0612  0.4848 -0.2095
 2533ntf    nn316923   5.009   1.620   3.890  0.3030 -0.2060  0.0221
 2533ntf    sn216924   4.986   1.650   3.737 -0.0453 -0.1083  0.0924
 2533ntf    cn116925   5.057   1.816   3.711  0.4430 -0.3079  0.1343
 2533ntf    fn416926   4.836   1.862   3.928  0.0635  0.5926 -0.4827
 2533ntf    fn416927   4.811   1.834   4.143  0.2329 -0.6417  0.0580
 2533ntf    fn416928   5.002   1.847   4.062  0.2330 -0.2387 -0.2030
 2533ntf    on516929   4.967   1.578   4.126  0.6989  0.1137 -0.6794
 2533ntf    on516930   4.769   1.579   3.972  0.1890  0.2840 -0.4653
 2533ntf    on516931   4.848   1.658   3.698 -0.0458  0.2230  0.1544
 2533ntf    on516932   5.064   1.566   3.650 -0.4306  0.0468 -0.4058
 2533ntf    fn416933   5.083   1.830   3.582 -0.2109 -0.6657 -0.0447
 2533ntf    fn416934   4.968   1.910   3.739 -0.1763 -0.8413  0.0005
 2533ntf    fn416935   5.170   1.840   3.775  0.4609  0.0340 -0.0217
 2534ntf    cn116936   2.310   4.816   2.458 -0.1501  0.1984  0.0167
 2534ntf    sn216937   2.270   4.640   2.478  0.1557  0.1269  0.0012
 2534ntf    nn316938   2.218   4.647   2.626  0.0893  0.2599 -0.0277
 2534ntf    sn216939   2.104   4.571   2.703  0.3333 -0.0443  0.0362
 2534ntf    cn116940   1.977   4.699   2.686 -0.1158 -0.4084  0.5967
 2534ntf    fn416941   2.381   4.840   2.349 -0.0223 -0.1331  0.0265
 2534ntf    fn416942   2.202   4.892   2.444 -0.1089  0.2865  0.1701
 2534ntf    fn416943   2.379   4.873   2.556  0.1560  0.4627 -0.3517
 2534ntf    on516944   2.163   4.630   2.383  0.4827  0.3788 -0.3944
 2534ntf    on516945   2.395   4.572   2.453  0.1593  0.1167  0.0479
 2534ntf    on516946   2.126   4.562   2.846  0.3118 -0.0199  0.0408
 2534ntf    on516947   2.052   4.460   2.627  0.1039  0.3580 -0.3991
 2534ntf    fn416948   2.025   4.821   2.706 -0.2474 -0.3099  0.3167
 2534ntf    fn416949   1.915   4.703   2.569  0.2559 -0.2988  0.4005
 2534ntf    fn416950   1.871   4.677   2.762 -0.4668 -0.1573  0.1875
 2535ntf    cn116951   3.545   4.442   5.243 -0.8326  0.2433 -0.0843
 2535ntf    sn216952   3.371   4.387   5.242 -0.7593  0.0082 -0.0090
 2535ntf    nn316953   3.349   4.324   5.100  0.0121  0.1834 -0.2124
 2535ntf    sn216954   3.246   4.215   5.055 -0.0108  0.1262 -0.0233
 2535ntf    cn116955   3.339   4.062   5.025 -0.5141 -0.1657 -0.1164
 2535ntf    fn416956   3.622   4.345   5.195 -0.4515  0.4806  0.0428
 2535ntf    fn416957   3.556   4.537   5.151  0.8585  0.0843 -0.0813
 2535ntf    fn416958   3.596   4.475   5.360 -0.1248 -0.1427 -0.2804
 2535ntf    on516959   3.374   4.290   5.348 -0.1451 -1.0960 -1.0123
 2535ntf    on516960   3.301   4.511   5.262 -0.6952  0.0141  0.1824
 2535ntf    on516961   3.211   4.254   4.920 -0.3290  0.1693  0.0703
 2535ntf    on516962   3.143   4.176   5.148 -0.4441  0.3411 -0.4034
 2535ntf    fn416963   3.278   3.981   4.940 -0.6878  0.1566 -0.3022
 2535ntf    fn416964   3.458   4.097   4.976 -0.4519  0.2042  0.2957
 2535ntf    fn416965   3.368   4.000   5.138  0.5436  0.2281 -0.1582
 2536ntf    cn116966   3.148   2.000   2.106 -0.1486  0.0328  0.0467
 2536ntf    sn216967   3.096   2.096   2.251 -0.2639 -0.3269  0.2469
 2536ntf    nn316968   3.185   2.225   2.230  0.3916 -0.8864 -0.4742
 2536ntf    sn216969   3.168   2.345   2.131 -0.3710 -0.2451  0.4141
 2536ntf    cn116970   3.343   2.343   2.081 -0.5621 -0.0231 -0.2750
 2536ntf    fn416971   3.122   1.874   2.139  0.2301 -0.1546 -0.3612
 2536ntf    fn416972   3.085   2.029   1.994 -1.0544 -0.7512  0.3385
 2536ntf    fn416973   3.277   2.014   2.080 -0.1372  0.1761  0.1808
 2536ntf    on516974   2.957   2.130   2.238 -0.2992 -0.6461 -0.2349
 2536ntf    on516975   3.151   2.021   2.361  0.4794  0.0334  0.1367
 2536ntf    on516976   3.155   2.464   2.210  0.2575 -0.5209  0.9365
 2536ntf    on516977   3.084   2.326   2.015  0.1257  0.1754 -0.0181
 2536ntf    fn416978   3.394   2.460   2.046 -0.2165 -0.2290 -0.4656
 2536ntf    fn416979   3.422   2.305   2.180  0.0281  0.4358 -0.5655
 2536ntf    fn416980   3.366   2.249   1.990  0.3047  0.0548 -0.1438
 2537ntf    cn116981   4.573   5.408   6.026  0.1966 -0.0052  0.2166
 2537ntf    sn216982   4.672   5.275   5.951  0.0351  0.0416 -0.0814
 2537ntf    nn316983   4.593   5.234   5.822  0.6307 -0.7521 -0.1944
 2537ntf    sn216984   4.498   5.111   5.796  0.2712 -0.5656  0.2274
 2537ntf    cn116985   4.621   4.996   5.727  0.3029 -0.3609 -0.0595
 2537ntf    fn416986   4.630   5.452   6.137 -0.0592  0.1084  0.3047
 2537ntf    fn416987   4.550   5.515   5.950 -0.1813 -0.0018  0.3338
 2537ntf    fn416988   4.451   5.370   6.061  0.4249 -1.0342 -0.0799
 2537ntf    on516989   4.799   5.336   5.921 -0.2582  0.4198 -0.5707
 2537ntf    on516990   4.676   5.171   6.051  0.0544 -0.0519 -0.1800
 2537ntf    on516991   4.402   5.135   5.691  0.1765 -0.6651  0.2919
 2537ntf    on516992   4.447   5.043   5.912 -0.4472  0.2836  0.4221
 2537ntf    fn416993   4.623   4.993   5.595 -0.1631 -0.0491 -0.0756
 2537ntf    fn416994   4.747   5.008   5.768  0.1057  0.3282  0.3646
 2537ntf    fn416995   4.583   4.872   5.752  0.5891 -0.5233 -0.4042
 2538ntf    cn116996   0.981   2.514   3.205  0.5147  0.2342 -0.1177
 2538ntf    sn216997   0.997   2.595   3.043 -0.3199 -0.0082 -0.3299
 2538ntf    nn316998   0.849   2.638   3.015 -0.3963 -0.1914 -0.2060
 2538ntf    sn216999   0.723   2.562   2.958 -0.4052 -0.3409  0.0143
 2538ntf    cn117000   0.588   2.678   2.990  0.0052  0.1194  0.0936
 2538ntf    fn417001   0.939   2.389   3.197  0.5025  0.1822  0.7037
 2538ntf    fn417002   1.098   2.521   3.265  0.4496  0.4248 -0.0118
 2538ntf    fn417003   0.898   2.585   3.280  0.2229  0.3311 -0.5276
 2538ntf    on517004   1.082   2.708   3.073 -0.3912 -0.1160  0.2835
 2538ntf    on517005   1.058   2.496   2.958 -0.6448 -0.9690  0.5346
 2538ntf    on517006   0.671   2.445   3.024  0.2969 -0.1908  0.8564
 2538ntf    on517007   0.726   2.569   2.814  0.0164 -0.0557  0.0340
 2538ntf    fn417008   0.555   2.708   3.115  0.0580 -0.1603  0.1755
 2538ntf    fn417009   0.609   2.796   2.933  0.9401 -0.2232 -0.2786
 2538ntf    fn417010   0.472   2.647   2.935 -0.2115  0.3344  0.4224
 2539ntf    cn117011   6.231   4.458   4.517  0.2183  0.2500  0.3309
 2539ntf    sn217012   6.072   4.503   4.441  0.2584  0.1734  0.2021
 2539ntf    nn317013   6.083   4.659   4.427 -0.0264  0.1863  0.1054
 2539ntf    sn217014   6.035   4.761   4.317 -0.0520  0.1368  0.0706
 2539ntf    cn117015   5.881   4.823   4.392 -0.1645 -0.0074 -0.0393
 2539ntf    fn417016   6.275   4.343   4.469 -0.4146  0.1805 -0.1055
 2539ntf    fn417017   6.321   4.547   4.479 -0.2073  0.4462 -0.2346
 2539ntf    fn417018   6.235   4.453   4.649  0.2553  0.2777  0.3309
 2539ntf    on517019   6.077   4.429   4.317  1.1660  0.3811  0.1075
 2539ntf    on517020   5.967   4.474   4.536  0.4022  0.6065  0.4935
 2539ntf    on517021   5.991   4.699   4.194  0.0143 -0.6537  0.4392
 2539ntf    on517022   6.128   4.869   4.298  0.0205  0.0656  0.0240
 2539ntf    fn417023   5.907   4.928   4.468  0.2880 -0.0640 -0.1094
 2539ntf    fn417024   5.786   4.856   4.307 -0.2392 -0.0396  0.0312
 2539ntf    fn417025   5.827   4.730   4.470 -0.2810  0.2199  0.1529
 2540ntf    cn117026   0.874   6.001   1.204  0.0507 -0.0762 -0.0991
 2540ntf    sn217027   0.980   6.127   1.128 -0.3868  0.1705 -0.3028
 2540ntf    nn317028   1.028   6.197   1.260 -0.4080 -0.4020  0.0086
 2540ntf    sn217029   0.982   6.342   1.299 -0.2246 -0.3289 -0.0450
 2540ntf    cn117030   1.125   6.387   1.400 -0.0985 -0.2241 -0.2688
 2540ntf    fn417031   0.792   5.929   1.130  0.1164 -0.2204 -0.0320
 2540ntf    fn417032   0.938   5.910   1.275  0.0212 -0.0020  0.0219
 2540ntf    fn417033   0.789   6.052   1.291  0.6167 -0.1127  0.4814
 2540ntf    on517034   1.087   6.056   1.062 -0.2934  0.3318 -0.3258
 2540ntf    on517035   0.884   6.196   1.045 -0.9983 -0.3342 -0.0136
 2540ntf    on517036   0.874   6.341   1.394 -0.1732 -0.1837  0.0150
 2540ntf    on517037   0.990   6.437   1.191  0.6260 -0.6934 -0.3109
 2540ntf    fn417038   1.104   6.501   1.464  0.3702 -0.1341 -0.2741
 2540ntf    fn417039   1.157   6.296   1.491  0.4281  0.1722 -0.0476
 2540ntf    fn417040   1.237   6.407   1.332  0.2810  0.3803  0.5132
 2541ntf    cn117041   4.196   2.480   2.510  0.1647 -0.0217  0.3333
 2541ntf    sn217042   4.037   2.515   2.429  0.3497  0.4381  0.1640
 2541ntf    nn317043   4.063   2.473   2.280  0.3785 -0.0138  0.2959
 2541ntf    sn217044   4.021   2.341   2.206  0.1395  0.2277 -0.0005
 2541ntf    cn117045   3.848   2.385   2.169 -0.0451 -0.4331  0.0636
 2541ntf    fn417046   4.287   2.572   2.481  0.1952 -0.2057 -0.1566
 2541ntf    fn417047   4.196   2.489   2.642  0.1395  0.0648  0.3275
 2541ntf    fn417048   4.256   2.368   2.473  0.2433  0.1873 -0.1841
 2541ntf    on517049   3.943   2.432   2.500  0.4059  0.5587  0.3798
 2541ntf    on517050   4.011   2.656   2.448  0.1631  0.4598 -0.2514
 2541ntf    on517051   4.007   2.222   2.287  0.0129  0.3740  0.1937
 2541ntf    on517052   4.078   2.324   2.075  0.4877 -0.3626  0.2206
 2541ntf    fn417053   3.847   2.501   2.105  0.1834 -0.1504  0.5673
 2541ntf    fn417054   3.786   2.293   2.096 -0.6038  0.1339 -0.1756
 2541ntf    fn417055   3.772   2.399   2.276  0.0858  0.2789  0.0676
 2542ntf    cn117056   5.185   0.213   4.777  0.0715 -0.2701  0.0334
 2542ntf    sn217057   5.178   0.329   4.917 -0.2495  0.0788 -0.2716
 2542ntf    nn317058   5.024   0.307   4.937 -0.2290  0.0911 -0.0955
 2542ntf    sn217059   4.898   0.371   4.868 -0.2769  0.0689 -0.0286
 2542ntf    cn117060   4.877   0.497   4.997  0.5813  0.1311  0.0572
 2542ntf    fn417061   5.125   0.099   4.809 -0.2763  0.0358  0.4711
 2542ntf    fn417062   5.128   0.272   4.674 -0.2302 -0.3072  0.1792
 2542ntf    fn417063   5.310   0.176   4.750  0.0578  0.1708 -0.6555
 2542ntf    on517064   5.262   0.265   5.015  0.0828  0.1403 -0.5151
 2542ntf    on517065   5.218   0.456   4.861  0.5255  0.0507  0.1958
 2542ntf    on517066   4.784   0.282   4.874 -0.6099  0.5172  0.3419
 2542ntf    on517067   4.916   0.449   4.748 -0.2313  0.4845  0.2489
 2542ntf    fn417068   4.953   0.605   4.995  0.2047  0.4027  0.3992
 2542ntf    fn417069   4.756   0.551   4.998  0.4324 -0.2005  0.0131
 2542ntf    fn417070   4.897   0.441   5.115 -0.5033  0.2247  0.2959
 2543ntf    cn117071   3.470   2.085   0.818 -0.0392 -0.6183 -0.3886
 2543ntf    sn217072   3.332   1.971   0.849 -0.3276 -0.1965 -0.1123
 2543ntf    nn317073   3.227   2.073   0.907  0.8303  0.9380  0.0300
 2543ntf    sn217074   3.165   2.088   1.050  0.0318  0.1663 -0.2284
 2543ntf    cn117075   3.288   2.192   1.134 -0.2167  0.0715  0.2552
 2543ntf    fn417076   3.448   2.175   0.723 -0.2679 -0.5334 -0.2549
 2543ntf    fn417077   3.484   2.155   0.929 -0.4828 -0.1174 -0.6381
 2543ntf    fn417078   3.591   2.036   0.799  0.3772  0.2409 -0.0499
 2543ntf    on517079   3.304   1.926   0.715 -0.6663 -0.1712 -0.0505
 2543ntf    on517080   3.394   1.880   0.942  0.0109 -0.1459 -0.2879
 2543ntf    on517081   3.152   1.971   1.134 -0.2001  0.1289 -0.3164
 2543ntf    on517082   3.056   2.181   1.060  0.4828  0.7157 -0.3665
 2543ntf    fn417083   3.308   2.299   1.059 -0.2021 -0.2504 -0.2039
 2543ntf    fn417084   3.256   2.240   1.253 -0.3770 -0.3138  0.3674
 2543ntf    fn417085   3.403   2.127   1.147 -0.0440  0.3563  0.1722
 2544ntf    cn117086   2.363   6.110   4.901 -0.1664 -0.1906  0.0080
 2544ntf    sn217087   2.332   5.942   4.964 -0.0935 -0.0919  0.3070
 2544ntf    nn317088   2.189   5.959   5.027 -0.2577  0.2816 -0.1625
 2544ntf    sn217089   2.130   5.952   5.172  0.1958  0.0484  0.0131
 2544ntf    cn117090   1.978   6.050   5.147 -0.1072 -0.4048  0.0618
 2544ntf    fn417091   2.254   6.176   4.864  0.0108  0.7524  1.1096
 2544ntf    fn417092   2.428   6.185   4.987  0.5595 -0.4634 -0.2996
 2544ntf    fn417093   2.442   6.107   4.796  0.9805  0.3588  0.8416
 2544ntf    on517094   2.319   5.865   4.843 -0.7525  0.1080  0.2465
 2544ntf    on517095   2.437   5.912   5.058 -0.1702 -0.2848  0.3321
 2544ntf    on517096   2.198   6.030   5.273 -0.1627 -0.2442  0.4888
 2544ntf    on517097   2.085   5.820   5.210 -0.7108 -0.0125 -1.2174
 2544ntf    fn417098   1.892   6.028   5.245 -0.5359 -0.2628 -0.2853
 2544ntf    fn417099   2.004   6.180   5.153  0.0488 -0.4027 -0.6651
 2544ntf    fn417100   1.916   6.034   5.032 -0.0250  0.1485 -0.0610
 2545ntf    cn117101   5.940   5.586   4.546 -0.1929 -0.0416  0.1411
 2545ntf    sn217102   5.902   5.584   4.368  0.0174  0.0011  0.0952
 2545ntf    nn317103   5.927   5.736   4.336 -0.6447  0.0955  0.0094
 2545ntf    sn217104   5.832   5.851   4.288 -0.2860  0.2754 -0.2698
 2545ntf    cn117105   5.965   5.952   4.217 -0.1770  0.2108 -0.1592
 2545ntf    fn417106   5.852   5.655   4.616 -0.0032  0.0357  0.3035
 2545ntf    fn417107   5.967   5.469   4.600  0.3269 -0.0753 -0.1847
 2545ntf    fn417108   6.052   5.650   4.575 -0.3572  0.1331  0.3925
 2545ntf    on517109   5.993   5.494   4.304 -0.3892 -0.1403 -0.2869
 2545ntf    on517110   5.762   5.551   4.373  0.1762 -0.7769 -0.5529
 2545ntf    on517111   5.773   5.931   4.393 -0.4115  0.5228 -0.5280
 2545ntf    on517112   5.758   5.826   4.167  0.5115  0.1972 -0.7497
 2545ntf    fn417113   6.066   5.961   4.303 -0.3561  0.3670  0.0345
 2545ntf    fn417114   6.015   5.893   4.110 -0.3088 -0.0822 -0.0584
 2545ntf    fn417115   5.925   6.075   4.186  0.0138  0.5366  0.8500
 2546ntf    cn117116   3.225   2.659   1.734 -0.3887 -0.3678 -0.5306
 2546ntf    sn217117   3.152   2.716   1.578 -0.2550  0.3008 -0.3504
 2546ntf    nn317118   3.092   2.854   1.624  0.1598  0.4130 -0.1409
 2546ntf    sn217119   2.940   2.891   1.639 -0.0456 -0.3695 -0.2211
 2546ntf    cn117120   2.928   2.971   1.476  0.3763 -0.0028 -0.0750
 2546ntf    fn417121   3.326   2.734   1.772 -0.4926 -0.3273 -0.3317
 2546ntf    fn417122   3.134   2.660   1.831  0.8949 -0.0072  0.7032
 2546ntf    fn417123   3.277   2.537   1.726 -0.5268 -0.4990  0.4454
 2546ntf    on517124   3.266   2.743   1.494  0.2646  0.3015  0.3485
 2546ntf    on517125   3.069   2.605   1.538 -0.3820  0.5097 -0.6735
 2546ntf    on517126   2.918   3.003   1.727  0.7416 -0.4396  0.0719
 2546ntf    on517127   2.843   2.784   1.637 -0.3139 -0.1397  0.3579
 2546ntf    fn417128   2.993   3.086   1.472  0.0866  0.1821  0.3700
 2546ntf    fn417129   2.978   2.896   1.380 -0.2120 -0.6231  0.0919
 2546ntf    fn417130   2.801   2.992   1.444  0.2936 -0.2377  0.0979
 2547ntf    cn117131   4.096   6.303   4.490  0.2203 -0.1172  0.0539
 2547ntf    sn217132   4.050   6.400   4.344  0.3737 -0.2288 -0.0687
 2547ntf    nn317133   3.927   6.318   4.289 -0.0625  0.0660  0.4651
 2547ntf    sn217134   3.791   6.382   4.245 -0.0352 -0.1178  0.1121
 2547ntf    cn117135   3.708   6.242   4.163  0.0724 -0.3126  0.3342
 2547ntf    fn417136   4.217   6.337   4.534 -0.0181 -0.0894  0.7044
 2547ntf    fn417137   4.015   6.342   4.588  0.0318 -0.1393 -0.0941
 2547ntf    fn417138   4.093   6.171   4.482 -0.2981 -0.1210  0.2938
 2547ntf    on517139   4.036   6.536   4.388  0.1580 -0.2523 -0.0598
 2547ntf    on517140   4.167   6.374   4.263  0.7066 -0.3267  0.4430
 2547ntf    on517141   3.801   6.488   4.149 -0.3390 -0.2037 -0.0185
 2547ntf    on517142   3.699   6.408   4.354  0.1374  0.2181  0.1769
 2547ntf    fn417143   3.622   6.276   4.068  0.7187  0.9447  0.1692
 2547ntf    fn417144   3.784   6.151   4.104  0.0859 -0.0630 -0.0430
 2547ntf    fn417145   3.637   6.174   4.251  0.2213 -0.4570  0.3421
 2548ntf    cn117146   3.212   3.865   3.590  0.1138 -0.0972  0.3537
 2548ntf    sn217147   3.342   3.776   3.681  0.1806 -0.1406  0.2160
 2548ntf    nn317148   3.454   3.886   3.691  0.0208  0.0442 -0.0072
 2548ntf    sn217149   3.541   3.916   3.818 -0.2548  0.2462  0.1345
 2548ntf    cn117150   3.703   3.896   3.739 -0.1945  0.4770  0.2008
 2548ntf    fn417151   3.248   3.903   3.469 -0.2352  0.2568  0.3607
 2548ntf    fn417152   3.103   3.793   3.570  0.2149 -0.3344  0.6607
 2548ntf    fn417153   3.171   3.975   3.651 -0.7398  0.3072 -0.8995
 2548ntf    on517154   3.276   3.734   3.802  0.2703  0.0669  0.3380
 2548ntf    on517155   3.374   3.679   3.579 -0.2253 -0.1453  0.0902
 2548ntf    on517156   3.549   3.825   3.929  0.5846  0.0883 -0.0457
 2548ntf    on517157   3.533   4.056   3.852 -0.0483  0.4581 -0.6595
 2548ntf    fn417158   3.751   3.997   3.667  0.2542 -0.0904 -0.3018
 2548ntf    fn417159   3.790   3.868   3.835 -0.3913  0.0921  0.2653
 2548ntf    fn417160   3.700   3.790   3.661  0.5741  0.1633  0.5851
 2549ntf    cn117161   6.319   3.893   1.077 -0.1655  0.4049  0.7044
 2549ntf    sn217162   6.250   3.724   1.069  0.2784  0.2709 -0.4634
 2549ntf    nn317163   6.203   3.716   0.919 -0.4016  0.7084 -0.2789
 2549ntf    sn217164   6.236   3.598   0.821  0.2980  0.2136  0.5331
 2549ntf    cn117165   6.368   3.664   0.713 -0.0319  0.0147  0.0031
 2549ntf    fn417166   6.447   3.897   1.043 -0.3673  0.1724 -0.1134
 2549ntf    fn417167   6.252   3.983   1.008 -0.3710 -0.1949  0.1026
 2549ntf    fn417168   6.315   3.942   1.199  0.1088  0.3685  0.7290
 2549ntf    on517169   6.368   3.653   1.112 -0.3394 -0.4717  0.0254
 2549ntf    on517170   6.138   3.734   1.158  0.0999 -0.1422 -0.6382
 2549ntf    on517171   6.127   3.586   0.728  0.3486  0.6998  0.4025
 2549ntf    on517172   6.285   3.474   0.874  0.2189  0.0461  0.2193
 2549ntf    fn417173   6.399   3.573   0.622 -0.2850 -0.3358  0.2645
 2549ntf    fn417174   6.330   3.764   0.636  0.2844 -0.1621 -0.3878
 2549ntf    fn417175   6.477   3.693   0.783 -0.2616  0.5301  0.1512
 2550ntf    cn117176   2.414   5.482   1.521  0.6785  0.3184 -0.3032
 2550ntf    sn217177   2.513   5.612   1.600  0.3738  0.2836  0.1437
 2550ntf    nn317178   2.428   5.628   1.731 -0.1749 -0.3023 -0.1335
 2550ntf    sn217179   2.370   5.755   1.803 -0.4109 -0.5726  0.1589
 2550ntf    cn117180   2.283   5.665   1.934 -0.2497 -0.3663  0.4111
 2550ntf    fn417181   2.394   5.376   1.599 -0.0617  0.1499 -0.7099
 2550ntf    fn417182   2.295   5.535   1.497  0.3038 -0.3833 -0.0489
 2550ntf    fn417183   2.480   5.439   1.415  0.3641  0.4364 -0.5504
 2550ntf    on517184   2.641   5.551   1.628  0.0871 -0.4864 -0.1962
 2550ntf    on517185   2.508   5.726   1.512 -0.7726  0.5144  0.4974
 2550ntf    on517186   2.254   5.820   1.748  0.2553  0.2368 -0.3259
 2550ntf    on517187   2.471   5.829   1.876 -0.5030 -0.3283  0.0409
 2550ntf    fn417188   2.358   5.598   2.020  0.1413 -0.2133  0.1932
 2550ntf    fn417189   2.202   5.740   2.006 -0.6326 -0.0871 -0.3029
 2550ntf    fn417190   2.199   5.576   1.882  0.1477 -0.8256  0.5424
 2551ntf    cn117191   1.698   2.453   2.276 -0.3863 -0.3111 -0.4903
 2551ntf    sn217192   1.630   2.311   2.366  0.4267 -0.3992 -0.0085
 2551ntf    nn317193   1.729   2.290   2.487  0.5840  0.4237  0.0104
 2551ntf    sn217194   1.709   2.329   2.637  0.0461  0.3258 -0.0318
 2551ntf    cn117195   1.690   2.157   2.693  0.0506  0.2167 -0.3663
 2551ntf    fn417196   1.806   2.428   2.203  0.4085 -0.1167  0.6016
 2551ntf    fn417197   1.617   2.514   2.191 -0.3621  0.3016 -0.0766
 2551ntf    fn417198   1.727   2.549   2.363 -0.0664  0.0380 -0.9776
 2551ntf    on517199   1.494   2.345   2.399  0.5199  0.1873 -0.2177
 2551ntf    on517200   1.652   2.200   2.275  0.2831 -0.4367  0.0029
 2551ntf    on517201   1.582   2.386   2.675  0.0159 -0.1163  0.5565
 2551ntf    on517202   1.822   2.381   2.710 -0.0226  0.1228  0.2205
 2551ntf    fn417203   1.614   2.074   2.623  0.0350 -0.4508  0.4310
 2551ntf    fn417204   1.807   2.094   2.692  0.2085  0.5087 -0.4448
 2551ntf    fn417205   1.639   2.141   2.814  0.1969  0.4609 -0.2710
 2552ntf    cn117206   0.466   0.426   2.455  0.0462  0.2561  0.1105
 2552ntf    sn217207   0.409   0.406   2.284 -0.0125  0.0454  0.1542
 2552ntf    nn317208   0.522   0.478   2.202 -0.4061  0.2642 -0.2020
 2552ntf    sn217209   0.515   0.478   2.045 -0.0999  0.2304 -0.2181
 2552ntf    cn117210   0.662   0.377   2.011 -0.0825  0.0042  0.5160
 2552ntf    fn417211   0.493   0.550   2.492 -0.0764  0.4390 -0.4135
 2552ntf    fn417212   0.373   0.397   2.545  0.2715  0.3971  0.3898
 2552ntf    fn417213   0.567   0.346   2.484  0.3234  0.7690  0.5825
 2552ntf    on517214   0.398   0.263   2.274  0.2410  0.0649 -0.4694
 2552ntf    on517215   0.283   0.476   2.278  0.0684  0.1762 -0.0260
 2552ntf    on517216   0.541   0.608   1.989 -0.0108  0.1912 -0.2675
 2552ntf    on517217   0.414   0.396   1.982  0.0543 -0.4171  0.3612
 2552ntf    fn417218   0.768   0.448   2.047  0.0531  0.0634  0.0017
 2552ntf    fn417219   0.659   0.259   2.072  0.1357 -0.5060 -0.4497
 2552ntf    fn417220   0.676   0.353   1.882 -0.4262  0.1326  0.4539
 2553ntf    cn117221   0.173   6.301   3.594  0.0054 -0.0701  0.2403
 2553ntf    sn217222   0.297   6.425   3.641  0.2339 -0.2383  0.0833
 2553ntf    nn317223   0.435   6.357   3.607  0.2487  0.0502 -0.4320
 2553ntf    sn217224   0.580   6.377   3.664 -0.0545  0.1856  0.3036
 2553ntf    cn117225   0.588   6.218   3.751 -0.2520 -0.0508 -0.1072
 2553ntf    fn417226   0.210   6.182   3.639  0.5078  0.2658  0.7297
 2553ntf    fn417227   0.054   6.325   3.646  0.1977 -0.0555  0.6869
 2553ntf    fn417228   0.163   6.294   3.463  0.2141 -0.7380  0.2554
 2553ntf    on517229   0.271   6.534   3.552  0.6027 -0.1290  0.1084
 2553ntf    on517230   0.283   6.457   3.781 -0.2505 -0.0873  0.0021
 2553ntf    on517231   0.614   6.475   3.764  0.2088  0.1071  0.2923
 2553ntf    on517232   0.665   6.361   3.549 -0.1130 -0.0963  0.2999
 2553ntf    fn417233   0.566   6.118   3.667 -0.0313  0.1094 -0.3549
 2553ntf    fn417234   0.710   6.199   3.799 -0.3566 -0.2301  0.0920
 2553ntf    fn417235   0.508   6.227   3.856 -0.0083  0.2147  0.0554
 2554ntf    cn117236   0.613   3.109   6.028 -0.1839 -0.3077  0.0906
 2554ntf    sn217237   0.499   3.139   6.166 -0.1769  0.0192  0.0261
 2554ntf    nn317238   0.398   3.244   6.107 -0.0923  0.0093 -0.1373
 2554ntf    sn217239   0.260   3.225   6.036 -0.3067  0.0063  0.2736
 2554ntf    cn117240   0.147   3.211   6.178  0.1656  0.3500  0.6829
 2554ntf    fn417241   0.686   3.217   6.001 -0.6149 -0.0389 -0.0054
 2554ntf    fn417242   0.689   3.005   6.061 -0.4789 -0.5190  0.1033
 2554ntf    fn417243   0.551   3.066   5.920 -0.0753 -0.1655 -0.0280
 2554ntf    on517244   0.439   3.012   6.197 -0.2199  0.0415  0.0343
 2554ntf    on517245   0.591   3.193   6.262 -0.1953  0.4905 -0.2180
 2554ntf    on517246   0.242   3.100   5.967 -0.4907  0.1460  0.0660
 2554ntf    on517247   0.221   3.343   5.963  0.3704  0.1140  0.0797
 2554ntf    fn417248   0.165   3.098   6.245  0.0863 -0.4099 -0.5462
 2554ntf    fn417249   0.163   3.315   6.258  0.0797  0.2429  0.8396
 2554ntf    fn417250   0.019   3.207   6.145  0.3561 -0.9079  0.0033
 2555ntf    cn117251   2.400   3.975   6.795  0.2330 -0.1611  0.2238
 2555ntf    sn217252   2.312   3.884   6.665  0.2276  0.2148 -0.0381
 2555ntf    nn317253   2.166   3.936   6.690  0.3405  0.4323  0.1781
 2555ntf    sn217254   2.088   4.052   6.619 -0.0837  0.1564  0.1855
 2555ntf    cn117255   2.022   4.145   6.761 -0.3105 -0.0555  0.2184
 2555ntf    fn417256   2.528   3.948   6.809  0.2400  0.1043  0.6924
 2555ntf    fn417257   2.397   4.106   6.772 -0.2687 -0.0770  0.7205
 2555ntf    fn417258   2.338   3.967   6.912 -0.3649 -0.3758 -0.1057
 2555ntf    on517259   2.376   3.925   6.542  0.3000  0.1318 -0.0287
 2555ntf    on517260   2.328   3.747   6.709  0.6058  0.0911 -0.5522
 2555ntf    on517261   1.967   4.009   6.554  0.3027 -0.5831 -0.0542
 2555ntf    on517262   2.148   4.165   6.553  0.3532 -0.2639 -0.1412
 2555ntf    fn417263   1.919   4.086   6.819 -0.2298  0.1271  0.5512
 2555ntf    fn417264   2.121   4.166   6.846 -0.4257 -0.4996  0.4664
 2555ntf    fn417265   1.970   4.258   6.717  0.5506 -0.0020 -0.6909
 2556ntf    cn117266   0.637   5.126   2.602  0.1562 -0.4396  0.2472
 2556ntf    sn217267   0.728   5.086   2.450 -0.0559 -0.1987  0.0561
 2556ntf    nn317268   0.835   5.201   2.457 -0.5734  0.3306 -0.5656
 2556ntf    sn217269   0.846   5.324   2.361  0.0483  0.5142 -0.2645
 2556ntf    cn117270   0.943   5.436   2.466  0.0597  0.3281 -0.0778
 2556ntf    fn417271   0.604   5.254   2.611  0.7109 -0.2943  0.2461
 2556ntf    fn417272   0.530   5.053   2.629 -0.1007 -0.1242  0.0920
 2556ntf    fn417273   0.714   5.108   2.709 -0.1616  0.0115  0.5580
 2556ntf    on517274   0.781   4.959   2.492  0.1054 -0.1358  0.0444
 2556ntf    on517275   0.625   5.099   2.350  0.4872 -0.2063 -0.5084
 2556ntf    on517276   0.722   5.392   2.334 -0.0058  0.5760  0.1358
 2556ntf    on517277   0.935   5.300   2.250 -0.3462 -0.2610 -0.4129
 2556ntf    fn417278   0.887   5.445   2.586  0.2594 -0.0142  0.0432
 2556ntf    fn417279   1.063   5.388   2.496  0.0478  0.4824  0.2255
 2556ntf    fn417280   0.966   5.558   2.419 -0.5204  0.1943 -0.7132
 2557ntf    cn117281   5.941   6.883   2.859 -0.1900 -0.0700 -0.2851
 2557ntf    sn217282   5.972   6.704   2.855  0.0832 -0.0319  0.0686
 2557ntf    nn317283   5.824   6.652   2.854  0.2408 -0.4838 -0.3492
 2557ntf    sn217284   5.741   6.609   2.728 -0.3574 -0.1679 -0.0663
 2557ntf    cn117285   5.574   6.611   2.801 -0.3293  0.2811 -0.0060
 2557ntf    fn417286   5.863   6.920   2.760 -0.4169 -0.0087 -0.0841
 2557ntf    fn417287   5.884   6.912   2.975  0.4093 -0.0600  0.0133
 2557ntf    fn417288   6.048   6.959   2.843 -0.4392  0.3887  0.1976
 2557ntf    on517289   6.049   6.680   2.736 -0.2574  0.2224 -0.2036
 2557ntf    on517290   6.028   6.657   2.980  0.7243 -0.2738 -0.3072
 2557ntf    on517291   5.765   6.474   2.684  0.1199  0.1014 -0.6351
 2557ntf    on517292   5.741   6.713   2.628  0.2876 -0.2046 -0.1089
 2557ntf    fn417293   5.535   6.491   2.842 -0.4489  0.1370 -0.5280
 2557ntf    fn417294   5.553   6.697   2.899  0.1013  0.3910 -0.0081
 2557ntf    fn417295   5.494   6.628   2.697 -0.4107  0.0717  0.0218
 2558ntf    cn117296   5.276   5.505   1.667  0.0419  0.3325 -0.4290
 2558ntf    sn217297   5.164   5.380   1.598  0.0301  0.0136  0.1609
 2558ntf    nn317298   5.268   5.300   1.511 -0.1611  0.1303 -0.1754
 2558ntf    sn217299   5.236   5.210   1.386  0.4221  0.0970 -0.3056
 2558ntf    cn117300   5.241   5.334   1.254 -0.3679 -0.1600 -0.5890
 2558ntf    fn417301   5.210   5.605   1.723 -0.2078  0.3194 -0.6985
 2558ntf    fn417302   5.347   5.452   1.766  0.2371  0.2492 -0.6110
 2558ntf    fn417303   5.360   5.563   1.583  0.7388  0.5202  0.3812
 2558ntf    on517304   5.119   5.298   1.707 -0.1532  0.0471  0.1111
 2558ntf    on517305   5.076   5.450   1.508  0.5609  0.2673 -0.1687
 2558ntf    on517306   5.103   5.153   1.385  0.2045  0.5916  0.1519
 2558ntf    on517307   5.344   5.118   1.360  0.3304 -0.0624 -0.1265
 2558ntf    fn417308   5.275   5.292   1.134  0.3336 -0.0141 -0.4451
 2558ntf    fn417309   5.133   5.411   1.255 -0.0498  0.2995 -0.7562
 2558ntf    fn417310   5.336   5.418   1.294  0.1033 -0.5820 -0.8110
 2559ntf    cn117311   6.024   6.463   4.107  0.0723  0.1290 -0.0658
 2559ntf    sn217312   5.843   6.456   4.123  0.1124 -0.6622  0.1371
 2559ntf    nn317313   5.815   6.444   3.969 -0.5371  0.1918  0.1796
 2559ntf    sn217314   5.717   6.518   3.871 -0.3641  0.1791 -0.0055
 2559ntf    cn117315   5.828   6.624   3.773 -0.1461 -0.1379 -0.1046
 2559ntf    fn417316   6.071   6.565   4.038  0.1856  0.0562 -0.0979
 2559ntf    fn417317   6.100   6.466   4.216 -0.5648  0.2344  0.3817
 2559ntf    fn417318   6.064   6.355   4.041 -0.4063  0.1799 -0.4364
 2559ntf    on517319   5.820   6.339   4.203  0.1325 -0.2310  0.7816
 2559ntf    on517320   5.820   6.590   4.173  0.5365 -0.3069 -0.5962
 2559ntf    on517321   5.618   6.606   3.927  0.0780  0.9045 -0.3464
 2559ntf    on517322   5.669   6.436   3.763 -0.5560  0.2787  0.0034
 2559ntf    fn417323   5.787   6.650   3.650 -0.5007  0.0960  0.0598
 2559ntf    fn417324   5.867   6.735   3.833  0.0758 -0.1916 -0.1507
 2559ntf    fn417325   5.943   6.560   3.758  0.1186  0.2408  0.2877
 2560ntf    cn117326   6.193   0.034   3.723  0.2804  0.0204 -0.3524
 2560ntf    sn217327   6.208   0.215   3.723 -0.0108  0.0453  0.1639
 2560ntf    nn317328   6.066   0.269   3.684 -0.0483  0.0520  0.3065
 2560ntf    sn217329   5.948   0.289   3.785  0.0322 -0.0208  0.4143
 2560ntf    cn117330   5.981   0.465   3.818 -0.2962  0.1984 -0.3771
 2560ntf    fn417331   6.302  -0.025   3.770  0.2922  0.3884  0.0949
 2560ntf    fn417332   6.097   0.016   3.812  0.2466 -0.6072 -0.5144
 2560ntf    fn417333   6.147  -0.030   3.617 -0.0338 -0.0251 -0.1882
 2560ntf    on517334   6.255   0.263   3.851 -0.9711  0.0100  0.5420
 2560ntf    on517335   6.297   0.228   3.610  0.2183 -0.7662  0.2444
 2560ntf    on517336   5.959   0.226   3.914  0.0665 -0.3057  0.2729
 2560ntf    on517337   5.819   0.285   3.720  0.3385 -0.1423 -0.1897
 2560ntf    fn417338   6.084   0.483   3.900 -0.6797  0.3048  0.0894
 2560ntf    fn417339   6.001   0.529   3.704 -0.5052  0.3603 -0.3231
 2560ntf    fn417340   5.885   0.523   3.888 -0.0839 -0.1299  0.2007
 2561ntf    cn117341   0.094   3.953   5.395 -0.1097 -0.2009  0.2550
 2561ntf    sn217342   0.166   3.869   5.538  0.0018  0.0092  0.3235
 2561ntf    nn317343   0.309   3.845   5.480 -0.0401 -0.2010  0.3068
 2561ntf    sn217344   0.367   3.709   5.427 -0.2310 -0.2830  0.3070
 2561ntf    cn117345   0.544   3.749   5.436 -0.2137 -0.2208 -0.2582
 2561ntf    fn417346   0.177   4.050   5.358 -0.2496 -0.0627  0.3025
 2561ntf    fn417347   0.071   3.880   5.287 -0.7283  0.1176  0.1611
 2561ntf    fn417348  -0.018   4.020   5.417  0.0598  0.2434 -0.2140
 2561ntf    on517349   0.163   3.978   5.633  0.4940  0.3121 -0.0101
 2561ntf    on517350   0.086   3.751   5.565 -0.2931  0.0444 -0.3748
 2561ntf    on517351   0.361   3.690   5.284  1.1112 -0.8950  0.3167
 2561ntf    on517352   0.343   3.599   5.517 -0.4114 -0.2720  0.2730
 2561ntf    fn417353   0.573   3.836   5.341  0.0576 -0.2030 -0.1630
 2561ntf    fn417354   0.582   3.807   5.550  0.2336  0.3543 -0.6915
 2561ntf    fn417355   0.613   3.641   5.404  0.1908  0.0854 -0.4251
 2562ntf    cn117356   5.913   6.726   4.644  0.0202 -0.2889  0.2305
 2562ntf    sn217357   5.909   6.816   4.802 -0.0366 -0.1993  0.1781
 2562ntf    nn317358   5.813   6.937   4.773  0.3664  0.1608  0.3220
 2562ntf    sn217359   5.824   7.061   4.677  0.0492 -0.4329 -0.4963
 2562ntf    cn117360   5.688   7.028   4.561 -0.3995  0.0193 -0.1048
 2562ntf    fn417361   5.983   6.614   4.652  0.4741 -0.0066  0.1958
 2562ntf    fn417362   5.787   6.695   4.616 -0.0982 -0.0726  0.5156
 2562ntf    fn417363   5.964   6.802   4.549  0.5422  0.1736  0.8816
 2562ntf    on517364   5.859   6.719   4.896  0.0084  0.0488  0.4604
 2562ntf    on517365   6.049   6.852   4.812 -0.0762  0.3916 -1.1615
 2562ntf    on517366   5.939   7.061   4.591  0.1814  0.0314 -0.3212
 2562ntf    on517367   5.786   7.181   4.748  0.2020 -0.9632  0.5101
 2562ntf    fn417368   5.691   6.911   4.500 -0.4149  0.1495 -0.3565
 2562ntf    fn417369   5.566   7.036   4.611 -0.4583 -0.4558 -0.1680
 2562ntf    fn417370   5.681   7.111   4.458  0.2266  0.3074  0.0794
 2563ntf    cn117371   1.822   6.529   6.773 -0.0838  0.0540  0.2274
 2563ntf    sn217372   1.911   6.437   6.902 -0.0401  0.0129  0.1685
 2563ntf    nn317373   1.836   6.299   6.896 -0.4232  0.2389 -0.3360
 2563ntf    sn217374   1.696   6.259   6.955 -0.0359 -0.4300  0.1504
 2563ntf    cn117375   1.747   6.185   7.113  0.3957 -0.3042  0.0717
 2563ntf    fn417376   1.690   6.521   6.774 -0.0613 -0.4651 -0.3805
 2563ntf    fn417377   1.847   6.659   6.771 -0.4845  0.1257 -0.3414
 2563ntf    fn417378   1.862   6.483   6.656 -0.3988 -0.5833  0.3680
 2563ntf    on517379   2.051   6.431   6.867  0.0037 -0.0093  0.3460
 2563ntf    on517380   1.879   6.515   7.019  0.2035  0.9183 -0.3577
 2563ntf    on517381   1.646   6.155   6.869 -0.2570  0.0513 -0.3119
 2563ntf    on517382   1.597   6.357   6.993 -0.1665 -0.2273 -0.6936
 2563ntf    fn417383   1.827   6.267   7.178 -0.1511  0.5587 -0.3188
 2563ntf    fn417384   1.648   6.157   7.196 -0.0295  0.1396 -0.2789
 2563ntf    fn417385   1.823   6.078   7.097 -0.0657 -0.6595  0.2261
 2564ntf    cn117386   1.690   5.256   2.096 -0.0544  0.3365  0.2876
 2564ntf    sn217387   1.749   5.379   2.216 -0.0238  0.4551  0.1511
 2564ntf    nn317388   1.619   5.449   2.268 -0.5411 -0.1206 -0.3583
 2564ntf    sn217389   1.564   5.465   2.414  0.2555 -0.2568 -0.0392
 2564ntf    cn117390   1.693   5.556   2.504  0.3314 -0.1156 -0.2899
 2564ntf    fn417391   1.623   5.302   1.992 -0.2185 -0.5495 -0.0095
 2564ntf    fn417392   1.785   5.175   2.054 -0.5188 -0.1050  0.0720
 2564ntf    fn417393   1.599   5.177   2.151 -0.0306 -0.0038 -0.1587
 2564ntf    on517394   1.811   5.286   2.308 -0.2620  0.0490 -0.0966
 2564ntf    on517395   1.834   5.462   2.134  0.9982 -0.4001  0.3147
 2564ntf    on517396   1.534   5.341   2.483  0.0170 -0.2070 -0.0513
 2564ntf    on517397   1.457   5.562   2.410  0.0569 -0.4724  0.0019
 2564ntf    fn417398   1.728   5.662   2.433  0.1605  0.5303  0.5680
 2564ntf    fn417399   1.659   5.613   2.619 -0.6003 -0.0233 -0.5985
 2564ntf    fn417400   1.798   5.477   2.518 -0.0939 -0.6122  0.1507
 2565ntf    cn117401   4.619   6.445   5.604  0.0070  0.0025  0.3890
 2565ntf    sn217402   4.616   6.614   5.536  0.3498 -0.2086 -0.1549
 2565ntf    nn317403   4.744   6.620   5.444  0.3684  0.2284 -0.1006
 2565ntf    sn217404   4.783   6.726   5.335 -0.1399  0.4161 -0.1054
 2565ntf    cn117405   4.734   6.633   5.186  0.0209  0.8217 -0.4132
 2565ntf    fn417406   4.514   6.427   5.683  0.1806  0.4496  0.7300
 2565ntf    fn417407   4.612   6.347   5.516  0.0759  0.0460  0.3353
 2565ntf    fn417408   4.727   6.413   5.673 -0.2613 -0.3833  0.6308
 2565ntf    on517409   4.484   6.612   5.479 -0.0013 -0.7500  0.6649
 2565ntf    on517410   4.627   6.695   5.655 -1.0522  0.1715 -0.2783
 2565ntf    on517411   4.927   6.738   5.335 -0.0929 -0.1371  0.0307
 2565ntf    on517412   4.692   6.837   5.342 -0.0256  0.5092 -0.0899
 2565ntf    fn417413   4.771   6.707   5.083  0.1304  0.9039 -0.3149
 2565ntf    fn417414   4.790   6.513   5.186  0.1347  0.8684  0.3990
 2565ntf    fn417415   4.606   6.601   5.173  0.0952  0.2844  0.1381
 2566ntf    cn117416   6.993   5.556   4.682  0.0023 -0.0071  0.0123
 2566ntf    sn217417   6.858   5.468   4.597  0.0853 -0.0410 -0.0849
 2566ntf    nn317418   6.740   5.539   4.671  0.0289 -0.0393 -0.1766
 2566ntf    sn217419   6.707   5.524   4.824  0.1396 -0.3493 -0.1822
 2566ntf    cn117420   6.556   5.423   4.833 -0.3230  0.3272 -0.2744
 2566ntf    fn417421   7.109   5.492   4.680  0.0877  0.1540 -0.3827
 2566ntf    fn417422   7.022   5.666   4.614  0.2090 -0.1940 -0.2030
 2566ntf    fn417423   6.971   5.604   4.803 -0.0163  0.1467 -0.0517
 2566ntf    on517424   6.889   5.508   4.461  0.4783  0.8789  0.2671
 2566ntf    on517425   6.866   5.327   4.628 -0.2051 -0.1065 -0.2978
 2566ntf    on517426   6.666   5.644   4.893 -0.4895 -0.4832 -0.3172
 2566ntf    on517427   6.790   5.434   4.899  0.0623 -0.3188 -0.0605
 2566ntf    fn417428   6.473   5.447   4.732  0.1009  0.4043 -0.6130
 2566ntf    fn417429   6.575   5.292   4.834 -0.3731  0.3158 -0.6817
 2566ntf    fn417430   6.482   5.435   4.941  0.0367  0.5145 -0.0473
 2567ntf    cn117431   2.222   6.483   1.324  0.1854 -0.0219 -0.2916
 2567ntf    sn217432   2.116   6.337   1.298 -0.0905  0.1099  0.0776
 2567ntf    nn317433   1.973   6.393   1.326 -0.2022  0.1226 -0.5138
 2567ntf    sn217434   1.908   6.425   1.465  0.0327 -0.1206 -0.3482
 2567ntf    cn117435   1.806   6.277   1.489  0.1969 -0.1477  0.1872
 2567ntf    fn417436   2.346   6.450   1.292  0.2053  0.1879 -0.4340
 2567ntf    fn417437   2.192   6.583   1.243  0.3140  0.7268  0.5681
 2567ntf    fn417438   2.224   6.519   1.451 -0.0434 -0.3691 -0.1849
 2567ntf    on517439   2.126   6.315   1.156 -0.6358 -0.4636  0.1225
 2567ntf    on517440   2.173   6.233   1.380 -0.0002 -0.0232 -0.1513
 2567ntf    on517441   1.808   6.529   1.459  0.1875  0.0680  0.2784
 2567ntf    on517442   2.001   6.437   1.575 -0.2218  0.9556 -0.2332
 2567ntf    fn417443   1.884   6.170   1.491  0.3463 -0.0622 -0.8547
 2567ntf    fn417444   1.743   6.284   1.606 -0.6407 -0.3582 -0.2434
 2567ntf    fn417445   1.715   6.267   1.394  0.1119  0.0360  0.2500
 2568ntf    cn117446   4.456   0.438   0.494 -0.0749 -0.6073  0.3421
 2568ntf    sn217447   4.324   0.472   0.374 -0.1813 -0.1504  0.5897
 2568ntf    nn317448   4.260   0.331   0.347  0.4551 -0.2843 -0.2545
 2568ntf    sn217449   4.122   0.282   0.403  0.3055  0.2862 -0.1139
 2568ntf    cn117450   3.992   0.371   0.313  0.3567  0.5521  0.0757
 2568ntf    fn417451   4.478   0.546   0.566 -0.0464 -0.1913 -0.2798
 2568ntf    fn417452   4.418   0.343   0.578  0.0470 -0.7137  0.2789
 2568ntf    fn417453   4.571   0.397   0.442 -0.2391 -0.2523 -0.3051
 2568ntf    on517454   4.235   0.564   0.442  0.2442  0.0600  0.8675
 2568ntf    on517455   4.396   0.523   0.261 -0.4778 -0.6591  0.1686
 2568ntf    on517456   4.096   0.332   0.536  0.6115 -0.3029  0.1720
 2568ntf    on517457   4.109   0.141   0.372  0.6666  0.1484  0.3539
 2568ntf    fn417458   3.998   0.341   0.185 -0.4619 -0.1818  0.2005
 2568ntf    fn417459   3.870   0.338   0.352  0.4575 -0.0781 -0.1302
 2568ntf    fn417460   3.993   0.503   0.325  0.4866  0.5352  0.2444
 2569ntf    cn117461   5.487   2.412   1.829  0.0065  0.1166 -0.1622
 2569ntf    sn217462   5.497   2.353   2.001 -0.1317  0.7537  0.0695
 2569ntf    nn317463   5.625   2.425   2.056 -0.0627  0.5900  0.1216
 2569ntf    sn217464   5.776   2.394   2.028 -0.0904  0.0158  0.5862
 2569ntf    cn117465   5.842   2.475   2.177  0.2794  0.2128  0.3164
 2569ntf    fn417466   5.444   2.538   1.826 -0.6227 -0.0948 -0.2568
 2569ntf    fn417467   5.600   2.398   1.763  0.0664 -0.0199 -0.0319
 2569ntf    fn417468   5.402   2.342   1.755  0.2051 -0.1246 -0.1620
 2569ntf    on517469   5.381   2.411   2.064 -0.3758 -0.1794  0.4977
 2569ntf    on517470   5.501   2.209   1.996  0.7621  0.7901 -0.4958
 2569ntf    on517471   5.826   2.469   1.916 -0.7548 -0.1898  0.1481
 2569ntf    on517472   5.820   2.256   2.025  0.4166  0.1778  0.4577
 2569ntf    fn417473   5.973   2.470   2.190  0.3464  0.0378 -0.3744
 2569ntf    fn417474   5.812   2.604   2.172  0.0609  0.1500 -0.0136
 2569ntf    fn417475   5.791   2.417   2.284  0.1191 -0.0239  0.1117
 2570ntf    cn117476   2.467   1.912   1.104  0.3695 -0.2942  0.0040
 2570ntf    sn217477   2.306   1.882   1.025  0.3565 -0.1233 -0.0345
 2570ntf    nn317478   2.299   2.026   0.964 -0.5683 -0.0397  0.2536
 2570ntf    sn217479   2.239   2.159   1.022 -0.1590  0.1698  0.1996
 2570ntf    cn117480   2.061   2.139   0.991 -0.1561  0.1165  0.2194
 2570ntf    fn417481   2.561   1.950   1.020 -0.0921 -0.3971 -0.5662
 2570ntf    fn417482   2.462   1.999   1.204 -0.6006  0.1226 -0.3990
 2570ntf    fn417483   2.522   1.802   1.154  0.2727 -0.2150  0.2870
 2570ntf    on517484   2.329   1.784   0.922  0.2535  0.3387 -0.4990
 2570ntf    on517485   2.222   1.842   1.136  0.4544 -0.4385 -0.0719
 2570ntf    on517486   2.285   2.274   0.947 -0.2672  0.3187  0.3607
 2570ntf    on517487   2.255   2.179   1.164  1.3937  0.5963 -0.0156
 2570ntf    fn417488   2.015   2.022   1.034 -0.3225 -0.0418 -0.3788
 2570ntf    fn417489   1.982   2.227   1.050 -0.2770  0.1255  0.0440
 2570ntf    fn417490   2.048   2.144   0.860  0.2527  0.0199  0.1750
 2571ntf    cn117491   0.507   6.788   0.688 -0.2206  0.2208  0.2132
 2571ntf    sn217492   0.654   6.893   0.698 -0.2653  0.3118 -0.0783
 2571ntf    nn317493   0.584   7.018   0.761  0.4656  0.5820  0.2156
 2571ntf    sn217494   0.554   7.046   0.913  0.1668 -0.3374  0.3346
 2571ntf    cn117495   0.377   7.087   0.916  0.3249  0.3914 -0.0832
 2571ntf    fn417496   0.392   6.849   0.665  0.0567  0.6730  0.0328
 2571ntf    fn417497   0.525   6.690   0.601  0.2968  0.1207  0.4320
 2571ntf    fn417498   0.488   6.735   0.808 -0.0663 -0.6719 -0.1422
 2571ntf    on517499   0.746   6.825   0.787 -0.4089 -0.6152 -0.6248
 2571ntf    on517500   0.698   6.914   0.562 -0.3151  0.1215 -0.1238
 2571ntf    on517501   0.623   7.163   0.962  0.2097 -0.1016 -0.2784
 2571ntf    on517502   0.546   6.928   0.996  0.6430 -0.6065  0.0018
 2571ntf    fn417503   0.305   6.982   0.883 -0.3588  0.7820  0.1533
 2571ntf    fn417504   0.347   7.127   1.038 -0.3060  0.4017 -0.2411
 2571ntf    fn417505   0.342   7.187   0.837 -0.0820  0.0045 -0.3981
 2572ntf    cn117506   3.279   0.928   5.650 -0.2731  0.3843  0.0236
 2572ntf    sn217507   3.305   1.059   5.526  0.1057  0.2334 -0.0562
 2572ntf    nn317508   3.434   1.122   5.591  0.2282 -0.1046  0.0301
 2572ntf    sn217509   3.581   1.074   5.565  0.2333  0.1224 -0.3608
 2572ntf    cn117510   3.622   1.152   5.406  0.2188  0.0877 -0.3819
 2572ntf    fn417511   3.169   0.856   5.634  0.0538 -0.1874  0.3156
 2572ntf    fn417512   3.376   0.838   5.643 -0.3227  0.3306  0.0313
 2572ntf    fn417513   3.283   0.987   5.769 -0.1100 -0.0652  0.2417
 2572ntf    on517514   3.316   0.979   5.406  0.5044  0.0382  0.1073
 2572ntf    on517515   3.190   1.145   5.539 -0.2859 -0.3221  0.1796
 2572ntf    on517516   3.608   0.933   5.544 -0.7433 -0.1162 -0.0637
 2572ntf    on517517   3.667   1.142   5.658  0.3102  0.3059 -0.5661
 2572ntf    fn417518   3.630   1.284   5.411 -0.4708  0.1160  0.2080
 2572ntf    fn417519   3.742   1.114   5.367 -0.0055 -0.7106 -0.3211
 2572ntf    fn417520   3.538   1.126   5.306 -0.5104  0.0026  0.2391
 2573ntf    cn117521   1.648   5.109   1.326  0.2930 -0.4393  0.3637
 2573ntf    sn217522   1.643   5.206   1.480  0.3104  0.5498 -0.2518
 2573ntf    nn317523   1.764   5.137   1.552 -0.2602 -0.1085  0.0861
 2573ntf    sn217524   1.751   5.006   1.638  0.0367 -0.2907 -0.1490
 2573ntf    cn117525   1.736   5.093   1.796  0.7637 -0.2699 -0.0862
 2573ntf    fn417526   1.598   4.989   1.353 -0.1598 -0.2778  0.2557
 2573ntf    fn417527   1.568   5.168   1.239  0.6829 -0.0155  0.2874
 2573ntf    fn417528   1.767   5.098   1.270  0.1120 -0.7123  0.0372
 2573ntf    on517529   1.677   5.340   1.438  0.6753  0.5246 -0.0398
 2573ntf    on517530   1.512   5.196   1.541  0.6750 -0.3140  0.4169
 2573ntf    on517531   1.877   4.937   1.650  0.2760  0.1200 -0.2828
 2573ntf    on517532   1.637   4.920   1.617  0.0861 -0.3369 -0.2311
 2573ntf    fn417533   1.698   5.009   1.891 -0.0928  0.2035  0.0032
 2573ntf    fn417534   1.854   5.147   1.823  0.4926  0.3304 -0.0708
 2573ntf    fn417535   1.645   5.188   1.781  0.7062 -0.2703  0.2501
 2574ntf    cn117536   3.627   1.597   3.892 -0.2068 -0.2091  0.0185
 2574ntf    sn217537   3.462   1.672   3.905 -0.0397  0.1336  0.1771
 2574ntf    nn317538   3.379   1.555   3.970  0.0936  0.2513  0.5609
 2574ntf    sn217539   3.249   1.552   4.057 -0.1562 -0.1734  0.1760
 2574ntf    cn117540   3.268   1.410   4.168 -0.3782 -0.4603 -0.1501
 2574ntf    fn417541   3.659   1.565   4.016 -0.0396 -0.4741 -0.0907
 2574ntf    fn417542   3.621   1.486   3.819  0.5246  0.1040 -0.5319
 2574ntf    fn417543   3.717   1.680   3.841 -0.3285 -0.2095 -0.2002
 2574ntf    on517544   3.498   1.790   3.979 -0.2101  0.0745  0.3534
 2574ntf    on517545   3.418   1.698   3.770  0.1168 -0.1862  0.0638
 2574ntf    on517546   3.138   1.510   3.974 -0.2414 -0.1217  0.2635
 2574ntf    on517547   3.232   1.667   4.142  0.2772 -0.0401  0.0832
 2574ntf    fn417548   3.168   1.384   4.251  0.0478 -0.7020  0.2897
 2574ntf    fn417549   3.272   1.300   4.094  0.1660 -0.6979  0.2270
 2574ntf    fn417550   3.375   1.424   4.244 -0.0547 -0.0220 -0.6759
 2575ntf    cn117551   0.260   0.405   5.685 -0.0111 -0.0671 -0.0993
 2575ntf    sn217552   0.261   0.335   5.517  0.0349 -0.1157 -0.0788
 2575ntf    nn317553   0.336   0.203   5.556 -0.0914 -0.0197  0.4896
 2575ntf    sn217554   0.433   0.121   5.464 -0.2342  0.1958  0.1457
 2575ntf    cn117555   0.595   0.154   5.540  0.0337  0.1148 -0.3876
 2575ntf    fn417556   0.379   0.400   5.743 -0.0529 -0.2057 -0.0239
 2575ntf    fn417557   0.220   0.531   5.684 -0.0674 -0.0852 -0.1431
 2575ntf    fn417558   0.181   0.342   5.771  0.2410  0.1590  0.3011
 2575ntf    on517559   0.125   0.305   5.478  0.1124 -0.7679  0.1457
 2575ntf    on517560   0.331   0.437   5.442 -0.7179  0.5164  0.0627
 2575ntf    on517561   0.452   0.168   5.329 -0.1374  0.7885  0.3616
 2575ntf    on517562   0.406  -0.019   5.486  0.2680  0.0829  0.0497
 2575ntf    fn417563   0.601   0.110   5.664  0.2298  0.0307 -0.4265
 2575ntf    fn417564   0.696   0.103   5.471  0.3378  0.6777 -0.3649
 2575ntf    fn417565   0.616   0.284   5.551  0.1698  0.0265  0.4360
 2576ntf    cn117566   1.555   1.658   3.788 -0.0728  0.2848 -0.1723
 2576ntf    sn217567   1.708   1.561   3.770 -0.2234  0.0036  0.0518
 2576ntf    nn317568   1.637   1.427   3.730  0.0651 -0.0864 -0.1589
 2576ntf    sn217569   1.628   1.334   3.603 -0.1075 -0.4622  0.1282
 2576ntf    cn117570   1.758   1.219   3.657 -0.0362 -0.4830 -0.0897
 2576ntf    fn417571   1.471   1.620   3.882  0.2161  0.5282  0.1849
 2576ntf    fn417572   1.581   1.784   3.817 -0.0245  0.1306  0.4587
 2576ntf    fn417573   1.484   1.662   3.676  0.2466 -0.6287 -0.4187
 2576ntf    on517574   1.776   1.630   3.663 -0.3905 -0.0777 -0.1065
 2576ntf    on517575   1.758   1.560   3.905 -0.1324  0.1360  0.0187
 2576ntf    on517576   1.687   1.385   3.482  0.4026  0.0776  0.5930
 2576ntf    on517577   1.510   1.251   3.606 -0.2673 -0.2285  0.4509
 2576ntf    fn417578   1.781   1.119   3.573 -0.2737 -0.2724 -0.4051
 2576ntf    fn417579   1.873   1.284   3.667 -0.3086 -0.0376  0.1392
 2576ntf    fn417580   1.732   1.169   3.777  0.6249 -0.0054  0.2573
 2577ntf    cn117581   3.437   4.228   6.696  0.1909  0.5525 -0.1741
 2577ntf    sn217582   3.512   4.267   6.857 -0.3085  0.3074  0.1206
 2577ntf    nn317583   3.639   4.177   6.847 -0.3218  0.2590  0.3777
 2577ntf    sn217584   3.790   4.217   6.868 -0.2741  0.2807 -0.0030
 2577ntf    cn117585   3.795   4.182   7.046 -0.2167  0.3165  0.0021
 2577ntf    fn417586   3.307   4.253   6.702 -0.0283 -0.6571  0.5116
 2577ntf    fn417587   3.486   4.299   6.596  0.1730  0.5238 -0.2025
 2577ntf    fn417588   3.436   4.100   6.664  0.1186  0.4936  0.0548
 2577ntf    on517589   3.527   4.407   6.824 -0.1575  0.2445 -0.0737
 2577ntf    on517590   3.414   4.213   6.949 -0.1760 -0.4413 -0.1774
 2577ntf    on517591   3.835   4.348   6.830 -0.5195  0.4501  0.2913
 2577ntf    on517592   3.862   4.104   6.814 -0.4299 -0.1568  0.6888
 2577ntf    fn417593   3.900   4.242   7.102 -0.3015  0.2653  0.2183
 2577ntf    fn417594   3.695   4.222   7.123  0.1877  0.6188  0.3834
 2577ntf    fn417595   3.809   4.054   7.073 -0.8150  0.3979  0.7420
 2578ntf    cn117596   3.094   5.036   1.223  0.0156 -0.0441  0.3901
 2578ntf    sn217597   3.209   4.953   1.336  0.2200 -0.1652  0.0956
 2578ntf    nn317598   3.279   5.064   1.423 -0.1161  0.1991 -0.0976
 2578ntf    sn217599   3.404   5.150   1.383  0.2169 -0.1637  0.1534
 2578ntf    cn117600   3.311   5.304   1.358 -0.0059 -0.3336 -0.0730
 2578ntf    fn417601   3.007   4.942   1.192  0.0871 -0.1247  0.4327
 2578ntf    fn417602   3.020   5.133   1.273 -0.0717  0.1405 -0.0943
 2578ntf    fn417603   3.159   5.089   1.121  0.7129 -1.2083  0.2110
 2578ntf    on517604   3.116   4.882   1.421  0.5626 -0.0156  0.6036
 2578ntf    on517605   3.300   4.883   1.249  0.3421  0.3106 -0.1611
 2578ntf    on517606   3.461   5.125   1.253 -0.3761 -0.5917 -0.0305
 2578ntf    on517607   3.479   5.171   1.504 -0.1867  0.4017  0.3088
 2578ntf    fn417608   3.388   5.406   1.324 -0.6267  0.0085 -0.4687
 2578ntf    fn417609   3.213   5.283   1.272 -0.2968  0.3752  0.0742
 2578ntf    fn417610   3.253   5.333   1.474 -0.1662  0.3266 -0.3150
 2579ntf    cn117611   4.179   3.182   6.341 -0.0644  0.0638  0.2460
 2579ntf    sn217612   4.145   3.007   6.309 -0.0280  0.0699  0.1709
 2579ntf    nn317613   4.227   2.971   6.180  0.0211  0.7432  0.0148
 2579ntf    sn217614   4.176   2.955   6.033  0.2151  0.2597  0.0002
 2579ntf    cn117615   4.301   3.059   5.954  0.2071  0.2324 -0.0486
 2579ntf    fn417616   4.137   3.250   6.236 -0.1962 -0.7565 -0.2403
 2579ntf    fn417617   4.098   3.232   6.433 -0.2691  0.1792  0.0042
 2579ntf    fn417618   4.305   3.214   6.368  0.0718  0.0795 -0.3788
 2579ntf    on517619   4.193   2.954   6.434  0.3101 -0.3913 -0.1479
 2579ntf    on517620   4.002   2.990   6.292  0.0761 -0.6653 -0.0082
 2579ntf    on517621   4.052   3.020   5.999 -0.0073 -0.1476  0.0145
 2579ntf    on517622   4.204   2.824   5.980  0.4723  0.0552  0.6320
 2579ntf    fn417623   4.299   3.182   6.004  0.3075  0.0777  0.3352
 2579ntf    fn417624   4.428   3.027   5.975  0.1506 -0.0479 -0.1283
 2579ntf    fn417625   4.279   3.061   5.824 -0.2660 -0.2141  0.0216
 2580ntf    cn117626   4.669   6.096   3.328 -0.3131  0.4229 -0.3572
 2580ntf    sn217627   4.607   6.006   3.182  0.0356  0.3710 -0.4726
 2580ntf    nn317628   4.453   6.005   3.210  0.0619  0.5521 -0.3167
 2580ntf    sn217629   4.345   6.107   3.159 -0.1160  0.4275 -0.1912
 2580ntf    cn117630   4.301   6.047   2.993 -0.2947  0.3635 -0.1209
 2580ntf    fn417631   4.622   6.057   3.445  0.0360 -0.3353 -0.4627
 2580ntf    fn417632   4.801   6.093   3.334 -0.3150  0.9103 -0.0354
 2580ntf    fn417633   4.645   6.225   3.313 -0.2228  0.5242  0.3403
 2580ntf    on517634   4.651   6.080   3.066  0.9524  0.1796 -0.2610
 2580ntf    on517635   4.657   5.871   3.194 -0.5480  0.1285 -0.7411
 2580ntf    on517636   4.380   6.244   3.132  0.3316  0.4105  0.2804
 2580ntf    on517637   4.231   6.081   3.244  0.5274  0.1139  0.5835
 2580ntf    fn417638   4.287   5.915   2.995 -0.4128  0.3731 -0.3606
 2580ntf    fn417639   4.186   6.090   2.945 -0.5284  0.3208  0.3947
 2580ntf    fn417640   4.395   6.070   2.903 -0.1941  0.1626 -0.0681
 2581ntf    cn117641   0.995   2.337   0.308  0.1376  0.3429 -0.3339
 2581ntf    sn217642   0.841   2.240   0.309  0.2370  0.1875 -0.0126
 2581ntf    nn317643   0.745   2.355   0.355  0.2370  0.0266  0.3912
 2581ntf    sn217644   0.636   2.335   0.467 -0.3731  0.1057 -0.1839
 2581ntf    cn117645   0.510   2.223   0.400 -0.4032 -0.0264  0.0938
 2581ntf    fn417646   1.097   2.274   0.251  0.1836 -0.5858  0.7483
 2581ntf    fn417647   0.990   2.449   0.238  0.3449  0.3938 -0.2682
 2581ntf    fn417648   1.031   2.370   0.430  0.1392 -0.2726 -0.1646
 2581ntf    on517649   0.818   2.195   0.174  0.0870 -0.0796  0.1013
 2581ntf    on517650   0.880   2.137   0.402 -0.9088  0.3052  0.6177
 2581ntf    on517651   0.571   2.460   0.498  0.0463  0.4437 -0.6331
 2581ntf    on517652   0.679   2.252   0.576  0.0824  0.4175 -0.1210
 2581ntf    fn417653   0.480   2.238   0.272 -0.5094 -0.7546  0.0286
 2581ntf    fn417654   0.553   2.099   0.412 -0.4514 -0.0216  0.3127
 2581ntf    fn417655   0.394   2.231   0.464 -0.4816  0.0188 -0.0526
 2582ntf    cn117656   0.138   5.522   3.501  0.0191  0.2680 -0.0789
 2582ntf    sn217657   0.173   5.461   3.669 -0.1513  0.2000 -0.0684
 2582ntf    nn317658   0.160   5.305   3.657  0.4912  0.1805 -0.6291
 2582ntf    sn217659   0.219   5.187   3.742 -0.1230  0.2875 -0.0429
 2582ntf    cn117660   0.083   5.110   3.835 -0.0870  0.2945  0.0155
 2582ntf    fn417661   0.237   5.485   3.421  0.0600  0.2414 -0.0160
 2582ntf    fn417662   0.030   5.470   3.446 -0.0406 -0.3956  0.6537
 2582ntf    fn417663   0.116   5.652   3.485 -0.2439  0.2810  0.3782
 2582ntf    on517664   0.305   5.501   3.710 -0.0476  0.0568 -0.2608
 2582ntf    on517665   0.064   5.521   3.742 -0.1144  0.0434  0.1148
 2582ntf    on517666   0.306   5.219   3.852 -0.4542  0.5072  0.1571
 2582ntf    on517667   0.266   5.072   3.669 -0.3966  0.0656  0.1245
 2582ntf    fn417668   0.127   5.031   3.931  0.3646 -0.3814 -0.7452
 2582ntf    fn417669   0.011   5.204   3.895  0.6899  1.1333 -0.3425
 2582ntf    fn417670   0.000   5.045   3.754 -0.5762  0.3406  0.4707
 2583ntf    cn117671   2.607   5.378   4.352 -0.1301  0.2220  0.0967
 2583ntf    sn217672   2.738   5.484   4.284 -0.0931  0.1433  0.0461
 2583ntf    nn317673   2.651   5.542   4.167 -0.0445 -0.2920 -0.2090
 2583ntf    sn217674   2.695   5.567   4.019  0.0142  0.0150 -0.1408
 2583ntf    cn117675   2.672   5.747   4.023 -0.3382 -0.0172 -0.6680
 2583ntf    fn417676   2.580   5.273   4.276  0.5074  0.0396  0.1190
 2583ntf    fn417677   2.641   5.330   4.471  0.1603 -0.4602 -0.2599
 2583ntf    fn417678   2.496   5.445   4.380  0.0918  0.6032  0.0600
 2583ntf    on517679   2.769   5.575   4.392 -0.4438 -0.0017  0.2724
 2583ntf    on517680   2.837   5.396   4.229  0.5400  0.6323  0.3925
 2583ntf    on517681   2.597   5.528   3.921  0.0008 -0.4511  0.0538
 2583ntf    on517682   2.834   5.551   3.982  0.0425 -0.2444  0.0741
 2583ntf    fn417683   2.541   5.769   4.022 -0.2643  0.4912  0.1008
 2583ntf    fn417684   2.713   5.804   4.135 -0.0034  0.0226 -0.8096
 2583ntf    fn417685   2.742   5.812   3.932  0.1916  0.2596 -0.0687
 2584ntf    cn117686   6.894   4.868   1.668 -0.1814  0.2991  0.3009
 2584ntf    sn217687   6.753   4.903   1.559  0.3328  0.1469 -0.4200
 2584ntf    nn317688   6.653   4.927   1.677  0.2881 -0.5365 -0.3114
 2584ntf    sn217689   6.501   4.891   1.694  0.1796  0.2607  0.5294
 2584ntf    cn117690   6.512   4.730   1.776 -0.3033 -0.1560 -0.2122
 2584ntf    fn417691   6.898   4.755   1.738 -0.1325  0.1515  0.0616
 2584ntf    fn417692   7.010   4.869   1.605 -0.1847 -0.1731  0.2789
 2584ntf    fn417693   6.908   4.965   1.757 -0.0729 -0.2251  0.8620
 2584ntf    on517694   6.778   5.025   1.487 -0.1798  0.1007 -0.6785
 2584ntf    on517695   6.734   4.783   1.481  0.1053  0.0657 -0.2407
 2584ntf    on517696   6.432   4.872   1.568  0.1124  0.8625  0.4704
 2584ntf    on517697   6.434   4.974   1.790 -0.5320  0.2472  0.0549
 2584ntf    fn417698   6.398   4.673   1.812 -0.2326 -0.0010  0.2627
 2584ntf    fn417699   6.583   4.643   1.705  0.1777 -0.0736  0.1614
 2584ntf    fn417700   6.582   4.747   1.887 -0.7454 -0.5216  0.1306
 2585ntf    cn117701   0.416   3.891   6.936  0.1371 -0.3759  0.1739
 2585ntf    sn217702   0.319   4.008   7.036  0.1385 -0.2740  0.0560
 2585ntf    nn317703   0.406   4.135   7.066  0.1356 -0.0408 -0.8773
 2585ntf    sn217704   0.404   4.275   6.995 -0.1691  0.2458 -0.3152
 2585ntf    cn117705   0.283   4.357   7.102 -0.3612 -0.1827 -0.2017
 2585ntf    fn417706   0.428   3.932   6.811 -0.0562 -0.1964  0.2151
 2585ntf    fn417707   0.540   3.894   6.982  0.0600  0.1853  0.3487
 2585ntf    fn417708   0.356   3.773   6.939  0.5904 -0.6110  0.0476
 2585ntf    on517709   0.202   4.035   6.957 -0.0336  0.0624  0.4242
 2585ntf    on517710   0.302   3.939   7.162 -0.3170  0.5442  0.4455
 2585ntf    on517711   0.344   4.271   6.864 -0.6367 -0.3059 -0.0908
 2585ntf    on517712   0.524   4.351   7.020 -0.1368  0.1528 -0.1889
 2585ntf    fn417713   0.252   4.468   7.037 -0.1876  0.1277  0.2335
 2585ntf    fn417714   0.174   4.284   7.121 -0.1994 -0.3032  0.2979
 2585ntf    fn417715   0.340   4.382   7.219 -0.4874 -0.0875 -0.1602
 2586ntf    cn117716   4.799   4.400   5.242  0.0859 -0.0634 -0.3282
 2586ntf    sn217717   4.764   4.408   5.420  0.1667  0.3589 -0.3310
 2586ntf    nn317718   4.757   4.564   5.442  0.0705  0.3517 -0.3141
 2586ntf    sn217719   4.880   4.657   5.468  0.3948 -0.1488 -0.0274
 2586ntf    cn117720   4.857   4.684   5.646  0.0597 -0.0098 -0.0917
 2586ntf    fn417721   4.845   4.281   5.206  0.3082 -0.1731  0.3029
 2586ntf    fn417722   4.694   4.426   5.166 -0.1308 -0.1691 -0.0640
 2586ntf    fn417723   4.895   4.480   5.199  0.0827  0.2779  0.2912
 2586ntf    on517724   4.633   4.349   5.430  0.4097 -0.1216  0.0768
 2586ntf    on517725   4.868   4.333   5.486 -0.1416 -0.0926 -0.3589
 2586ntf    on517726   4.859   4.786   5.405  0.1170  0.0415  0.4511
 2586ntf    on517727   5.009   4.594   5.455 -0.0801 -1.0944 -0.2520
 2586ntf    fn417728   4.942   4.777   5.686 -0.1242  0.2220 -0.2349
 2586ntf    fn417729   4.734   4.722   5.677  0.1529 -0.1748  0.5054
 2586ntf    fn417730   4.878   4.572   5.714 -0.0076  0.0662  0.0555
 2587ntf    cn117731   3.701   3.329   0.863 -0.1449 -0.3154 -0.2964
 2587ntf    sn217732   3.789   3.184   0.798  0.3336  0.0286 -0.4178
 2587ntf    nn317733   3.703   3.066   0.855  1.3381 -0.3041  0.4433
 2587ntf    sn217734   3.724   2.910   0.849  0.0352 -0.4881  0.2553
 2587ntf    cn117735   3.746   2.885   0.670  0.1352 -0.0323  0.2017
 2587ntf    fn417736   3.589   3.340   0.794 -0.2751 -0.4573 -0.1102
 2587ntf    fn417737   3.663   3.316   0.990 -0.5610  0.4691 -0.3349
 2587ntf    fn417738   3.769   3.441   0.848  0.1852 -0.4531  0.1548
 2587ntf    on517739   3.791   3.203   0.655  0.3778  0.3698 -0.3719
 2587ntf    on517740   3.918   3.186   0.862  0.3796 -0.2356 -0.5014
 2587ntf    on517741   3.615   2.824   0.888 -0.1374 -0.5268 -0.3111
 2587ntf    on517742   3.847   2.868   0.911  0.5182  0.4934 -0.0165
 2587ntf    fn417743   3.863   2.933   0.633  0.2613 -0.2896  0.2665
 2587ntf    fn417744   3.748   2.755   0.647  0.2042 -0.0085  0.0772
 2587ntf    fn417745   3.647   2.939   0.601  0.0900 -0.1621  0.1656
 2588ntf    cn117746   0.785   4.210   1.052  0.2216  0.2688 -0.6423
 2588ntf    sn217747   0.722   4.137   0.898  0.0368 -0.3444 -0.2803
 2588ntf    nn317748   0.781   3.991   0.899  0.5682 -0.1286 -0.2404
 2588ntf    sn217749   0.704   3.857   0.923  0.1142  0.1909  0.0935
 2588ntf    cn117750   0.837   3.744   0.971  0.0917  0.1401  0.0362
 2588ntf    fn417751   0.770   4.340   1.065  0.3174  0.1708  0.6015
 2588ntf    fn417752   0.729   4.154   1.158  0.7748  0.5883 -0.1704
 2588ntf    fn417753   0.914   4.182   1.061  0.1089 -0.0454  0.0574
 2588ntf    on517754   0.579   4.143   0.911  0.1466  0.1615  0.7690
 2588ntf    on517755   0.776   4.225   0.798 -0.1798 -0.1578 -0.2331
 2588ntf    on517756   0.655   3.797   0.801  0.2846  0.0028  0.1175
 2588ntf    on517757   0.621   3.853   1.040 -0.2291 -0.4253 -0.1674
 2588ntf    fn417758   0.915   3.711   0.869  0.7295  0.1773  0.5008
 2588ntf    fn417759   0.918   3.796   1.061  0.4232 -0.1770 -0.0746
 2588ntf    fn417760   0.795   3.630   1.025 -0.0776  0.1384 -0.0984
 2589ntf    cn117761   1.607   1.188   6.237  0.3321  0.0078  0.0215
 2589ntf    sn217762   1.606   1.260   6.070 -0.3142 -0.1467 -0.0426
 2589ntf    nn317763   1.761   1.275   6.055 -0.2719  0.1428  0.6179
 2589ntf    sn217764   1.851   1.404   6.055 -0.4311  0.2598 -0.1736
 2589ntf    cn117765   2.020   1.341   6.038 -0.4582  0.0579  0.2963
 2589ntf    fn417766   1.670   1.265   6.324 -0.1394  0.8917 -0.4103
 2589ntf    fn417767   1.488   1.154   6.284  0.3736  0.4949  0.4842
 2589ntf    fn417768   1.680   1.077   6.227 -0.5312 -0.6021  0.3742
 2589ntf    on517769   1.542   1.166   5.982 -0.8124 -0.1475  0.3158
 2589ntf    on517770   1.526   1.378   6.094  0.8029  0.5999  0.1129
 2589ntf    on517771   1.856   1.470   6.183  0.1760 -0.2795  0.0842
 2589ntf    on517772   1.835   1.486   5.937 -0.4572 -0.1606 -0.4624
 2589ntf    fn417773   2.056   1.276   6.148  0.1025 -0.5170 -0.2203
 2589ntf    fn417774   2.062   1.272   5.933 -0.1436  0.0730  0.4104
 2589ntf    fn417775   2.083   1.457   6.031  0.4834 -0.4503  0.1739
 2590ntf    cn117776   3.074   5.009   2.827  0.3064 -0.0023 -0.3661
 2590ntf    sn217777   2.954   5.016   2.963  0.5120 -0.1452 -0.1769
 2590ntf    nn317778   2.850   5.113   2.896  0.5928  0.6356  0.8075
 2590ntf    sn217779   2.711   5.164   2.950  0.1546  0.1610  0.1329
 2590ntf    cn117780   2.755   5.331   3.004  0.1733  0.0324  0.5186
 2590ntf    fn417781   3.088   5.125   2.765  0.2607  0.2432  0.0766
 2590ntf    fn417782   3.194   4.977   2.873  0.0285  0.0402  0.4087
 2590ntf    fn417783   3.036   4.912   2.745 -0.6681 -0.2666  0.3702
 2590ntf    on517784   2.909   4.881   2.988 -0.0471  0.1296  0.3418
 2590ntf    on517785   3.026   5.085   3.068  0.0639 -0.3131  0.2495
 2590ntf    on517786   2.671   5.099   3.072  0.1358  0.8930  0.5175
 2590ntf    on517787   2.608   5.194   2.854  0.5885  0.5807 -0.2088
 2590ntf    fn417788   2.643   5.391   3.039  0.1281  0.1776  0.1293
 2590ntf    fn417789   2.842   5.337   3.104 -0.1319  0.2643  0.7713
 2590ntf    fn417790   2.798   5.406   2.903  0.6229 -0.2504  0.4964
 2591ntf    cn117791   2.692   4.736   0.911  0.2344 -0.1641 -0.4102
 2591ntf    sn217792   2.581   4.869   0.855  0.0275 -0.1739 -0.0337
 2591ntf    nn317793   2.632   4.982   0.951 -0.2452 -0.0229 -0.0681
 2591ntf    sn217794   2.704   5.114   0.907 -0.0892 -0.1774 -0.2751
 2591ntf    cn117795   2.558   5.211   0.861  0.0786  0.3890  0.3676
 2591ntf    fn417796   2.704   4.743   1.043 -0.0362 -0.4495 -0.3706
 2591ntf    fn417797   2.648   4.614   0.884 -0.0020 -0.2253  0.2254
 2591ntf    fn417798   2.817   4.755   0.872  0.1899  0.5770 -0.2098
 2591ntf    on517799   2.602   4.889   0.713 -0.7159  0.2502 -0.0842
 2591ntf    on517800   2.450   4.824   0.895 -0.1443  0.0891 -0.2960
 2591ntf    on517801   2.790   5.118   0.791  0.3250  0.2697  0.0431
 2591ntf    on517802   2.736   5.192   1.024 -0.6473 -0.0580 -0.2035
 2591ntf    fn417803   2.499   5.161   0.753  0.5832 -0.0657  0.2949
 2591ntf    fn417804   2.471   5.192   0.958 -0.1756  0.4208  0.1472
 2591ntf    fn417805   2.591   5.339   0.857  0.1224  0.3673 -0.0302
 2592ntf    cn117806   1.544   0.733   2.108  0.2162 -0.0764 -0.2294
 2592ntf    sn217807   1.564   0.694   2.284  0.1529  0.2185 -0.1559
 2592ntf    nn317808   1.702   0.766   2.302  0.3009  0.1842 -1.1047
 2592ntf    sn217809   1.850   0.714   2.314  0.0033 -0.4264  0.1371
 2592ntf    cn117810   1.878   0.759   2.488  0.1534 -0.1887  0.0534
 2592ntf    fn417811   1.642   0.697   2.027 -0.6320 -0.1010 -1.2702
 2592ntf    fn417812   1.440   0.667   2.060 -0.2345  0.4447  0.0289
 2592ntf    fn417813   1.520   0.861   2.088 -0.0043 -0.1231 -0.2696
 2592ntf    on517814   1.449   0.752   2.349 -0.1400 -0.7274  0.1879
 2592ntf    on517815   1.580   0.550   2.286 -0.9572  0.0914  0.3511
 2592ntf    on517816   1.948   0.787   2.237 -0.1015 -0.0188  0.3875
 2592ntf    on517817   1.863   0.570   2.316  0.2414 -0.4056  0.1211
 2592ntf    fn417818   1.872   0.890   2.505 -0.6357 -0.1519 -0.4498
 2592ntf    fn417819   1.783   0.713   2.568 -0.2780  0.3268 -0.1601
 2592ntf    fn417820   1.993   0.726   2.543  0.2241  0.3334  0.2207
 2593ntf    cn117821   4.219   4.163   3.551 -0.0800 -0.2042 -0.4016
 2593ntf    sn217822   4.384   4.103   3.501  0.3044  0.4264  0.0997
 2593ntf    nn317823   4.318   3.987   3.418 -0.1131  0.1749  0.7748
 2593ntf    sn217824   4.329   3.831   3.420  0.2865  0.1908  0.2344
 2593ntf    cn117825   4.477   3.829   3.315  0.0764  0.0703 -0.0595
 2593ntf    fn417826   4.241   4.272   3.621  0.7408 -0.1364 -0.7525
 2593ntf    fn417827   4.139   4.196   3.451 -0.5137 -0.6647 -0.2139
 2593ntf    fn417828   4.150   4.092   3.638  0.7125  0.6705  0.9629
 2593ntf    on517829   4.443   4.212   3.426 -0.0371  0.3647 -0.2663
 2593ntf    on517830   4.444   4.063   3.625 -0.3925 -0.3314  0.1976
 2593ntf    on517831   4.235   3.756   3.340  0.3707  0.9165 -0.5554
 2593ntf    on517832   4.367   3.770   3.545 -0.4634 -0.7588  0.0176
 2593ntf    fn417833   4.471   3.925   3.224 -0.3132  0.2329  0.1354
 2593ntf    fn417834   4.583   3.852   3.389 -0.1180  0.1228  0.2037
 2593ntf    fn417835   4.500   3.717   3.248  0.3609  0.0511  0.0691
 2594ntf    cn117836   2.060   2.585   1.134  0.2472 -0.0869  0.0752
 2594ntf    sn217837   2.155   2.712   1.223 -0.0448  0.0768  0.1552
 2594ntf    nn317838   2.126   2.675   1.373  0.1844  0.3338  0.2643
 2594ntf    sn217839   2.010   2.737   1.458 -0.0920  0.3412 -0.1152
 2594ntf    cn117840   1.969   2.593   1.563 -0.1295  0.4040 -0.0436
 2594ntf    fn417841   1.931   2.612   1.136  0.3100  0.2036  0.2953
 2594ntf    fn417842   2.081   2.571   1.004  0.1159 -0.2035  0.0668
 2594ntf    fn417843   2.072   2.464   1.186  0.5252 -0.2199 -0.2869
 2594ntf    on517844   2.287   2.681   1.174 -0.2406  0.0710 -0.3705
 2594ntf    on517845   2.105   2.836   1.169  0.5588 -0.1793 -1.0300
 2594ntf    on517846   1.880   2.757   1.399 -0.3137  0.3134  0.3512
 2594ntf    on517847   2.044   2.838   1.555  0.2598  0.1125  0.0032
 2594ntf    fn417848   2.054   2.569   1.662 -0.0498 -0.1429 -0.2402
 2594ntf    fn417849   1.846   2.594   1.610 -0.1288  0.9871 -0.0491
 2594ntf    fn417850   1.972   2.482   1.492 -0.6074  0.4925 -0.2049
 2595ntf    cn117851   4.135   0.690   3.486  0.0083 -0.0634  0.0121
 2595ntf    sn217852   4.033   0.759   3.352 -0.0432 -0.1258  0.0191
 2595ntf    nn317853   3.940   0.632   3.359  0.0299 -0.1510  0.5506
 2595ntf    sn217854   3.789   0.615   3.323  0.1118  0.1991  0.0464
 2595ntf    cn117855   3.791   0.447   3.255 -0.4875  0.0813  0.3122
 2595ntf    fn417856   4.068   0.713   3.598  0.4208 -0.2246  0.2923
 2595ntf    fn417857   4.158   0.561   3.468 -0.2303 -0.0238 -0.6106
 2595ntf    fn417858   4.241   0.766   3.508 -0.1924  0.2982 -0.2494
 2595ntf    on517859   3.989   0.878   3.420 -0.2511 -0.5558  0.6524
 2595ntf    on517860   4.112   0.767   3.232 -0.5283  0.3163 -0.2729
 2595ntf    on517861   3.728   0.710   3.232 -0.6658 -0.3207  0.0120
 2595ntf    on517862   3.699   0.580   3.430  0.0969  0.1356  0.0134
 2595ntf    fn417863   3.670   0.394   3.246  0.0348 -1.0128 -0.5179
 2595ntf    fn417864   3.852   0.439   3.138 -0.3000 -0.7683  0.4595
 2595ntf    fn417865   3.852   0.371   3.345  0.3725  0.2279 -0.1390
 2596ntf    cn117866   2.176   0.750   6.117 -0.6622  0.0659  0.0978
 2596ntf    sn217867   2.094   0.721   5.957 -0.0426 -0.0931 -0.1947
 2596ntf    nn317868   2.199   0.626   5.890  0.3396  0.0751  0.1577
 2596ntf    sn217869   2.177   0.568   5.745  0.1633 -0.0282  0.2264
 2596ntf    cn117870   2.001   0.524   5.730  0.2091 -0.0512 -0.2464
 2596ntf    fn417871   2.284   0.827   6.114 -0.0457 -0.7793  0.2312
 2596ntf    fn417872   2.104   0.813   6.208  0.0613  0.6279  0.2907
 2596ntf    fn417873   2.217   0.635   6.169 -0.6801  0.1654  0.3312
 2596ntf    on517874   1.975   0.650   5.996 -0.2890  0.2750 -0.2629
 2596ntf    on517875   2.080   0.858   5.912 -0.0810 -0.0048  0.0856
 2596ntf    on517876   2.238   0.439   5.728  0.1605  0.0227 -0.1681
 2596ntf    on517877   2.196   0.667   5.642  0.5674 -0.2594  0.0791
 2596ntf    fn417878   1.955   0.452   5.831 -0.6500  0.3706 -0.3301
 2596ntf    fn417879   1.929   0.631   5.700  1.2902  0.8437  0.2565
 2596ntf    fn417880   1.991   0.450   5.621  0.1987 -0.6287  0.1451
 2597ntf    cn117881   3.985   1.301   5.128  0.2022  0.1155 -0.2652
 2597ntf    sn217882   4.146   1.253   5.058  0.1886 -0.2388 -0.0604
 2597ntf    nn317883   4.121   1.117   4.983 -0.3639 -0.2040  0.0571
 2597ntf    sn217884   4.080   1.096   4.833 -0.1190 -0.2548 -0.0026
 2597ntf    cn117885   4.032   0.921   4.831 -0.2128 -0.2316  0.1479
 2597ntf    fn417886   3.912   1.190   5.136 -0.5571  0.6123 -0.1944
 2597ntf    fn417887   3.990   1.361   5.245 -0.3852 -0.0042 -0.1724
 2597ntf    fn417888   3.913   1.380   5.049 -0.5738  0.5451  0.8497
 2597ntf    on517889   4.174   1.363   4.968 -0.3188 -0.0160  0.0476
 2597ntf    on517890   4.237   1.253   5.169 -0.5794 -0.5389  0.5729
 2597ntf    on517891   4.194   1.098   4.745  0.3342  0.1821  0.5820
 2597ntf    on517892   3.963   1.173   4.800 -0.1420 -0.3595 -0.1634
 2597ntf    fn417893   3.963   0.886   4.938 -0.0575 -0.0200  0.3191
 2597ntf    fn417894   3.953   0.889   4.730 -0.4787 -0.2427  0.3591
 2597ntf    fn417895   4.138   0.841   4.826 -0.4426 -0.5167 -0.2739
 2598ntf    cn117896   6.124   6.459   7.021 -0.3656  0.2565  0.2697
 2598ntf    sn217897   5.958   6.423   7.087 -0.7000  0.2542 -0.5693
 2598ntf    nn317898   6.000   6.352   7.220 -0.3374 -0.0903 -0.8612
 2598ntf    sn217899   5.970   6.208   7.276 -0.0235  0.2329  0.1639
 2598ntf    cn117900   5.915   6.245   7.445 -0.0214  0.0468  0.2048
 2598ntf    fn417901   6.205   6.355   7.012 -0.2560  0.3978 -0.4152
 2598ntf    fn417902   6.123   6.520   6.904  0.3750  0.1360  0.1918
 2598ntf    fn417903   6.192   6.543   7.098 -0.0025  0.0566  0.1726
 2598ntf    on517904   5.908   6.556   7.107  0.0646  0.3475  0.8375
 2598ntf    on517905   5.894   6.347   6.982 -0.2255 -0.0783 -0.6219
 2598ntf    on517906   6.089   6.131   7.304  0.1129  0.3378 -0.1293
 2598ntf    on517907   5.857   6.134   7.226  0.1349 -0.0228  0.1854
 2598ntf    fn417908   5.885   6.131   7.506  0.2658  0.0404  0.3330
 2598ntf    fn417909   6.009   6.304   7.517  0.1860 -0.2023  0.1404
 2598ntf    fn417910   5.804   6.316   7.451  0.3227  0.6442 -0.4642
 2599ntf    cn117911   3.975   4.918   5.965 -0.0425  0.4708 -0.1515
 2599ntf    sn217912   3.950   4.832   5.806  0.0044  0.1611  0.0095
 2599ntf    nn317913   3.891   4.696   5.858 -0.6428  0.1591 -0.7250
 2599ntf    sn217914   3.926   4.543   5.852 -0.2345  0.2072  0.3172
 2599ntf    cn117915   3.835   4.506   5.699  0.0419 -0.0577  0.2151
 2599ntf    fn417916   4.039   4.865   6.067  0.4905  0.2612 -0.5911
 2599ntf    fn417917   4.028   5.034   5.928 -0.5772  0.6182 -0.4711
 2599ntf    fn417918   3.855   4.950   6.011  0.1979  0.3334  0.5813
 2599ntf    on517919   3.847   4.914   5.747 -0.5384 -0.5322 -0.0242
 2599ntf    on517920   4.076   4.822   5.737 -0.1199 -0.1856 -0.1663
 2599ntf    on517921   3.855   4.460   5.946 -0.5321  0.2928  0.1689
 2599ntf    on517922   4.062   4.505   5.825 -0.3791  0.0282 -0.1786
 2599ntf    fn417923   3.877   4.392   5.648  0.6002  0.1576  0.1925
 2599ntf    fn417924   3.704   4.485   5.708  0.1324 -0.6689  0.1352
 2599ntf    fn417925   3.839   4.597   5.603 -0.3159 -0.0181  0.2346
 2600ntf    cn117926   6.937   2.559   6.680  0.4023  0.0228 -0.1966
 2600ntf    sn217927   6.894   2.700   6.573 -0.2614 -0.1000 -0.0940
 2600ntf    nn317928   6.738   2.681   6.569 -0.2213 -0.4527 -0.0463
 2600ntf    sn217929   6.651   2.805   6.609  0.0097 -0.3527  0.1491
 2600ntf    cn117930   6.634   2.786   6.789  0.1749 -0.0446  0.2000
 2600ntf    fn417931   6.856   2.545   6.784  0.3736 -0.4466 -0.2826
 2600ntf    fn417932   6.925   2.445   6.614  0.8345 -0.0910 -0.0798
 2600ntf    fn417933   7.061   2.552   6.725  0.1546 -0.1234  0.4749
 2600ntf    on517934   6.947   2.800   6.662 -0.3517  0.0954 -0.2600
 2600ntf    on517935   6.957   2.674   6.446 -1.3700 -0.0002 -0.6757
 2600ntf    on517936   6.517   2.789   6.559 -0.0881  0.2686  0.2074
 2600ntf    on517937   6.703   2.937   6.582  0.1377 -0.3969  0.1805
 2600ntf    fn417938   6.666   2.664   6.830  0.3132  0.1223  0.5929
 2600ntf    fn417939   6.720   2.857   6.860  0.1786  0.7057 -0.5492
 2600ntf    fn417940   6.515   2.810   6.841  0.0411  0.3612 -0.2925
 2601ntf    cn117941   5.212   6.212   6.799  0.3767 -0.0329 -0.0176
 2601ntf    sn217942   5.155   6.060   6.882  0.2782 -0.0160 -0.0545
 2601ntf    nn317943   5.295   6.003   6.923  0.2617  0.0303  0.0688
 2601ntf    sn217944   5.389   5.912   6.836  0.2843  0.2419 -0.1276
 2601ntf    cn117945   5.351   5.752   6.914  0.4322  0.0882 -0.3667
 2601ntf    fn417946   5.107   6.282   6.758 -0.1832 -0.6417  0.3473
 2601ntf    fn417947   5.280   6.291   6.880  0.3618  0.1801 -0.2123
 2601ntf    fn417948   5.280   6.180   6.690 -0.2174 -0.3165 -0.3089
 2601ntf    on517949   5.077   6.107   6.994  0.1341  0.4621 -0.3504
 2601ntf    on517950   5.079   5.986   6.785  0.4191 -0.0801 -0.1162
 2601ntf    on517951   5.529   5.931   6.865  0.2878 -0.1748  0.1439
 2601ntf    on517952   5.354   5.869   6.703 -0.0326  0.0294  0.0223
 2601ntf    fn417953   5.446   5.665   6.884  0.3424  0.0119 -0.4268
 2601ntf    fn417954   5.346   5.778   7.044 -0.1576 -0.5961 -0.2521
 2601ntf    fn417955   5.232   5.702   6.888  0.4096 -0.4386  0.6768
 2602ntf    cn117956   6.246   5.911   1.821  0.6683  0.1807  0.6137
 2602ntf    sn217957   6.414   5.980   1.810  0.6704  0.0986  0.0988
 2602ntf    nn317958   6.488   5.926   1.938  0.1313  0.3200  0.5073
 2602ntf    sn217959   6.565   5.789   1.944 -0.4672 -0.0592 -0.2752
 2602ntf    cn117960   6.738   5.836   1.913 -0.4634 -0.1235 -0.3501
 2602ntf    fn417961   6.184   5.937   1.706 -0.5299 -0.8002  1.0226
 2602ntf    fn417962   6.243   5.780   1.839 -0.4062  0.0009 -0.7431
 2602ntf    fn417963   6.168   5.960   1.915  0.1132 -0.0482  0.2762
 2602ntf    on517964   6.462   5.923   1.686 -0.7106 -0.2619 -0.2813
 2602ntf    on517965   6.396   6.123   1.817 -0.0795  0.0330 -0.4114
 2602ntf    on517966   6.537   5.690   1.843  0.0754 -0.0982 -0.3932
 2602ntf    on517967   6.580   5.734   2.076  0.4582 -0.5687 -0.5860
 2602ntf    fn417968   6.828   5.740   1.925 -0.2740  0.1270  0.2396
 2602ntf    fn417969   6.756   5.880   1.789 -0.0756  0.8701  0.0529
 2602ntf    fn417970   6.774   5.933   1.995 -0.2296 -0.7062  0.2429
 2603ntf    cn117971   4.789   3.553   4.316  0.0340  0.0073  0.1153
 2603ntf    sn217972   4.746   3.509   4.487  0.1629  0.0103  0.1485
 2603ntf    nn317973   4.788   3.630   4.578 -0.5554 -0.1118  0.6461
 2603ntf    sn217974   4.926   3.670   4.642 -0.1361 -0.2261 -0.1752
 2603ntf    cn117975   4.914   3.851   4.640 -0.0895 -0.2178  0.2045
 2603ntf    fn417976   4.906   3.502   4.281  0.0070 -0.1694  0.2776
 2603ntf    fn417977   4.701   3.502   4.231  0.0846 -0.0931  0.1240
 2603ntf    fn417978   4.788   3.683   4.292 -0.2157  0.1137  0.7022
 2603ntf    on517979   4.603   3.494   4.490  0.2133 -0.4078  0.6018
 2603ntf    on517980   4.829   3.391   4.494 -0.1907 -0.2463  0.0431
 2603ntf    on517981   5.044   3.656   4.560 -0.0247  0.4055 -0.1261
 2603ntf    on517982   4.931   3.635   4.782  0.6392  0.7219  0.0433
 2603ntf    fn417983   4.897   3.885   4.513  0.2791  0.1809  0.2592
 2603ntf    fn417984   4.825   3.911   4.717  0.0357  0.5143 -0.2075
 2603ntf    fn417985   5.030   3.902   4.679 -0.0712 -0.2842  0.2376
 2604ntf    cn117986   2.627   0.081   0.508 -0.2823 -0.0366 -0.3895
 2604ntf    sn217987   2.623   0.083   0.326  0.0177 -0.0912 -0.3980
 2604ntf    nn317988   2.761   0.015   0.296  0.0836 -0.3531  0.4934
 2604ntf    sn217989   2.809  -0.082   0.182 -0.0959  0.2435 -0.0906
 2604ntf    cn117990   2.769  -0.239   0.265  0.3325  0.1879  0.0154
 2604ntf    fn417991   2.515   0.109   0.572  0.0385 -0.3907  0.3320
 2604ntf    fn417992   2.664  -0.041   0.543  0.2724  0.1919 -0.1595
 2604ntf    fn417993   2.725   0.154   0.559 -0.6413  0.0370  0.1922
 2604ntf    on517994   2.504   0.005   0.301 -0.0088 -0.1004 -0.2398
 2604ntf    on517995   2.620   0.223   0.291 -0.0968  0.0051 -0.0105
 2604ntf    on517996   2.953  -0.079   0.172  0.0072 -0.1636  1.1506
 2604ntf    on517997   2.728  -0.095   0.064  0.1003 -0.5484 -0.1413
 2604ntf    fn417998   2.753  -0.338   0.179  0.3973  0.0284  0.1864
 2604ntf    fn417999   2.865  -0.277   0.347 -0.1217 -0.0309  0.4524
 2604ntf    fn418000   2.659  -0.241   0.339 -0.1296 -0.3815 -0.6728
 2605ntf    cn118001   6.858   1.171   5.328  0.0570  0.0470 -0.0037
 2605ntf    sn218002   6.822   1.036   5.211  0.2442  0.0588 -0.0768
 2605ntf    nn318003   6.945   1.050   5.114  0.2713 -0.5004 -0.1252
 2605ntf    sn218004   7.098   1.019   5.130  0.4238  0.0257 -0.5287
 2605ntf    cn118005   7.136   1.007   4.953 -0.2788  0.0588 -0.6858
 2605ntf    fn418006   6.836   1.286   5.266  0.4554  0.1471  0.0363
 2605ntf    fn418007   6.764   1.191   5.419 -0.1131 -0.0162 -0.1644
 2605ntf    fn418008   6.977   1.167   5.385 -0.1648 -0.2221  0.4469
 2605ntf    on518009   6.807   0.916   5.290  0.6648  0.0399 -0.0235
 2605ntf    on518010   6.704   1.084   5.144  0.3320  0.6605  0.1978
 2605ntf    on518011   7.135   0.888   5.179 -0.1243 -0.2225 -0.7630
 2605ntf    on518012   7.171   1.125   5.195  0.3172 -0.0173 -0.3347
 2605ntf    fn418013   7.260   0.964   4.932 -0.2334 -0.2406  0.1663
 2605ntf    fn418014   7.076   0.920   4.873 -0.1538 -0.5024 -0.1774
 2605ntf    fn418015   7.113   1.120   4.888  0.0199  0.4263 -0.1541
 2606ntf    cn118016   6.838   3.704   1.605 -0.1761 -0.1498  0.2672
 2606ntf    sn218017   7.016   3.669   1.620 -0.0407  0.4615  0.1195
 2606ntf    nn318018   7.020   3.516   1.654  0.2042  0.3726 -0.3040
 2606ntf    sn218019   7.147   3.425   1.634 -0.0288  0.0043 -0.0947
 2606ntf    cn118020   7.089   3.266   1.703  0.3101 -0.0983 -0.0480
 2606ntf    fn418021   6.757   3.678   1.706  0.0673  0.3700  0.6063
 2606ntf    fn418022   6.825   3.835   1.590 -0.1239 -0.1976 -0.1968
 2606ntf    fn418023   6.781   3.638   1.507 -0.0790 -0.8971  0.7052
 2606ntf    on518024   7.067   3.692   1.487  0.5189  0.2179  0.2908
 2606ntf    on518025   7.058   3.770   1.715 -0.2099  0.6097  0.0365
 2606ntf    on518026   7.251   3.462   1.727 -0.1216  0.1680 -0.0562
 2606ntf    on518027   7.178   3.381   1.501 -0.4276  0.1509 -0.2383
 2606ntf    fn418028   7.038   3.283   1.824  0.2158 -0.0392 -0.0961
 2606ntf    fn418029   6.992   3.222   1.626 -0.1503  0.0430  0.4492
 2606ntf    fn418030   7.182   3.172   1.705  0.0373 -0.3715 -0.2925
 2607ntf    cn118031   5.177   4.761   5.012  0.1633  0.2131 -0.0526
 2607ntf    sn218032   5.309   4.639   4.980 -0.0113  0.0350 -0.1003
 2607ntf    nn318033   5.415   4.714   4.892  0.8197 -0.5614  0.3786
 2607ntf    sn218034   5.411   4.721   4.735  0.0147 -0.2600  0.4117
 2607ntf    cn118035   5.544   4.600   4.709  0.1525  0.0765 -0.4649
 2607ntf    fn418036   5.136   4.820   4.901  0.2534  0.0296 -0.1851
 2607ntf    fn418037   5.070   4.721   5.077  0.2079 -0.2175 -0.2368
 2607ntf    fn418038   5.225   4.860   5.085  0.1075  0.1519  0.0658
 2607ntf    on518039   5.358   4.617   5.114 -0.4429 -0.0531  0.0453
 2607ntf    on518040   5.243   4.529   4.915 -0.3937 -0.1262  0.5468
 2607ntf    on518041   5.463   4.843   4.679  0.4411 -0.5822  0.1043
 2607ntf    on518042   5.307   4.654   4.661  0.3065 -0.3521  0.0843
 2607ntf    fn418043   5.655   4.636   4.771 -0.1279 -0.0665  0.1258
 2607ntf    fn418044   5.514   4.478   4.752  0.3262  0.0937 -0.2947
 2607ntf    fn418045   5.576   4.583   4.582  0.2982 -0.4360 -0.3620
 2608ntf    cn118046   4.017   0.726   1.182 -0.0354 -0.1110  0.0945
 2608ntf    sn218047   3.903   0.661   1.055 -0.2809  0.0099  0.2521
 2608ntf    nn318048   3.796   0.591   1.145 -0.5375 -0.1704 -0.1916
 2608ntf    sn218049   3.808   0.445   1.201 -0.2857 -0.0510  0.0673
 2608ntf    cn118050   3.738   0.477   1.366  0.2200 -0.1646  0.3074
 2608ntf    fn418051   4.123   0.772   1.117 -0.3744 -0.3719 -0.6602
 2608ntf    fn418052   3.958   0.828   1.242  0.1645  0.1586 -0.1640
 2608ntf    fn418053   4.052   0.636   1.272 -0.6533 -0.3481  0.1039
 2608ntf    on518054   3.850   0.783   0.999  0.2962  0.2535  0.2290
 2608ntf    on518055   3.984   0.580   0.967  0.5924  0.8004  0.3101
 2608ntf    on518056   3.945   0.408   1.226 -0.0338  0.6269 -0.2775
 2608ntf    on518057   3.713   0.351   1.147 -0.3070  0.1155 -0.1875
 2608ntf    fn418058   3.751   0.379   1.454 -0.4900 -0.4581  0.0939
 2608ntf    fn418059   3.762   0.586   1.437 -0.7048  0.0510  0.3102
 2608ntf    fn418060   3.606   0.476   1.349  0.2363  0.0944  0.1542
 2609ntf    cn118061   6.012   4.333   5.788  0.1823  0.4085  0.3686
 2609ntf    sn218062   6.011   4.307   5.968  0.4704  0.0062  0.3132
 2609ntf    nn318063   5.909   4.188   5.968  0.2538  0.1890 -0.0258
 2609ntf    sn218064   5.752   4.203   5.967  0.2250 -0.1321 -0.2327
 2609ntf    cn118065   5.728   4.194   6.147 -0.1488 -0.1228 -0.2821
 2609ntf    fn418066   6.057   4.450   5.744 -0.0513  0.2459 -0.3138
 2609ntf    fn418067   6.092   4.244   5.734 -0.3068 -0.0521  0.3937
 2609ntf    fn418068   5.891   4.323   5.735  0.3521 -0.4542  0.1426
 2609ntf    on518069   6.140   4.257   6.009  0.2555 -0.4080  0.4888
 2609ntf    on518070   5.967   4.431   6.028  0.0503  0.2117 -0.4055
 2609ntf    on518071   5.686   4.083   5.923  1.0841 -0.6359 -0.1835
 2609ntf    on518072   5.693   4.331   5.936  0.6696  0.1858  0.2192
 2609ntf    fn418073   5.761   4.082   6.209  0.1006 -0.0634 -0.3088
 2609ntf    fn418074   5.789   4.294   6.209  0.0447 -0.5384  0.2038
 2609ntf    fn418075   5.601   4.215   6.175 -0.0305 -0.1134  0.2595
 2610ntf    cn118076   2.629   4.703   1.772  0.2902 -0.3630 -0.0130
 2610ntf    sn218077   2.451   4.672   1.748  0.2185  0.1881 -0.2236
 2610ntf    nn318078   2.407   4.801   1.671 -0.3441  0.1406  0.0194
 2610ntf    sn218079   2.277   4.814   1.583  0.0197 -0.1679 -0.5646
 2610ntf    cn118080   2.234   4.985   1.627  0.1995 -0.2600 -0.0137
 2610ntf    fn418081   2.689   4.662   1.661  0.0065  0.0881 -0.3384
 2610ntf    fn418082   2.656   4.830   1.798  0.0606 -0.3873  0.3561
 2610ntf    fn418083   2.685   4.633   1.869  0.3157  0.3812  0.5247
 2610ntf    on518084   2.440   4.549   1.673  0.3122  0.1945 -0.2484
 2610ntf    on518085   2.412   4.677   1.887 -0.1800  0.2179 -0.3377
 2610ntf    on518086   2.164   4.738   1.631  0.0779 -0.2015 -0.4783
 2610ntf    on518087   2.308   4.819   1.443  0.6831  0.2908 -0.4069
 2610ntf    fn418088   2.114   5.020   1.582  0.2154  0.0412  0.1833
 2610ntf    fn418089   2.236   4.989   1.759 -0.0187 -0.0819 -0.0159
 2610ntf    fn418090   2.317   5.068   1.567  0.7387 -0.5519  0.3233
 2611ntf    cn118091   4.963   0.590   3.836  0.0366 -0.1911  0.0780
 2611ntf    sn218092   5.143   0.570   3.830  0.0723  0.2546 -0.3935
 2611ntf    nn318093   5.182   0.674   3.941 -0.0045 -0.5002  0.3488
 2611ntf    sn218094   5.201   0.642   4.093  0.0631  0.3303  0.5220
 2611ntf    cn118095   5.383   0.643   4.098  0.0679  0.0221  0.4396
 2611ntf    fn418096   4.903   0.521   3.932 -0.2902  0.3337  0.2591
 2611ntf    fn418097   4.918   0.714   3.849  0.2416 -0.0645 -0.4048
 2611ntf    fn418098   4.914   0.550   3.720 -0.0241 -0.1252  0.0806
 2611ntf    on518099   5.171   0.434   3.866  0.0938  0.2888 -0.2830
 2611ntf    on518100   5.177   0.614   3.696 -0.1162  0.1255 -0.4841
 2611ntf    on518101   5.173   0.509   4.142 -0.1205 -0.0600 -0.6136
 2611ntf    on518102   5.161   0.754   4.175  0.1829  0.3799  0.5128
 2611ntf    fn418103   5.438   0.565   4.007  0.1626  0.8339 -0.2105
 2611ntf    fn418104   5.428   0.767   4.086 -0.2186  0.1483  0.6371
 2611ntf    fn418105   5.433   0.599   4.212 -0.0280 -0.4846  0.2867
 2612ntf    cn118106   4.558   5.592   3.574  0.0246 -0.6981  0.1833
 2612ntf    sn218107   4.738   5.583   3.595  0.0832  0.1607  0.1132
 2612ntf    nn318108   4.754   5.680   3.717 -0.1625  0.3477 -0.0028
 2612ntf    sn218109   4.887   5.738   3.775 -0.0245  0.1481 -0.1169
 2612ntf    cn118110   4.860   5.916   3.746  0.0664  0.2431  0.3566
 2612ntf    fn418111   4.501   5.536   3.468 -0.0176  0.2578 -0.3142
 2612ntf    fn418112   4.499   5.540   3.681 -0.1664  0.2258  0.5373
 2612ntf    fn418113   4.521   5.719   3.586  0.3138 -0.5967  0.0097
 2612ntf    on518114   4.756   5.445   3.633  0.1330  0.2160  0.2877
 2612ntf    on518115   4.778   5.635   3.466 -0.0480 -0.1297 -0.0470
 2612ntf    on518116   5.002   5.703   3.696 -0.0012 -0.3286  0.1302
 2612ntf    on518117   4.901   5.732   3.918 -0.2778  0.8841 -0.0543
 2612ntf    fn418118   4.740   5.944   3.793 -0.2467  0.2191 -0.4132
 2612ntf    fn418119   4.942   5.993   3.814  0.7283 -0.1467  0.0164
 2612ntf    fn418120   4.861   5.962   3.622  0.1157  0.7062  0.5294
 2613ntf    cn118121   2.486   1.419   3.123 -0.0861  0.0423  0.5196
 2613ntf    sn218122   2.641   1.339   3.175  0.0913 -0.0777 -0.1771
 2613ntf    nn318123   2.577   1.209   3.234 -0.4836  0.2881  0.0225
 2613ntf    sn218124   2.527   1.186   3.381 -0.2833  0.5072  0.1253
 2613ntf    cn118125   2.668   1.098   3.455  0.0847  0.4411 -0.6486
 2613ntf    fn418126   2.504   1.547   3.097 -0.8874  0.0330 -0.1138
 2613ntf    fn418127   2.441   1.359   3.013 -0.0691  0.4204  0.3061
 2613ntf    fn418128   2.382   1.421   3.205 -0.4602 -0.3627  0.0645
 2613ntf    on518129   2.708   1.304   3.052  0.2579  0.5266 -0.2650
 2613ntf    on518130   2.710   1.423   3.269  0.1348  0.3261 -0.5662
 2613ntf    on518131   2.430   1.080   3.373 -0.3420  0.5777 -0.0761
 2613ntf    on518132   2.506   1.301   3.465  0.5157  0.2496  0.6916
 2613ntf    fn418133   2.645   1.081   3.584  0.4635 -0.4625 -0.6934
 2613ntf    fn418134   2.699   0.980   3.403 -0.3899  0.0219  0.0028
 2613ntf    fn418135   2.781   1.168   3.453  0.0110  0.5898  0.0235
 2614ntf    cn118136   3.599   0.240   5.164  0.2718  0.1736  0.1624
 2614ntf    sn218137   3.556   0.268   4.989 -0.0193  0.2270  0.2431
 2614ntf    nn318138   3.612   0.150   4.902 -0.8823  0.0184 -0.0337
 2614ntf    sn218139   3.595   0.130   4.747 -0.3470 -0.2128 -0.0622
 2614ntf    cn118140   3.756   0.198   4.694 -0.2160 -0.4460  0.0386
 2614ntf    fn418141   3.728   0.248   5.195  0.4185  0.0530 -0.3915
 2614ntf    fn418142   3.542   0.326   5.246 -0.1079  0.1570 -0.0852
 2614ntf    fn418143   3.563   0.118   5.198  0.2474  0.2531  0.4187
 2614ntf    on518144   3.412   0.279   4.993 -0.0410 -0.1234  0.4672
 2614ntf    on518145   3.627   0.390   4.961  0.6320 -0.1629  0.1701
 2614ntf    on518146   3.493   0.209   4.683 -0.0999  0.0442 -0.1430
 2614ntf    on518147   3.617  -0.007   4.708 -0.1870 -0.0863 -0.4256
 2614ntf    fn418148   3.859   0.160   4.768 -0.4922 -0.5389  0.3802
 2614ntf    fn418149   3.778   0.164   4.568  0.0577  0.4574 -0.1610
 2614ntf    fn418150   3.740   0.328   4.709 -0.6795 -0.4086 -0.7437
 2615ntf    cn118151   1.758   3.589   5.876 -0.6592 -0.1544 -0.2587
 2615ntf    sn218152   1.787   3.612   5.698  0.3685  0.1169 -0.0631
 2615ntf    nn318153   1.723   3.755   5.688  0.0999 -0.0154 -0.2777
 2615ntf    sn218154   1.791   3.894   5.714 -0.4426  0.1755  0.1492
 2615ntf    cn118155   1.848   3.934   5.545 -0.1840  0.2176  0.2465
 2615ntf    fn418156   1.829   3.671   5.951 -0.5119  0.2308 -0.8106
 2615ntf    fn418157   1.632   3.601   5.914 -0.4625  0.4654  0.1987
 2615ntf    fn418158   1.801   3.470   5.913 -0.6481  0.0898  0.5183
 2615ntf    on518159   1.929   3.599   5.678  0.3333 -0.1190 -0.1705
 2615ntf    on518160   1.699   3.508   5.648 -0.3598  0.4646  0.4729
 2615ntf    on518161   1.906   3.898   5.801  0.0083 -0.5471 -0.4008
 2615ntf    on518162   1.698   4.000   5.743 -0.4403  0.4551 -0.8092
 2615ntf    fn418163   1.923   4.043   5.536  0.2274 -0.1183 -0.3732
 2615ntf    fn418164   1.922   3.838   5.493 -1.1850 -0.1247 -0.5748
 2615ntf    fn418165   1.742   3.943   5.466 -0.0503  0.7252  0.1194
 2616ntf    cn118166   6.564   6.491   3.025 -0.7769  0.3424 -0.1076
 2616ntf    sn218167   6.690   6.555   2.911 -0.4849 -0.0507 -0.0072
 2616ntf    nn318168   6.603   6.617   2.796 -0.5007 -0.2780 -0.1193
 2616ntf    sn218169   6.609   6.762   2.737 -0.0691 -0.1933  0.1281
 2616ntf    cn118170   6.441   6.810   2.785 -0.1825 -0.2776 -0.1814
 2616ntf    fn418171   6.492   6.394   2.972 -0.0448 -0.0047 -0.4637
 2616ntf    fn418172   6.618   6.447   3.138  0.2729 -0.0511 -0.7516
 2616ntf    fn418173   6.484   6.591   3.061 -0.6324  0.4234 -0.0118
 2616ntf    on518174   6.770   6.644   2.991 -0.8504  0.0481  0.2525
 2616ntf    on518175   6.743   6.428   2.869  0.9678  0.5959 -0.1958
 2616ntf    on518176   6.607   6.754   2.593 -0.1762 -0.8097  0.1622
 2616ntf    on518177   6.699   6.857   2.799  0.4415 -0.1682 -0.6311
 2616ntf    fn418178   6.434   6.942   2.776 -1.1178 -0.2878  0.2783
 2616ntf    fn418179   6.350   6.752   2.708 -0.6195  0.1974 -0.0344
 2616ntf    fn418180   6.413   6.774   2.909  0.0262  0.4897  0.0972
 2617ntf    cn118181   6.747   2.284   5.429 -0.3792  0.6227 -0.0892
 2617ntf    sn218182   6.676   2.278   5.596  0.3593 -0.1575  0.2014
 2617ntf    nn318183   6.527   2.308   5.556  0.3865  0.0644  0.2696
 2617ntf    sn218184   6.398   2.347   5.637 -0.1495 -0.6172 -0.2453
 2617ntf    cn118185   6.354   2.516   5.588  0.5097 -0.3347  0.1201
 2617ntf    fn418186   6.741   2.408   5.382  0.4485  0.4984 -0.5388
 2617ntf    fn418187   6.873   2.245   5.417 -0.3202  0.4736  0.9340
 2617ntf    fn418188   6.680   2.204   5.348 -0.0004  0.0585  0.1490
 2617ntf    on518189   6.691   2.139   5.633  0.3514 -0.3256 -0.4119
 2617ntf    on518190   6.754   2.379   5.663 -0.5008  0.5861  0.1056
 2617ntf    on518191   6.413   2.362   5.780 -0.1287  0.3828 -0.3460
 2617ntf    on518192   6.278   2.279   5.596 -0.4402 -0.2200 -0.0509
 2617ntf    fn418193   6.430   2.613   5.636  0.1879  0.0079 -0.0607
 2617ntf    fn418194   6.362   2.523   5.456  0.3704  0.3863  0.1444
 2617ntf    fn418195   6.231   2.556   5.614  0.2901 -0.6678 -0.3872
 2618ntf    cn118196   6.438   5.873   3.555  0.2563 -0.5831  0.0586
 2618ntf    sn218197   6.326   5.867   3.698  0.0284  0.1900 -0.0842
 2618ntf    nn318198   6.377   5.996   3.772 -0.1171  0.1109  0.1565
 2618ntf    sn218199   6.367   6.027   3.925  0.1079  0.5421  0.0882
 2618ntf    cn118200   6.342   6.206   3.915 -0.4278  0.4427 -0.4355
 2618ntf    fn418201   6.422   5.987   3.490  0.5785 -0.1608  0.7084
 2618ntf    fn418202   6.564   5.865   3.594  0.3987  0.5872 -0.1271
 2618ntf    fn418203   6.415   5.777   3.467  0.0934 -0.6608  0.1860
 2618ntf    on518204   6.190   5.876   3.651 -0.0799  0.0078  0.1951
 2618ntf    on518205   6.363   5.742   3.759 -0.2515  0.0652 -0.1731
 2618ntf    on518206   6.493   6.005   3.992  0.0107 -0.1216  0.0648
 2618ntf    on518207   6.250   5.990   4.001  0.4937  0.1508  0.5013
 2618ntf    fn418208   6.330   6.260   4.036 -1.0014 -0.0795 -0.2596
 2618ntf    fn418209   6.458   6.254   3.872 -0.3301  0.2775 -0.3556
 2618ntf    fn418210   6.248   6.241   3.829 -0.8912  0.9027  0.2466
 2619ntf    cn118211   1.711   5.527   4.459  0.0819  0.0867 -0.4402
 2619ntf    sn218212   1.870   5.442   4.482 -0.1900 -0.3355 -0.1121
 2619ntf    nn318213   1.886   5.451   4.638 -0.1467  0.2600 -0.1500
 2619ntf    sn218214   1.853   5.357   4.759 -0.1221  0.2133 -0.1799
 2619ntf    cn118215   1.722   5.451   4.843 -0.0870 -0.0388  0.1595
 2619ntf    fn418216   1.715   5.649   4.509  0.2009  0.2038 -0.7275
 2619ntf    fn418217   1.694   5.542   4.328 -0.7861  0.5560 -0.2817
 2619ntf    fn418218   1.614   5.463   4.522  0.9120 -0.5312  0.2201
 2619ntf    on518219   1.842   5.313   4.423 -0.1894 -0.4190  0.0689
 2619ntf    on518220   1.965   5.521   4.408 -0.1091 -0.4426 -0.1226
 2619ntf    on518221   1.956   5.360   4.860 -0.1622 -0.0726 -0.1276
 2619ntf    on518222   1.802   5.227   4.722  0.6548 -0.4649  1.0553
 2619ntf    fn418223   1.632   5.493   4.756  0.5236  0.2530 -0.3402
 2619ntf    fn418224   1.659   5.383   4.938  0.1015 -0.5645 -0.0883
 2619ntf    fn418225   1.782   5.554   4.901 -0.3047  0.4354 -0.4575
 2620ntf    cn118226   1.074   3.268   1.032  0.0731 -0.0665  0.0572
 2620ntf    sn218227   0.972   3.127   0.981  0.0327  0.1192 -0.3773
 2620ntf    nn318228   1.077   3.018   1.024  0.0770  0.3536  0.1112
 2620ntf    sn218229   1.185   2.951   0.932 -0.3475 -0.2252  0.0348
 2620ntf    cn118230   1.089   2.807   0.875 -0.3736 -0.3084  0.2844
 2620ntf    fn418231   1.002   3.375   1.059  0.3797  0.1228  0.1348
 2620ntf    fn418232   1.132   3.240   1.147  0.0816  0.4152  0.1735
 2620ntf    fn418233   1.159   3.307   0.938 -0.5812  0.2443 -0.4107
 2620ntf    on518234   0.861   3.140   1.072  0.3877  0.1900  0.0459
 2620ntf    on518235   0.943   3.149   0.841  0.0336 -0.6246 -0.5011
 2620ntf    on518236   1.296   2.893   1.003 -0.0941 -0.9381 -0.9223
 2620ntf    on518237   1.218   3.027   0.814  0.8092 -0.3737  0.2502
 2620ntf    fn418238   1.161   2.739   0.787  0.2199  0.3033  0.2946
 2620ntf    fn418239   1.062   2.728   0.977 -0.3371  0.3205  0.7836
 2620ntf    fn418240   0.971   2.823   0.817  0.0432  0.7586 -0.3061
 2621ntf    cn118241   3.542   2.125   5.293 -0.1059  0.0828  0.1115
 2621ntf    sn218242   3.412   2.047   5.193  0.0908 -0.1060  0.0022
 2621ntf    nn318243   3.500   1.980   5.081 -0.0516 -0.1852 -0.0644
 2621ntf    sn218244   3.488   1.972   4.925  0.1401  0.1245 -0.0961
 2621ntf    cn118245   3.601   2.103   4.867  0.2817 -0.1023 -0.3335
 2621ntf    fn418246   3.642   2.043   5.323 -0.2613 -0.0572  0.2495
 2621ntf    fn418247   3.596   2.223   5.223 -0.3465  0.5391  0.5575
 2621ntf    fn418248   3.499   2.180   5.405 -0.7963 -0.2395  0.0119
 2621ntf    on518249   3.359   1.950   5.286 -0.0699  0.0562  0.0786
 2621ntf    on518250   3.325   2.157   5.159  0.0721  0.1273  0.7865
 2621ntf    on518251   3.360   2.009   4.869  0.0417 -0.1301 -0.0365
 2621ntf    on518252   3.551   1.853   4.874  0.1442 -0.0319  0.2756
 2621ntf    fn418253   3.560   2.119   4.742 -0.2332 -0.3260 -0.1964
 2621ntf    fn418254   3.578   2.225   4.913  0.1909 -0.2070 -0.0982
 2621ntf    fn418255   3.732   2.086   4.858  0.3453  0.2039 -0.0052
 2622ntf    cn118256   3.521   5.488   6.880 -0.5404  0.3268  0.0139
 2622ntf    sn218257   3.513   5.512   7.060  0.6231  0.2202  0.0861
 2622ntf    nn318258   3.443   5.652   7.059 -0.0764 -0.1255  0.1306
 2622ntf    sn218259   3.301   5.693   7.111 -0.1367 -0.1889  0.0164
 2622ntf    cn118260   3.211   5.696   6.953 -0.1527  0.3549  0.0345
 2622ntf    fn418261   3.578   5.587   6.813  0.3421 -0.3783 -0.2966
 2622ntf    fn418262   3.594   5.382   6.850 -0.4521  0.3852  0.0204
 2622ntf    fn418263   3.401   5.459   6.833 -0.2311  0.0078 -0.5945
 2622ntf    on518264   3.436   5.395   7.094  0.6956  0.0415 -0.3554
 2622ntf    on518265   3.649   5.515   7.108  0.6865  0.2180 -0.0919
 2622ntf    on518266   3.305   5.830   7.156 -0.0462 -0.4834  0.9204
 2622ntf    on518267   3.233   5.590   7.185 -0.4593  0.1005  0.1280
 2622ntf    fn418268   3.273   5.768   6.861  0.0080  0.2657  0.0734
 2622ntf    fn418269   3.199   5.571   6.911 -0.1275  0.1207  0.7073
 2622ntf    fn418270   3.092   5.752   6.971  0.0408  0.7322  0.1449
 2623ntf    cn118271   4.609   2.828   5.695  0.0270  0.2934  0.0626
 2623ntf    sn218272   4.757   2.881   5.603  0.2752 -0.0407  0.2662
 2623ntf    nn318273   4.730   3.036   5.604 -0.0388 -0.0933  0.1131
 2623ntf    sn218274   4.763   3.139   5.718 -0.1809 -0.2568  0.3050
 2623ntf    cn118275   4.601   3.213   5.755 -0.0018  0.2931  0.0056
 2623ntf    fn418276   4.613   2.697   5.715  0.1113  0.2065 -0.5014
 2623ntf    fn418277   4.589   2.892   5.809 -0.3480  0.0220  0.1505
 2623ntf    fn418278   4.505   2.853   5.617  0.1654 -0.1296 -0.2617
 2623ntf    on518279   4.863   2.819   5.679  0.0709 -0.1583  0.4575
 2623ntf    on518280   4.735   2.833   5.469  0.3027  0.7278 -0.0177
 2623ntf    on518281   4.829   3.260   5.674  0.2330 -0.6805 -0.2626
 2623ntf    on518282   4.811   3.093   5.846  0.1156  0.1049  0.3252
 2623ntf    fn418283   4.558   3.308   5.673 -0.2100  0.1827 -0.0135
 2623ntf    fn418284   4.516   3.112   5.742  0.4673 -0.0740 -0.2355
 2623ntf    fn418285   4.591   3.252   5.881 -0.2625 -0.6414  0.2833
 2624ntf    cn118286   0.556   3.977   4.044  0.3235  0.3080 -0.5713
 2624ntf    sn218287   0.731   3.943   4.077  0.1483  0.0786  0.1627
 2624ntf    nn318288   0.794   4.043   3.973  0.0822  0.3465  0.3812
 2624ntf    sn218289   0.927   4.044   3.889 -0.1199 -0.5081  0.0467
 2624ntf    cn118290   1.005   4.206   3.914 -0.2583 -0.3718 -0.3853
 2624ntf    fn418291   0.522   4.103   4.066 -0.5588 -0.0049 -0.0582
 2624ntf    fn418292   0.527   3.942   3.920  0.3759 -0.4122 -0.3838
 2624ntf    fn418293   0.479   3.911   4.130  0.1578  0.6771 -0.4317
 2624ntf    on518294   0.757   3.987   4.212 -0.2522  0.2434  0.1859
 2624ntf    on518295   0.753   3.803   4.052 -0.1471  0.0901 -0.1768
 2624ntf    on518296   0.907   4.037   3.746 -0.4733 -0.4046  0.0889
 2624ntf    on518297   1.023   3.950   3.940  0.6447  0.2529  0.0187
 2624ntf    fn418298   1.135   4.216   3.889 -0.0135 -0.4823  0.7870
 2624ntf    fn418299   0.936   4.299   3.850  0.4500  0.2544 -0.2659
 2624ntf    fn418300   0.994   4.241   4.041  0.2475 -0.6845 -0.2519
 2625ntf    cn118301   1.459   6.402   2.115  0.3984  0.1156  0.0410
 2625ntf    sn218302   1.498   6.401   2.292  0.1705  0.0785  0.0903
 2625ntf    nn318303   1.499   6.246   2.318 -0.0193  0.1283  0.4162
 2625ntf    sn218304   1.603   6.162   2.399  0.0756 -0.2840 -0.1224
 2625ntf    cn118305   1.739   6.163   2.278  0.3168  0.0476  0.1456
 2625ntf    fn418306   1.555   6.323   2.068  0.3655 -0.1705  0.4507
 2625ntf    fn418307   1.346   6.348   2.074  0.4232 -0.1864  0.3628
 2625ntf    fn418308   1.466   6.522   2.059 -0.4318  0.1669  0.0449
 2625ntf    on518309   1.626   6.467   2.301  0.1329  0.1287  0.2736
 2625ntf    on518310   1.387   6.474   2.349 -0.1863 -0.4810  0.1232
 2625ntf    on518311   1.562   6.025   2.418 -0.5407 -0.1206 -0.2629
 2625ntf    on518312   1.653   6.224   2.520 -0.2079 -0.0109 -0.1454
 2625ntf    fn418313   1.707   6.145   2.150 -0.7502  0.4781  0.3357
 2625ntf    fn418314   1.812   6.272   2.271  0.0417  0.1935 -0.6426
 2625ntf    fn418315   1.825   6.068   2.310  0.2284  0.0218  0.3068
 2626ntf    cn118316   5.019   2.905   1.007 -0.6055  0.0813  0.1610
 2626ntf    sn218317   4.989   2.726   1.010  0.2136 -0.0598  0.0954
 2626ntf    nn318318   5.120   2.670   1.075  0.6626 -0.2428 -0.9473
 2626ntf    sn218319   5.128   2.548   1.174  0.0229  0.3949 -0.0949
 2626ntf    cn118320   5.243   2.611   1.299  0.1753 -0.0692 -0.0024
 2626ntf    fn418321   5.040   2.965   1.124  0.3958 -0.5471  0.3098
 2626ntf    fn418322   5.121   2.938   0.930 -0.5616 -0.0166  0.1783
 2626ntf    fn418323   4.924   2.976   0.948 -0.3836  0.4663  0.2607
 2626ntf    on518324   4.863   2.712   1.080 -0.0501 -0.1524 -0.3967
 2626ntf    on518325   4.987   2.692   0.870 -0.1571 -0.2123  0.1367
 2626ntf    on518326   5.225   2.456   1.122  0.0222  0.4373 -0.1702
 2626ntf    on518327   5.013   2.502   1.248  0.2095  0.4851  0.2564
 2626ntf    fn418328   5.286   2.517   1.382 -0.1161 -0.4049 -0.2308
 2626ntf    fn418329   5.349   2.660   1.236  0.1441  0.1233  0.0946
 2626ntf    fn418330   5.183   2.706   1.369  0.3426 -0.1705  0.2817
 2627ntf    cn118331   6.446   3.246   3.031 -0.0550 -0.1580  0.0026
 2627ntf    sn218332   6.316   3.124   3.069 -0.1292 -0.1951 -0.3664
 2627ntf    nn318333   6.376   3.069   3.203 -0.0590  0.3859 -0.1563
 2627ntf    sn218334   6.348   2.929   3.268  0.3556  0.1826 -0.4074
 2627ntf    cn118335   6.201   2.975   3.365  0.6596 -0.0365  0.1614
 2627ntf    fn418336   6.425   3.315   2.920 -0.4371 -0.1338  0.0889
 2627ntf    fn418337   6.461   3.328   3.133 -0.8398 -0.1398  0.1134
 2627ntf    fn418338   6.562   3.190   3.002  0.0065  0.2144 -0.4836
 2627ntf    on518339   6.193   3.200   3.079 -0.4876 -0.8891  0.5423
 2627ntf    on518340   6.325   3.032   2.958  0.5281 -0.2858 -0.2387
 2627ntf    on518341   6.445   2.899   3.370  0.0331  0.5008 -0.0019
 2627ntf    on518342   6.318   2.820   3.179  0.2142 -0.0413 -0.0872
 2627ntf    fn418343   6.158   2.877   3.443 -0.3842 -0.0414 -0.4009
 2627ntf    fn418344   6.219   3.079   3.444 -0.2909 -0.0888  0.4702
 2627ntf    fn418345   6.100   3.012   3.288  0.4358  0.0219  0.4776
 2628ntf    cn118346   0.307   4.528   1.605  0.2925  0.5594 -0.2702
 2628ntf    sn218347   0.300   4.350   1.644  0.5103  0.6420  0.1500
 2628ntf    nn318348   0.144   4.340   1.655  0.4781  0.0609 -0.7506
 2628ntf    sn218349   0.041   4.334   1.537 -0.2227 -0.2749 -0.1291
 2628ntf    cn118350  -0.056   4.484   1.572 -0.0396 -0.0406 -0.6206
 2628ntf    fn418351   0.431   4.570   1.583  0.6305 -0.3618 -0.1604
 2628ntf    fn418352   0.228   4.556   1.503 -0.3214 -0.2096 -0.0184
 2628ntf    fn418353   0.260   4.600   1.706  0.2182  0.0493  0.0620
 2628ntf    on518354   0.360   4.296   1.524 -0.1362 -0.6502  0.3937
 2628ntf    on518355   0.357   4.343   1.776  0.9817  0.1775 -0.0746
 2628ntf    on518356  -0.050   4.224   1.555 -0.0880 -0.3322  0.2046
 2628ntf    on518357   0.090   4.346   1.402  0.6295 -0.4840  0.1540
 2628ntf    fn418358   0.022   4.591   1.572  0.3236 -0.2929  0.3004
 2628ntf    fn418359  -0.150   4.511   1.483 -0.4446  0.2357 -0.1131
 2628ntf    fn418360  -0.115   4.482   1.690  0.6416  0.0000 -0.2718
 2629ntf    cn118361   5.235   0.423   6.127 -0.2572 -0.5447 -0.0974
 2629ntf    sn218362   5.142   0.364   5.982 -0.1014 -0.0247 -0.4167
 2629ntf    nn318363   5.029   0.274   6.045  0.1285  0.1292  0.2297
 2629ntf    sn218364   4.887   0.320   6.094  0.1163  0.0878  0.2335
 2629ntf    cn118365   4.799   0.298   5.936  0.1992 -0.3053  0.2396
 2629ntf    fn418366   5.284   0.331   6.208  0.2346  0.0690  0.3086
 2629ntf    fn418367   5.339   0.494   6.084 -0.4700  0.2525  0.6750
 2629ntf    fn418368   5.165   0.498   6.211  0.2126 -0.0141 -0.1708
 2629ntf    on518369   5.111   0.492   5.925  0.6177  0.7179  0.8255
 2629ntf    on518370   5.237   0.291   5.901  0.4220  0.6212 -0.3895
 2629ntf    on518371   4.871   0.457   6.137  0.4178  0.2186 -0.0611
 2629ntf    on518372   4.831   0.218   6.179  0.7089  0.2305  0.8069
 2629ntf    fn418373   4.847   0.388   5.852 -0.5185 -0.1136  0.0213
 2629ntf    fn418374   4.814   0.180   5.880  0.7654  0.1143 -0.5076
 2629ntf    fn418375   4.668   0.318   5.944  0.2230 -0.1057  0.1380
 2630ntf    cn118376   1.532   6.217   0.526 -0.0109 -0.2783  0.1968
 2630ntf    sn218377   1.604   6.050   0.528 -0.1178 -0.3266  0.0939
 2630ntf    nn318378   1.481   5.953   0.521 -0.4495  0.0853  0.1768
 2630ntf    sn218379   1.423   5.887   0.391 -0.0728 -0.0009  0.0507
 2630ntf    cn118380   1.534   5.743   0.382  0.2094  0.2358 -0.2589
 2630ntf    fn418381   1.464   6.249   0.635  0.1308 -0.8208  0.4467
 2630ntf    fn418382   1.625   6.309   0.504 -0.1549 -0.0768  0.4283
 2630ntf    fn418383   1.456   6.221   0.417 -0.2211  0.1549  0.3567
 2630ntf    on518384   1.703   6.051   0.423  0.6371 -0.5075  0.7852
 2630ntf    on518385   1.648   6.042   0.665  0.1160  0.3684  0.0652
 2630ntf    on518386   1.448   5.963   0.272  0.1534  0.1434  0.1893
 2630ntf    on518387   1.295   5.821   0.400 -0.1848  0.1698 -0.2981
 2630ntf    fn418388   1.538   5.689   0.502 -0.8766  0.1241 -0.2647
 2630ntf    fn418389   1.485   5.644   0.309 -0.3875  0.5363 -0.2745
 2630ntf    fn418390   1.656   5.769   0.337  0.5074 -0.5329  0.0826
 2631ntf    cn118391   6.542   2.244   2.725 -0.3544 -0.5308  0.1881
 2631ntf    sn218392   6.543   2.269   2.905  0.4971 -0.0647  0.1253
 2631ntf    nn318393   6.422   2.178   2.946  0.3471  0.1042  0.0578
 2631ntf    sn218394   6.367   2.117   3.080 -0.2312 -0.1918 -0.3088
 2631ntf    cn118395   6.424   1.945   3.075  0.3253 -0.0272  0.2742
 2631ntf    fn418396   6.646   2.307   2.673 -0.7000 -0.0751  0.0425
 2631ntf    fn418397   6.558   2.118   2.687  0.6159 -0.1178 -0.8220
 2631ntf    fn418398   6.435   2.298   2.670 -0.0961  0.0870  0.2801
 2631ntf    on518399   6.669   2.210   2.945  0.5834  0.1311  0.1407
 2631ntf    on518400   6.532   2.409   2.936  0.5400 -0.0429  0.0407
 2631ntf    on518401   6.223   2.121   3.081 -0.2378 -0.3021 -0.6092
 2631ntf    on518402   6.433   2.170   3.197 -0.4470  0.2956 -0.4048
 2631ntf    fn418403   6.548   1.941   3.120  0.2775  0.4716  0.4537
 2631ntf    fn418404   6.353   1.860   3.149  0.1709  0.1629  0.3456
 2631ntf    fn418405   6.417   1.901   2.951 -0.0633  0.0811  0.2566
 2632ntf    cn118406   4.626   0.444   5.446 -0.1442  0.2323 -0.2974
 2632ntf    sn218407   4.581   0.616   5.410 -0.1995  0.2861  0.0324
 2632ntf    nn318408   4.434   0.606   5.355 -0.3582 -0.2639  0.5393
 2632ntf    sn218409   4.391   0.560   5.211  0.0122  0.1537  0.2933
 2632ntf    cn118410   4.378   0.720   5.126 -0.3346  0.0904  0.2262
 2632ntf    fn418411   4.634   0.374   5.333 -0.3423  0.2784 -0.3403
 2632ntf    fn418412   4.742   0.446   5.509 -0.2576 -0.4662 -0.0498
 2632ntf    fn418413   4.538   0.382   5.524  0.1713 -0.0365 -0.1558
 2632ntf    on518414   4.580   0.688   5.535  0.2936  0.4025 -0.0286
 2632ntf    on518415   4.682   0.653   5.314 -0.2872  0.4356 -0.0031
 2632ntf    on518416   4.255   0.514   5.219  0.0825 -0.0352  0.3884
 2632ntf    on518417   4.483   0.471   5.144 -0.1455 -0.1335  0.4590
 2632ntf    fn418418   4.332   0.704   5.003  0.8225 -0.3221 -0.1713
 2632ntf    fn418419   4.287   0.795   5.185 -0.5598 -0.0034 -0.0019
 2632ntf    fn418420   4.493   0.785   5.117 -0.0910 -0.4332 -0.5338
 2633ntf    cn118421   5.618   4.591   1.018 -0.3519 -0.3009 -0.3575
 2633ntf    sn218422   5.749   4.468   1.039 -0.0060  0.1032 -0.1379
 2633ntf    nn318423   5.867   4.559   0.988 -0.0168  0.0952 -0.1783
 2633ntf    sn218424   5.998   4.526   0.908 -0.0026  0.0980 -0.1556
 2633ntf    cn118425   6.106   4.656   0.976  0.0379  0.1632 -0.3455
 2633ntf    fn418426   5.651   4.713   1.058 -0.5660 -0.2590 -0.3055
 2633ntf    fn418427   5.588   4.610   0.891 -0.3526 -0.3800 -0.3693
 2633ntf    fn418428   5.508   4.562   1.086  0.1882  0.2489  0.7727
 2633ntf    on518429   5.750   4.434   1.179 -0.6038  0.4998 -0.0395
 2633ntf    on518430   5.707   4.364   0.949  0.2171 -0.6382  0.6029
 2633ntf    on518431   5.982   4.553   0.767 -0.5660 -0.2518 -0.1602
 2633ntf    on518432   6.062   4.401   0.943 -0.1554  0.0183 -0.1587
 2633ntf    fn418433   6.235   4.636   0.954  0.2749  1.1609  0.0906
 2633ntf    fn418434   6.081   4.777   0.929  0.3523  0.2730 -0.2285
 2633ntf    fn418435   6.089   4.674   1.105  0.8810  0.8460 -0.3239
 2634ntf    cn118436   4.326   2.542   1.899  0.3828 -0.0727 -0.0057
 2634ntf    sn218437   4.412   2.586   1.745  0.1889  0.1466 -0.0520
 2634ntf    nn318438   4.478   2.721   1.789  0.0085  0.2913 -0.2220
 2634ntf    sn218439   4.601   2.784   1.715  0.0845  0.2605 -0.1224
 2634ntf    cn118440   4.512   2.928   1.650 -0.1989  0.0700 -0.1602
 2634ntf    fn418441   4.224   2.623   1.924  0.3254 -0.1046 -0.1349
 2634ntf    fn418442   4.282   2.418   1.898  0.1993 -0.0063 -0.3499
 2634ntf    fn418443   4.404   2.542   2.006  0.6207 -0.1372 -0.1774
 2634ntf    on518444   4.492   2.470   1.715  0.1814  0.2049 -0.3071
 2634ntf    on518445   4.298   2.616   1.662 -0.1385 -0.2723  0.2433
 2634ntf    on518446   4.663   2.718   1.603 -0.3703  0.1365 -0.3043
 2634ntf    on518447   4.689   2.844   1.812  0.7019 -0.6889 -0.0804
 2634ntf    fn418448   4.596   3.013   1.594  0.4480  0.1457  0.8987
 2634ntf    fn418449   4.413   2.906   1.565 -0.2997 -0.5446  0.1116
 2634ntf    fn418450   4.452   2.993   1.749  0.1323  0.0186  0.0763
 2635ntf    cn118451   2.445   3.851   3.964  0.3004 -0.1130  0.0290
 2635ntf    sn218452   2.331   3.943   3.857  0.3352 -0.0882  0.0133
 2635ntf    nn318453   2.437   3.980   3.747 -0.0909 -0.4722 -0.5333
 2635ntf    sn218454   2.413   4.067   3.618  0.6192  0.2352 -0.1960
 2635ntf    cn118455   2.477   4.224   3.684  0.2904  0.1749  0.2659
 2635ntf    fn418456   2.372   3.795   4.060  0.1628 -0.1751 -0.1110
 2635ntf    fn418457   2.501   3.758   3.888 -0.3432 -0.4010 -0.0977
 2635ntf    fn418458   2.540   3.921   4.023 -0.1056  0.5431 -0.0852
 2635ntf    on518459   2.230   3.844   3.827  0.0878  0.1239  0.1450
 2635ntf    on518460   2.291   4.049   3.946  0.6862 -0.1331  0.2252
 2635ntf    on518461   2.277   4.096   3.581  0.5099  0.4151  0.3401
 2635ntf    on518462   2.507   4.037   3.512  0.7977 -0.0942  0.0529
 2635ntf    fn418463   2.600   4.214   3.732  0.7033  0.0780 -0.7983
 2635ntf    fn418464   2.492   4.304   3.580  0.7486 -0.3216 -0.0556
 2635ntf    fn418465   2.402   4.278   3.779 -0.6333 -0.0825 -0.3075
 2636ntf    cn118466   2.741   1.382   5.222 -0.0363 -0.3486  0.2431
 2636ntf    sn218467   2.840   1.501   5.318 -0.0618 -0.1051 -0.0280
 2636ntf    nn318468   2.777   1.637   5.271  0.3051  0.0306 -0.1240
 2636ntf    sn218469   2.803   1.776   5.339  0.2056 -0.0766  0.1338
 2636ntf    cn118470   2.673   1.799   5.463  0.1781  0.2099  0.0539
 2636ntf    fn418471   2.757   1.393   5.091  0.0607 -0.5045  0.2425
 2636ntf    fn418472   2.785   1.261   5.251  0.2749 -0.2474  0.2045
 2636ntf    fn418473   2.612   1.387   5.252 -0.0798 -0.0868  0.0265
 2636ntf    on518474   2.813   1.463   5.455  0.0085 -0.4818 -0.1180
 2636ntf    on518475   2.973   1.485   5.265 -0.3289  0.5458 -0.9138
 2636ntf    on518476   2.784   1.889   5.251  0.6331 -0.2670 -0.2110
 2636ntf    on518477   2.919   1.784   5.423 -0.0326 -0.0941  0.4645
 2636ntf    fn418478   2.654   1.693   5.540 -0.4719  0.2128 -0.0943
 2636ntf    fn418479   2.702   1.900   5.544  0.1087  0.0486  0.2818
 2636ntf    fn418480   2.551   1.823   5.419  0.1143  0.3351  0.2962
 2637ntf    cn118481   2.576   3.620   1.884  0.0155 -0.0121  0.4902
 2637ntf    sn218482   2.413   3.576   1.815  0.3101 -0.4251  0.0516
 2637ntf    nn318483   2.394   3.704   1.726  0.6243  0.0081  0.6011
 2637ntf    sn218484   2.318   3.833   1.774  0.0479  0.0194 -0.3248
 2637ntf    cn118485   2.141   3.797   1.747 -0.0858  0.1897  0.3013
 2637ntf    fn418486   2.577   3.745   1.928  0.4437  0.2806 -0.3424
 2637ntf    fn418487   2.626   3.538   1.975  0.5349  0.0844  0.2956
 2637ntf    fn418488   2.667   3.631   1.790 -0.0650 -0.6140  0.3343
 2637ntf    on518489   2.444   3.463   1.731 -0.0256 -0.7020  0.2962
 2637ntf    on518490   2.321   3.552   1.924  0.2781 -0.3781  0.0352
 2637ntf    on518491   2.342   3.947   1.689 -0.2497  0.4833  0.1989
 2637ntf    on518492   2.330   3.858   1.916 -0.4834 -0.6218 -0.1620
 2637ntf    fn418493   2.053   3.886   1.790 -0.5074 -0.2696  0.3923
 2637ntf    fn418494   2.113   3.788   1.618 -0.1731  0.0956  0.3270
 2637ntf    fn418495   2.109   3.687   1.813  0.0483 -0.4939 -0.7406
 2638ntf    cn118496   4.178   4.869   4.527  0.3283 -0.1958 -0.5287
 2638ntf    sn218497   4.278   4.988   4.621  0.1479 -0.3029 -0.1971
 2638ntf    nn318498   4.259   4.956   4.773  0.2894 -0.4694 -0.2147
 2638ntf    sn218499   4.371   4.903   4.870  0.3519 -0.0053 -0.0332
 2638ntf    cn118500   4.452   5.063   4.904  0.0819  0.0813  0.2076
 2638ntf    fn418501   4.140   4.924   4.413  0.3509  0.3736 -0.2658
 2638ntf    fn418502   4.248   4.759   4.503  0.4665 -0.0928 -0.5947
 2638ntf    fn418503   4.073   4.831   4.597  0.0268  0.3465 -0.6878
 2638ntf    on518504   4.412   4.982   4.567  0.3894  0.2115  0.3198
 2638ntf    on518505   4.214   5.112   4.584  0.3972 -0.1171 -0.0115
 2638ntf    on518506   4.477   4.820   4.818  0.5547 -0.1308  0.5776
 2638ntf    on518507   4.320   4.865   4.999 -0.8456  0.0268 -0.4808
 2638ntf    fn418508   4.382   5.142   4.983 -0.5944 -0.2068 -0.0880
 2638ntf    fn418509   4.558   5.054   4.981  0.2677  0.1420 -0.0396
 2638ntf    fn418510   4.486   5.133   4.797 -0.2641 -0.2581 -0.1347
 2639ntf    cn118511   4.242   3.380   3.362 -0.2639  0.2186 -0.0404
 2639ntf    sn218512   4.265   3.201   3.342 -0.0290  0.2469 -0.0243
 2639ntf    nn318513   4.325   3.190   3.197 -0.6868 -0.4389 -0.2488
 2639ntf    sn218514   4.455   3.117   3.149 -0.2840 -0.0860  0.2905
 2639ntf    cn118515   4.587   3.242   3.162 -0.2621 -0.0750 -0.0208
 2639ntf    fn418516   4.144   3.414   3.443 -0.3812  0.1751 -0.1630
 2639ntf    fn418517   4.352   3.434   3.411 -0.2555  0.0802  0.0919
 2639ntf    fn418518   4.216   3.444   3.249 -0.1409  0.2097 -0.0736
 2639ntf    on518519   4.354   3.171   3.452 -0.3831  0.2696  0.2716
 2639ntf    on518520   4.132   3.147   3.350  0.1846 -0.2515  0.2116
 2639ntf    on518521   4.441   3.094   3.007 -0.4695  0.3802  0.2306
 2639ntf    on518522   4.501   3.002   3.223  0.0742 -0.2823 -0.2290
 2639ntf    fn418523   4.698   3.201   3.104 -0.1782  0.2477 -0.0887
 2639ntf    fn418524   4.549   3.358   3.110  0.3222  0.1913  0.1433
 2639ntf    fn418525   4.618   3.263   3.289 -0.2500 -0.3799  0.0286
 2640ntf    cn118526   2.426   0.408   2.318  0.8739  0.4031 -0.2299
 2640ntf    sn218527   2.381   0.326   2.162 -0.0503 -0.0278  0.2520
 2640ntf    nn318528   2.443   0.182   2.174  0.0141 -0.0761 -0.6210
 2640ntf    sn218529   2.387   0.052   2.243 -0.0666  0.2786 -0.0143
 2640ntf    cn118530   2.314  -0.037   2.102  0.1489 -0.1246  0.1287
 2640ntf    fn418531   2.341   0.381   2.416  0.0020  0.4867 -0.9442
 2640ntf    fn418532   2.546   0.367   2.354  0.3259 -0.7488  0.3442
 2640ntf    fn418533   2.429   0.540   2.308  0.0089  0.4443 -0.0672
 2640ntf    on518534   2.239   0.347   2.168 -0.0112  0.3173  0.0180
 2640ntf    on518535   2.451   0.385   2.050 -0.1588  0.0261  0.2134
 2640ntf    on518536   2.278   0.076   2.334 -0.0821  0.3773 -0.0582
 2640ntf    on518537   2.499  -0.025   2.291  0.0877  0.0206 -0.7680
 2640ntf    fn418538   2.256  -0.153   2.128 -0.0866  0.0769  0.5083
 2640ntf    fn418539   2.224   0.031   2.034  0.2640  0.2962  0.3967
 2640ntf    fn418540   2.406  -0.068   2.012  0.1742  0.2159  0.0358
 2641ntf    cn118541   2.702   1.995   3.390 -0.1350 -0.3048 -0.1910
 2641ntf    sn218542   2.726   1.901   3.543  0.0724 -0.1293 -0.1155
 2641ntf    nn318543   2.824   1.996   3.620  0.1227 -0.0429 -0.2870
 2641ntf    sn218544   2.782   2.110   3.719  0.1582 -0.2334 -0.0524
 2641ntf    cn118545   2.777   2.022   3.878  0.0598  0.2305  0.2027
 2641ntf    fn418546   2.625   2.101   3.412  0.3648  0.1467 -0.5861
 2641ntf    fn418547   2.811   2.051   3.341 -0.3954  0.4172  0.0400
 2641ntf    fn418548   2.633   1.925   3.301 -0.5506  0.5442 -0.5517
 2641ntf    on518549   2.593   1.890   3.597  0.2454 -0.5258  0.2406
 2641ntf    on518550   2.793   1.776   3.516  0.2063 -0.1670  0.3855
 2641ntf    on518551   2.648   2.159   3.699  0.1295 -0.3250 -0.0863
 2641ntf    on518552   2.885   2.209   3.737 -0.2004  0.1417 -0.0454
 2641ntf    fn418553   2.788   1.892   3.857  0.3446  0.3419 -0.3593
 2641ntf    fn418554   2.884   2.048   3.951 -0.1438  0.7816  0.3142
 2641ntf    fn418555   2.664   2.044   3.945  0.0502 -0.4871  0.4302
 2642ntf    cn118556   2.854   5.091   6.628 -0.1539  0.0267  0.1911
 2642ntf    sn218557   2.936   5.072   6.467  0.0439  0.0042  0.2947
 2642ntf    nn318558   3.087   5.073   6.511  0.2054 -0.3648 -0.2456
 2642ntf    sn218559   3.184   5.196   6.503 -0.2614  0.0140 -0.0631
 2642ntf    cn118560   3.330   5.120   6.580 -0.2462  0.1079  0.0030
 2642ntf    fn418561   2.915   5.019   6.721  0.1038  0.4347  0.3414
 2642ntf    fn418562   2.856   5.211   6.683 -0.1718  0.1309 -0.0347
 2642ntf    fn418563   2.730   5.045   6.623  0.1650 -0.8550  0.1219
 2642ntf    on518564   2.902   4.942   6.414  0.0373 -0.0453  0.4200
 2642ntf    on518565   2.888   5.190   6.400 -0.0062 -0.0218  0.2847
 2642ntf    on518566   3.139   5.301   6.591 -0.5544  0.2142 -0.4477
 2642ntf    on518567   3.227   5.233   6.370  0.2122  0.2837  0.1619
 2642ntf    fn418568   3.412   5.216   6.619 -0.1340 -0.0515  0.1538
 2642ntf    fn418569   3.299   5.065   6.696  0.0772 -0.0585  0.0114
 2642ntf    fn418570   3.393   5.031   6.505  0.2765  0.1814  0.3506
 2643ntf    cn118571   3.864   4.561   4.963 -0.0892  0.0506 -0.2556
 2643ntf    sn218572   3.918   4.388   4.973  0.0813  0.1246  0.1297
 2643ntf    nn318573   4.033   4.391   4.867  0.3013 -0.1380  0.3585
 2643ntf    sn218574   4.183   4.349   4.882  0.3451 -0.0915  0.0634
 2643ntf    cn118575   4.254   4.513   4.912 -0.3910  0.2384  0.0127
 2643ntf    fn418576   3.810   4.598   4.848  0.0395 -0.0203 -0.3383
 2643ntf    fn418577   3.772   4.584   5.055  0.4100 -0.2904  0.3318
 2643ntf    fn418578   3.956   4.651   4.992  0.3204 -0.2692 -0.5676
 2643ntf    on518579   3.948   4.369   5.113  0.3404 -0.2356  0.0267
 2643ntf    on518580   3.792   4.328   4.933 -0.3096  0.4522  0.8547
 2643ntf    on518581   4.239   4.302   4.757 -0.3288 -0.1850 -0.2065
 2643ntf    on518582   4.225   4.281   5.002 -0.3432 -0.2671  0.2058
 2643ntf    fn418583   4.254   4.544   5.040 -0.4636 -0.3013  0.1432
 2643ntf    fn418584   4.378   4.524   4.866 -0.2277 -0.0068  0.3932
 2643ntf    fn418585   4.179   4.605   4.853 -0.7403 -0.0874 -0.0479
 2644ntf    cn118586   3.677   1.406   2.743  0.2381 -0.2041 -0.1705
 2644ntf    sn218587   3.808   1.459   2.628 -0.0109 -0.1637 -0.4364
 2644ntf    nn318588   3.919   1.353   2.662 -0.1523 -0.1633  0.0354
 2644ntf    sn218589   4.061   1.332   2.598 -0.1983 -0.1587 -0.0696
 2644ntf    cn118590   4.031   1.192   2.486 -0.3343 -0.3136  0.1573
 2644ntf    fn418591   3.719   1.398   2.868  0.4215  0.3754 -0.1924
 2644ntf    fn418592   3.580   1.495   2.733  0.3732 -0.0979 -0.5833
 2644ntf    fn418593   3.625   1.287   2.715 -0.1074 -0.1879  0.3876
 2644ntf    on518594   3.739   1.434   2.504 -0.1895 -0.8148 -0.2127
 2644ntf    on518595   3.824   1.599   2.656  0.1700 -0.2778  0.0289
 2644ntf    on518596   4.152   1.272   2.693  0.5796 -0.3595 -0.9265
 2644ntf    on518597   4.107   1.451   2.531 -0.7520  0.1204  0.0394
 2644ntf    fn418598   3.964   1.231   2.378 -0.4428 -0.0908  0.3055
 2644ntf    fn418599   4.144   1.141   2.439 -0.0395  0.3145  0.1634
 2644ntf    fn418600   3.964   1.094   2.544 -0.1673 -0.1992  0.5400
 2645ntf    cn118601   6.242   5.153   0.130  0.4769  0.6551  0.1606
 2645ntf    sn218602   6.410   5.082   0.139  0.1210 -0.2635 -0.3186
 2645ntf    nn318603   6.467   5.221   0.186  0.4396 -0.2890 -0.6282
 2645ntf    sn218604   6.509   5.266   0.330 -0.0603 -0.2164 -0.5040
 2645ntf    cn118605   6.408   5.417   0.338  0.2039 -0.0727  0.1989
 2645ntf    fn418606   6.201   5.217   0.239  0.2960  0.1124  0.4153
 2645ntf    fn418607   6.229   5.242   0.034 -0.3576  0.5136  0.1382
 2645ntf    fn418608   6.154   5.059   0.099  0.5520  0.5661  0.2129
 2645ntf    on518609   6.409   4.977   0.238 -0.8668 -0.2422 -0.2934
 2645ntf    on518610   6.425   5.048  -0.001  0.1208 -0.0765 -0.3644
 2645ntf    on518611   6.645   5.313   0.319  0.0990 -0.7050 -0.6440
 2645ntf    on518612   6.464   5.194   0.446 -0.3138  0.1104 -0.3997
 2645ntf    fn418613   6.432   5.492   0.444 -0.4275 -0.5838  0.7072
 2645ntf    fn418614   6.414   5.490   0.227  0.3647 -0.1801  0.1361
 2645ntf    fn418615   6.277   5.403   0.345  0.1639  0.2364  0.0926
 2646ntf    cn118616   3.335   3.559   0.053 -0.2426 -0.2189  0.2784
 2646ntf    sn218617   3.170   3.622   0.009  0.0404 -0.0804 -0.6118
 2646ntf    nn318618   3.182   3.774   0.047  0.2175 -0.1524 -0.3740
 2646ntf    sn218619   3.085   3.879   0.112  0.2058 -0.2805 -0.1848
 2646ntf    cn118620   3.063   3.989  -0.031 -0.2461 -0.0411  0.0683
 2646ntf    fn418621   3.422   3.621  -0.024 -0.3560 -0.3561  0.0392
 2646ntf    fn418622   3.370   3.585   0.178  0.9342  0.9593 -0.2738
 2646ntf    fn418623   3.349   3.430   0.027 -0.1435 -0.1428 -0.0432
 2646ntf    on518624   3.163   3.613  -0.134 -0.9089  0.3586 -0.6010
 2646ntf    on518625   3.084   3.544   0.095  0.6358  0.0985  0.1561
 2646ntf    on518626   3.147   3.961   0.213 -0.3794 -0.4086  0.2829
 2646ntf    on518627   2.950   3.835   0.136  0.0443  0.1701 -0.2663
 2646ntf    fn418628   3.004   4.101   0.010 -0.5727 -0.1974  0.0239
 2646ntf    fn418629   3.176   4.026  -0.090 -0.2508 -0.0428  0.0583
 2646ntf    fn418630   2.996   3.941  -0.134  0.0658 -0.4150  0.0379
 2647ntf    cn118631   3.921   4.271   2.446  0.2114  0.2116  0.4748
 2647ntf    sn218632   3.900   4.202   2.279  0.0783 -0.0049  0.5798
 2647ntf    nn318633   3.770   4.275   2.229 -0.0345 -0.5549  0.0618
 2647ntf    sn218634   3.633   4.218   2.180 -0.2966 -0.0766  0.2343
 2647ntf    cn118635   3.542   4.204   2.337 -0.4125  0.1579  0.1878
 2647ntf    fn418636   3.971   4.393   2.436  0.2506  0.1644  0.0940
 2647ntf    fn418637   3.812   4.266   2.522 -0.1021 -0.4678 -0.0117
 2647ntf    fn418638   4.005   4.196   2.516  0.3926  0.0477  0.0833
 2647ntf    on518639   4.011   4.265   2.211 -0.4692 -0.3946 -0.7034
 2647ntf    on518640   3.894   4.059   2.291 -0.0433 -0.1241 -0.7477
 2647ntf    on518641   3.634   4.081   2.135 -0.7193  0.1273 -0.4121
 2647ntf    on518642   3.557   4.319   2.111 -0.2537  0.0294  0.3436
 2647ntf    fn418643   3.565   4.311   2.412  0.1294  0.1332  0.0655
 2647ntf    fn418644   3.412   4.186   2.319 -0.3092  0.0659 -0.4757
 2647ntf    fn418645   3.582   4.094   2.399  0.2353  0.0909 -0.3383
 2648ntf    cn118646   3.911   3.493   4.127 -0.2828 -0.2437 -0.2795
 2648ntf    sn218647   4.073   3.419   4.090 -0.1232  0.0540 -0.1796
 2648ntf    nn318648   4.135   3.392   4.232  0.1314 -0.0949 -0.3188
 2648ntf    sn218649   4.114   3.266   4.323 -0.2062  0.4058  0.3075
 2648ntf    cn118650   4.256   3.159   4.282 -0.1961  0.3333  0.5348
 2648ntf    fn418651   3.901   3.619   4.166  0.0076 -0.4768  0.5791
 2648ntf    fn418652   3.839   3.481   4.017 -0.1792  0.1261 -0.3878
 2648ntf    fn418653   3.854   3.428   4.228 -0.1049  0.3912  0.2366
 2648ntf    on518654   4.031   3.301   4.019 -0.4725 -0.2289  0.4899
 2648ntf    on518655   4.149   3.517   4.017 -0.2067  0.1503 -0.1376
 2648ntf    on518656   3.996   3.186   4.297 -0.0317  0.2772 -0.1115
 2648ntf    on518657   4.144   3.288   4.462 -0.3102 -0.0625  0.4067
 2648ntf    fn418658   4.372   3.208   4.321 -0.1063  0.4455  0.1269
 2648ntf    fn418659   4.246   3.045   4.349  0.7329 -0.0997 -0.0520
 2648ntf    fn418660   4.260   3.133   4.153  0.7878  0.0389  0.6147
 2649ntf    cn118661   0.801   1.448   2.504 -0.0711 -0.2607  0.1239
 2649ntf    sn218662   0.822   1.271   2.473 -0.1985 -0.2263 -0.1528
 2649ntf    nn318663   0.850   1.264   2.318  0.3398 -0.7553 -0.0370
 2649ntf    sn218664   0.745   1.244   2.203  0.3351  0.4416 -0.2621
 2649ntf    cn118665   0.771   1.391   2.100 -0.2152  0.3424 -0.5444
 2649ntf    fn418666   0.795   1.470   2.635  0.5135  0.1321  0.0903
 2649ntf    fn418667   0.904   1.521   2.465 -0.1596  0.0965  0.5486
 2649ntf    fn418668   0.689   1.493   2.451 -0.3390 -0.2408  0.6980
 2649ntf    on518669   0.937   1.231   2.549 -0.2560  0.0497  0.0778
 2649ntf    on518670   0.694   1.226   2.522 -0.1888  0.3833  0.4380
 2649ntf    on518671   0.606   1.255   2.240  0.3765  0.6539 -0.1669
 2649ntf    on518672   0.776   1.141   2.107  0.1685  0.2683 -0.1337
 2649ntf    fn418673   0.734   1.492   2.178 -0.2925  0.0808 -0.2390
 2649ntf    fn418674   0.898   1.416   2.073  0.0079  0.2444  0.3704
 2649ntf    fn418675   0.707   1.396   1.984 -0.4566  0.0734 -0.4248
 2650ntf    cn118676   4.690   0.654   0.701  0.2509 -0.2405 -0.1020
 2650ntf    sn218677   4.864   0.707   0.710  0.2435 -0.2927  0.4092
 2650ntf    nn318678   4.926   0.645   0.840 -0.0194 -0.8618  0.2694
 2650ntf    sn218679   5.048   0.693   0.927 -0.2299  0.4642 -0.1405
 2650ntf    cn118680   4.956   0.752   1.073 -0.2833  0.3505 -0.1282
 2650ntf    fn418681   4.677   0.529   0.660 -0.0505 -0.2682  0.0745
 2650ntf    fn418682   4.624   0.652   0.816  0.6705 -0.1218  0.1424
 2650ntf    fn418683   4.620   0.732   0.621  0.0562 -0.3268 -0.0159
 2650ntf    on518684   4.922   0.650   0.591 -0.3512 -0.2125  0.0724
 2650ntf    on518685   4.843   0.849   0.718 -0.1756 -0.3423  0.2436
 2650ntf    on518686   5.121   0.806   0.874  0.5548 -0.1248 -0.3283
 2650ntf    on518687   5.132   0.587   0.976 -0.3750  0.3665 -0.0988
 2650ntf    fn418688   4.879   0.659   1.126  0.1406  0.0258 -0.0728
 2650ntf    fn418689   5.036   0.809   1.162 -0.2888  0.0620  0.0604
 2650ntf    fn418690   4.874   0.850   1.037 -0.2153  0.5232  0.1823
 2651ntf    cn118691   3.202   1.922   6.492 -0.2050  0.0938 -0.2185
 2651ntf    sn218692   3.273   1.769   6.425  0.1675  0.0720  0.2306
 2651ntf    nn318693   3.378   1.743   6.540  0.2717 -0.5352  0.0028
 2651ntf    sn218694   3.395   1.612   6.624  0.2573 -0.4927  0.0722
 2651ntf    cn118695   3.310   1.658   6.778 -0.3458 -0.2232 -0.3366
 2651ntf    fn418696   3.160   1.913   6.617  0.4717 -0.9904 -0.0632
 2651ntf    fn418697   3.281   2.028   6.487 -0.3173  0.1789 -0.2025
 2651ntf    fn418698   3.097   1.950   6.416 -0.3768  0.1278  0.0295
 2651ntf    on518699   3.167   1.672   6.411 -0.0259  0.0887  1.4205
 2651ntf    on518700   3.332   1.815   6.302 -0.5438  0.0707 -0.1164
 2651ntf    on518701   3.536   1.604   6.650  0.2018  0.5555  0.7865
 2651ntf    on518702   3.323   1.497   6.576  0.2012 -0.4016 -0.0628
 2651ntf    fn418703   3.178   1.651   6.768 -0.2971 -1.0145 -0.4905
 2651ntf    fn418704   3.349   1.578   6.876 -0.5289  0.7964  0.5961
 2651ntf    fn418705   3.345   1.781   6.814 -0.0567 -0.3706 -0.1138
 2652ntf    cn118706   4.686   2.586   6.097 -0.1611  0.0712  0.1755
 2652ntf    sn218707   4.858   2.555   6.148 -0.1068 -0.0477 -0.0774
 2652ntf    nn318708   4.843   2.476   6.283  0.0839  0.2499  0.1192
 2652ntf    sn218709   4.893   2.508   6.428  0.0991  0.1551  0.1349
 2652ntf    cn118710   5.051   2.418   6.411 -0.2032 -0.3602  0.0354
 2652ntf    fn418711   4.692   2.650   5.982  0.5890 -0.1402  0.0862
 2652ntf    fn418712   4.617   2.476   6.069 -0.2661  0.1376  0.1745
 2652ntf    fn418713   4.622   2.663   6.184 -0.9068 -0.1095 -0.2058
 2652ntf    on518714   4.913   2.472   6.043 -0.2477  0.1732 -0.3269
 2652ntf    on518715   4.908   2.688   6.172 -0.5117  0.0181  0.4176
 2652ntf    on518716   4.819   2.435   6.527 -0.3578  0.2388 -0.1429
 2652ntf    on518717   4.933   2.643   6.461  0.6755  0.1655 -0.5590
 2652ntf    fn418718   5.109   2.410   6.530 -0.4857  0.5384  0.2416
 2652ntf    fn418719   5.033   2.295   6.366 -0.6450 -0.3594  0.2053
 2652ntf    fn418720   5.139   2.473   6.330 -0.1600 -0.0392  0.2972
 2653ntf    cn118721   0.111   5.862   5.773  0.1286 -0.1221  0.0337
 2653ntf    sn218722   0.103   5.761   5.622 -0.0313 -0.1870  0.0856
 2653ntf    nn318723   0.214   5.845   5.550  0.4194 -0.7945  0.0567
 2653ntf    sn218724   0.228   5.838   5.393  0.2386  0.2787 -0.0149
 2653ntf    cn118725   0.101   5.948   5.325  0.1978  0.0903 -0.2405
 2653ntf    fn418726  -0.005   5.892   5.828  0.0394  0.5605 -0.5079
 2653ntf    fn418727   0.174   5.796   5.869  0.2870  0.3425  0.2525
 2653ntf    fn418728   0.176   5.975   5.747  0.1858 -0.1766 -0.0619
 2653ntf    on518729   0.154   5.629   5.653 -0.3719 -0.5490 -0.8704
 2653ntf    on518730  -0.036   5.775   5.588 -0.0797 -0.9562 -0.0573
 2653ntf    on518731   0.205   5.709   5.334  0.7017 -0.0273  0.4670
 2653ntf    on518732   0.345   5.915   5.358 -0.0127  0.6887  0.0374
 2653ntf    fn418733   0.122   5.972   5.196  0.3383 -0.1292 -0.2591
 2653ntf    fn418734  -0.029   5.919   5.326  0.1383  0.3669  0.0808
 2653ntf    fn418735   0.113   6.064   5.387  0.3230  0.0097 -0.1148
 2654ntf    cn118736   2.415   0.833   4.954  0.4761 -0.2128  0.1505
 2654ntf    sn218737   2.514   0.924   4.832  0.1682 -0.0861 -0.0045
 2654ntf    nn318738   2.599   0.801   4.783  0.1896 -0.0469 -0.0653
 2654ntf    sn218739   2.722   0.800   4.685  0.2676  0.4798  0.0238
 2654ntf    cn118740   2.633   0.775   4.529 -0.1490 -0.0977  0.3492
 2654ntf    fn418741   2.478   0.798   5.066  0.2205 -0.2682  0.2778
 2654ntf    fn418742   2.312   0.904   4.996 -0.0340 -0.4977 -0.6029
 2654ntf    fn418743   2.360   0.723   4.905 -0.1885  0.4134 -0.5216
 2654ntf    on518744   2.424   0.992   4.742 -0.1167 -0.0128  0.3324
 2654ntf    on518745   2.597   1.006   4.916 -0.6513  0.1549  0.5819
 2654ntf    on518746   2.789   0.674   4.703 -0.6060  0.0302  0.1903
 2654ntf    on518747   2.805   0.917   4.673  0.4479  0.3156 -0.3444
 2654ntf    fn418748   2.709   0.739   4.426 -0.1266  0.3872  0.1932
 2654ntf    fn418749   2.544   0.678   4.541 -0.1542 -0.1504 -0.0958
 2654ntf    fn418750   2.572   0.889   4.502  0.0514  0.0533  0.5321
 2655ntf    cn118751   5.073   2.176   0.448 -0.1774 -0.3724  0.1017
 2655ntf    sn218752   5.026   2.064   0.313  0.1381 -0.2196 -0.1364
 2655ntf    nn318753   4.891   2.128   0.264  0.2137 -0.0044 -0.0658
 2655ntf    sn218754   4.753   2.123   0.338  0.2855 -0.7299  0.0290
 2655ntf    cn118755   4.671   2.015   0.217 -0.0992  0.1617 -0.5159
 2655ntf    fn418756   5.190   2.142   0.501  0.2896  0.1738 -0.5700
 2655ntf    fn418757   5.087   2.303   0.414 -0.4570 -0.2317  0.5106
 2655ntf    fn418758   4.982   2.188   0.543  0.4610  0.0913  0.6631
 2655ntf    on518759   5.138   2.078   0.223  0.2388 -0.3382 -0.0298
 2655ntf    on518760   5.007   1.935   0.375 -0.7322  0.1994  0.4928
 2655ntf    on518761   4.680   2.247   0.329  0.4957 -0.5855  0.3079
 2655ntf    on518762   4.750   2.048   0.462 -0.7022 -0.1569  0.3642
 2655ntf    fn418763   4.735   1.900   0.206 -0.5312 -0.1033 -0.2791
 2655ntf    fn418764   4.552   1.974   0.259  0.2691 -0.7219 -0.3055
 2655ntf    fn418765   4.672   2.072   0.098 -0.1446  0.1783 -0.5083
 2656ntf    cn118766   1.786   2.148   6.563 -0.0705 -0.3378 -0.6405
 2656ntf    sn218767   1.802   2.108   6.386  0.0326  0.0073 -0.7090
 2656ntf    nn318768   1.934   2.181   6.342  0.6333 -0.4085  0.3574
 2656ntf    sn218769   1.981   2.252   6.210 -0.3596 -0.2366  0.0888
 2656ntf    cn118770   2.104   2.368   6.276 -0.1666 -0.1385 -0.4407
 2656ntf    fn418771   1.770   2.279   6.570 -0.4024 -0.3704 -0.7588
 2656ntf    fn418772   1.680   2.089   6.616 -0.1073  0.1569 -0.1484
 2656ntf    fn418773   1.887   2.121   6.644 -0.0717 -0.4326 -0.6702
 2656ntf    on518774   1.810   1.965   6.379  0.3643 -0.0078 -0.0854
 2656ntf    on518775   1.674   2.153   6.339 -0.2542 -0.0401  0.0139
 2656ntf    on518776   1.890   2.331   6.132 -0.0350 -0.2139 -0.2714
 2656ntf    on518777   2.070   2.174   6.127 -0.1162 -0.6201  0.7051
 2656ntf    fn418778   2.128   2.467   6.191  0.1125  0.2935  0.1383
 2656ntf    fn418779   2.055   2.419   6.387  0.7202  0.1108 -0.1538
 2656ntf    fn418780   2.213   2.307   6.320 -0.2152  0.0931  0.0050
 2657ntf    cn118781   1.416   5.117   4.894 -0.1892 -0.0990 -0.4537
 2657ntf    sn218782   1.560   5.033   4.969 -0.4355 -0.3503 -0.2602
 2657ntf    nn318783   1.479   4.952   5.076 -0.6334  0.0944 -0.0667
 2657ntf    sn218784   1.513   4.806   5.123  0.0141  0.1900 -0.2328
 2657ntf    cn118785   1.647   4.848   5.238 -0.0027 -0.3591 -0.0078
 2657ntf    fn418786   1.382   5.214   4.977  0.3080 -0.4034  0.1154
 2657ntf    fn418787   1.437   5.164   4.772  0.1322  0.1354 -0.3082
 2657ntf    fn418788   1.309   5.039   4.892  0.1121 -0.5127 -0.7667
 2657ntf    on518789   1.615   4.960   4.858  0.5047  0.3662 -0.2706
 2657ntf    on518790   1.642   5.134   5.030 -0.7055 -0.0633 -0.3660
 2657ntf    on518791   1.567   4.714   5.026 -0.3730 -0.3810  0.0840
 2657ntf    on518792   1.399   4.759   5.197  0.0536  0.6220  0.1035
 2657ntf    fn418793   1.723   4.745   5.270  0.0152 -0.1122  0.7814
 2657ntf    fn418794   1.729   4.939   5.189 -0.0954 -0.2106  0.1115
 2657ntf    fn418795   1.605   4.898   5.353 -0.0576 -0.4915  0.0296
 2658ntf    cn118796   5.665   2.716   6.460 -0.1784  0.2206  0.3194
 2658ntf    sn218797   5.799   2.627   6.545  0.0487  0.5743  0.3320
 2658ntf    nn318798   5.896   2.747   6.574  0.4213  0.3005  0.2202
 2658ntf    sn218799   6.050   2.757   6.543  0.3802 -0.3054 -0.1916
 2658ntf    cn118800   6.088   2.905   6.641  0.0712 -0.3037 -0.0704
 2658ntf    fn418801   5.584   2.630   6.401 -0.2387  0.3384  0.2314
 2658ntf    fn418802   5.591   2.780   6.549 -0.3948  0.0336  0.2756
 2658ntf    fn418803   5.709   2.797   6.366  0.2381  0.0476  0.3639
 2658ntf    on518804   5.729   2.572   6.659 -0.1439  0.2251  0.0472
 2658ntf    on518805   5.852   2.529   6.454  0.4762  0.6018  0.5489
 2658ntf    on518806   6.099   2.798   6.413 -0.0697  0.1435 -0.2240
 2658ntf    on518807   6.124   2.651   6.606  0.1992  0.2000  0.8816
 2658ntf    fn418808   6.211   2.896   6.689  0.1162 -0.2091 -0.1652
 2658ntf    fn418809   6.090   3.011   6.561  0.3836 -0.1825  0.0941
 2658ntf    fn418810   6.009   2.930   6.744  0.2627 -0.1594  0.0433
 2659ntf    cn118811   0.669   1.296   3.687 -0.0260 -0.5687  0.2957
 2659ntf    sn218812   0.624   1.120   3.690 -0.2174 -0.5296 -0.1376
 2659ntf    nn318813   0.745   1.077   3.781 -0.1224  0.4443  0.2055
 2659ntf    sn218814   0.766   0.951   3.872  0.1171  0.1502 -0.2549
 2659ntf    cn118815   0.942   0.911   3.851  0.2150  0.5856 -0.2726
 2659ntf    fn418816   0.801   1.307   3.680 -0.0965  0.2194  0.1475
 2659ntf    fn418817   0.624   1.366   3.584 -0.4421 -0.2573  0.6892
 2659ntf    fn418818   0.632   1.357   3.798  0.9580 -0.1616  0.4081
 2659ntf    on518819   0.491   1.127   3.746 -0.1984 -0.5743 -0.0857
 2659ntf    on518820   0.625   1.090   3.549 -0.3998  0.3290 -0.3287
 2659ntf    on518821   0.694   0.830   3.838  0.2717 -0.0499  0.1277
 2659ntf    on518822   0.760   0.989   4.010  0.1436 -0.3533 -0.1131
 2659ntf    fn418823   0.960   0.893   3.721 -0.3034 -0.7503 -0.1736
 2659ntf    fn418824   1.025   1.002   3.899  0.4891  0.0818  0.2345
 2659ntf    fn418825   0.977   0.791   3.896  0.4910  0.5708 -0.5237
 2660ntf    cn118826   0.150   3.207   0.892  0.0923 -0.0292 -0.0665
 2660ntf    sn218827   0.149   3.170   1.070 -0.2625 -0.0594 -0.0739
 2660ntf    nn318828   0.148   3.013   1.073 -0.0553 -0.0651 -0.2820
 2660ntf    sn218829   0.020   2.924   1.051 -0.1379  0.1082 -0.5137
 2660ntf    cn118830   0.018   2.845   1.215  0.0791 -0.0235 -0.5739
 2660ntf    fn418831   0.064   3.140   0.818  0.5989 -0.4925 -0.2491
 2660ntf    fn418832   0.115   3.332   0.872  0.7106  0.1982  0.2326
 2660ntf    fn418833   0.267   3.189   0.833 -0.2577 -0.5033 -0.6208
 2660ntf    on518834   0.280   3.207   1.118 -0.0568 -0.1355 -0.5704
 2660ntf    on518835   0.027   3.227   1.121 -0.1171  0.2867 -0.1123
 2660ntf    on518836   0.056   2.820   0.959 -0.2230 -0.0237 -0.3981
 2660ntf    on518837  -0.113   2.977   1.037 -0.2561 -0.1383 -0.3336
 2660ntf    fn418838  -0.021   2.925   1.314 -0.0152 -0.4895 -0.2301
 2660ntf    fn418839  -0.075   2.751   1.212 -0.0321  0.0971 -0.8871
 2660ntf    fn418840   0.128   2.779   1.247  0.0780  0.2001 -0.0910
 2661ntf    cn118841   3.884   6.362   3.209  0.2088  0.2175  0.1653
 2661ntf    sn218842   3.811   6.455   3.346 -0.4267  0.0033 -0.0249
 2661ntf    nn318843   3.823   6.351   3.462 -0.2710  0.3735  0.2922
 2661ntf    sn218844   3.893   6.352   3.603  0.1465  0.4101  0.0855
 2661ntf    cn118845   3.770   6.440   3.703 -0.1523  0.0896  0.0032
 2661ntf    fn418846   3.890   6.425   3.093 -0.5766  0.1622  0.0935
 2661ntf    fn418847   4.003   6.322   3.251 -0.2095 -0.2331  0.9298
 2661ntf    fn418848   3.814   6.252   3.185 -0.2220  0.5887 -0.3079
 2661ntf    on518849   3.894   6.573   3.349 -0.1105 -0.2034 -0.5089
 2661ntf    on518850   3.673   6.476   3.310 -0.4092 -0.2645 -0.2483
 2661ntf    on518851   4.021   6.412   3.630  0.3274  0.4016 -0.7178
 2661ntf    on518852   3.880   6.218   3.656 -0.7793  0.4591 -0.0011
 2661ntf    fn418853   3.646   6.394   3.689 -0.3362  0.3778  0.6605
 2661ntf    fn418854   3.796   6.443   3.832  0.0911  0.2052 -0.0474
 2661ntf    fn418855   3.759   6.565   3.659  0.1782  0.4238  0.8605
 2662ntf    cn118856   3.154   5.997   2.440  0.0163 -0.2583 -0.3887
 2662ntf    sn218857   3.168   6.125   2.311 -0.0994 -0.0025 -0.1480
 2662ntf    nn318858   3.186   6.254   2.399  0.0440  0.1491 -0.3984
 2662ntf    sn218859   3.304   6.283   2.498  0.0734  0.3022 -0.4790
 2662ntf    cn118860   3.388   6.414   2.404  0.2951  0.0797 -0.5906
 2662ntf    fn418861   3.072   6.027   2.539  0.0888 -0.0301 -0.3951
 2662ntf    fn418862   3.122   5.878   2.393  0.3178 -0.5361  0.1080
 2662ntf    fn418863   3.272   5.986   2.498 -0.0538  0.2908 -0.1413
 2662ntf    on518864   3.284   6.085   2.235  0.2377  0.2625  0.2211
 2662ntf    on518865   3.038   6.131   2.249 -0.1934  0.7322  0.1069
 2662ntf    on518866   3.401   6.178   2.515 -0.7482 -0.2631  0.8710
 2662ntf    on518867   3.254   6.350   2.616 -0.3086 -0.4707 -0.1942
 2662ntf    fn418868   3.450   6.361   2.300  0.6951  0.0635 -0.3465
 2662ntf    fn418869   3.305   6.506   2.359  0.0647  0.0431 -0.2442
 2662ntf    fn418870   3.481   6.488   2.463  0.6632 -0.9044  0.0881
 2663ntf    cn118871   3.050   0.306   0.624 -0.2850 -1.0077  0.3915
 2663ntf    sn218872   3.210   0.312   0.537 -0.3925  0.1457  0.2538
 2663ntf    nn318873   3.199   0.447   0.459  0.7966  0.0939 -0.0301
 2663ntf    sn218874   3.188   0.462   0.303  0.0104  0.3183  0.0385
 2663ntf    cn118875   3.019   0.526   0.284 -0.1206 -0.1545 -0.4417
 2663ntf    fn418876   3.020   0.192   0.683 -0.2903 -1.0951  0.2217
 2663ntf    fn418877   3.045   0.403   0.714  0.0988 -0.7628  0.1524
 2663ntf    fn418878   2.952   0.337   0.541  0.4913 -0.0991 -0.2072
 2663ntf    on518879   3.305   0.330   0.644  0.2640 -0.1335 -0.2745
 2663ntf    on518880   3.202   0.184   0.471  0.2221  0.1707  0.1293
 2663ntf    on518881   3.180   0.337   0.230  0.2423  0.0080  0.5382
 2663ntf    on518882   3.276   0.560   0.244  0.0178  0.0181 -0.4604
 2663ntf    fn418883   2.929   0.439   0.326  0.0841 -0.1750 -0.0391
 2663ntf    fn418884   3.002   0.641   0.349  0.0059  0.1552 -0.9541
 2663ntf    fn418885   2.994   0.553   0.157 -0.6345  0.2259 -0.2622
 2664ntf    cn118886   2.494   2.024   6.593  0.3366  0.1913  0.1152
 2664ntf    sn218887   2.539   2.065   6.764 -0.1737 -0.1491  0.3316
 2664ntf    nn318888   2.696   2.066   6.760 -0.1773 -0.2506  0.2032
 2664ntf    sn218889   2.794   2.188   6.756 -0.1533 -0.2754  0.0094
 2664ntf    cn118890   2.950   2.103   6.717  0.0379  0.1714 -0.2043
 2664ntf    fn418891   2.569   2.088   6.504 -0.0458  0.4716 -0.0078
 2664ntf    fn418892   2.514   1.900   6.552 -0.2111  0.0885  0.1547
 2664ntf    fn418893   2.371   2.056   6.559  0.2155 -0.5764 -0.1758
 2664ntf    on518894   2.478   2.195   6.785 -0.4331 -0.1561 -0.3555
 2664ntf    on518895   2.482   1.947   6.825  0.9166 -0.9363 -0.1466
 2664ntf    on518896   2.817   2.246   6.886  0.4987 -0.2239 -0.1241
 2664ntf    on518897   2.777   2.271   6.639  0.4032  0.0121  0.1270
 2664ntf    fn418898   2.999   2.011   6.798 -0.0037  0.2262 -0.1173
 2664ntf    fn418899   2.935   2.035   6.604  0.2963 -0.0647 -0.0959
 2664ntf    fn418900   3.047   2.191   6.697  0.5623 -0.3395  0.0838
 2665ntf    cn118901   4.108   1.207   6.311 -0.0345 -0.2059  0.5880
 2665ntf    sn218902   4.188   1.194   6.149 -0.3504  0.5512  0.3700
 2665ntf    nn318903   4.308   1.104   6.193 -0.9319 -0.4487 -0.0668
 2665ntf    sn218904   4.388   0.996   6.112  0.1034  0.1841  0.1014
 2665ntf    cn118905   4.555   0.991   6.185  0.2091  0.0593 -0.1449
 2665ntf    fn418906   3.976   1.214   6.316 -0.0477 -0.2514  0.3119
 2665ntf    fn418907   4.135   1.104   6.390 -0.1054 -0.8148 -0.1736
 2665ntf    fn418908   4.152   1.308   6.385  0.2556 -0.2995  0.5455
 2665ntf    on518909   4.086   1.123   6.076 -0.0184  0.1654  0.2783
 2665ntf    on518910   4.222   1.326   6.101  0.4814  0.0656 -0.4164
 2665ntf    on518911   4.414   1.028   5.974  0.3736  0.4816  0.2180
 2665ntf    on518912   4.355   0.858   6.133 -0.0308  0.1280 -0.4544
 2665ntf    fn418913   4.547   0.951   6.311  0.2669 -0.0243 -0.1678
 2665ntf    fn418914   4.636   0.909   6.122  0.0824 -0.2915  0.1440
 2665ntf    fn418915   4.607   1.113   6.190  1.0826 -0.2843 -0.6549
 2666ntf    cn118916   6.649   5.512   6.959  0.0048  0.4648  0.0603
 2666ntf    sn218917   6.689   5.603   6.806 -0.1621  0.4820  0.0265
 2666ntf    nn318918   6.775   5.489   6.741 -0.0753  0.1656  0.6850
 2666ntf    sn218919   6.932   5.480   6.737 -0.1391 -0.6162 -0.2524
 2666ntf    cn118920   6.973   5.308   6.692 -0.0824 -0.6020 -0.2521
 2666ntf    fn418921   6.550   5.569   7.025 -0.0276  0.0640  0.3641
 2666ntf    fn418922   6.608   5.391   6.926 -0.6639  0.6905  0.0354
 2666ntf    fn418923   6.749   5.506   7.046 -0.0306  0.1013  0.0783
 2666ntf    on518924   6.558   5.620   6.750 -0.3265 -0.1619  0.2017
 2666ntf    on518925   6.759   5.724   6.841  0.2472  0.2132  0.1442
 2666ntf    on518926   7.003   5.507   6.859  0.0896 -0.6981 -0.3661
 2666ntf    on518927   6.994   5.555   6.630 -0.3722 -0.3721 -0.2150
 2666ntf    fn418928   7.104   5.297   6.704  0.0861  0.3696 -1.0460
 2666ntf    fn418929   6.909   5.225   6.772  0.1809 -0.4121  0.1583
 2666ntf    fn418930   6.935   5.274   6.570 -0.5012  0.3994 -0.4101
 2667ntf    cn118931   5.166   4.782   5.953  0.1058  0.0839  0.2048
 2667ntf    sn218932   5.344   4.798   5.983  0.1007 -0.0451  0.3068
 2667ntf    nn318933   5.374   4.876   5.850  0.2503  0.1687  0.4640
 2667ntf    sn218934   5.476   4.995   5.831 -0.0486  0.3522 -0.0076
 2667ntf    cn118935   5.384   5.149   5.861 -0.2373  0.2764 -0.1952
 2667ntf    fn418936   5.081   4.771   6.054 -0.1283 -0.0481 -0.0045
 2667ntf    fn418937   5.120   4.886   5.886 -0.3802 -0.1752  0.1259
 2667ntf    fn418938   5.141   4.685   5.867 -1.0126  0.6747 -0.1600
 2667ntf    on518939   5.369   4.874   6.103  0.6215  0.1006  0.1097
 2667ntf    on518940   5.400   4.665   5.989  0.2191 -0.0031  0.1532
 2667ntf    on518941   5.515   5.019   5.694  0.1835 -0.4286 -0.0860
 2667ntf    on518942   5.581   5.000   5.929 -0.1397 -0.2338  0.1259
 2667ntf    fn418943   5.321   5.141   5.977  0.0731 -0.0436 -0.0464
 2667ntf    fn418944   5.461   5.256   5.858 -0.0120  0.1072 -0.5506
 2667ntf    fn418945   5.289   5.159   5.768  0.0666 -0.0885 -0.5522
 2668ntf    cn118946   2.986   2.760   4.941 -0.3738 -0.6415  0.3386
 2668ntf    sn218947   3.147   2.684   4.976  0.0395 -0.0201 -0.1693
 2668ntf    nn318948   3.225   2.703   4.841  0.3897 -0.2504 -0.0033
 2668ntf    sn218949   3.300   2.597   4.753 -0.3904 -0.4915 -0.3861
 2668ntf    cn118950   3.378   2.491   4.879 -0.0128  0.6012  0.3085
 2668ntf    fn418951   2.992   2.890   4.916  0.1287 -0.8132 -0.5147
 2668ntf    fn418952   2.927   2.713   4.833 -0.7621 -0.3874  0.4384
 2668ntf    fn418953   2.894   2.743   5.034 -0.3850 -0.5980  0.3359
 2668ntf    on518954   3.193   2.772   5.081  0.5290 -0.3721 -0.0838
 2668ntf    on518955   3.113   2.550   5.017  0.5537 -0.1751 -0.2426
 2668ntf    on518956   3.411   2.658   4.685 -0.6023  0.5914  0.2131
 2668ntf    on518957   3.213   2.510   4.678 -0.2065 -0.3342 -0.7819
 2668ntf    fn418958   3.501   2.466   4.838 -0.0010 -0.3126  0.8968
 2668ntf    fn418959   3.383   2.545   4.999 -0.0557  0.1801  0.5009
 2668ntf    fn418960   3.312   2.379   4.901  0.2562  0.2621 -0.5876
 2669ntf    cn118961   6.251   4.094   3.663 -0.1425  0.0946 -0.4472
 2669ntf    sn218962   6.361   4.237   3.641  0.0423  0.0515  0.1749
 2669ntf    nn318963   6.267   4.354   3.686  0.3049  0.5539 -0.5651
 2669ntf    sn218964   6.198   4.458   3.590 -0.0845  0.6820 -0.1472
 2669ntf    cn118965   6.026   4.444   3.648 -0.0203  0.1705 -0.0659
 2669ntf    fn418966   6.306   3.984   3.615 -0.1050 -0.3962  0.6933
 2669ntf    fn418967   6.218   4.069   3.789  0.1252 -0.1012 -0.4159
 2669ntf    fn418968   6.144   4.110   3.586 -0.1273  0.7484 -0.3362
 2669ntf    on518969   6.464   4.207   3.738 -0.1614 -0.1527  0.3286
 2669ntf    on518970   6.402   4.228   3.503 -0.0074 -0.0507  0.1664
 2669ntf    on518971   6.180   4.415   3.454  0.0409 -0.2418  0.1190
 2669ntf    on518972   6.237   4.594   3.616  0.9712  0.4000 -0.1947
 2669ntf    fn418973   5.938   4.490   3.561  0.1666  0.4536 -0.1069
 2669ntf    fn418974   6.004   4.317   3.678  0.8256  0.1417  0.4639
 2669ntf    fn418975   6.010   4.517   3.758 -0.0248 -0.0707  0.0945
 2670ntf    cn118976   3.371   2.944   0.181  0.3219  0.4785  0.2542
 2670ntf    sn218977   3.363   2.910   0.360  0.0187 -0.1872  0.1151
 2670ntf    nn318978   3.309   2.763   0.368 -0.3037 -0.1036 -0.4737
 2670ntf    sn218979   3.164   2.705   0.389 -0.2566 -0.1037 -0.1465
 2670ntf    cn118980   3.187   2.543   0.310 -0.5089 -0.3309  0.2493
 2670ntf    fn418981   3.425   3.062   0.152  0.3009  0.5233  0.3947
 2670ntf    fn418982   3.451   2.853   0.129  0.1803  0.2348  0.4635
 2670ntf    fn418983   3.253   2.932   0.123  0.1738 -0.4524  0.7345
 2670ntf    on518984   3.503   2.914   0.397  0.0669 -0.0935 -0.0751
 2670ntf    on518985   3.273   3.006   0.418 -0.6925 -0.3677 -0.6696
 2670ntf    on518986   3.071   2.777   0.305 -0.3562  0.1335  0.1654
 2670ntf    on518987   3.133   2.663   0.523  0.2221 -0.2983 -0.0931
 2670ntf    fn418988   3.305   2.502   0.354  0.3295  0.9320 -0.7810
 2670ntf    fn418989   3.099   2.453   0.352 -0.3147 -0.6276  0.0265
 2670ntf    fn418990   3.187   2.542   0.178  0.1334  0.1896  0.2399
 2671ntf    cn118991   0.786   5.808   6.621 -0.1944  0.5376  0.1792
 2671ntf    sn218992   0.962   5.791   6.579 -0.3055 -0.4515  0.0848
 2671ntf    nn318993   0.984   5.640   6.613  0.6120 -0.2850  0.2493
 2671ntf    sn218994   1.014   5.574   6.753  0.0481 -0.3197  0.3571
 2671ntf    cn118995   1.106   5.429   6.694  0.1346 -0.0731 -0.1191
 2671ntf    fn418996   0.712   5.718   6.558  0.5992 -0.2945  0.4119
 2671ntf    fn418997   0.768   5.791   6.751 -0.2655  0.0080  0.1043
 2671ntf    fn418998   0.735   5.924   6.582  0.4633  0.5690 -0.6178
 2671ntf    on518999   0.962   5.812   6.436 -0.0909 -0.2187  0.1173
 2671ntf    on519000   1.032   5.889   6.658 -1.0709 -0.1520  0.4010
 2671ntf    on519001   0.900   5.506   6.809  0.1617 -0.3965  0.4954
 2671ntf    on519002   1.103   5.635   6.849  0.1637 -0.1176  0.1234
 2671ntf    fn419003   1.205   5.452   6.609  0.3565  0.2622  0.2285
 2671ntf    fn419004   1.158   5.357   6.791  0.0540  0.2778  0.1862
 2671ntf    fn419005   1.028   5.342   6.631  0.4362 -0.1683 -0.3649
 2672ntf    cn119006   6.642   0.521   6.948  0.1371 -0.1777 -0.0779
 2672ntf    sn219007   6.656   0.702   6.948  0.0380 -0.1699 -0.1628
 2672ntf    nn319008   6.624   0.723   7.100 -0.4922  0.1215 -0.3145
 2672ntf    sn219009   6.503   0.799   7.166 -0.1666  0.3208  0.0583
 2672ntf    cn119010   6.598   0.894   7.288 -0.0666 -0.2301  0.4122
 2672ntf    fn419011   6.516   0.482   6.942  0.1723 -0.3552  0.3017
 2672ntf    fn419012   6.707   0.470   6.845  0.5314  0.6126 -0.2295
 2672ntf    fn419013   6.700   0.462   7.051  0.1790  0.1800  0.1079
 2672ntf    on519014   6.793   0.727   6.909  0.0284 -0.3259 -0.2988
 2672ntf    on519015   6.554   0.747   6.857 -0.3370  0.3337  0.4988
 2672ntf    on519016   6.425   0.711   7.249  0.0069  0.2568  0.1539
 2672ntf    on519017   6.431   0.898   7.089 -0.0566 -0.0467 -0.5294
 2672ntf    fn419018   6.588   0.838   7.407  0.5270 -1.0896  0.0708
 2672ntf    fn419019   6.728   0.895   7.263 -0.2304  0.0596 -0.4456
 2672ntf    fn419020   6.563   1.021   7.303 -0.0384 -0.1980  0.2060
 2673ntf    cn119021   0.572   6.998   2.580  0.2047 -0.1738  0.1025
 2673ntf    sn219022   0.515   6.825   2.572  0.0301 -0.1206  0.1961
 2673ntf    nn319023   0.483   6.797   2.723 -0.0287 -0.3477  0.1425
 2673ntf    sn219024   0.484   6.662   2.802 -0.2982 -0.4027  0.0500
 2673ntf    cn119025   0.647   6.675   2.881 -0.4946  0.1929  0.3641
 2673ntf    fn419026   0.566   7.058   2.462 -0.0088  0.0504  0.2278
 2673ntf    fn419027   0.513   7.090   2.653  0.3146  0.2548 -0.3453
 2673ntf    fn419028   0.699   7.012   2.614  0.4057 -0.2837 -0.5811
 2673ntf    on519029   0.398   6.840   2.488  0.1791  0.1356  0.0324
 2673ntf    on519030   0.629   6.762   2.511  0.3008  0.7341 -0.1926
 2673ntf    on519031   0.502   6.534   2.738  0.9756 -0.3916  0.3609
 2673ntf    on519032   0.393   6.670   2.914 -0.6102 -0.2011 -0.2140
 2673ntf    fn419033   0.654   6.784   2.956 -0.6298  0.2609  0.2793
 2673ntf    fn419034   0.680   6.575   2.961  0.8380 -0.1314 -0.5580
 2673ntf    fn419035   0.750   6.666   2.799 -0.4703 -1.2582  0.5158
 2674ntf    cn119036   6.492   6.413   6.838  0.0201 -0.0529 -0.1514
 2674ntf    sn219037   6.672   6.427   6.816 -0.0060  0.1248 -0.2606
 2674ntf    nn319038   6.672   6.472   6.666 -0.6894 -0.4588 -0.4446
 2674ntf    sn219039   6.679   6.608   6.587 -0.3257 -0.3156 -0.1696
 2674ntf    cn119040   6.554   6.582   6.457 -0.0495 -0.0608 -0.4889
 2674ntf    fn419041   6.428   6.514   6.781  0.1437  0.1819  0.1267
 2674ntf    fn419042   6.446   6.298   6.790  0.3498 -0.2268 -0.0546
 2674ntf    fn419043   6.458   6.423   6.965  0.1168 -0.3487 -0.1005
 2674ntf    on519044   6.704   6.519   6.923  0.2010 -0.1325 -0.0999
 2674ntf    on519045   6.713   6.289   6.832  0.0377  0.2404  0.6754
 2674ntf    on519046   6.809   6.620   6.526 -0.3295  0.1628 -0.0851
 2674ntf    on519047   6.632   6.721   6.662 -0.5436 -0.5828  0.0983
 2674ntf    fn419048   6.470   6.684   6.455 -0.2658 -0.2149  0.3454
 2674ntf    fn419049   6.610   6.575   6.338  0.5455  0.3874 -0.2402
 2674ntf    fn419050   6.475   6.479   6.482 -0.2064  0.1946  0.0983
 2675ntf    cn119051   1.295   5.931   1.732  0.2148 -0.2042  0.1873
 2675ntf    sn219052   1.120   5.883   1.718  0.2897 -0.3786 -0.1682
 2675ntf    nn319053   1.141   5.780   1.601 -0.3886  0.3964 -0.9903
 2675ntf    sn219054   1.060   5.647   1.582  0.1785 -0.0811 -0.1146
 2675ntf    cn119055   1.195   5.550   1.507  0.0141 -0.4760  0.0973
 2675ntf    fn419056   1.347   6.003   1.634  0.3417 -0.7167 -0.1239
 2675ntf    fn419057   1.314   5.999   1.844 -0.5356 -0.0572  0.2345
 2675ntf    fn419058   1.356   5.815   1.743 -0.1240 -0.3866  0.1738
 2675ntf    on519059   1.102   5.830   1.851  1.0527 -0.1336  0.0351
 2675ntf    on519060   1.044   5.996   1.669  0.0665 -0.5380 -0.1881
 2675ntf    on519061   0.973   5.664   1.468  0.4506 -0.0689 -0.3213
 2675ntf    on519062   1.024   5.563   1.694  0.6218 -0.5257 -0.3007
 2675ntf    fn419063   1.298   5.529   1.587  0.1797  0.2816  0.0917
 2675ntf    fn419064   1.172   5.426   1.468  0.7532 -0.3591 -0.7191
 2675ntf    fn419065   1.237   5.613   1.399 -0.3846  0.3239  0.3916
 2676ntf    cn119066   0.719   3.093   3.531 -0.2600 -0.0175 -0.0276
 2676ntf    sn219067   0.663   2.999   3.386 -0.3278  0.1183 -0.0906
 2676ntf    nn319068   0.758   3.052   3.273 -0.5967 -0.5636 -0.6452
 2676ntf    sn219069   0.733   3.175   3.179  0.1624  0.0357 -0.0767
 2676ntf    cn119070   0.685   3.073   3.037  0.3024 -0.3543  0.1556
 2676ntf    fn419071   0.706   3.225   3.532  0.7748  0.0903  0.5976
 2676ntf    fn419072   0.673   3.043   3.644 -0.6872  0.3478 -0.0353
 2676ntf    fn419073   0.848   3.069   3.544 -0.2695 -0.3392 -0.5130
 2676ntf    on519074   0.699   2.866   3.431  0.2578  0.4476  0.4416
 2676ntf    on519075   0.523   3.027   3.370 -0.4218 -0.4143 -0.2262
 2676ntf    on519076   0.852   3.242   3.131 -0.1312  0.4885 -0.1789
 2676ntf    on519077   0.619   3.259   3.207 -0.0603 -0.3669  0.2303
 2676ntf    fn419078   0.637   3.148   2.939  0.2533 -0.1163  0.3634
 2676ntf    fn419079   0.793   3.013   2.990  0.1076 -0.9765  0.4850
 2676ntf    fn419080   0.597   2.975   3.056  0.1516 -0.2147  0.1773
 2677ntf    cn119081   4.624   4.126   4.457 -0.0192  0.0419 -0.2827
 2677ntf    sn219082   4.459   4.085   4.392  0.0373 -0.4711 -0.1104
 2677ntf    nn319083   4.404   3.982   4.497 -0.1582  0.3695  0.6289
 2677ntf    sn219084   4.254   3.952   4.528 -0.1778 -0.2728 -0.0493
 2677ntf    cn119085   4.237   3.814   4.411 -0.3317 -0.3479  0.0617
 2677ntf    fn419086   4.690   4.202   4.371  0.3603  0.2165  0.1631
 2677ntf    fn419087   4.624   4.199   4.567  0.6609  0.1346 -0.3384
 2677ntf    fn419088   4.693   4.015   4.480 -0.7902 -0.2492  0.6833
 2677ntf    on519089   4.392   4.212   4.403  1.2354  0.1763 -0.0929
 2677ntf    on519090   4.489   4.054   4.254  0.2850 -0.5269 -0.0452
 2677ntf    on519091   4.152   4.050   4.499 -0.0834  0.0530  0.7031
 2677ntf    on519092   4.228   3.885   4.653  0.2268  0.2344  0.3103
 2677ntf    fn419093   4.119   3.755   4.405 -0.1957 -0.6769  0.5195
 2677ntf    fn419094   4.266   3.846   4.286 -0.4545  0.3518  0.2075
 2677ntf    fn419095   4.324   3.720   4.445  0.2683  0.1550 -0.0556
 2678ntf    cn119096   0.154   5.780   1.602 -0.3632  0.4937 -0.3282
 2678ntf    sn219097   0.161   5.626   1.505  0.2232  0.2372  0.1128
 2678ntf    nn319098   0.288   5.560   1.569 -0.0885  0.2370  0.7378
 2678ntf    sn219099   0.316   5.444   1.671  0.1649 -0.4462 -0.0995
 2678ntf    cn119100   0.468   5.365   1.608  0.1690 -0.3206 -0.2470
 2678ntf    fn419101   0.133   5.758   1.730 -0.4904 -0.3536 -0.4863
 2678ntf    fn419102   0.255   5.865   1.586  0.1105 -0.0947 -0.4966
 2678ntf    fn419103   0.054   5.857   1.562 -0.4149  0.5182 -0.1523
 2678ntf    on519104   0.031   5.575   1.542  0.2954 -0.1826 -0.2159
 2678ntf    on519105   0.174   5.666   1.367  0.4783  0.1135  0.1006
 2678ntf    on519106   0.220   5.337   1.664 -0.0419 -0.2844  0.2378
 2678ntf    on519107   0.368   5.486   1.799  0.9397  0.0796 -0.5784
 2678ntf    fn419108   0.567   5.452   1.596 -0.3113  0.3133  0.2840
 2678ntf    fn419109   0.511   5.280   1.700  0.2082  0.3879  0.3973
 2678ntf    fn419110   0.451   5.303   1.492 -0.1771 -0.5740 -0.0607
 2679ntf    cn119111   4.348   1.977   6.856 -0.5017 -0.2432  0.0691
 2679ntf    sn219112   4.341   2.041   6.686 -0.1024  0.2128  0.2210
 2679ntf    nn319113   4.187   2.071   6.677 -0.1256  0.3799  1.1513
 2679ntf    sn219114   4.119   2.209   6.646  0.0031  0.1003 -0.4517
 2679ntf    cn119115   4.022   2.162   6.500 -0.1806 -0.1606 -0.2455
 2679ntf    fn419116   4.471   1.949   6.896 -0.4445 -0.0680  0.0172
 2679ntf    fn419117   4.295   2.062   6.942  0.1918  0.2631  0.0072
 2679ntf    fn419118   4.291   1.859   6.872 -0.2483 -0.3633  0.0840
 2679ntf    on519119   4.438   2.147   6.691  0.2217 -0.0977  0.5893
 2679ntf    on519120   4.374   1.915   6.622  0.2625  0.3907  0.0543
 2679ntf    on519121   4.206   2.316   6.603  0.0418  0.3071  0.1330
 2679ntf    on519122   4.020   2.247   6.745  0.5914 -0.0104  0.1852
 2679ntf    fn419123   3.949   2.051   6.502 -0.0727 -0.2308 -0.2575
 2679ntf    fn419124   3.933   2.251   6.460 -0.0471 -0.1338 -0.4821
 2679ntf    fn419125   4.094   2.157   6.390  0.0469  0.1680 -0.1118
 2680ntf    cn119126   3.468   2.823   3.373 -0.3283  0.1320  0.1882
 2680ntf    sn219127   3.601   2.815   3.250 -0.2654 -0.0494  0.2688
 2680ntf    nn319128   3.521   2.751   3.131  0.6948  0.5608 -0.7286
 2680ntf    sn219129   3.522   2.604   3.075  0.1073  0.2000  0.1836
 2680ntf    cn119130   3.601   2.623   2.912 -0.1858 -0.0572  0.0102
 2680ntf    fn419131   3.375   2.911   3.339  0.2502  0.8209  0.3426
 2680ntf    fn419132   3.404   2.710   3.397  0.1300 -0.1350  0.1719
 2680ntf    fn419133   3.514   2.862   3.491 -0.1857 -0.0695  0.1995
 2680ntf    on519134   3.635   2.953   3.228  0.0236 -0.1332  0.1770
 2680ntf    on519135   3.696   2.733   3.321  0.0297 -0.1113 -0.1860
 2680ntf    on519136   3.396   2.553   3.026  0.0442  0.5032  0.0276
 2680ntf    on519137   3.605   2.513   3.149 -0.2546  0.3888  0.8319
 2680ntf    fn419138   3.530   2.687   2.822  0.4714  0.6419 -0.0194
 2680ntf    fn419139   3.709   2.700   2.920  0.0505 -0.3958  0.1279
 2680ntf    fn419140   3.638   2.505   2.864 -0.2632 -0.2204  0.3414
 2681ntf    cn119141   6.450   1.994   5.273  0.4839  0.0260  0.3041
 2681ntf    sn219142   6.387   2.068   5.119  0.1222  0.1023  0.4868
 2681ntf    nn319143   6.443   1.971   5.008  0.1820  0.5240  0.1457
 2681ntf    sn219144   6.542   1.975   4.886 -0.1507 -0.0258 -0.1438
 2681ntf    cn119145   6.568   1.796   4.869 -0.1808 -0.0651  0.2055
 2681ntf    fn419146   6.580   1.977   5.259  0.5486  0.4974  0.3098
 2681ntf    fn419147   6.434   2.083   5.370 -0.4637 -0.3365  0.4903
 2681ntf    fn419148   6.400   1.876   5.304  0.1849 -0.0430 -0.4171
 2681ntf    on519149   6.244   2.049   5.129 -0.0053  1.0686  0.5435
 2681ntf    on519150   6.437   2.202   5.110  0.7704 -0.1558  0.2056
 2681ntf    on519151   6.677   2.012   4.919 -0.2395  0.1325  0.0431
 2681ntf    on519152   6.486   2.028   4.764 -0.2052  0.4897  0.1008
 2681ntf    fn419153   6.458   1.731   4.834  0.0891 -0.0703 -0.6711
 2681ntf    fn419154   6.658   1.774   4.774  0.5462 -0.0304  0.8824
 2681ntf    fn419155   6.613   1.739   4.979  0.1704  0.4967  0.3570
 2682ntf    cn119156   2.810   4.184   4.293 -0.4924  0.3365 -0.0677
 2682ntf    sn219157   2.882   4.150   4.456 -0.2357 -0.1084 -0.2725
 2682ntf    nn319158   2.808   4.247   4.555 -0.3060 -0.1836 -0.2499
 2682ntf    sn219159   2.850   4.389   4.607 -0.4290 -0.1574 -0.2198
 2682ntf    cn119160   2.937   4.325   4.753 -0.3738 -0.2756 -0.3050
 2682ntf    fn419161   2.689   4.131   4.284 -0.3775 -0.0735  0.6942
 2682ntf    fn419162   2.797   4.311   4.257  0.2129  0.5759  0.5010
 2682ntf    fn419163   2.881   4.124   4.198 -0.2658  0.3291  0.1051
 2682ntf    on519164   2.846   4.012   4.480 -0.0399 -0.1710 -0.3469
 2682ntf    on519165   3.020   4.177   4.426 -0.2082 -0.3093 -0.3310
 2682ntf    on519166   2.745   4.468   4.667 -0.3983 -0.1545 -0.1707
 2682ntf    on519167   2.955   4.458   4.535 -0.0626  0.1242  0.5750
 2682ntf    fn419168   3.016   4.223   4.723  0.0101 -0.1580  0.2838
 2682ntf    fn419169   3.022   4.410   4.808 -0.5407 -0.5585  0.4047
 2682ntf    fn419170   2.864   4.285   4.856  0.2664 -0.5593  0.0419
 2683ntf    cn119171   3.988   7.021   5.901  0.0677 -0.2806 -0.0361
 2683ntf    sn219172   4.025   7.171   5.804 -0.0816 -0.2854 -0.1011
 2683ntf    nn319173   4.182   7.158   5.811 -0.1000 -0.3400  0.2473
 2683ntf    sn219174   4.292   7.243   5.884 -0.0364 -0.5219  0.3617
 2683ntf    cn119175   4.411   7.110   5.921 -0.0376 -0.5602  0.2267
 2683ntf    fn419176   4.018   7.040   6.028  0.0668 -0.1327 -0.0579
 2683ntf    fn419177   3.861   6.987   5.891  0.0524 -0.4209  0.6281
 2683ntf    fn419178   4.055   6.911   5.870  0.5599  0.1227 -0.4323
 2683ntf    on519179   3.978   7.155   5.669 -0.2905 -0.3061 -0.0260
 2683ntf    on519180   3.962   7.277   5.879 -0.8416 -0.8845  0.1149
 2683ntf    on519181   4.243   7.295   6.010  0.6090  1.0609 -0.0169
 2683ntf    on519182   4.355   7.345   5.805 -0.7948  0.0834  0.5199
 2683ntf    fn419183   4.455   7.052   5.811 -0.4067  0.1090 -0.2888
 2683ntf    fn419184   4.516   7.151   5.989 -0.0459  0.3914 -0.3024
 2683ntf    fn419185   4.349   7.010   5.981  0.4519 -0.3339  1.1272
 2684ntf    cn119186   5.561   2.042   3.770 -0.1802  0.0038  0.0298
 2684ntf    sn219187   5.579   2.206   3.695  0.2775 -0.1890 -0.2869
 2684ntf    nn319188   5.641   2.185   3.552  0.2623 -0.3197 -0.2741
 2684ntf    sn219189   5.609   2.275   3.428 -0.2898  0.0494  0.1323
 2684ntf    cn119190   5.487   2.161   3.356 -0.2343  0.1816 -0.1722
 2684ntf    fn419191   5.522   2.054   3.896 -0.6773 -0.0249 -0.1197
 2684ntf    fn419192   5.465   1.966   3.718 -0.2459  0.3332 -0.3275
 2684ntf    fn419193   5.664   1.959   3.770  0.1183  0.3726 -0.4285
 2684ntf    on519194   5.445   2.259   3.703  0.3906 -0.0137  0.5100
 2684ntf    on519195   5.671   2.277   3.780 -0.0983  0.0968 -0.1127
 2684ntf    on519196   5.705   2.276   3.321  0.0900  0.6432  0.4709
 2684ntf    on519197   5.539   2.400   3.445  0.1025  0.1723  0.9086
 2684ntf    fn419198   5.417   2.223   3.262  0.4252  0.8323 -0.2458
 2684ntf    fn419199   5.555   2.065   3.297 -0.1786  0.2100 -0.1542
 2684ntf    fn419200   5.408   2.104   3.446  0.2094 -0.5093 -0.2116
 2685ntf    cn119201   5.250   0.464   6.655  0.1160  0.0921  0.1443
 2685ntf    sn219202   5.121   0.583   6.705  0.1678  0.2636 -0.1286
 2685ntf    nn319203   5.134   0.606   6.860  0.8756 -0.2387 -0.1083
 2685ntf    sn219204   5.070   0.731   6.929 -0.0269 -0.6231 -0.2435
 2685ntf    cn119205   5.208   0.849   6.930 -0.4794 -0.0865 -0.1841
 2685ntf    fn419206   5.239   0.436   6.526  0.1311 -0.1498  0.1948
 2685ntf    fn419207   5.370   0.514   6.679  0.2110 -0.1302  0.1321
 2685ntf    fn419208   5.254   0.353   6.727  0.3219  0.2177  0.3266
 2685ntf    on519209   5.167   0.695   6.628  1.1479 -0.0018  0.0544
 2685ntf    on519210   5.002   0.515   6.660  0.0257 -0.3348  1.1117
 2685ntf    on519211   5.044   0.714   7.069  0.4150  0.6010  0.0027
 2685ntf    on519212   4.972   0.805   6.851  0.4338  0.4651  0.1919
 2685ntf    fn419213   5.321   0.784   6.957 -0.4499 -0.2471 -0.6836
 2685ntf    fn419214   5.231   0.897   6.809 -0.1658 -0.3754 -0.2415
 2685ntf    fn419215   5.182   0.951   7.009 -0.1237  0.0657 -0.2604
 2686ntf    cn119216   4.555   5.741   2.166  0.0368 -0.1333  0.1457
 2686ntf    sn219217   4.589   5.895   2.075 -0.3476 -0.1625 -0.0472
 2686ntf    nn319218   4.457   5.974   2.104 -0.0090  0.3078  0.2259
 2686ntf    sn219219   4.332   5.963   2.010  0.0058  0.4816  0.1850
 2686ntf    cn119220   4.386   6.081   1.883  0.0126 -0.0436 -0.3037
 2686ntf    fn419221   4.447   5.685   2.115  0.2342 -0.1402 -0.2719
 2686ntf    fn419222   4.655   5.654   2.157  0.0911 -0.0192 -0.3709
 2686ntf    fn419223   4.539   5.768   2.295 -0.0187  0.0518  0.0990
 2686ntf    on519224   4.705   5.943   2.146 -0.3018 -0.3992  0.0401
 2686ntf    on519225   4.619   5.849   1.942  0.0766 -0.4466  0.1429
 2686ntf    on519226   4.209   6.014   2.065 -0.0103  0.0806  0.5243
 2686ntf    on519227   4.315   5.843   1.931 -0.5382  0.8194 -0.2219
 2686ntf    fn419228   4.291   6.104   1.794  0.0494  0.2161 -0.2769
 2686ntf    fn419229   4.399   6.200   1.939 -0.3919  0.1494 -0.6150
 2686ntf    fn419230   4.493   6.060   1.808  0.0875 -0.5393 -0.0636
 2687ntf    cn119231   3.266   0.220   5.375 -0.4347  0.1968 -0.0480
 2687ntf    sn219232   3.132   0.246   5.495 -0.0909 -0.0375  0.3905
 2687ntf    nn319233   3.048   0.361   5.430  0.4651  0.1356 -0.0357
 2687ntf    sn219234   2.936   0.449   5.497  0.2662 -0.0533 -0.1184
 2687ntf    cn119235   2.985   0.615   5.440  0.4576  0.0033  0.2058
 2687ntf    fn419236   3.353   0.319   5.367 -0.3777  0.1303 -0.2559
 2687ntf    fn419237   3.336   0.111   5.405  0.4455  0.4857 -1.0002
 2687ntf    fn419238   3.215   0.207   5.254  0.0211  0.2807 -0.2536
 2687ntf    on519239   3.070   0.116   5.498  0.1160 -0.1459  0.0349
 2687ntf    on519240   3.201   0.283   5.616 -0.6916 -0.5471  0.8917
 2687ntf    on519241   2.936   0.464   5.640  0.1087  0.0657 -0.1307
 2687ntf    on519242   2.804   0.433   5.440  0.1179 -0.6582  0.3842
 2687ntf    fn419243   3.107   0.647   5.478  0.5203  0.7799 -0.6100
 2687ntf    fn419244   2.975   0.624   5.308  0.5763  0.0153  0.1982
 2687ntf    fn419245   2.899   0.705   5.485  0.1217 -0.3788  0.3362
 2688ntf    cn119246   0.953   2.880   4.339 -0.1712 -0.3209  0.1370
 2688ntf    sn219247   0.970   3.014   4.218  0.0436 -0.3473  0.1383
 2688ntf    nn319248   0.951   2.928   4.088 -0.1298 -0.2802  0.1192
 2688ntf    sn219249   1.029   2.805   4.030 -0.3062 -0.3674  0.0657
 2688ntf    cn119250   1.112   2.885   3.890 -0.1015 -0.2327  0.2639
 2688ntf    fn419251   0.951   2.922   4.465 -0.0802 -0.3189  0.1377
 2688ntf    fn419252   0.843   2.808   4.329 -0.0307 -0.4147 -0.7556
 2688ntf    fn419253   1.057   2.798   4.341 -0.0930 -0.2168  0.4242
 2688ntf    on519254   0.860   3.100   4.253  0.3125  0.1517 -0.2139
 2688ntf    on519255   1.102   3.068   4.243  0.2008 -0.7164  0.1191
 2688ntf    on519256   0.949   2.700   3.973 -0.7783  0.3316 -0.5675
 2688ntf    on519257   1.139   2.762   4.113 -0.3213 -0.1742  0.1864
 2688ntf    fn419258   1.020   2.948   3.820  0.2824 -0.5178 -0.5047
 2688ntf    fn419259   1.194   2.983   3.927 -0.3302  0.0592 -0.0026
 2688ntf    fn419260   1.178   2.811   3.803 -0.3750 -0.5346  0.3140
 2689ntf    cn119261   0.268   1.238   5.989  0.0121 -0.1892  0.1511
 2689ntf    sn219262   0.215   1.085   6.071  0.2428 -0.3656 -0.0260
 2689ntf    nn319263   0.328   0.979   6.048  0.6957 -0.0705  0.8279
 2689ntf    sn219264   0.390   0.925   5.914 -0.0340  0.0504  0.4412
 2689ntf    cn119265   0.348   0.750   5.942 -0.0238  0.0322  0.3407
 2689ntf    fn419266   0.391   1.268   6.028  0.3216 -0.0019 -0.9426
 2689ntf    fn419267   0.270   1.227   5.857 -0.5611 -0.4049  0.1600
 2689ntf    fn419268   0.194   1.345   6.013  0.1630  0.0683 -0.5073
 2689ntf    on519269   0.201   1.123   6.209  0.2585 -0.0135 -0.1223
 2689ntf    on519270   0.089   1.049   6.009  0.0909  0.1590 -0.0206
 2689ntf    on519271   0.534   0.931   5.923 -0.0279  0.1756  0.2530
 2689ntf    on519272   0.316   0.952   5.793  1.0865  0.1741 -0.2240
 2689ntf    fn419273   0.413   0.701   6.046 -0.0346 -0.0321  0.3176
 2689ntf    fn419274   0.219   0.729   5.956 -0.0809 -0.0479 -0.2543
 2689ntf    fn419275   0.375   0.679   5.834  0.1874 -0.2932  0.6059
 2690ntf    cn119276   3.917   1.586   0.207 -0.5511 -0.0703  0.0341
 2690ntf    sn219277   3.910   1.414   0.147 -0.1733 -0.0579 -0.0443
 2690ntf    nn319278   4.063   1.389   0.175 -0.0731  0.5072 -0.0633
 2690ntf    sn219279   4.171   1.314   0.088 -0.1133  0.1703  0.1762
 2690ntf    cn119280   4.153   1.146   0.154  0.3097  0.1280  0.1851
 2690ntf    fn419281   3.809   1.658   0.184 -0.6197 -0.2410 -0.1869
 2690ntf    fn419282   3.939   1.592   0.338 -0.2750  0.1009 -0.0195
 2690ntf    fn419283   4.021   1.642   0.149 -0.0941 -0.6493  0.2758
 2690ntf    on519284   3.813   1.346   0.227 -0.2634 -0.1485 -0.2299
 2690ntf    on519285   3.878   1.415   0.006 -0.2089 -0.9935 -0.0427
 2690ntf    on519286   4.303   1.354   0.130  0.0003 -0.4179  0.3873
 2690ntf    on519287   4.139   1.309  -0.052  0.1239 -0.0946  0.1311
 2690ntf    fn419288   4.232   1.060   0.092 -0.8320 -0.2906 -0.7245
 2690ntf    fn419289   4.190   1.126   0.280  0.9499 -0.3806 -0.0771
 2690ntf    fn419290   4.026   1.108   0.143  0.3296  0.3591 -0.9337
 2691ntf    cn119291   1.455   6.586   0.582  0.1219 -0.3927  0.5239
 2691ntf    sn219292   1.479   6.747   0.662  0.4698 -0.1196 -0.1180
 2691ntf    nn319293   1.379   6.749   0.783  0.3444  1.0203 -0.2223
 2691ntf    sn219294   1.398   6.709   0.934  0.3972  0.2717 -0.4240
 2691ntf    cn119295   1.432   6.872   1.005  0.1606  0.1350  0.0048
 2691ntf    fn419296   1.327   6.561   0.561  0.1948  0.0650 -0.5700
 2691ntf    fn419297   1.525   6.567   0.471  0.7155  0.2303  0.7824
 2691ntf    fn419298   1.485   6.485   0.662  0.0730 -0.0443  0.9834
 2691ntf    on519299   1.618   6.755   0.700  0.5684 -0.6279 -0.3669
 2691ntf    on519300   1.437   6.836   0.556  0.2170  0.2445  0.2839
 2691ntf    on519301   1.527   6.648   0.953 -0.1097 -0.5583  0.4527
 2691ntf    on519302   1.284   6.650   1.000  0.7790 -0.5051 -0.4387
 2691ntf    fn419303   1.350   6.962   0.951  0.2116 -0.1630 -0.5707
 2691ntf    fn419304   1.421   6.881   1.136 -0.1591 -0.0904 -0.0035
 2691ntf    fn419305   1.549   6.919   0.967  0.3140 -0.5399 -0.3652
 2692ntf    cn119306   5.293   2.993   3.783  0.2514 -0.3146 -0.2449
 2692ntf    sn219307   5.150   3.067   3.867  0.3345 -0.0999 -0.2905
 2692ntf    nn319308   5.098   3.167   3.758  0.0950  0.4898  0.3546
 2692ntf    sn219309   4.970   3.140   3.671  0.2074  0.2068  0.2761
 2692ntf    cn119310   5.006   3.248   3.529  0.0270 -0.2657 -0.1344
 2692ntf    fn419311   5.380   3.089   3.755 -0.2527  0.2770  0.1814
 2692ntf    fn419312   5.354   2.898   3.851  0.9005  0.6594  0.5596
 2692ntf    fn419313   5.259   2.938   3.667 -0.2401 -0.0782 -0.2148
 2692ntf    on519314   5.061   2.958   3.900  0.2613  0.1522  0.3502
 2692ntf    on519315   5.210   3.144   3.974 -0.7015 -0.0391  0.2586
 2692ntf    on519316   4.847   3.194   3.725  0.0695 -0.1758  0.3526
 2692ntf    on519317   4.955   3.011   3.607  0.0806  0.5692 -0.4314
 2692ntf    fn419318   4.953   3.205   3.416 -0.1044 -0.3018 -0.0591
 2692ntf    fn419319   4.961   3.370   3.554 -0.2071 -0.4278  0.2463
 2692ntf    fn419320   5.135   3.271   3.505 -0.0500  0.4285  0.0886
 2693ntf    cn119321   6.805   6.426   5.472 -0.1222 -0.0725 -0.0695
 2693ntf    sn219322   6.643   6.504   5.499  0.1532  0.3989  0.2251
 2693ntf    nn319323   6.651   6.539   5.652  0.5588 -0.5879  0.4391
 2693ntf    sn219324   6.724   6.666   5.708  0.0595  0.0729 -0.3761
 2693ntf    cn119325   6.627   6.708   5.856  0.2674  0.2327 -0.2864
 2693ntf    fn419326   6.829   6.392   5.346  0.6093 -0.3216  0.1344
 2693ntf    fn419327   6.908   6.504   5.501 -0.4315  0.2826  0.0729
 2693ntf    fn419328   6.828   6.317   5.544 -0.6032 -0.3411 -0.3130
 2693ntf    on519329   6.633   6.609   5.401  0.3207  0.0521 -0.1699
 2693ntf    on519330   6.556   6.391   5.478  0.3587  0.2274  0.2873
 2693ntf    on519331   6.716   6.794   5.643 -0.0685  0.3754  0.2259
 2693ntf    on519332   6.857   6.634   5.755 -0.3340 -0.8061  0.1774
 2693ntf    fn419333   6.625   6.615   5.950 -0.0615 -0.1323 -0.6548
 2693ntf    fn419334   6.666   6.819   5.917 -0.7603  0.2876  0.2833
 2693ntf    fn419335   6.498   6.724   5.832  0.1010  0.4710  0.7003
 2694ntf    cn119336   4.980   4.086   1.648 -0.1326 -0.3537  0.0837
 2694ntf    sn219337   5.088   4.229   1.615 -0.1319 -0.2750  0.4244
 2694ntf    nn319338   5.206   4.183   1.709  0.1365  0.2008  0.3246
 2694ntf    sn219339   5.321   4.079   1.683 -0.0810 -0.0258  0.2614
 2694ntf    cn119340   5.460   4.189   1.644 -0.2748  0.0540 -0.2134
 2694ntf    fn419341   5.039   3.972   1.618  0.3000 -0.1352  0.0823
 2694ntf    fn419342   4.944   4.083   1.776 -0.4116  0.3388  0.0289
 2694ntf    fn419343   4.865   4.103   1.586 -0.0497  0.3663  0.1111
 2694ntf    on519344   5.109   4.222   1.473 -0.0063  0.2201  0.4183
 2694ntf    on519345   5.019   4.346   1.664  0.1399  0.1380 -0.1679
 2694ntf    on519346   5.307   4.002   1.562 -0.2746 -0.3154  0.4664
 2694ntf    on519347   5.358   4.008   1.802  0.1913  0.0601  0.2278
 2694ntf    fn419348   5.481   4.284   1.734 -0.5107 -0.1897  0.0992
 2694ntf    fn419349   5.580   4.134   1.641 -0.1734  0.2883 -0.5217
 2694ntf    fn419350   5.441   4.256   1.531  0.2517  0.3427 -0.1350
 2695ntf    cn119351   2.207   5.362   0.960 -0.1623 -0.3011 -0.2609
 2695ntf    sn219352   2.135   5.497   0.862 -0.1134 -0.1245 -0.0546
 2695ntf    nn319353   2.045   5.567   0.971 -0.2646 -0.2784 -0.0797
 2695ntf    sn219354   1.893   5.545   1.004 -0.2064  0.0582  0.4112
 2695ntf    cn119355   1.819   5.686   0.917  0.0863  0.1219  0.2640
 2695ntf    fn419356   2.278   5.280   0.885  0.4480  0.2368 -0.2842
 2695ntf    fn419357   2.286   5.413   1.054 -0.1997 -0.3169 -0.2205
 2695ntf    fn419358   2.114   5.288   1.018  0.0658 -0.0521  0.4385
 2695ntf    on519359   2.243   5.582   0.819 -0.3299  0.1153 -0.1284
 2695ntf    on519360   2.066   5.430   0.755  0.0868 -0.3777 -0.0267
 2695ntf    on519361   1.857   5.576   1.140 -0.5477 -0.5609  0.4647
 2695ntf    on519362   1.835   5.427   0.946 -0.1718  0.3679 -0.2666
 2695ntf    fn419363   1.903   5.789   0.919 -0.0673  0.2510  0.1410
 2695ntf    fn419364   1.791   5.665   0.790  0.1183  0.0341  0.2720
 2695ntf    fn419365   1.705   5.721   0.976  0.2041  0.7116  0.1536
 2696ntf    cn119366   5.544   6.878   1.490 -0.4397  0.0193  0.0159
 2696ntf    sn219367   5.613   6.970   1.349  0.4254 -0.1087  0.3548
 2696ntf    nn319368   5.714   7.062   1.426  0.2904  0.1574  0.2153
 2696ntf    sn219369   5.823   7.166   1.381  0.0271  0.2450 -0.2285
 2696ntf    cn119370   5.722   7.316   1.373 -0.2471  0.0736 -0.0230
 2696ntf    fn419371   5.450   6.792   1.455  0.0783 -0.2828 -0.6570
 2696ntf    fn419372   5.634   6.809   1.557 -0.0161  0.2985 -0.2596
 2696ntf    fn419373   5.490   6.964   1.575  0.1678  0.4939 -0.0683
 2696ntf    on519374   5.669   6.863   1.269  0.0082 -0.0396 -0.0355
 2696ntf    on519375   5.503   7.041   1.289  0.5747 -0.4072 -0.2771
 2696ntf    on519376   5.871   7.152   1.246 -0.2733  0.4894 -0.3597
 2696ntf    on519377   5.919   7.197   1.484 -0.3244 -0.1881  0.2357
 2696ntf    fn419378   5.681   7.348   1.495  0.8113 -0.2369  0.4200
 2696ntf    fn419379   5.789   7.424   1.334  0.2323 -0.2560 -0.1245
 2696ntf    fn419380   5.614   7.308   1.296 -0.0111  0.5237 -0.4090
 2697ntf    cn119381   6.885   4.521   0.923  0.0776 -0.3871 -0.4415
 2697ntf    sn219382   6.752   4.411   0.979  0.0133 -0.0014  0.1654
 2697ntf    nn319383   6.671   4.408   0.845 -0.1007 -0.0598  0.2355
 2697ntf    sn219384   6.552   4.508   0.817 -0.3134 -0.4512 -0.2729
 2697ntf    cn119385   6.419   4.404   0.886 -0.5596 -0.1100 -0.2348
 2697ntf    fn419386   6.946   4.574   1.027 -0.5585 -0.0660 -0.2304
 2697ntf    fn419387   6.979   4.450   0.862  0.1346 -0.9554  0.2953
 2697ntf    fn419388   6.848   4.627   0.852  0.5101  0.4139  0.5066
 2697ntf    on519389   6.824   4.290   1.009 -0.0976 -0.0653  0.1773
 2697ntf    on519390   6.706   4.483   1.096 -0.0716  0.0624  0.0927
 2697ntf    on519391   6.529   4.526   0.676 -0.3033 -0.1731 -0.2393
 2697ntf    on519392   6.550   4.629   0.896  0.6509 -1.0743  0.7522
 2697ntf    fn419393   6.425   4.423   1.017 -0.3081  0.5489 -0.3374
 2697ntf    fn419394   6.300   4.440   0.840 -0.3238  0.6983 -0.2341
 2697ntf    fn419395   6.432   4.276   0.857 -0.1233 -0.1595  0.1668
 2698ntf    cn119396   1.717   1.506   1.869 -0.1412 -0.1252  0.5145
 2698ntf    sn219397   1.624   1.662   1.854  0.6913  0.3279 -0.0227
 2698ntf    nn319398   1.473   1.621   1.866  0.7683  0.1903  0.4824
 2698ntf    sn219399   1.342   1.702   1.896  0.3155 -0.2026 -0.4282
 2698ntf    cn119400   1.283   1.602   2.036 -0.1739 -0.3357 -0.7255
 2698ntf    fn419401   1.669   1.417   1.784  0.2552 -0.0395  0.1984
 2698ntf    fn419402   1.845   1.514   1.836 -0.3285 -0.3814 -0.3128
 2698ntf    fn419403   1.710   1.463   1.993  0.2386  0.7159  0.8399
 2698ntf    on519404   1.668   1.745   1.963  0.0062  0.0078  0.5041
 2698ntf    on519405   1.657   1.709   1.722 -0.3745 -0.1222 -0.4618
 2698ntf    on519406   1.235   1.686   1.799  0.1060 -0.6601 -0.1272
 2698ntf    on519407   1.371   1.831   1.952 -0.3697  0.0199 -0.5708
 2698ntf    fn419408   1.184   1.663   2.100 -0.1930 -0.3215 -0.7682
 2698ntf    fn419409   1.246   1.480   2.000 -0.7725 -0.4155  0.1307
 2698ntf    fn419410   1.375   1.589   2.130 -0.7376 -0.0273 -0.1174
 2699ntf    cn119411   1.446   3.931   2.033 -0.1917 -0.0764  0.2551
 2699ntf    sn219412   1.486   4.106   2.062  0.5062 -0.2258  0.2156
 2699ntf    nn319413   1.570   4.145   1.935 -0.2826  0.3304 -0.1421
 2699ntf    sn219414   1.703   4.224   1.912 -0.0991 -0.0104 -0.2592
 2699ntf    cn119415   1.661   4.303   1.754 -0.0398  0.0603 -0.2405
 2699ntf    fn419416   1.387   3.872   2.135 -0.0559 -0.2400  0.2388
 2699ntf    fn419417   1.377   3.914   1.921 -0.1363  0.5424  0.1177
 2699ntf    fn419418   1.557   3.865   2.002 -0.1310  0.1534 -0.0232
 2699ntf    on519419   1.353   4.160   2.078  0.2278 -0.7915 -0.1774
 2699ntf    on519420   1.569   4.106   2.181  0.2581 -0.2718  0.3894
 2699ntf    on519421   1.819   4.141   1.892 -0.0335 -0.0127  0.1135
 2699ntf    on519422   1.714   4.330   2.010  0.5420 -0.6809  0.4072
 2699ntf    fn419423   1.687   4.229   1.647 -0.3973  0.4931 -0.6337
 2699ntf    fn419424   1.534   4.338   1.745 -0.2187 -0.5200 -0.0408
 2699ntf    fn419425   1.736   4.412   1.745 -0.3549  0.3054  0.1225
 2700ntf    cn119426   3.875   3.187   2.166 -0.2212  0.1599  0.0673
 2700ntf    sn219427   3.712   3.110   2.191 -0.0587 -0.2333 -0.0792
 2700ntf    nn319428   3.616   3.203   2.108 -0.2321  0.2105  0.6138
 2700ntf    sn219429   3.461   3.225   2.121 -0.3556 -0.1732 -0.1465
 2700ntf    cn119430   3.457   3.389   2.200 -0.3018 -0.2203 -0.0454
 2700ntf    fn419431   3.877   3.316   2.196  1.0395  0.1905 -0.0802
 2700ntf    fn419432   3.966   3.135   2.246 -0.3057 -0.4809 -0.2481
 2700ntf    fn419433   3.921   3.170   2.043  0.4221 -0.3329  0.3723
 2700ntf    on519434   3.725   2.983   2.124 -0.2059 -0.4449  0.2920
 2700ntf    on519435   3.689   3.117   2.333  0.7357  0.0938  0.0366
 2700ntf    on519436   3.394   3.135   2.211  0.4263 -0.0533  0.5768
 2700ntf    on519437   3.409   3.246   1.988  0.0391 -0.1591 -0.3030
 2700ntf    fn419438   3.331   3.430   2.206 -0.1697  0.1309  0.3616
 2700ntf    fn419439   3.499   3.382   2.325  0.0010  0.1283 -0.1254
 2700ntf    fn419440   3.530   3.481   2.139 -0.6276 -0.3288 -0.6138
   7.03695   7.03695   7.03695
